
     Program PWSCF v.5.4.0 starts on 24Nov2016 at 11:17: 0 

     This program is part of the open-source Quantum ESPRESSO suite
     for quantum simulation of materials; please cite
         "P. Giannozzi et al., J. Phys.:Condens. Matter 21 395502 (2009);
          URL http://www.quantum-espresso.org", 
     in publications or presentations arising from this work. More details at
     http://www.quantum-espresso.org/quote

     Parallel version (MPI & OpenMP), running on      16 processor cores
     Number of MPI processes:                16
     Threads/MPI process:                     1
     R & G space division:  proc/nbgrp/npool/nimage =      16
     Waiting for input...
     Reading input from standard input
Warning: card &IONS ignored
Warning: card / ignored

     Current dimensions of program PWSCF are:
     Max number of different atomic species (ntypx) = 10
     Max number of k-points (npk) =  40000
     Max angular momentum in pseudopotentials (lmaxx) =  3

     Subspace diagonalization in iterative solution of the eigenvalue problem:
     one sub-group per band group will be used
     scalapack distributed-memory algorithm (size of sub-group:  2*  2 procs)

 
     Parallelization info
     --------------------
     sticks:   dense  smooth     PW     G-vecs:    dense   smooth      PW
     Min        1473    1473    368               105644   105644   13202
     Max        1475    1475    370               105645   105645   13204
     Sum       23581   23581   5899              1690319  1690319  211247
 


     bravais-lattice index     =            0
     lattice parameter (alat)  =      32.6866  a.u.
     unit-cell volume          =   17485.1277 (a.u.)^3
     number of atoms/cell      =           98
     number of atomic types    =            2
     number of electrons       =       392.00
     number of Kohn-Sham states=          235
     kinetic-energy cutoff     =      80.0000  Ry
     charge density cutoff     =     320.0000  Ry
     convergence threshold     =      1.0E-10
     mixing beta               =       0.7000
     number of iterations used =            8  plain     mixing
     Exchange-correlation      =  SLA  PW   PBX  PBC ( 1  4  3  4 0 0)

     celldm(1)=  32.686593  celldm(2)=   0.000000  celldm(3)=   0.000000
     celldm(4)=   0.000000  celldm(5)=   0.000000  celldm(6)=   0.000000

     crystal axes: (cart. coord. in units of alat)
               a(1) = (   1.000000   0.000000   0.000000 )  
               a(2) = (  -0.500000   0.866025   0.000000 )  
               a(3) = (   0.000000   0.000000   0.578135 )  

     reciprocal axes: (cart. coord. in units 2 pi/alat)
               b(1) = (  1.000000  0.577350  0.000000 )  
               b(2) = (  0.000000  1.154701  0.000000 )  
               b(3) = (  0.000000  0.000000  1.729700 )  


     PseudoPot. # 1 for C  read from file:
     /home/549/hxw549/Short/pseudopotentials/C.pbe-mt_gipaw.UPF
     MD5 check sum: 5ac2f21f2c440b14befe521540822c15
     Pseudo is Norm-conserving, Zval =  4.0
     Generated by new atomic code, or converted to UPF format
     Using radial grid of 1073 points,  1 beta functions with: 
                l(1) =   0

     PseudoPot. # 2 for C  read from file:
     /home/549/hxw549/Short/pseudopotentials/C.star1s-pbe-mt_gipaw.UPF
     MD5 check sum: ef0cb3dee31bd9e4ba2a832a2c716264
     Pseudo is Norm-conserving, Zval =  5.0
     Generated by new atomic code, or converted to UPF format
     Using radial grid of 1073 points,  1 beta functions with: 
                l(1) =   0

     atomic species   valence    mass     pseudopotential
        C              4.00    12.01070     C ( 1.00)
        C_h            5.00    12.01070     C ( 1.00)

      4 Sym. Ops. (no inversion) found



   Cartesian axes

     site n.     atom                  positions (alat units)
         1           C   tau(   1) = (   0.0714334   0.0412421   0.2890675  )
         2           C   tau(   2) = (   0.0000000   0.0824841   0.2890675  )
         3           C   tau(   3) = (   0.2142809   0.0412403   0.2890675  )
         4           C   tau(   4) = (   0.1428586   0.0824795   0.2890675  )
         5           C   tau(   5) = (   0.3571430   0.0412412   0.2890675  )
         6           C   tau(   6) = (   0.2857101   0.0824841   0.2890675  )
         7           C   tau(   7) = (   0.5000000   0.0412391   0.2890675  )
         8           C   tau(   8) = (   0.4285751   0.0824814   0.2890675  )
         9           C   tau(   9) = (   0.6428570   0.0412412   0.2890675  )
        10           C   tau(  10) = (   0.5714249   0.0824814   0.2890675  )
        11           C   tau(  11) = (   0.7857191   0.0412403   0.2890675  )
        12           C   tau(  12) = (   0.7142899   0.0824841   0.2890675  )
        13           C   tau(  13) = (   0.9285666   0.0412421   0.2890675  )
        14           C   tau(  14) = (   0.8571414   0.0824795   0.2890675  )
        15           C   tau(  15) = (   0.0000000   0.1649589   0.2890675  )
        16           C   tau(  16) = (  -0.0714253   0.2061929   0.2890675  )
        17           C   tau(  17) = (   0.1428556   0.1649526   0.2890675  )
        18           C   tau(  18) = (   0.0714253   0.2061929   0.2890675  )
        19           C   tau(  19) = (   0.2857153   0.1649578   0.2890675  )
        20           C   tau(  20) = (   0.2142883   0.2061901   0.2890675  )
        21           C   tau(  21) = (   0.4285692   0.1649548   0.2890675  )
        22           C   tau(  22) = (   0.3571415   0.2061958   0.2890675  )
        23           C   tau(  23) = (   0.5714308   0.1649548   0.2890675  )
        24           C   tau(  24) = (   0.5000000   0.2061896   0.2890675  )
        25           C   tau(  25) = (   0.7142847   0.1649578   0.2890675  )
        26           C   tau(  26) = (   0.6428585   0.2061958   0.2890675  )
        27           C   tau(  27) = (   0.8571444   0.1649526   0.2890675  )
        28           C   tau(  28) = (   0.7857117   0.2061901   0.2890675  )
        29           C   tau(  29) = (  -0.0714217   0.2886742   0.2890675  )
        30           C   tau(  30) = (  -0.1428556   0.3299155   0.2890675  )
        31           C   tau(  31) = (   0.0714217   0.2886742   0.2890675  )
        32           C   tau(  32) = (   0.0000000   0.3299157   0.2890675  )
        33           C   tau(  33) = (   0.2142874   0.2886743   0.2890675  )
        34           C   tau(  34) = (   0.1428556   0.3299155   0.2890675  )
        35           C   tau(  35) = (   0.3571396   0.2886744   0.2890675  )
        36           C   tau(  36) = (   0.2857185   0.3299162   0.2890675  )
        37           C   tau(  37) = (   0.5000000   0.2886751   0.2890675  )
        38           C   tau(  38) = (   0.4285654   0.3299179   0.2890675  )
        39           C   tau(  39) = (   0.6428604   0.2886744   0.2890675  )
        40           C   tau(  40) = (   0.5714346   0.3299179   0.2890675  )
        41           C   tau(  41) = (   0.7857126   0.2886743   0.2890675  )
        42           C   tau(  42) = (   0.7142815   0.3299162   0.2890675  )
        43           C   tau(  43) = (  -0.1428566   0.4123976   0.2890675  )
        44           C   tau(  44) = (  -0.2142859   0.4536323   0.2890675  )
        45           C   tau(  45) = (   0.0000000   0.4123915   0.2890675  )
        46           C   tau(  46) = (  -0.0714295   0.4536292   0.2890675  )
        47           C   tau(  47) = (   0.1428566   0.4123976   0.2890675  )
        48           C   tau(  48) = (   0.0714295   0.4536292   0.2890675  )
        49           C_h tau(  49) = (   0.2857141   0.4123931   0.2890675  )
        50           C   tau(  50) = (   0.2142859   0.4536323   0.2890675  )
        51           C   tau(  51) = (   0.4285705   0.4123962   0.2890675  )
        52           C   tau(  52) = (   0.3571434   0.4536278   0.2890675  )
        53           C   tau(  53) = (   0.5714295   0.4123962   0.2890675  )
        54           C   tau(  54) = (   0.5000000   0.4536339   0.2890675  )
        55           C   tau(  55) = (   0.7142859   0.4123931   0.2890675  )
        56           C   tau(  56) = (   0.6428566   0.4536278   0.2890675  )
        57           C   tau(  57) = (  -0.2142815   0.5361092   0.2890675  )
        58           C   tau(  58) = (  -0.2857126   0.5773511   0.2890675  )
        59           C   tau(  59) = (  -0.0714346   0.5361075   0.2890675  )
        60           C   tau(  60) = (  -0.1428604   0.5773510   0.2890675  )
        61           C   tau(  61) = (   0.0714346   0.5361075   0.2890675  )
        62           C   tau(  62) = (  -0.0000000   0.5773503   0.2890675  )
        63           C   tau(  63) = (   0.2142815   0.5361092   0.2890675  )
        64           C   tau(  64) = (   0.1428604   0.5773510   0.2890675  )
        65           C   tau(  65) = (   0.3571444   0.5361099   0.2890675  )
        66           C   tau(  66) = (   0.2857126   0.5773511   0.2890675  )
        67           C   tau(  67) = (   0.5000000   0.5361098   0.2890675  )
        68           C   tau(  68) = (   0.4285783   0.5773512   0.2890675  )
        69           C   tau(  69) = (   0.6428556   0.5361099   0.2890675  )
        70           C   tau(  70) = (   0.5714217   0.5773512   0.2890675  )
        71           C   tau(  71) = (  -0.2857117   0.6598353   0.2890675  )
        72           C   tau(  72) = (  -0.3571444   0.7010728   0.2890675  )
        73           C   tau(  73) = (  -0.1428585   0.6598296   0.2890675  )
        74           C   tau(  74) = (  -0.2142847   0.7010676   0.2890675  )
        75           C   tau(  75) = (  -0.0000000   0.6598358   0.2890675  )
        76           C   tau(  76) = (  -0.0714308   0.7010706   0.2890675  )
        77           C   tau(  77) = (   0.1428585   0.6598296   0.2890675  )
        78           C   tau(  78) = (   0.0714308   0.7010706   0.2890675  )
        79           C   tau(  79) = (   0.2857117   0.6598353   0.2890675  )
        80           C   tau(  80) = (   0.2142847   0.7010676   0.2890675  )
        81           C   tau(  81) = (   0.4285747   0.6598325   0.2890675  )
        82           C   tau(  82) = (   0.3571444   0.7010728   0.2890675  )
        83           C   tau(  83) = (   0.5714253   0.6598325   0.2890675  )
        84           C   tau(  84) = (   0.5000000   0.7010665   0.2890675  )
        85           C   tau(  85) = (  -0.3571414   0.7835459   0.2890675  )
        86           C   tau(  86) = (  -0.4285666   0.8247833   0.2890675  )
        87           C   tau(  87) = (  -0.2142899   0.7835413   0.2890675  )
        88           C   tau(  88) = (  -0.2857191   0.8247851   0.2890675  )
        89           C   tau(  89) = (  -0.0714249   0.7835440   0.2890675  )
        90           C   tau(  90) = (  -0.1428570   0.8247842   0.2890675  )
        91           C   tau(  91) = (   0.0714249   0.7835440   0.2890675  )
        92           C   tau(  92) = (   0.0000000   0.8247863   0.2890675  )
        93           C   tau(  93) = (   0.2142899   0.7835413   0.2890675  )
        94           C   tau(  94) = (   0.1428570   0.8247842   0.2890675  )
        95           C   tau(  95) = (   0.3571414   0.7835459   0.2890675  )
        96           C   tau(  96) = (   0.2857191   0.8247851   0.2890675  )
        97           C   tau(  97) = (   0.5000000   0.7835413   0.2890675  )
        98           C   tau(  98) = (   0.4285666   0.8247833   0.2890675  )

     number of k points=     1  gaussian smearing, width (Ry)=  0.1000
                       cart. coord. in units 2pi/alat
        k(    1) = (   0.0000000   0.0000000   0.0000000), wk =   2.0000000

     Dense  grid:  1690319 G-vectors     FFT dimensions: ( 192, 192, 108)

     Largest allocated arrays     est. size (Mb)     dimensions
        Kohn-Sham Wavefunctions        47.35 Mb     (   13204,  235)
        NL pseudopotentials            19.74 Mb     (   13204,   98)
        Each V/rho on FFT grid          3.94 Mb     (  258048)
        Each G-vector array             0.81 Mb     (  105645)
        G-vector shells                 0.38 Mb     (   49955)
     Largest temporary arrays     est. size (Mb)     dimensions
        Auxiliary wavefunctions       189.39 Mb     (   13204,  940)
        Each subspace H/S matrix        3.37 Mb     (     470,  470)
        Each <psi_i|beta_j> matrix      0.35 Mb     (      98,  235)
        Arrays for rho mixing          31.50 Mb     (  258048,    8)

     Initial potential from superposition of free atoms

     starting charge  342.99987, renormalised to  392.00000

     negative rho (up, down):  6.228E-06 0.000E+00
     Starting wfc are  784 randomized atomic wfcs

     total cpu time spent up to now is       24.1 secs

     Self-consistent Calculation

     iteration #  1     ecut=    80.00 Ry     beta=0.70
     Davidson diagonalization with overlap
     ethr =  1.00E-04,  avg # of iterations =  8.0

     negative rho (up, down):  4.190E-07 0.000E+00

     total cpu time spent up to now is       60.4 secs

     total energy              =   -1117.84744423 Ry
     Harris-Foulkes estimate   =   -1127.82152313 Ry
     estimated scf accuracy    <      12.82486815 Ry

     iteration #  2     ecut=    80.00 Ry     beta=0.70
     Davidson diagonalization with overlap
     ethr =  3.27E-03,  avg # of iterations = 12.0

     total cpu time spent up to now is       97.3 secs

     total energy              =   -1081.40376146 Ry
     Harris-Foulkes estimate   =   -1160.80415856 Ry
     estimated scf accuracy    <     469.05869239 Ry

     iteration #  3     ecut=    80.00 Ry     beta=0.70
     Davidson diagonalization with overlap
     ethr =  3.27E-03,  avg # of iterations =  8.0

     total cpu time spent up to now is      138.1 secs

     total energy              =   -1124.79279795 Ry
     Harris-Foulkes estimate   =   -1126.99671378 Ry
     estimated scf accuracy    <       7.69917046 Ry

     iteration #  4     ecut=    80.00 Ry     beta=0.70
     Davidson diagonalization with overlap
     ethr =  1.96E-03,  avg # of iterations =  3.0

     total cpu time spent up to now is      153.7 secs

     total energy              =   -1125.70065256 Ry
     Harris-Foulkes estimate   =   -1126.07762655 Ry
     estimated scf accuracy    <       1.51913527 Ry

     iteration #  5     ecut=    80.00 Ry     beta=0.70
     Davidson diagonalization with overlap
     ethr =  3.88E-04,  avg # of iterations =  3.0

     total cpu time spent up to now is      170.1 secs

     total energy              =   -1125.81867805 Ry
     Harris-Foulkes estimate   =   -1125.91769252 Ry
     estimated scf accuracy    <       0.40818202 Ry

     iteration #  6     ecut=    80.00 Ry     beta=0.70
     Davidson diagonalization with overlap
     ethr =  1.04E-04,  avg # of iterations =  5.0

     total cpu time spent up to now is      187.1 secs

     total energy              =   -1125.84329242 Ry
     Harris-Foulkes estimate   =   -1125.86079369 Ry
     estimated scf accuracy    <       0.08208584 Ry

     iteration #  7     ecut=    80.00 Ry     beta=0.70
     Davidson diagonalization with overlap
     ethr =  2.09E-05,  avg # of iterations =  4.0

     total cpu time spent up to now is      204.9 secs

     total energy              =   -1125.84297928 Ry
     Harris-Foulkes estimate   =   -1125.85553876 Ry
     estimated scf accuracy    <       0.03937935 Ry

     iteration #  8     ecut=    80.00 Ry     beta=0.70
     Davidson diagonalization with overlap
     ethr =  1.00E-05,  avg # of iterations =  4.0

     total cpu time spent up to now is      221.9 secs

     total energy              =   -1125.84793167 Ry
     Harris-Foulkes estimate   =   -1125.85039029 Ry
     estimated scf accuracy    <       0.00756134 Ry

     iteration #  9     ecut=    80.00 Ry     beta=0.70
     Davidson diagonalization with overlap
     ethr =  1.93E-06,  avg # of iterations =  4.0

     total cpu time spent up to now is      239.9 secs

     total energy              =   -1125.84904255 Ry
     Harris-Foulkes estimate   =   -1125.84951716 Ry
     estimated scf accuracy    <       0.00138898 Ry

     iteration # 10     ecut=    80.00 Ry     beta=0.70
     Davidson diagonalization with overlap
     ethr =  3.54E-07,  avg # of iterations =  4.0

     total cpu time spent up to now is      257.7 secs

     total energy              =   -1125.84925353 Ry
     Harris-Foulkes estimate   =   -1125.84931783 Ry
     estimated scf accuracy    <       0.00020159 Ry

     iteration # 11     ecut=    80.00 Ry     beta=0.70
     Davidson diagonalization with overlap
     ethr =  5.14E-08,  avg # of iterations =  4.0

     total cpu time spent up to now is      275.5 secs

     total energy              =   -1125.84927727 Ry
     Harris-Foulkes estimate   =   -1125.84928765 Ry
     estimated scf accuracy    <       0.00003079 Ry

     iteration # 12     ecut=    80.00 Ry     beta=0.70
     Davidson diagonalization with overlap
     ethr =  7.85E-09,  avg # of iterations =  3.0

     total cpu time spent up to now is      293.6 secs

     total energy              =   -1125.84928267 Ry
     Harris-Foulkes estimate   =   -1125.84928495 Ry
     estimated scf accuracy    <       0.00000503 Ry

     iteration # 13     ecut=    80.00 Ry     beta=0.70
     Davidson diagonalization with overlap
     ethr =  1.28E-09,  avg # of iterations =  3.0

     total cpu time spent up to now is      311.3 secs

     total energy              =   -1125.84928339 Ry
     Harris-Foulkes estimate   =   -1125.84928441 Ry
     estimated scf accuracy    <       0.00000287 Ry

     iteration # 14     ecut=    80.00 Ry     beta=0.70
     Davidson diagonalization with overlap
     ethr =  7.31E-10,  avg # of iterations =  2.0

     total cpu time spent up to now is      326.5 secs

     total energy              =   -1125.84928392 Ry
     Harris-Foulkes estimate   =   -1125.84928405 Ry
     estimated scf accuracy    <       0.00000036 Ry

     iteration # 15     ecut=    80.00 Ry     beta=0.70
     Davidson diagonalization with overlap
     ethr =  9.08E-11,  avg # of iterations =  3.0

     total cpu time spent up to now is      343.5 secs

     total energy              =   -1125.84928397 Ry
     Harris-Foulkes estimate   =   -1125.84928400 Ry
     estimated scf accuracy    <       0.00000006 Ry

     iteration # 16     ecut=    80.00 Ry     beta=0.70
     Davidson diagonalization with overlap
     ethr =  1.46E-11,  avg # of iterations =  4.0

     total cpu time spent up to now is      362.1 secs

     total energy              =   -1125.84928398 Ry
     Harris-Foulkes estimate   =   -1125.84928399 Ry
     estimated scf accuracy    <       0.00000001 Ry

     iteration # 17     ecut=    80.00 Ry     beta=0.70
     Davidson diagonalization with overlap
     ethr =  3.37E-12,  avg # of iterations =  4.0

     total cpu time spent up to now is      380.1 secs

     total energy              =   -1125.84928398 Ry
     Harris-Foulkes estimate   =   -1125.84928398 Ry
     estimated scf accuracy    <          5.1E-09 Ry

     iteration # 18     ecut=    80.00 Ry     beta=0.70
     Davidson diagonalization with overlap
     ethr =  1.31E-12,  avg # of iterations =  2.0

     total cpu time spent up to now is      395.9 secs

     total energy              =   -1125.84928398 Ry
     Harris-Foulkes estimate   =   -1125.84928398 Ry
     estimated scf accuracy    <          2.0E-09 Ry

     iteration # 19     ecut=    80.00 Ry     beta=0.70
     Davidson diagonalization with overlap
     ethr =  5.21E-13,  avg # of iterations =  3.0

     total cpu time spent up to now is      411.8 secs

     total energy              =   -1125.84928398 Ry
     Harris-Foulkes estimate   =   -1125.84928398 Ry
     estimated scf accuracy    <          2.6E-10 Ry

     iteration # 20     ecut=    80.00 Ry     beta=0.70
     Davidson diagonalization with overlap
     ethr =  1.00E-13,  avg # of iterations =  3.0

     total cpu time spent up to now is      427.8 secs

     total energy              =   -1125.84928398 Ry
     Harris-Foulkes estimate   =   -1125.84928398 Ry
     estimated scf accuracy    <          1.1E-10 Ry

     iteration # 21     ecut=    80.00 Ry     beta=0.70
     Davidson diagonalization with overlap
     ethr =  1.00E-13,  avg # of iterations =  1.0

     total cpu time spent up to now is      441.5 secs

     End of self-consistent calculation

          k = 0.0000 0.0000 0.0000 (211247 PWs)   bands (ev):

   -21.1221 -20.0459 -19.7539 -19.7539 -19.6478 -19.6478 -19.6283 -19.1735
   -18.8397 -18.8392 -18.7352 -18.7345 -18.7177 -18.4094 -18.3175 -18.3174
   -18.2678 -18.2677 -18.2527 -17.4178 -17.1087 -17.1086 -16.9440 -16.9439
   -16.9218 -16.8518 -16.8459 -16.8459 -16.8344 -16.8343 -16.8297 -16.1589
   -16.0700 -16.0698 -15.9990 -15.9988 -15.9827 -15.0989 -14.9409 -14.9408
   -14.7865 -14.7098 -14.7097 -14.6497 -14.6496 -14.6317 -14.6125 -14.6124
   -14.6083 -13.8442 -13.8441 -13.7743 -13.6151 -13.6151 -13.6125 -12.8721
   -12.8718 -12.8518 -12.7146 -12.7146 -12.7109 -12.3374 -12.3356 -12.3356
   -12.2640 -12.1699 -12.1698 -11.3031 -11.3029 -11.0360 -10.8586 -10.8583
   -10.8208 -10.8010 -10.8006 -10.7968 -10.7672 -10.7669 -10.7565 -10.6929
   -10.6928 -10.5574 -10.5568 -10.5568 -10.5563  -9.4223  -9.4221  -9.2021
    -9.1302  -9.1299  -9.1060  -8.8804  -8.8803  -8.7970  -8.6623  -8.5832
    -8.5741  -8.5741  -8.2954  -8.2951  -8.1359  -8.1119  -8.1022  -8.1022
    -8.0874  -8.0623  -8.0419  -8.0418  -8.0372  -8.0242  -8.0242  -7.7636
    -7.7636  -7.7350  -7.7347  -7.7109  -7.6787  -7.6787  -7.6605  -7.6504
    -7.6502  -7.6323  -7.2298  -7.2297  -7.1580  -7.0405  -7.0381  -7.0380
    -7.0377  -6.6659  -6.6654  -6.6440  -6.6438  -6.6016  -6.6010  -6.5868
    -6.4957  -6.4848  -6.4846  -6.4522  -6.2320  -6.2196  -6.2193  -6.1867
    -6.1774  -6.1770  -6.1716  -6.1007  -6.1006  -6.0700  -6.0700  -6.0564
    -5.7246  -5.7244  -5.6253  -5.5652  -5.5649  -5.5290  -5.1334  -4.8482
    -4.8480  -4.7384  -4.7114  -4.7111  -4.6792  -4.6626  -4.6626  -4.5701
    -4.5701  -4.5607  -4.4936  -4.4917  -4.4916  -4.4796  -4.4795  -4.4754
    -3.9106  -3.8771  -3.8770  -3.7955  -3.7952  -3.7050  -3.7045  -3.7033
    -2.9183  -2.7137  -2.7136  -2.6584  -2.6362  -2.6362  -2.3360  -2.2726
    -2.2726  -2.2557  -2.1990  -2.1990  -0.0118   0.5895   0.5895   0.6684
     0.7748   0.7749   0.7797   0.7798   0.8046   0.8235   0.8235   0.8283
     1.5632   1.7186   1.7188   1.7980   1.7983   1.7990   2.6921   2.7338
     3.1030   3.1030   3.1754   3.1756   3.1820   3.2443   3.2474   3.2476
     3.2587   3.2589   3.2619   3.2634   3.3378   3.3378   3.3945   3.3945
     3.4107   4.2756   4.6437

     the Fermi energy is    -0.9032 ev

!    total energy              =   -1125.84928398 Ry
     Harris-Foulkes estimate   =   -1125.84928398 Ry
     estimated scf accuracy    <          2.0E-11 Ry

     The total energy is the sum of the following terms:

     one-electron contribution =   -4446.14698537 Ry
     hartree contribution      =    2304.03671382 Ry
     xc contribution           =    -343.91895981 Ry
     ewald contribution        =    1360.55846938 Ry
     smearing contrib. (-TS)   =      -0.37852201 Ry

     convergence has been achieved in  21 iterations

     Writing output data file graphene.save
 
     init_run     :     21.62s CPU     23.75s WALL (       1 calls)
     electrons    :    385.46s CPU    417.67s WALL (       1 calls)

     Called by init_run:
     wfcinit      :     18.46s CPU     20.40s WALL (       1 calls)
     potinit      :      1.34s CPU      1.41s WALL (       1 calls)

     Called by electrons:
     c_bands      :    333.66s CPU    360.51s WALL (      21 calls)
     sum_band     :     44.86s CPU     48.73s WALL (      21 calls)
     v_of_rho     :      4.90s CPU      5.90s WALL (      22 calls)
     mix_rho      :      1.87s CPU      2.30s WALL (      21 calls)

     Called by c_bands:
     init_us_2    :      0.47s CPU      0.51s WALL (      43 calls)
     cegterg      :    333.29s CPU    360.08s WALL (      21 calls)

     Called by sum_band:

     Called by *egterg:
     h_psi        :    196.00s CPU    213.77s WALL (     109 calls)
     g_psi        :      1.13s CPU      1.14s WALL (      87 calls)
     cdiaghg      :     41.90s CPU     44.66s WALL (     108 calls)

     Called by h_psi:
     add_vuspsi   :      6.93s CPU      7.00s WALL (     109 calls)

     General routines
     calbec       :      7.31s CPU      7.47s WALL (     109 calls)
     fft          :      4.30s CPU      4.96s WALL (     241 calls)
     fftw         :    157.10s CPU    176.73s WALL (   31725 calls)
     davcio       :      0.05s CPU      0.68s WALL (       1 calls)
 
     Parallel routines
     fft_scatter  :     62.39s CPU     73.75s WALL (   31966 calls)
 
     PWSCF        :  6m47.48s CPU     7m22.93s WALL

 
   This run was terminated on:  11:24:23  24Nov2016            

=------------------------------------------------------------------------------=
   JOB DONE.
=------------------------------------------------------------------------------=
