mpirun: INFO: switching to OpenMPI runtime version 1.10.2

     Program PWSCF v.5.4.0 starts on  6Sep2017 at 11:13:18 

     This program is part of the open-source Quantum ESPRESSO suite
     for quantum simulation of materials; please cite
         "P. Giannozzi et al., J. Phys.:Condens. Matter 21 395502 (2009);
          URL http://www.quantum-espresso.org", 
     in publications or presentations arising from this work. More details at
     http://www.quantum-espresso.org/quote

     Parallel version (MPI & OpenMP), running on      28 processor cores
     Number of MPI processes:                28
     Threads/MPI process:                     1
     R & G space division:  proc/nbgrp/npool/nimage =      28
     Waiting for input...
     Reading input from standard input

     Current dimensions of program PWSCF are:
     Max number of different atomic species (ntypx) = 10
     Max number of k-points (npk) =  40000
     Max angular momentum in pseudopotentials (lmaxx) =  3

     -------------------------------------
     Parameters for Dispersion Correction:
     -------------------------------------
       atom      VdW radius       C_6     

        Cu         2.952        374.666
        C          2.744         60.710
        H          1.892          4.857

     Subspace diagonalization in iterative solution of the eigenvalue problem:
     one sub-group per band group will be used
     scalapack distributed-memory algorithm (size of sub-group:  3*  3 procs)

 
     Parallelization info
     --------------------
     sticks:   dense  smooth     PW     G-vecs:    dense   smooth      PW
     Min         408     408    108                73226    73226    9928
     Max         410     410    109                73231    73231    9931
     Sum       11433   11433   3039              2050409  2050409  278033
 


     bravais-lattice index     =            0
     lattice parameter (alat)  =      13.9425  a.u.
     unit-cell volume          =   21209.0878 (a.u.)^3
     number of atoms/cell      =          136
     number of atomic types    =            3
     number of electrons       =      1226.00
     number of Kohn-Sham states=          736
     kinetic-energy cutoff     =      80.0000  Ry
     charge density cutoff     =     320.0000  Ry
     convergence threshold     =      1.0E-08
     mixing beta               =       0.7000
     number of iterations used =            8  local-TF  mixing
     Exchange-correlation      =  SLA  PW   PBE  PBE ( 1  4  3  4 0 0)
     nstep                     =           50


     celldm(1)=  13.942539  celldm(2)=   0.000000  celldm(3)=   0.000000
     celldm(4)=   0.000000  celldm(5)=   0.000000  celldm(6)=   0.000000

     crystal axes: (cart. coord. in units of alat)
               a(1) = (   1.000000   0.000000   0.000000 )  
               a(2) = (   0.000000   2.309401   0.000000 )  
               a(3) = (   0.000000   0.000000   3.388418 )  

     reciprocal axes: (cart. coord. in units 2 pi/alat)
               b(1) = (  1.000000  0.000000  0.000000 )  
               b(2) = (  0.000000  0.433013  0.000000 )  
               b(3) = (  0.000000  0.000000  0.295123 )  


     PseudoPot. # 1 for Cu read from file:
     /home/549/hxw549/Short/pseudopotentials/Cu.pbe-n-van_ak.UPF
     MD5 check sum: 601f7c30f7467666bec936e0661ce3e1
     Pseudo is Ultrasoft + core correction, Zval = 11.0
     Generated by new atomic code, or converted to UPF format
     Using radial grid of  867 points,  6 beta functions with: 
                l(1) =   0
                l(2) =   0
                l(3) =   1
                l(4) =   1
                l(5) =   2
                l(6) =   2
     Q(r) pseudized with  8 coefficients,  rinner =    1.400   1.400   1.400
                                                       1.400   1.400

     PseudoPot. # 2 for C  read from file:
     /home/549/hxw549/Short/pseudopotentials/C.pbe-mt_gipaw.UPF
     MD5 check sum: 5ac2f21f2c440b14befe521540822c15
     Pseudo is Norm-conserving, Zval =  4.0
     Generated by new atomic code, or converted to UPF format
     Using radial grid of 1073 points,  1 beta functions with: 
                l(1) =   0

     PseudoPot. # 3 for H  read from file:
     /home/549/hxw549/Short/pseudopotentials/H.pbe-van_ak.UPF
     MD5 check sum: 077eb6d537518a38cb46c6de387227b7
     Pseudo is Ultrasoft, Zval =  1.0
     Generated by new atomic code, or converted to UPF format
     Using radial grid of  615 points,  1 beta functions with: 
                l(1) =   0
     Q(r) pseudized with  8 coefficients,  rinner =    0.800

     atomic species   valence    mass     pseudopotential
        Cu            11.00    63.54600     Cu( 1.00)
        C              4.00    12.01070     C ( 1.00)
        H              1.00     1.00783     H ( 1.00)

      2 Sym. Ops. (no inversion) found



   Cartesian axes

     site n.     atom                  positions (alat units)
         1           Cu  tau(   1) = (   0.0000000   0.0000567   0.9971194  )
         2           Cu  tau(   2) = (   0.2499927   0.2309760   0.9972946  )
         3           Cu  tau(   3) = (   0.5000000   0.0000313   0.9971490  )
         4           Cu  tau(   4) = (   0.7500073   0.2309760   0.9972946  )
         5           Cu  tau(   5) = (   0.0000000   0.4618437   0.9973425  )
         6           Cu  tau(   6) = (   0.2499840   0.6927701   0.9971914  )
         7           Cu  tau(   7) = (   0.5000000   0.4618722   0.9973119  )
         8           Cu  tau(   8) = (   0.7500160   0.6927701   0.9971914  )
         9           Cu  tau(   9) = (   0.0000000   0.9237521   0.9970621  )
        10           Cu  tau(  10) = (   0.2500157   1.1547420   0.9971373  )
        11           Cu  tau(  11) = (   0.5000000   0.9237453   0.9970727  )
        12           Cu  tau(  12) = (   0.7499843   1.1547420   0.9971373  )
        13           Cu  tau(  13) = (   0.0000000   1.3856555   0.9972830  )
        14           Cu  tau(  14) = (   0.2500029   1.6165618   0.9973242  )
        15           Cu  tau(  15) = (   0.5000000   1.3857014   0.9973005  )
        16           Cu  tau(  16) = (   0.7499971   1.6165618   0.9973242  )
        17           Cu  tau(  17) = (   0.0000000   1.8474941   0.9971969  )
        18           Cu  tau(  18) = (   0.2500043   2.0784518   0.9970745  )
        19           Cu  tau(  19) = (   0.5000000   1.8474499   0.9971773  )
        20           Cu  tau(  20) = (   0.7499957   2.0784518   0.9970745  )
        21           Cu  tau(  21) = (   0.0000000   0.2308065   1.2457643  )
        22           Cu  tau(  22) = (   0.2499892  -0.0001010   1.2455764  )
        23           Cu  tau(  23) = (   0.5000000   0.2308938   1.2456746  )
        24           Cu  tau(  24) = (   0.7500108  -0.0001010   1.2455764  )
        25           Cu  tau(  25) = (   0.0000000   0.6929786   1.2456406  )
        26           Cu  tau(  26) = (   0.2499874   0.4619293   1.2457459  )
        27           Cu  tau(  27) = (   0.5000000   0.6929012   1.2456074  )
        28           Cu  tau(  28) = (   0.7500126   0.4619293   1.2457459  )
        29           Cu  tau(  29) = (   0.0000000   1.1546142   1.2455676  )
        30           Cu  tau(  30) = (   0.2499981   0.9237849   1.2455149  )
        31           Cu  tau(  31) = (   0.5000000   1.1545763   1.2455800  )
        32           Cu  tau(  32) = (   0.7500019   0.9237849   1.2455149  )
        33           Cu  tau(  33) = (   0.0000000   1.6166029   1.2456910  )
        34           Cu  tau(  34) = (   0.2500161   1.3855492   1.2457134  )
        35           Cu  tau(  35) = (   0.5000000   1.6166555   1.2458019  )
        36           Cu  tau(  36) = (   0.7499839   1.3855492   1.2457134  )
        37           Cu  tau(  37) = (   0.0000000   2.0784993   1.2455162  )
        38           Cu  tau(  38) = (   0.2500161   1.8476387   1.2456210  )
        39           Cu  tau(  39) = (   0.5000000   2.0784755   1.2455152  )
        40           Cu  tau(  40) = (   0.7499839   1.8476387   1.2456210  )
        41           Cu  tau(  41) = (   0.0000000  -0.0003182   1.4954305  )
        42           Cu  tau(  42) = (   0.2500224   0.2307186   1.4951678  )
        43           Cu  tau(  43) = (   0.5000000  -0.0002059   1.4952775  )
        44           Cu  tau(  44) = (   0.7499776   0.2307186   1.4951678  )
        45           Cu  tau(  45) = (   0.0000000   0.4620254   1.4950571  )
        46           Cu  tau(  46) = (   0.2500339   0.6931225   1.4952807  )
        47           Cu  tau(  47) = (   0.5000000   0.4619896   1.4952144  )
        48           Cu  tau(  48) = (   0.7499661   0.6931225   1.4952807  )
        49           Cu  tau(  49) = (   0.0000000   0.9238798   1.4954544  )
        50           Cu  tau(  50) = (   0.2499708   1.1544329   1.4953374  )
        51           Cu  tau(  51) = (   0.5000000   0.9237633   1.4954072  )
        52           Cu  tau(  52) = (   0.7500292   1.1544329   1.4953374  )
        53           Cu  tau(  53) = (   0.0000000   1.3854453   1.4952066  )
        54           Cu  tau(  54) = (   0.2499861   1.6167017   1.4951298  )
        55           Cu  tau(  55) = (   0.5000000   1.3853760   1.4951346  )
        56           Cu  tau(  56) = (   0.7500139   1.6167017   1.4951298  )
        57           Cu  tau(  57) = (   0.0000000   1.8477718   1.4952308  )
        58           Cu  tau(  58) = (   0.2499930   2.0785254   1.4954090  )
        59           Cu  tau(  59) = (   0.5000000   1.8478762   1.4953503  )
        60           Cu  tau(  60) = (   0.7500070   2.0785254   1.4954090  )
        61           Cu  tau(  61) = (   0.0000000   0.2310733   1.7440777  )
        62           Cu  tau(  62) = (   0.2501089  -0.0001294   1.7450479  )
        63           Cu  tau(  63) = (   0.5000000   0.2306045   1.7445985  )
        64           Cu  tau(  64) = (   0.7498911  -0.0001294   1.7450479  )
        65           Cu  tau(  65) = (   0.0000000   0.6927994   1.7446059  )
        66           Cu  tau(  66) = (   0.2502918   0.4619532   1.7441197  )
        67           Cu  tau(  67) = (   0.5000000   0.6931011   1.7451318  )
        68           Cu  tau(  68) = (   0.7497082   0.4619532   1.7441197  )
        69           Cu  tau(  69) = (   0.0000000   1.1545789   1.7453503  )
        70           Cu  tau(  70) = (   0.2500220   0.9237908   1.7453835  )
        71           Cu  tau(  71) = (   0.5000000   1.1545999   1.7449118  )
        72           Cu  tau(  72) = (   0.7499780   0.9237908   1.7453835  )
        73           Cu  tau(  73) = (   0.0000000   1.6167791   1.7444075  )
        74           Cu  tau(  74) = (   0.2497438   1.3855115   1.7442733  )
        75           Cu  tau(  75) = (   0.5000000   1.6164906   1.7439233  )
        76           Cu  tau(  76) = (   0.7502562   1.3855115   1.7442733  )
        77           Cu  tau(  77) = (   0.0000000   2.0782721   1.7455014  )
        78           Cu  tau(  78) = (   0.2498426   1.8476765   1.7447807  )
        79           Cu  tau(  79) = (   0.5000000   2.0787016   1.7454002  )
        80           Cu  tau(  80) = (   0.7501574   1.8476765   1.7447807  )
        81           Cu  tau(  81) = (   0.0000000   0.0010732   1.9906710  )
        82           Cu  tau(  82) = (   0.2503054   0.2314650   1.9904877  )
        83           Cu  tau(  83) = (   0.5000000   0.0001335   1.9924670  )
        84           Cu  tau(  84) = (   0.7496946   0.2314650   1.9904877  )
        85           Cu  tau(  85) = (   0.0000000   0.4618379   1.9901778  )
        86           Cu  tau(  86) = (   0.2508441   0.6921348   1.9910282  )
        87           Cu  tau(  87) = (   0.5000000   0.4613052   1.9913358  )
        88           Cu  tau(  88) = (   0.7491559   0.6921348   1.9910282  )
        89           Cu  tau(  89) = (   0.0000000   0.9224699   1.9915918  )
        90           Cu  tau(  90) = (   0.2491275   1.1552920   1.9912642  )
        91           Cu  tau(  91) = (   0.5000000   0.9247757   1.9920574  )
        92           Cu  tau(  92) = (   0.7508725   1.1552920   1.9912642  )
        93           Cu  tau(  93) = (   0.0000000   1.3865904   1.9916296  )
        94           Cu  tau(  94) = (   0.2499532   1.6162906   1.9903050  )
        95           Cu  tau(  95) = (   0.5000000   1.3858063   1.9901800  )
        96           Cu  tau(  96) = (   0.7500468   1.6162906   1.9903050  )
        97           Cu  tau(  97) = (   0.0000000   1.8468318   1.9923212  )
        98           Cu  tau(  98) = (   0.2497561   2.0783183   1.9915134  )
        99           Cu  tau(  99) = (   0.5000000   1.8467805   1.9903847  )
       100           Cu  tau( 100) = (   0.7502439   2.0783183   1.9915134  )
       101           C   tau( 101) = (   0.0000000   0.0962962   2.3888871  )
       102           C   tau( 102) = (   0.0000000   0.2886925   2.3900713  )
       103           C   tau( 103) = (   0.1666323   0.0000435   2.3878440  )
       104           C   tau( 104) = (   0.1664900   0.3848966   2.3886743  )
       105           C   tau( 105) = (   0.3331238   0.0962174   2.3860158  )
       106           C   tau( 106) = (   0.3331280   0.2886629   2.3856823  )
       107           C   tau( 107) = (   0.5000000  -0.0000818   2.3845687  )
       108           C   tau( 108) = (   0.5000000   0.3849277   2.3842391  )
       109           C   tau( 109) = (   0.6668762   0.0962174   2.3860158  )
       110           C   tau( 110) = (   0.6668720   0.2886629   2.3856823  )
       111           C   tau( 111) = (   0.8333677   0.0000435   2.3878440  )
       112           C   tau( 112) = (   0.8335100   0.3848966   2.3886743  )
       113           C   tau( 113) = (   0.0000000   0.6735163   2.3892509  )
       114           C   tau( 114) = (   0.0000000   0.8659398   2.3870960  )
       115           C   tau( 115) = (   0.1664759   0.5773226   2.3882842  )
       116           C   tau( 116) = (   0.1667428   0.9622141   2.3870264  )
       117           C   tau( 117) = (   0.3332094   0.6735984   2.3858047  )
       118           C   tau( 118) = (   0.3332031   0.8660537   2.3866148  )
       119           C   tau( 119) = (   0.5000000   0.5773685   2.3848465  )
       120           C   tau( 120) = (   0.5000000   0.9623380   2.3860825  )
       121           C   tau( 121) = (   0.6667906   0.6735984   2.3858047  )
       122           C   tau( 122) = (   0.6667969   0.8660537   2.3866148  )
       123           C   tau( 123) = (   0.8335241   0.5773226   2.3882842  )
       124           C   tau( 124) = (   0.8332572   0.9622141   2.3870264  )
       125           C   tau( 125) = (   0.0000000   1.2508867   2.3852683  )
       126           C   tau( 126) = (   0.1667360   1.1546708   2.3859697  )
       127           C   tau( 127) = (   0.3335095   1.2509657   2.3878953  )
       128           C   tau( 128) = (   0.5000000   1.1547731   2.3885512  )
       129           C   tau( 129) = (   0.6664905   1.2509657   2.3878953  )
       130           C   tau( 130) = (   0.8332640   1.1546708   2.3859697  )
       131           H   tau( 131) = (   0.1666323  -0.1355802   2.3878440  )
       132           H   tau( 132) = (   0.5000000  -0.1356185   2.3845687  )
       133           H   tau( 133) = (   0.8333677  -0.1355802   2.3878440  )
       134           H   tau( 134) = (   0.0000000   1.3864234   2.3852683  )
       135           H   tau( 135) = (   0.3335095   1.3865025   2.3878953  )
       136           H   tau( 136) = (   0.6664905   1.3865025   2.3878953  )

     number of k points=     6  gaussian smearing, width (Ry)=  0.1000
                       cart. coord. in units 2pi/alat
        k(    1) = (   0.0000000   0.0000000   0.0000000), wk =   0.2500000
        k(    2) = (   0.0000000  -0.2165064   0.0000000), wk =   0.2500000
        k(    3) = (   0.2500000   0.0000000   0.0000000), wk =   0.5000000
        k(    4) = (   0.2500000  -0.2165064   0.0000000), wk =   0.5000000
        k(    5) = (  -0.5000000   0.0000000   0.0000000), wk =   0.2500000
        k(    6) = (  -0.5000000  -0.2165064   0.0000000), wk =   0.2500000

     Dense  grid:  2050409 G-vectors     FFT dimensions: (  80, 192, 270)

     Largest allocated arrays     est. size (Mb)     dimensions
        Kohn-Sham Wavefunctions       102.99 Mb     (    9171,  736)
        NL pseudopotentials           256.93 Mb     (    9171, 1836)
        Each V/rho on FFT grid          2.34 Mb     (  153600)
        Each G-vector array             0.56 Mb     (   73230)
        G-vector shells                 0.27 Mb     (   35784)
     Largest temporary arrays     est. size (Mb)     dimensions
        Auxiliary wavefunctions       411.98 Mb     (    9171, 2944)
        Each subspace H/S matrix       14.68 Mb     (     981,  981)
        Each <psi_i|beta_j> matrix     20.62 Mb     (    1836,  736)
        Arrays for rho mixing          18.75 Mb     (  153600,    8)

     Initial potential from superposition of free atoms
     Check: negative starting charge=   -0.002117

     starting charge 1209.81748, renormalised to 1226.00000

     negative rho (up, down):  2.145E-03 0.000E+00
     Starting wfc are 1146 randomized atomic wfcs

     total cpu time spent up to now is      173.9 secs

     Self-consistent Calculation

     iteration #  1     ecut=    80.00 Ry     beta=0.70
     Davidson diagonalization with overlap
     c_bands:  2 eigenvalues not converged
     c_bands:  3 eigenvalues not converged
     c_bands:  1 eigenvalues not converged
     c_bands:  1 eigenvalues not converged
     c_bands:  1 eigenvalues not converged
     ethr =  1.00E-04,  avg # of iterations = 20.0

     negative rho (up, down):  3.076E+01 0.000E+00

     total cpu time spent up to now is     3038.4 secs

     total energy              =   -8005.06606388 Ry
     Harris-Foulkes estimate   =  -14863.18341188 Ry
     estimated scf accuracy    <  148713.80985364 Ry

     iteration #  2     ecut=    80.00 Ry     beta=0.70
     Davidson diagonalization with overlap
     c_bands:  5 eigenvalues not converged
     c_bands:  5 eigenvalues not converged
     ethr =  1.00E-02,  avg # of iterations = 15.0

     negative rho (up, down):  2.247E+01 0.000E+00

     total cpu time spent up to now is     4673.3 secs

     total energy              =  -12589.90196243 Ry
     Harris-Foulkes estimate   =  -13163.38288398 Ry
     estimated scf accuracy    <    1746.11942066 Ry

     iteration #  3     ecut=    80.00 Ry     beta=0.70
     Davidson diagonalization with overlap
     ethr =  1.00E-02,  avg # of iterations =  4.8

     negative rho (up, down):  1.614E+01 0.000E+00

     total cpu time spent up to now is     5305.4 secs

     total energy              =  -12634.75992098 Ry
     Harris-Foulkes estimate   =  -12727.45288280 Ry
     estimated scf accuracy    <     585.15557985 Ry

     iteration #  4     ecut=    80.00 Ry     beta=0.70
     Davidson diagonalization with overlap
     ethr =  1.00E-02,  avg # of iterations =  4.0

     negative rho (up, down):  1.658E+01 0.000E+00

     total cpu time spent up to now is     5819.5 secs

     total energy              =  -12699.62041542 Ry
     Harris-Foulkes estimate   =  -12679.68984895 Ry
     estimated scf accuracy    <    1278.72693710 Ry

     iteration #  5     ecut=    80.00 Ry     beta=0.70
     Davidson diagonalization with overlap
     ethr =  1.00E-02,  avg # of iterations =  1.0

     negative rho (up, down):  1.295E+01 0.000E+00

     total cpu time spent up to now is     6120.8 secs

     total energy              =  -12648.80822426 Ry
     Harris-Foulkes estimate   =  -12706.36352011 Ry
     estimated scf accuracy    <    2918.41798573 Ry

     iteration #  6     ecut=    80.00 Ry     beta=0.70
     Davidson diagonalization with overlap
     ethr =  1.00E-02,  avg # of iterations =  2.2

     negative rho (up, down):  8.324E+00 0.000E+00

     total cpu time spent up to now is     6478.8 secs

     total energy              =  -12587.82035460 Ry
     Harris-Foulkes estimate   =  -12672.24175055 Ry
     estimated scf accuracy    <    1828.59506302 Ry

     iteration #  7     ecut=    80.00 Ry     beta=0.70
     Davidson diagonalization with overlap
     ethr =  1.00E-02,  avg # of iterations =  4.2

     negative rho (up, down):  6.508E+00 0.000E+00

     total cpu time spent up to now is     6853.4 secs

     total energy              =  -12598.73532390 Ry
     Harris-Foulkes estimate   =  -12634.02101687 Ry
     estimated scf accuracy    <     459.44305568 Ry

     iteration #  8     ecut=    80.00 Ry     beta=0.70
     Davidson diagonalization with overlap
     ethr =  1.00E-02,  avg # of iterations =  3.0

     negative rho (up, down):  4.683E+00 0.000E+00

     total cpu time spent up to now is     7209.3 secs

     total energy              =  -12582.69796084 Ry
     Harris-Foulkes estimate   =  -12604.80647982 Ry
     estimated scf accuracy    <     276.59291153 Ry

     iteration #  9     ecut=    80.00 Ry     beta=0.70
     Davidson diagonalization with overlap
     ethr =  1.00E-02,  avg # of iterations =  1.0

     negative rho (up, down):  1.118E+00 0.000E+00

     total cpu time spent up to now is     7509.5 secs

     total energy              =  -12540.12593183 Ry
     Harris-Foulkes estimate   =  -12584.00254362 Ry
     estimated scf accuracy    <     196.20179573 Ry

     iteration # 10     ecut=    80.00 Ry     beta=0.70
     Davidson diagonalization with overlap
     ethr =  1.00E-02,  avg # of iterations =  1.0

     negative rho (up, down):  4.880E+00 0.000E+00

     total cpu time spent up to now is     7806.8 secs

     total energy              =  -12515.59759876 Ry
     Harris-Foulkes estimate   =  -12545.75061057 Ry
     estimated scf accuracy    <     196.53587331 Ry

     iteration # 11     ecut=    80.00 Ry     beta=0.70
     Davidson diagonalization with overlap
     ethr =  1.00E-02,  avg # of iterations =  2.0

     negative rho (up, down):  6.705E+00 0.000E+00

     total cpu time spent up to now is     8123.8 secs

     total energy              =  -12502.62651546 Ry
     Harris-Foulkes estimate   =  -12532.58499194 Ry
     estimated scf accuracy    <     523.57561036 Ry

     iteration # 12     ecut=    80.00 Ry     beta=0.70
     Davidson diagonalization with overlap
     ethr =  1.00E-02,  avg # of iterations =  2.0

     negative rho (up, down):  5.300E+00 0.000E+00

     total cpu time spent up to now is     8441.9 secs

     total energy              =  -12508.35981791 Ry
     Harris-Foulkes estimate   =  -12517.53798231 Ry
     estimated scf accuracy    <      50.78065458 Ry

     iteration # 13     ecut=    80.00 Ry     beta=0.70
     Davidson diagonalization with overlap
     ethr =  4.14E-03,  avg # of iterations =  2.0

     negative rho (up, down):  6.808E+00 0.000E+00

     total cpu time spent up to now is     8763.1 secs

     total energy              =  -12509.14722304 Ry
     Harris-Foulkes estimate   =  -12514.19348999 Ry
     estimated scf accuracy    <      45.45431717 Ry

     iteration # 14     ecut=    80.00 Ry     beta=0.70
     Davidson diagonalization with overlap
     ethr =  3.71E-03,  avg # of iterations =  1.0

     negative rho (up, down):  6.316E+00 0.000E+00

     total cpu time spent up to now is     9061.8 secs

     total energy              =  -12508.56712393 Ry
     Harris-Foulkes estimate   =  -12510.50548665 Ry
     estimated scf accuracy    <      18.99287816 Ry

     iteration # 15     ecut=    80.00 Ry     beta=0.70
     Davidson diagonalization with overlap
     ethr =  1.55E-03,  avg # of iterations =  4.0

     negative rho (up, down):  4.803E+00 0.000E+00

     total cpu time spent up to now is     9416.1 secs

     total energy              =  -12507.26118669 Ry
     Harris-Foulkes estimate   =  -12508.96231116 Ry
     estimated scf accuracy    <      14.72100078 Ry

     iteration # 16     ecut=    80.00 Ry     beta=0.70
     Davidson diagonalization with overlap
     ethr =  1.20E-03,  avg # of iterations =  3.0

     negative rho (up, down):  3.751E+00 0.000E+00

     total cpu time spent up to now is     9750.2 secs

     total energy              =  -12505.57858096 Ry
     Harris-Foulkes estimate   =  -12507.57286232 Ry
     estimated scf accuracy    <      12.14031158 Ry

     iteration # 17     ecut=    80.00 Ry     beta=0.70
     Davidson diagonalization with overlap
     ethr =  9.90E-04,  avg # of iterations =  6.3

     negative rho (up, down):  1.969E+00 0.000E+00

     total cpu time spent up to now is    10183.7 secs

     total energy              =  -12504.21836460 Ry
     Harris-Foulkes estimate   =  -12506.11627683 Ry
     estimated scf accuracy    <      18.34619168 Ry

     iteration # 18     ecut=    80.00 Ry     beta=0.70
     Davidson diagonalization with overlap
     ethr =  9.90E-04,  avg # of iterations =  9.2

     negative rho (up, down):  1.137E+00 0.000E+00

     total cpu time spent up to now is    10637.5 secs

     total energy              =  -12503.86348406 Ry
     Harris-Foulkes estimate   =  -12505.15577278 Ry
     estimated scf accuracy    <      12.90317995 Ry

     iteration # 19     ecut=    80.00 Ry     beta=0.70
     Davidson diagonalization with overlap
     ethr =  9.90E-04,  avg # of iterations =  4.0

     negative rho (up, down):  9.602E-01 0.000E+00

     total cpu time spent up to now is    10993.1 secs

     total energy              =  -12503.73336182 Ry
     Harris-Foulkes estimate   =  -12504.08189367 Ry
     estimated scf accuracy    <      11.55874942 Ry

     iteration # 20     ecut=    80.00 Ry     beta=0.70
     Davidson diagonalization with overlap
     ethr =  9.43E-04,  avg # of iterations =  1.0

     negative rho (up, down):  3.877E-01 0.000E+00

     total cpu time spent up to now is    11293.5 secs

     total energy              =  -12501.93185806 Ry
     Harris-Foulkes estimate   =  -12503.94228465 Ry
     estimated scf accuracy    <      10.15540308 Ry

     iteration # 21     ecut=    80.00 Ry     beta=0.70
     Davidson diagonalization with overlap
     ethr =  8.28E-04,  avg # of iterations =  4.7

     negative rho (up, down):  6.963E-02 0.000E+00

     total cpu time spent up to now is    11662.4 secs

     total energy              =  -12502.27848430 Ry
     Harris-Foulkes estimate   =  -12502.50382885 Ry
     estimated scf accuracy    <       8.29186273 Ry

     iteration # 22     ecut=    80.00 Ry     beta=0.70
     Davidson diagonalization with overlap
     ethr =  6.76E-04,  avg # of iterations =  5.7

     negative rho (up, down):  4.763E-01 0.000E+00

     total cpu time spent up to now is    12049.1 secs

     total energy              =  -12501.34453581 Ry
     Harris-Foulkes estimate   =  -12502.81441273 Ry
     estimated scf accuracy    <       4.25134510 Ry

     iteration # 23     ecut=    80.00 Ry     beta=0.70
     Davidson diagonalization with overlap
     ethr =  3.47E-04,  avg # of iterations =  4.8

     negative rho (up, down):  3.691E-01 0.000E+00

     total cpu time spent up to now is    12431.8 secs

     total energy              =  -12501.12627402 Ry
     Harris-Foulkes estimate   =  -12501.49590381 Ry
     estimated scf accuracy    <       4.31544770 Ry

     iteration # 24     ecut=    80.00 Ry     beta=0.70
     Davidson diagonalization with overlap
     ethr =  3.47E-04,  avg # of iterations =  2.2

     negative rho (up, down):  6.520E-01 0.000E+00

     total cpu time spent up to now is    12752.4 secs

     total energy              =  -12500.78603997 Ry
     Harris-Foulkes estimate   =  -12501.24612224 Ry
     estimated scf accuracy    <       2.17825527 Ry

     iteration # 25     ecut=    80.00 Ry     beta=0.70
     Davidson diagonalization with overlap
     ethr =  1.78E-04,  avg # of iterations =  5.8

     negative rho (up, down):  2.926E-01 0.000E+00

     total cpu time spent up to now is    13143.2 secs

     total energy              =  -12500.38600119 Ry
     Harris-Foulkes estimate   =  -12500.85332635 Ry
     estimated scf accuracy    <       1.23534738 Ry

     iteration # 26     ecut=    80.00 Ry     beta=0.70
     Davidson diagonalization with overlap
     ethr =  1.01E-04,  avg # of iterations =  7.8

     negative rho (up, down):  3.698E-01 0.000E+00

     total cpu time spent up to now is    13616.9 secs

     total energy              =  -12500.25363547 Ry
     Harris-Foulkes estimate   =  -12500.45078292 Ry
     estimated scf accuracy    <       0.85952126 Ry

     iteration # 27     ecut=    80.00 Ry     beta=0.70
     Davidson diagonalization with overlap
     ethr =  7.01E-05,  avg # of iterations =  7.5

     negative rho (up, down):  2.644E-01 0.000E+00

     total cpu time spent up to now is    14082.3 secs

     total energy              =  -12500.26226415 Ry
     Harris-Foulkes estimate   =  -12500.35457813 Ry
     estimated scf accuracy    <       0.57304929 Ry

     iteration # 28     ecut=    80.00 Ry     beta=0.70
     Davidson diagonalization with overlap
     ethr =  4.67E-05,  avg # of iterations =  7.8

     negative rho (up, down):  1.877E-01 0.000E+00

     total cpu time spent up to now is    14528.0 secs

     total energy              =  -12500.28200790 Ry
     Harris-Foulkes estimate   =  -12500.30381742 Ry
     estimated scf accuracy    <       0.21703942 Ry

     iteration # 29     ecut=    80.00 Ry     beta=0.70
     Davidson diagonalization with overlap
     ethr =  1.77E-05,  avg # of iterations =  7.7

     negative rho (up, down):  5.375E-02 0.000E+00

     total cpu time spent up to now is    14979.3 secs

     total energy              =  -12500.28061024 Ry
     Harris-Foulkes estimate   =  -12500.29031811 Ry
     estimated scf accuracy    <       0.05968087 Ry

     iteration # 30     ecut=    80.00 Ry     beta=0.70
     Davidson diagonalization with overlap
     ethr =  4.87E-06,  avg # of iterations = 11.3

     negative rho (up, down):  3.916E-02 0.000E+00

     total cpu time spent up to now is    15539.5 secs

     total energy              =  -12500.28267593 Ry
     Harris-Foulkes estimate   =  -12500.28588731 Ry
     estimated scf accuracy    <       0.02597442 Ry

     iteration # 31     ecut=    80.00 Ry     beta=0.70
     Davidson diagonalization with overlap
     ethr =  2.12E-06,  avg # of iterations =  6.3

     negative rho (up, down):  2.805E-02 0.000E+00

     total cpu time spent up to now is    15970.4 secs

     total energy              =  -12500.28397271 Ry
     Harris-Foulkes estimate   =  -12500.28445414 Ry
     estimated scf accuracy    <       0.00529017 Ry

     iteration # 32     ecut=    80.00 Ry     beta=0.70
     Davidson diagonalization with overlap
     ethr =  4.31E-07,  avg # of iterations =  6.0

     negative rho (up, down):  2.896E-02 0.000E+00

     total cpu time spent up to now is    16390.9 secs

     total energy              =  -12500.28417253 Ry
     Harris-Foulkes estimate   =  -12500.28431302 Ry
     estimated scf accuracy    <       0.00270383 Ry

     iteration # 33     ecut=    80.00 Ry     beta=0.70
     Davidson diagonalization with overlap
     ethr =  2.21E-07,  avg # of iterations =  6.3

     negative rho (up, down):  2.597E-02 0.000E+00

     total cpu time spent up to now is    16836.3 secs

     total energy              =  -12500.28431786 Ry
     Harris-Foulkes estimate   =  -12500.28448852 Ry
     estimated scf accuracy    <       0.00154426 Ry

     iteration # 34     ecut=    80.00 Ry     beta=0.70
     Davidson diagonalization with overlap
     ethr =  1.26E-07,  avg # of iterations =  6.3

     negative rho (up, down):  1.716E-02 0.000E+00

     total cpu time spent up to now is    17262.2 secs

     total energy              =  -12500.28430603 Ry
     Harris-Foulkes estimate   =  -12500.28442047 Ry
     estimated scf accuracy    <       0.00037170 Ry

     iteration # 35     ecut=    80.00 Ry     beta=0.70
     Davidson diagonalization with overlap
     ethr =  3.03E-08,  avg # of iterations =  6.2

     negative rho (up, down):  1.215E-02 0.000E+00

     total cpu time spent up to now is    17688.5 secs

     total energy              =  -12500.28423638 Ry
     Harris-Foulkes estimate   =  -12500.28433431 Ry
     estimated scf accuracy    <       0.00020393 Ry

     iteration # 36     ecut=    80.00 Ry     beta=0.70
     Davidson diagonalization with overlap
     ethr =  1.66E-08,  avg # of iterations =  7.2

     negative rho (up, down):  4.186E-03 0.000E+00

     total cpu time spent up to now is    18140.7 secs

     total energy              =  -12500.28409404 Ry
     Harris-Foulkes estimate   =  -12500.28425802 Ry
     estimated scf accuracy    <       0.00012082 Ry

     iteration # 37     ecut=    80.00 Ry     beta=0.70
     Davidson diagonalization with overlap
     c_bands:  1 eigenvalues not converged
     c_bands:  1 eigenvalues not converged
     ethr =  9.85E-09,  avg # of iterations = 15.0

     negative rho (up, down):  4.032E-03 0.000E+00

     total cpu time spent up to now is    18762.8 secs

     total energy              =  -12500.28409967 Ry
     Harris-Foulkes estimate   =  -12500.28410490 Ry
     estimated scf accuracy    <       0.00002785 Ry

     iteration # 38     ecut=    80.00 Ry     beta=0.70
     Davidson diagonalization with overlap
     ethr =  2.27E-09,  avg # of iterations =  3.2

     negative rho (up, down):  2.666E-03 0.000E+00

     total cpu time spent up to now is    19115.2 secs

     total energy              =  -12500.28409608 Ry
     Harris-Foulkes estimate   =  -12500.28410229 Ry
     estimated scf accuracy    <       0.00000857 Ry

     iteration # 39     ecut=    80.00 Ry     beta=0.70
     Davidson diagonalization with overlap
     ethr =  6.99E-10,  avg # of iterations =  4.3

     negative rho (up, down):  2.599E-03 0.000E+00

     total cpu time spent up to now is    19511.9 secs

     total energy              =  -12500.28409689 Ry
     Harris-Foulkes estimate   =  -12500.28409688 Ry
     estimated scf accuracy    <       0.00000232 Ry

     iteration # 40     ecut=    80.00 Ry     beta=0.70
     Davidson diagonalization with overlap
     ethr =  1.89E-10,  avg # of iterations =  2.5

     negative rho (up, down):  2.351E-03 0.000E+00

     total cpu time spent up to now is    19853.2 secs

     total energy              =  -12500.28409735 Ry
     Harris-Foulkes estimate   =  -12500.28409712 Ry
     estimated scf accuracy    <       0.00000121 Ry

     iteration # 41     ecut=    80.00 Ry     beta=0.70
     Davidson diagonalization with overlap
     ethr =  9.86E-11,  avg # of iterations =  2.8

     negative rho (up, down):  2.274E-03 0.000E+00

     total cpu time spent up to now is    20217.2 secs

     total energy              =  -12500.28409759 Ry
     Harris-Foulkes estimate   =  -12500.28409743 Ry
     estimated scf accuracy    <       0.00000027 Ry

     iteration # 42     ecut=    80.00 Ry     beta=0.70
     Davidson diagonalization with overlap
     ethr =  2.21E-11,  avg # of iterations =  3.2

     negative rho (up, down):  2.256E-03 0.000E+00

     total cpu time spent up to now is    20595.2 secs

     total energy              =  -12500.28409763 Ry
     Harris-Foulkes estimate   =  -12500.28409762 Ry
     estimated scf accuracy    <       0.00000017 Ry

     iteration # 43     ecut=    80.00 Ry     beta=0.70
     Davidson diagonalization with overlap
     ethr =  1.38E-11,  avg # of iterations =  2.8

     negative rho (up, down):  2.230E-03 0.000E+00

     total cpu time spent up to now is    20938.0 secs

     total energy              =  -12500.28409769 Ry
     Harris-Foulkes estimate   =  -12500.28409765 Ry
     estimated scf accuracy    <       0.00000004 Ry

     iteration # 44     ecut=    80.00 Ry     beta=0.70
     Davidson diagonalization with overlap
     ethr =  3.28E-12,  avg # of iterations =  3.0

     negative rho (up, down):  2.221E-03 0.000E+00

     total cpu time spent up to now is    21309.9 secs

     total energy              =  -12500.28409771 Ry
     Harris-Foulkes estimate   =  -12500.28409770 Ry
     estimated scf accuracy    <       0.00000001 Ry

     iteration # 45     ecut=    80.00 Ry     beta=0.70
     Davidson diagonalization with overlap
     ethr =  1.11E-12,  avg # of iterations =  2.3

     negative rho (up, down):  2.226E-03 0.000E+00

     total cpu time spent up to now is    21632.5 secs

     End of self-consistent calculation

          k = 0.0000 0.0000 0.0000 (256287 PWs)   bands (ev):

   -16.3507 -15.7015 -14.7346 -14.3926 -14.3905 -13.7627 -13.7542 -13.4709
   -12.8292 -12.8202 -12.0568 -11.6259 -11.6239 -10.3023 -10.3007  -9.5595
    -9.1582  -9.1564  -8.3115  -8.3082  -7.7415  -7.5255  -7.5252  -7.0221
    -7.0182  -6.3870  -6.3817  -6.2423  -5.7140  -5.7118  -5.7110  -5.7084
    -5.6452  -5.2562  -5.2498  -5.2013  -4.7865  -4.6761  -4.4969  -4.2851
    -4.2851  -4.2179  -4.2118  -3.9899  -3.6314  -3.6306  -3.5758  -3.4578
    -3.3055  -3.2701  -3.2385  -3.2372  -3.2352  -3.2335  -3.2316  -3.2254
    -3.2252  -3.1265  -3.1243  -3.0395  -2.9632  -2.8426  -2.8211  -2.8187
    -2.7920  -2.7912  -2.6505  -2.5619  -2.5614  -2.5370  -2.5356  -2.4213
    -2.4170  -2.3827  -2.3826  -2.3817  -2.3813  -2.3790  -2.3789  -2.2486
    -2.2484  -2.2483  -2.2480  -2.1893  -2.0698  -2.0224  -2.0044  -1.9766
    -1.9765  -1.9619  -1.9581  -1.9210  -1.9171  -1.9169  -1.8992  -1.8862
    -1.8844  -1.8428  -1.8347  -1.8126  -1.7973  -1.7928  -1.7902  -1.7896
    -1.7884  -1.7668  -1.7429  -1.7414  -1.7233  -1.6987  -1.6981  -1.6780
    -1.6772  -1.6431  -1.5797  -1.5631  -1.5487  -1.5380  -1.5256  -1.5150
    -1.5084  -1.4905  -1.4887  -1.4763  -1.4384  -1.4380  -1.4185  -1.4164
    -1.3939  -1.3909  -1.2875  -1.2813  -1.2787  -1.2763  -1.2627  -1.2618
    -1.2570  -1.2556  -1.2532  -1.2478  -1.2469  -1.2431  -1.2424  -1.2401
    -1.2268  -1.2236  -1.2212  -1.2188  -1.1760  -1.1666  -1.1652  -1.1431
    -1.1416  -1.1415  -1.1361  -1.0878  -1.0870  -1.0828  -1.0815  -1.0813
    -1.0806  -1.0806  -1.0799  -1.0789  -1.0752  -1.0752  -1.0740  -1.0717
    -1.0687  -1.0686  -1.0573  -1.0486  -1.0109  -0.9154  -0.9151  -0.9139
    -0.9096  -0.9095  -0.8844  -0.8783  -0.8671  -0.8669  -0.8590  -0.8525
    -0.8447  -0.8437  -0.8272  -0.8271  -0.8109  -0.7989  -0.7910  -0.7896
    -0.7890  -0.7850  -0.7794  -0.7779  -0.7674  -0.7644  -0.7641  -0.7162
    -0.7156  -0.6634  -0.6633  -0.6515  -0.6509  -0.6494  -0.6486  -0.6381
    -0.6375  -0.6308  -0.6307  -0.6298  -0.6297  -0.6248  -0.6243  -0.6118
    -0.6110  -0.6108  -0.6052  -0.5946  -0.5773  -0.5754  -0.5752  -0.5382
    -0.5252  -0.5200  -0.5179  -0.5177  -0.5142  -0.5134  -0.4916  -0.4913
    -0.4909  -0.4904  -0.4741  -0.4695  -0.4691  -0.4680  -0.4502  -0.4486
    -0.4482  -0.4475  -0.4449  -0.4401  -0.4394  -0.4381  -0.4365  -0.4334
    -0.4292  -0.4157  -0.4150  -0.4135  -0.4131  -0.3884  -0.3443  -0.3433
    -0.3422  -0.3417  -0.3407  -0.3396  -0.2975  -0.2924  -0.2887  -0.2887
    -0.2880  -0.2873  -0.2865  -0.2839  -0.2827  -0.2827  -0.2809  -0.2356
    -0.2340  -0.2324  -0.2302  -0.2248  -0.2167  -0.2130  -0.2082  -0.2016
    -0.2011  -0.1963  -0.1926  -0.1813  -0.1807  -0.1761  -0.1746  -0.1732
    -0.1726  -0.1620  -0.1611  -0.1604  -0.1603  -0.1501  -0.1445  -0.1411
    -0.1407  -0.1263  -0.1244  -0.0997  -0.0899  -0.0895  -0.0611  -0.0517
    -0.0410  -0.0380  -0.0342   0.0143   0.0146   0.0150   0.0168   0.0187
     0.0191   0.0269   0.0524   0.0527   0.0537   0.0538   0.0668   0.0705
     0.0723   0.1006   0.1143   0.1144   0.1236   0.1248   0.1300   0.1322
     0.1388   0.1539   0.1592   0.1605   0.1609   0.1683   0.1864   0.1909
     0.2032   0.2037   0.2169   0.2172   0.2198   0.2227   0.2490   0.2529
     0.2690   0.2718   0.2732   0.2737   0.2789   0.2922   0.3021   0.3089
     0.3100   0.3109   0.3114   0.3117   0.3121   0.3174   0.3203   0.3230
     0.3231   0.3244   0.3251   0.3258   0.3268   0.3274   0.3375   0.3379
     0.3718   0.3782   0.3790   0.3970   0.3977   0.4195   0.4212   0.4229
     0.4240   0.4241   0.4246   0.4292   0.4310   0.4388   0.4483   0.4554
     0.4560   0.4567   0.4584   0.4619   0.4622   0.4653   0.4691   0.4721
     0.4729   0.4778   0.4912   0.4921   0.4989   0.5089   0.5176   0.5189
     0.5189   0.5207   0.5211   0.5288   0.5310   0.5327   0.5354   0.5487
     0.5635   0.5803   0.5819   0.5845   0.5934   0.5988   0.6005   0.6040
     0.6049   0.6320   0.6325   0.6460   0.6470   0.6502   0.6503   0.6676
     0.6688   0.6724   0.6729   0.6755   0.6769   0.6877   0.6932   0.6937
     0.7039   0.7065   0.7114   0.7143   0.7180   0.7199   0.7218   0.7410
     0.7452   0.7559   0.7579   0.7616   0.7632   0.7693   0.7713   0.7849
     0.7865   0.7888   0.7914   0.7934   0.8043   0.8044   0.8090   0.8100
     0.8129   0.8136   0.8156   0.8158   0.8305   0.8313   0.8475   0.8481
     0.8490   0.8537   0.8658   0.8689   0.8790   0.8804   0.8815   0.8821
     0.8884   0.8884   0.8900   0.8915   0.8941   0.8952   0.8953   0.8999
     0.9080   0.9084   0.9126   0.9288   0.9397   0.9433   0.9523   0.9604
     0.9667   0.9744   0.9775   0.9802   0.9832   0.9845   0.9873   0.9898
     1.0122   1.0161   1.0167   1.0176   1.0245   1.0260   1.0288   1.0297
     1.0395   1.0526   1.0532   1.0533   1.0540   1.0548   1.0551   1.0558
     1.0588   1.0696   1.0748   1.0755   1.0768   1.0813   1.0865   1.0872
     1.0879   1.0884   1.0887   1.0895   1.0953   1.1022   1.1051   1.1170
     1.1177   1.1220   1.1295   1.1332   1.1341   1.1348   1.1381   1.1582
     1.1610   1.1668   1.1735   1.1823   1.1878   1.1894   1.1917   1.1923
     1.1962   1.1995   1.1999   1.2024   1.2055   1.2072   1.2106   1.2130
     1.2148   1.2161   1.2191   1.2215   1.2275   1.2437   1.2451   1.2456
     1.2457   1.2474   1.2548   1.2589   1.2597   1.2616   1.2730   1.2907
     1.2929   1.3269   1.3332   1.3335   1.3346   1.3453   1.3455   1.3543
     1.3700   1.3754   1.3805   1.4013   1.4020   1.4062   1.4147   1.4148
     1.4173   1.4178   1.4189   1.6887   1.7279   1.8435   1.8575   1.8973
     1.8999   1.9067   1.9208   1.9736   1.9770   1.9813   1.9816   1.9905
     1.9992   2.1071   2.1094   2.2016   2.2114   2.2361   2.2376   2.2408
     2.2439   2.2611   2.2802   2.4748   2.4944   2.4954   2.5295   2.8294
     3.2302   3.2641   3.5008   3.5014   3.5577   3.5657   3.5957   3.6140
     3.6159   3.6729   3.6878   3.7146   3.7307   3.7344   3.7529   3.7530
     3.7842   3.7897   3.7907   3.8041   3.9686   3.9779   4.0341   4.0504
     4.0635   4.5409   4.7950   4.9729   5.0588   5.0589   5.0745   5.0902
     5.2907   5.4182   5.4547   5.4805   5.5690   5.6772   5.7093   5.9836
     6.0006   6.1637   6.1693   6.1762   6.1971   6.1989   6.2180   6.4003
     6.4440   6.4592   6.4661   6.5055   6.5111   6.5352   6.6473   6.6953
     6.7477   6.8069   6.8192   6.8521   7.0400   7.1135   7.1315   7.1339
     7.1639   7.3461   7.3511   7.4141   7.4233   7.4303   7.4583   7.4679
     7.7375   7.7758   7.8375   7.8443   7.8455   7.8727   7.8892   7.9246
     8.0348   8.0794   8.1018   8.1123   8.1320   8.1473   8.1515   8.1817
     8.2986   8.3292   8.3406   8.3503   8.4045   8.4047   8.4561   8.5416
     8.5635   8.5872   8.6045   8.7192   8.7414   8.7530   8.8099   8.8201
     8.8282   8.8748   8.8847   8.9028   8.9034   9.1208   9.1246   9.2749
     9.2892   9.3051   9.3085   9.3471   9.3475   9.3686   9.5313   9.6312

          k = 0.0000-0.2165 0.0000 (256176 PWs)   bands (ev):

   -16.3507 -15.7015 -14.7346 -14.3926 -14.3905 -13.7627 -13.7542 -13.4709
   -12.8292 -12.8202 -12.0568 -11.6259 -11.6239 -10.3023 -10.3007  -9.5596
    -9.1582  -9.1564  -8.3115  -8.3082  -7.7412  -7.5255  -7.5253  -7.0221
    -7.0182  -6.3869  -6.3816  -6.1124  -6.1031  -5.7138  -5.7117  -5.6489
    -5.2564  -5.2498  -5.1376  -5.0669  -5.0559  -5.0012  -4.6185  -4.2855
    -4.2855  -4.1965  -4.0266  -3.8511  -3.5612  -3.5317  -3.5309  -3.5236
    -3.5228  -3.3255  -3.3164  -3.2699  -3.2607  -3.2530  -3.2298  -3.2274
    -3.1264  -3.1243  -2.9962  -2.8225  -2.8211  -2.8092  -2.8082  -2.8077
    -2.8076  -2.7590  -2.7580  -2.6753  -2.6745  -2.6502  -2.4979  -2.4676
    -2.4436  -2.4092  -2.4088  -2.3779  -2.3639  -2.3629  -2.3440  -2.3428
    -2.2144  -2.2144  -2.1899  -2.1898  -2.1242  -2.0905  -2.0032  -1.9954
    -1.9788  -1.9779  -1.9722  -1.9695  -1.9653  -1.9636  -1.9509  -1.9494
    -1.8961  -1.8956  -1.8739  -1.8723  -1.8159  -1.8139  -1.8110  -1.7349
    -1.6926  -1.6917  -1.6816  -1.6697  -1.6687  -1.5982  -1.5968  -1.5893
    -1.5761  -1.5442  -1.5427  -1.5128  -1.5070  -1.5019  -1.5018  -1.4996
    -1.4982  -1.4956  -1.4566  -1.4548  -1.4511  -1.4482  -1.4434  -1.4399
    -1.4392  -1.4368  -1.3978  -1.3838  -1.3835  -1.3500  -1.3437  -1.3159
    -1.3157  -1.2775  -1.2774  -1.2741  -1.2741  -1.2259  -1.2119  -1.2112
    -1.2103  -1.2088  -1.2081  -1.2045  -1.2007  -1.1537  -1.1491  -1.1461
    -1.1455  -1.1367  -1.1363  -1.1306  -1.1306  -1.1296  -1.1296  -1.1004
    -1.0972  -1.0540  -1.0517  -1.0495  -1.0485  -1.0437  -1.0434  -1.0188
    -1.0179  -1.0044  -1.0015  -0.9841  -0.9794  -0.9790  -0.9742  -0.9137
    -0.8815  -0.8815  -0.8805  -0.8803  -0.8607  -0.8605  -0.8452  -0.8396
    -0.8329  -0.8326  -0.8293  -0.8291  -0.8012  -0.7958  -0.7957  -0.7716
    -0.7671  -0.7667  -0.7620  -0.7602  -0.7591  -0.7587  -0.7571  -0.7567
    -0.7274  -0.7271  -0.7121  -0.7121  -0.6957  -0.6767  -0.6736  -0.6721
    -0.6686  -0.6683  -0.6654  -0.6652  -0.6551  -0.6543  -0.5932  -0.5840
    -0.5838  -0.5832  -0.5830  -0.5727  -0.5483  -0.5473  -0.5316  -0.5282
    -0.5280  -0.5215  -0.5179  -0.5168  -0.5125  -0.4984  -0.4983  -0.4932
    -0.4931  -0.4867  -0.4716  -0.4712  -0.4704  -0.4702  -0.4684  -0.4674
    -0.4579  -0.4488  -0.4481  -0.4409  -0.4331  -0.4327  -0.4311  -0.4308
    -0.3903  -0.3712  -0.3706  -0.3632  -0.3622  -0.3614  -0.3600  -0.3546
    -0.3534  -0.3282  -0.3167  -0.3146  -0.3103  -0.3070  -0.3062  -0.3023
    -0.3017  -0.3001  -0.2997  -0.2975  -0.2974  -0.2912  -0.2503  -0.2387
    -0.2386  -0.2344  -0.2344  -0.2256  -0.2256  -0.2240  -0.2205  -0.2151
    -0.2142  -0.2083  -0.2017  -0.1961  -0.1960  -0.1934  -0.1918  -0.1642
    -0.1567  -0.1525  -0.1524  -0.1516  -0.1508  -0.1326  -0.1318  -0.1147
    -0.1145  -0.0996  -0.0988  -0.0905  -0.0865  -0.0858  -0.0857  -0.0465
    -0.0441  -0.0441  -0.0403  -0.0394  -0.0326  -0.0288  -0.0247  -0.0226
     0.0027   0.0055   0.0060   0.0338   0.0341   0.0365   0.0427   0.0741
     0.0751   0.1122   0.1499   0.1605   0.1612   0.1629   0.1648   0.1748
     0.1757   0.1934   0.1965   0.1971   0.1976   0.2077   0.2173   0.2301
     0.2303   0.2304   0.2349   0.2468   0.2504   0.2509   0.2550   0.2559
     0.2598   0.2599   0.2608   0.2615   0.2667   0.2691   0.2741   0.2928
     0.2934   0.3020   0.3024   0.3050   0.3052   0.3069   0.3069   0.3215
     0.3259   0.3286   0.3325   0.3348   0.3353   0.3364   0.3374   0.3562
     0.3578   0.3588   0.3588   0.3600   0.3602   0.3610   0.3614   0.3748
     0.3782   0.4153   0.4181   0.4184   0.4314   0.4315   0.4317   0.4488
     0.4502   0.4506   0.4513   0.4517   0.4524   0.4532   0.4554   0.4555
     0.4615   0.4964   0.4978   0.4987   0.5004   0.5024   0.5096   0.5129
     0.5168   0.5217   0.5229   0.5291   0.5321   0.5456   0.5496   0.5523
     0.5535   0.5545   0.5592   0.6031   0.6046   0.6093   0.6115   0.6540
     0.6579   0.6684   0.6696   0.6714   0.6788   0.6827   0.6862   0.6879
     0.6883   0.6950   0.6961   0.6961   0.7051   0.7052   0.7124   0.7137
     0.7170   0.7185   0.7194   0.7203   0.7234   0.7275   0.7358   0.7370
     0.7370   0.7428   0.7434   0.7453   0.7461   0.7492   0.7495   0.7516
     0.7530   0.7601   0.7602   0.7630   0.7653   0.7657   0.7697   0.7859
     0.7883   0.7973   0.8003   0.8069   0.8086   0.8131   0.8145   0.8147
     0.8151   0.8155   0.8162   0.8204   0.8215   0.8571   0.8622   0.8824
     0.9009   0.9012   0.9013   0.9157   0.9239   0.9410   0.9468   0.9486
     0.9545   0.9584   0.9612   0.9617   0.9647   0.9662   0.9721   0.9722
     0.9744   0.9752   0.9760   0.9771   0.9800   0.9817   0.9849   0.9854
     0.9900   0.9954   0.9984   0.9999   1.0043   1.0058   1.0068   1.0125
     1.0173   1.0193   1.0220   1.0330   1.0414   1.0494   1.0505   1.0510
     1.0528   1.0530   1.0616   1.0657   1.0710   1.0739   1.0741   1.0832
     1.0886   1.0909   1.0951   1.1003   1.1019   1.1091   1.1100   1.1133
     1.1159   1.1350   1.1352   1.1359   1.1415   1.1457   1.1487   1.1525
     1.1551   1.1580   1.1584   1.1683   1.1709   1.1736   1.1738   1.1880
     1.1889   1.2025   1.2031   1.2067   1.2121   1.2208   1.2239   1.2241
     1.2250   1.2258   1.2264   1.2284   1.2293   1.2552   1.2554   1.2608
     1.2628   1.2672   1.2734   1.2737   1.2824   1.2956   1.2957   1.2985
     1.3002   1.3031   1.3032   1.3149   1.3155   1.3607   1.3609   1.3620
     1.3647   1.4221   1.4580   1.4750   1.4848   1.5285   1.5286   1.5422
     1.5428   1.5474   1.5608   1.5742   1.5851   1.5894   1.5916   1.5969
     1.5977   1.6256   1.6266   2.0780   2.0834   2.1664   2.1673   2.1992
     2.2087   2.2516   2.2689   2.3212   2.3226   2.3499   2.3512   2.3830
     2.4195   2.4735   2.4838   2.4844   2.4888   2.5454   2.5469   2.6959
     2.6971   2.9324   2.9324   2.9465   2.9500   3.0151   3.1459   3.4078
     3.4494   3.5565   3.5930   3.8269   3.8331   3.8705   3.8788   4.0727
     4.0736   4.0785   4.0812   4.1256   4.1793   4.2618   4.4396   4.4748
     4.5096   4.7977   4.8149   4.8707   5.0105   5.0626   5.0734   5.1193
     5.1194   5.1776   5.1801   5.2862   5.3470   5.4674   5.9768   5.9897
     6.0234   6.0272   6.1603   6.1822   6.2521   6.2901   6.3922   6.4319
     6.4438   6.4580   6.4627   6.5549   6.6082   6.6883   6.7031   6.7987
     6.8019   6.8268   6.8524   6.8760   6.8889   6.8905   6.8988   6.9485
     7.0203   7.0999   7.1318   7.1688   7.1752   7.2315   7.2443   7.4602
     7.5590   7.7396   7.7856   7.8096   7.9045   7.9122   7.9434   7.9495
     8.0100   8.1253   8.1319   8.1720   8.1730   8.1783   8.2745   8.3879
     8.4603   8.4626   8.4734   8.4927   8.5338   8.5420   8.5430   8.5806
     8.5819   8.7066   8.7540   8.7750   8.8266   8.8720   8.8811   8.9125
     8.9954   9.0093   9.1181   9.1227   9.1268   9.1549   9.1559   9.1643
     9.1720   9.1778   9.3462   9.3650   9.3732   9.4807   9.5381   9.6106

          k = 0.2500 0.0000 0.0000 (256240 PWs)   bands (ev):

   -16.2267 -15.5784 -15.2418 -14.6134 -14.6009 -13.6510 -13.3529 -13.3188
   -12.7007 -12.4184 -11.9449 -11.8108 -11.0577 -10.9004 -10.2437  -9.9180
    -9.4581  -9.2055  -8.9264  -8.8161  -7.8166  -7.6583  -7.3279  -6.7859
    -6.6165  -6.4409  -6.0625  -5.8543  -5.8152  -5.6039  -5.5362  -5.5317
    -5.1954  -5.0324  -4.6893  -4.6306  -4.6136  -4.5207  -4.5169  -4.3462
    -4.3331  -4.2257  -4.2228  -4.0707  -4.0649  -3.9487  -3.8462  -3.7846
    -3.7570  -3.6202  -3.5982  -3.5624  -3.4413  -3.3464  -3.3233  -3.3175
    -3.2148  -3.1899  -3.1335  -3.1121  -3.0867  -3.0286  -3.0272  -2.9179
    -2.8445  -2.7573  -2.7196  -2.6273  -2.5490  -2.5311  -2.3850  -2.3284
    -2.3253  -2.3112  -2.3096  -2.2726  -2.2240  -2.1520  -2.1121  -2.0889
    -2.0686  -2.0571  -2.0292  -2.0292  -2.0232  -2.0226  -2.0185  -2.0176
    -2.0014  -1.9768  -1.9389  -1.9345  -1.8688  -1.8676  -1.8309  -1.8114
    -1.8096  -1.8066  -1.8061  -1.8059  -1.7927  -1.7798  -1.7618  -1.7569
    -1.7354  -1.7313  -1.7293  -1.7202  -1.7173  -1.5995  -1.5557  -1.5509
    -1.5399  -1.5173  -1.4952  -1.4814  -1.4807  -1.4706  -1.4694  -1.4645
    -1.4457  -1.4359  -1.4343  -1.4247  -1.4209  -1.4121  -1.4106  -1.3985
    -1.3923  -1.3694  -1.3625  -1.3605  -1.3598  -1.3582  -1.3398  -1.3379
    -1.3271  -1.3262  -1.3005  -1.2785  -1.2710  -1.2665  -1.2569  -1.2521
    -1.2406  -1.2392  -1.2297  -1.2283  -1.2203  -1.2192  -1.2167  -1.2098
    -1.2093  -1.2080  -1.2059  -1.2031  -1.2022  -1.2018  -1.1894  -1.1738
    -1.1706  -1.1582  -1.1284  -1.1203  -1.1152  -1.0781  -1.0768  -1.0437
    -1.0424  -1.0249  -1.0236  -1.0083  -0.9975  -0.9972  -0.9844  -0.9804
    -0.9781  -0.9760  -0.9667  -0.9657  -0.9464  -0.8813  -0.8345  -0.8206
    -0.8136  -0.7988  -0.7948  -0.7941  -0.7915  -0.7813  -0.7768  -0.7729
    -0.7725  -0.7651  -0.7635  -0.7581  -0.7523  -0.7519  -0.7330  -0.7235
    -0.7148  -0.7095  -0.7078  -0.7071  -0.7064  -0.6877  -0.6876  -0.6850
    -0.6814  -0.6487  -0.6381  -0.6259  -0.6256  -0.6181  -0.6169  -0.6151
    -0.6127  -0.6099  -0.6062  -0.5810  -0.5808  -0.5641  -0.5589  -0.5585
    -0.5465  -0.5229  -0.5223  -0.5220  -0.5211  -0.5193  -0.5050  -0.4983
    -0.4921  -0.4843  -0.4820  -0.4737  -0.4719  -0.4525  -0.4425  -0.4349
    -0.4334  -0.4259  -0.4220  -0.4213  -0.4188  -0.4094  -0.4052  -0.4047
    -0.3947  -0.3782  -0.3777  -0.3665  -0.3643  -0.3374  -0.3350  -0.3348
    -0.3329  -0.3101  -0.3068  -0.2926  -0.2898  -0.2867  -0.2757  -0.2662
    -0.2603  -0.2493  -0.2398  -0.2383  -0.2375  -0.2366  -0.2340  -0.2317
    -0.2230  -0.2210  -0.2189  -0.2178  -0.2163  -0.2142  -0.2111  -0.1985
    -0.1939  -0.1907  -0.1863  -0.1832  -0.1761  -0.1651  -0.1604  -0.1542
    -0.1487  -0.1405  -0.1363  -0.1303  -0.1081  -0.1074  -0.1068  -0.1056
    -0.1046  -0.0897  -0.0862  -0.0849  -0.0828  -0.0791  -0.0787  -0.0487
    -0.0330   0.0284   0.0314   0.0323   0.0394   0.0412   0.0457   0.0496
     0.0524   0.0547   0.0572   0.0578   0.0588   0.0617   0.0623   0.0671
     0.0688   0.0693   0.0746   0.0821   0.0858   0.0983   0.0993   0.1028
     0.1042   0.1071   0.1078   0.1085   0.1328   0.1341   0.1358   0.1383
     0.1797   0.2003   0.2065   0.2075   0.2158   0.2193   0.2197   0.2225
     0.2267   0.2304   0.2438   0.2498   0.2511   0.2595   0.2603   0.2611
     0.2635   0.2677   0.2714   0.2725   0.2811   0.2917   0.2933   0.3009
     0.3064   0.3211   0.3255   0.3281   0.3310   0.3324   0.3386   0.3399
     0.3408   0.3429   0.3550   0.3557   0.3674   0.3714   0.3716   0.3750
     0.3758   0.3858   0.3875   0.3893   0.3960   0.3968   0.4136   0.4149
     0.4276   0.4288   0.4380   0.4381   0.4407   0.4429   0.4497   0.4628
     0.4760   0.4812   0.5007   0.5087   0.5154   0.5158   0.5211   0.5212
     0.5273   0.5414   0.5420   0.5465   0.5493   0.5534   0.5543   0.5591
     0.5681   0.5732   0.5927   0.6009   0.6029   0.6032   0.6138   0.6161
     0.6226   0.6269   0.6302   0.6308   0.6355   0.6457   0.6545   0.6553
     0.6649   0.6659   0.6665   0.6694   0.6711   0.6726   0.6786   0.6804
     0.6961   0.7118   0.7248   0.7290   0.7306   0.7425   0.7480   0.7558
     0.7585   0.7636   0.7660   0.7680   0.7723   0.7790   0.7803   0.7849
     0.7889   0.7901   0.7921   0.7933   0.7986   0.7993   0.8033   0.8080
     0.8087   0.8110   0.8122   0.8156   0.8233   0.8259   0.8289   0.8303
     0.8399   0.8402   0.8477   0.8500   0.8535   0.8546   0.8608   0.8664
     0.8792   0.8824   0.8838   0.8846   0.8877   0.8910   0.8957   0.8970
     0.8986   0.9000   0.9087   0.9097   0.9163   0.9275   0.9277   0.9324
     0.9340   0.9563   0.9641   0.9643   0.9689   0.9735   0.9786   0.9829
     0.9946   1.0029   1.0050   1.0158   1.0219   1.0277   1.0286   1.0304
     1.0332   1.0346   1.0389   1.0426   1.0530   1.0537   1.0646   1.0655
     1.0668   1.0710   1.0758   1.0774   1.0781   1.0813   1.0849   1.0893
     1.0902   1.0942   1.0947   1.0983   1.1018   1.1066   1.1079   1.1110
     1.1231   1.1247   1.1257   1.1269   1.1288   1.1374   1.1403   1.1528
     1.1533   1.1614   1.1848   1.1859   1.1866   1.1892   1.1925   1.1949
     1.1978   1.1979   1.2000   1.2018   1.2025   1.2050   1.2082   1.2100
     1.2110   1.2150   1.2165   1.2176   1.2312   1.2340   1.2361   1.2403
     1.2497   1.2510   1.2541   1.2576   1.2582   1.2640   1.2680   1.2704
     1.2784   1.2795   1.2823   1.2887   1.3074   1.3192   1.3222   1.3264
     1.3583   1.3625   1.3946   1.4000   1.4006   1.4017   1.4074   1.4092
     1.4494   1.5213   1.5321   1.5327   1.5367   1.5696   1.5719   1.6092
     1.8047   1.8097   1.8181   1.8364   1.8384   1.8444   1.9494   1.9705
     2.0161   2.3223   2.3247   2.3252   2.3282   2.7377   2.7425   2.7504
     2.8055   2.8114   2.9714   2.9720   2.9883   2.9884   2.9977   3.0417
     3.1186   3.2464   3.2864   3.3374   3.3988   3.4061   3.4612   3.4663
     3.4952   3.5080   3.5623   3.6146   3.6183   3.6881   3.7217   3.8035
     3.9207   4.0317   4.0469   4.3573   4.4064   4.4817   4.5799   4.6103
     4.7998   4.9022   4.9741   4.9842   5.0004   5.0999   5.1139   5.2090
     5.2231   5.2389   5.2618   5.2829   5.2855   5.3393   5.4415   5.4802
     5.5425   5.5637   5.5783   5.7639   5.7808   5.7857   5.7927   6.0512
     6.1423   6.4084   6.4378   6.4534   6.4902   6.5121   6.5653   6.6665
     6.7565   6.7913   6.7932   6.8056   6.8213   6.8353   6.9285   6.9863
     7.0400   7.0638   7.1454   7.1676   7.2341   7.2902   7.2963   7.3252
     7.3325   7.4781   7.4842   7.5097   7.5908   7.7530   7.7713   7.7926
     7.8273   7.8530   7.8986   7.9890   8.0329   8.0442   8.0601   8.0735
     8.0782   8.1315   8.1892   8.2027   8.2526   8.3946   8.4005   8.4827
     8.5530   8.6151   8.6523   8.7447   8.7808   8.8872   8.9128   8.9143
     8.9242   8.9299   8.9463   8.9583   8.9625   8.9749   9.0106   9.0172
     9.0754   9.1083   9.1762   9.2486   9.3757   9.3899   9.4341   9.4738

          k = 0.2500-0.2165 0.0000 (256316 PWs)   bands (ev):

   -16.2267 -15.5784 -15.2418 -14.6134 -14.6009 -13.6510 -13.3529 -13.3188
   -12.7007 -12.4184 -11.9449 -11.8108 -11.0577 -10.9004 -10.2437  -9.9180
    -9.4581  -9.2054  -8.9264  -8.8162  -7.8166  -7.6581  -7.3279  -6.7859
    -6.6166  -6.4408  -5.9342  -5.9250  -5.8544  -5.8151  -5.6017  -5.1954
    -4.9726  -4.9033  -4.8923  -4.8334  -4.6140  -4.5754  -4.5689  -4.5176
    -4.4673  -4.3350  -4.0498  -3.9489  -3.8877  -3.7846  -3.7243  -3.7134
    -3.6866  -3.6758  -3.6140  -3.5981  -3.5803  -3.5624  -3.3228  -3.3055
    -3.1824  -3.1748  -3.1384  -3.1319  -3.1114  -3.0895  -2.9898  -2.9258
    -2.8664  -2.7128  -2.5439  -2.5393  -2.4302  -2.4077  -2.3988  -2.3987
    -2.3982  -2.3837  -2.3267  -2.2451  -2.2384  -2.2351  -2.2125  -2.1974
    -2.1250  -2.0880  -2.0552  -2.0426  -2.0425  -2.0121  -1.9786  -1.9490
    -1.9431  -1.9382  -1.9365  -1.9156  -1.9125  -1.9054  -1.9043  -1.9029
    -1.8963  -1.8956  -1.8952  -1.8108  -1.8091  -1.7576  -1.7465  -1.6942
    -1.6941  -1.6874  -1.6233  -1.5581  -1.5558  -1.5291  -1.5052  -1.5038
    -1.4993  -1.4900  -1.4897  -1.4828  -1.4756  -1.4689  -1.4643  -1.4565
    -1.4562  -1.4545  -1.4405  -1.4396  -1.4390  -1.4340  -1.4203  -1.4182
    -1.4136  -1.4085  -1.4068  -1.4060  -1.3915  -1.3589  -1.3550  -1.3533
    -1.3512  -1.3401  -1.3391  -1.3187  -1.3062  -1.2952  -1.2664  -1.2647
    -1.2636  -1.2512  -1.2470  -1.2335  -1.2238  -1.2236  -1.2085  -1.2048
    -1.1974  -1.1891  -1.1875  -1.1845  -1.1822  -1.1794  -1.1764  -1.1526
    -1.1506  -1.1471  -1.1434  -1.1132  -1.0953  -1.0939  -1.0894  -1.0888
    -1.0037  -1.0033  -1.0024  -0.9997  -0.9932  -0.9918  -0.9449  -0.9388
    -0.9378  -0.9377  -0.9340  -0.9327  -0.9213  -0.9174  -0.8760  -0.8729
    -0.8605  -0.8467  -0.8367  -0.8288  -0.7924  -0.7922  -0.7917  -0.7909
    -0.7814  -0.7635  -0.7594  -0.7542  -0.7445  -0.7438  -0.7269  -0.7258
    -0.7193  -0.7168  -0.7119  -0.6857  -0.6818  -0.6688  -0.6671  -0.6621
    -0.6581  -0.6339  -0.6326  -0.6317  -0.6260  -0.6229  -0.6187  -0.6172
    -0.6087  -0.5958  -0.5938  -0.5917  -0.5902  -0.5790  -0.5774  -0.5767
    -0.5697  -0.5606  -0.5586  -0.5429  -0.5429  -0.5217  -0.5115  -0.5064
    -0.5007  -0.4853  -0.4846  -0.4695  -0.4659  -0.4656  -0.4485  -0.4448
    -0.4428  -0.4398  -0.4362  -0.4257  -0.4060  -0.3866  -0.3803  -0.3798
    -0.3584  -0.3479  -0.3352  -0.3351  -0.3300  -0.3277  -0.3140  -0.3119
    -0.3066  -0.2984  -0.2981  -0.2911  -0.2777  -0.2732  -0.2686  -0.2664
    -0.2634  -0.2624  -0.2591  -0.2536  -0.2386  -0.2372  -0.2344  -0.2331
    -0.2289  -0.2272  -0.2264  -0.2257  -0.2253  -0.2215  -0.2144  -0.2075
    -0.1946  -0.1926  -0.1923  -0.1895  -0.1747  -0.1663  -0.1555  -0.1550
    -0.1498  -0.1477  -0.1417  -0.1247  -0.1100  -0.0955  -0.0924  -0.0895
    -0.0871  -0.0852  -0.0747  -0.0730  -0.0723  -0.0687  -0.0677  -0.0572
    -0.0564  -0.0548  -0.0386  -0.0158  -0.0155   0.0451   0.0482   0.0542
     0.0562   0.0567   0.0590   0.0600   0.0628   0.0660   0.0672   0.0687
     0.0716   0.0736   0.0907   0.0914   0.0929   0.0939   0.0991   0.1082
     0.1094   0.1101   0.1311   0.1357   0.1407   0.1587   0.1598   0.1642
     0.1680   0.1723   0.1790   0.1841   0.2042   0.2171   0.2188   0.2248
     0.2272   0.2333   0.2339   0.2413   0.2443   0.2445   0.2557   0.2583
     0.2588   0.2607   0.2633   0.2734   0.2899   0.2931   0.2938   0.2972
     0.3075   0.3118   0.3408   0.3423   0.3461   0.3475   0.3731   0.3736
     0.3762   0.3785   0.3809   0.3851   0.3889   0.3940   0.4017   0.4050
     0.4054   0.4077   0.4223   0.4228   0.4238   0.4260   0.4352   0.4410
     0.4421   0.4437   0.4443   0.4452   0.4503   0.4536   0.4652   0.4655
     0.4669   0.4682   0.4772   0.4816   0.4844   0.4874   0.4897   0.4948
     0.4971   0.5010   0.5018   0.5104   0.5269   0.5293   0.5372   0.5400
     0.5658   0.5734   0.5794   0.5842   0.5982   0.5993   0.5996   0.6006
     0.6050   0.6080   0.6088   0.6239   0.6244   0.6267   0.6292   0.6295
     0.6309   0.6340   0.6444   0.6586   0.6620   0.6671   0.6699   0.6736
     0.6778   0.6829   0.6941   0.6992   0.7000   0.7037   0.7141   0.7160
     0.7224   0.7377   0.7388   0.7410   0.7438   0.7452   0.7468   0.7642
     0.7797   0.7808   0.7912   0.7957   0.8005   0.8122   0.8198   0.8262
     0.8316   0.8496   0.8555   0.8571   0.8590   0.8606   0.8612   0.8629
     0.8639   0.8653   0.8708   0.8714   0.8792   0.8803   0.8824   0.8861
     0.8886   0.8925   0.9025   0.9046   0.9077   0.9119   0.9224   0.9364
     0.9367   0.9388   0.9447   0.9455   0.9476   0.9505   0.9524   0.9592
     0.9624   0.9648   0.9653   0.9678   0.9712   0.9752   0.9773   0.9826
     0.9864   0.9942   0.9967   0.9996   1.0007   1.0022   1.0033   1.0070
     1.0121   1.0127   1.0196   1.0230   1.0241   1.0437   1.0454   1.0518
     1.0536   1.0591   1.0635   1.0751   1.0782   1.0848   1.0852   1.0872
     1.0920   1.0929   1.1041   1.1073   1.1131   1.1149   1.1163   1.1176
     1.1265   1.1276   1.1358   1.1414   1.1435   1.1481   1.1526   1.1558
     1.1564   1.1567   1.1657   1.1664   1.1674   1.1755   1.1774   1.1814
     1.1834   1.1865   1.1912   1.1919   1.1947   1.2055   1.2094   1.2098
     1.2105   1.2107   1.2127   1.2199   1.2226   1.2228   1.2307   1.2311
     1.2318   1.2398   1.2533   1.2534   1.2603   1.2605   1.2755   1.2794
     1.2854   1.2930   1.3017   1.3070   1.3246   1.3274   1.3291   1.3306
     1.3324   1.3548   1.3614   1.3766   1.4147   1.4339   1.4599   1.4806
     1.5024   1.5295   1.5342   1.5454   1.5468   1.5525   1.5573   1.5792
     1.5951   1.6096   1.8961   1.8965   1.9238   1.9261   2.0378   2.0549
     2.3507   2.3551   2.5111   2.5328   2.5411   2.5456   2.5598   2.5631
     2.5660   2.5939   2.6954   2.7506   2.7863   2.8174   2.8694   2.8736
     3.2696   3.3144   3.3181   3.3392   3.3547   3.4073   3.5769   3.6101
     3.6145   3.6340   3.7426   3.7570   3.8422   3.8541   3.9278   3.9323
     4.1334   4.1467   4.2338   4.2816   4.3726   4.4034   4.4287   4.4470
     4.5305   4.6239   4.7039   4.7625   4.8763   4.9144   5.0036   5.0903
     5.1014   5.1876   5.2020   5.2165   5.2264   5.3461   5.5154   5.5475
     5.5541   5.5797   5.6808   5.7172   6.0953   6.1256   6.1656   6.2129
     6.3525   6.3779   6.4550   6.4693   6.5149   6.5570   6.5743   6.7130
     6.7528   6.7909   6.8326   6.8372   6.8581   6.9540   6.9816   6.9915
     7.0086   7.0695   7.0946   7.0979   7.1396   7.1789   7.1884   7.2565
     7.3496   7.4042   7.5267   7.5388   7.5962   7.6313   7.6609   7.7324
     7.7953   7.8993   7.9388   7.9489   7.9545   8.0026   8.1359   8.2775
     8.2842   8.2972   8.3208   8.3401   8.3833   8.4185   8.4467   8.4532
     8.4870   8.5413   8.5919   8.6192   8.6841   8.7494   8.7538   8.7955
     8.8497   8.9055   8.9087   8.9165   8.9517   8.9667   9.0161   9.0215
     9.0474   9.0637   9.1014   9.1030   9.1163   9.1541   9.2139   9.2254

          k =-0.5000 0.0000 0.0000 (256496 PWs)   bands (ev):

   -15.8576 -15.8541 -15.2113 -15.2093 -14.2520 -14.2492 -13.0021 -12.9984
   -12.0554 -12.0550 -11.6114 -11.6096 -11.5228 -11.5223 -10.3491 -10.3477
    -9.2216  -9.2214  -9.1759  -9.1677  -8.0650  -8.0650  -7.4390  -7.4369
    -5.5658  -5.5618  -5.5329  -5.5326  -5.5012  -5.5002  -5.0285  -5.0280
    -5.0256  -5.0256  -5.0079  -4.9959  -4.5432  -4.5385  -4.5136  -4.5104
    -4.3835  -4.3821  -4.1745  -4.1640  -4.0552  -4.0538  -3.9000  -3.8975
    -3.6501  -3.6496  -3.6451  -3.6451  -3.5986  -3.5930  -3.5920  -3.5889
    -3.5865  -3.5842  -3.4278  -3.4179  -2.9250  -2.9244  -2.8653  -2.8648
    -2.8619  -2.8617  -2.5884  -2.5880  -2.5475  -2.5437  -2.5251  -2.5236
    -2.3819  -2.3741  -2.2247  -2.2221  -2.1087  -2.1082  -2.1078  -2.1074
    -2.1044  -2.1044  -2.0295  -2.0292  -1.9717  -1.9712  -1.8776  -1.8773
    -1.8763  -1.8761  -1.8305  -1.8304  -1.8292  -1.8290  -1.7301  -1.7294
    -1.7167  -1.7164  -1.7110  -1.7060  -1.6522  -1.6518  -1.6469  -1.6467
    -1.6340  -1.6339  -1.5848  -1.5848  -1.5817  -1.5817  -1.5780  -1.5775
    -1.5745  -1.5720  -1.5663  -1.5663  -1.5221  -1.5220  -1.5206  -1.5204
    -1.4949  -1.4947  -1.4939  -1.4935  -1.4339  -1.4324  -1.4317  -1.4299
    -1.4091  -1.4089  -1.4085  -1.4079  -1.3790  -1.3788  -1.3654  -1.3653
    -1.3568  -1.3565  -1.3347  -1.3347  -1.3338  -1.3338  -1.3125  -1.3125
    -1.2826  -1.2826  -1.2349  -1.2349  -1.2264  -1.2168  -1.2139  -1.2128
    -1.2077  -1.2073  -1.2058  -1.2055  -1.1788  -1.1787  -1.1631  -1.1626
    -1.1588  -1.1585  -1.1555  -1.1555  -1.1472  -1.1462  -1.1238  -1.1238
    -1.0628  -1.0627  -1.0605  -1.0604  -1.0197  -1.0197  -1.0007  -0.9975
    -0.9391  -0.9389  -0.9301  -0.9298  -0.8980  -0.8979  -0.8970  -0.8970
    -0.8932  -0.8928  -0.8550  -0.8550  -0.8516  -0.8511  -0.8394  -0.8383
    -0.8345  -0.8330  -0.8266  -0.8265  -0.8022  -0.8016  -0.7827  -0.7823
    -0.6801  -0.6800  -0.6688  -0.6670  -0.6654  -0.6627  -0.6585  -0.6585
    -0.6508  -0.6485  -0.6313  -0.6311  -0.6293  -0.6291  -0.5970  -0.5968
    -0.5959  -0.5957  -0.5705  -0.5698  -0.5537  -0.5527  -0.5527  -0.5518
    -0.5298  -0.5282  -0.5218  -0.5218  -0.5216  -0.5216  -0.5094  -0.5094
    -0.5049  -0.5040  -0.4774  -0.4774  -0.4760  -0.4759  -0.4382  -0.4366
    -0.4337  -0.4314  -0.3608  -0.3606  -0.3597  -0.3594  -0.3553  -0.3550
    -0.3536  -0.3535  -0.3127  -0.3124  -0.3104  -0.3102  -0.2768  -0.2766
    -0.2538  -0.2537  -0.2512  -0.2508  -0.2481  -0.2481  -0.2474  -0.2469
    -0.2449  -0.2449  -0.2440  -0.2437  -0.1604  -0.1596  -0.1568  -0.1537
    -0.1529  -0.1521  -0.1508  -0.1506  -0.1475  -0.1467  -0.1460  -0.1448
    -0.1441  -0.1436  -0.1388  -0.1378  -0.1271  -0.1267  -0.1230  -0.1215
    -0.1149  -0.1145  -0.1118  -0.1117  -0.1112  -0.1108  -0.0983  -0.0982
    -0.0977  -0.0976  -0.0856  -0.0848  -0.0793  -0.0785  -0.0719  -0.0717
    -0.0697  -0.0681  -0.0544  -0.0533  -0.0444  -0.0415   0.0638   0.0640
     0.0654   0.0672   0.0908   0.0935   0.0936   0.0939   0.0965   0.0984
     0.1096   0.1102   0.1151   0.1168   0.1196   0.1198   0.1203   0.1230
     0.1242   0.1250   0.1264   0.1284   0.1287   0.1301   0.1408   0.1412
     0.1426   0.1464   0.1659   0.1664   0.1678   0.1694   0.1699   0.1746
     0.1907   0.1957   0.2178   0.2216   0.2660   0.2661   0.2740   0.2746
     0.2799   0.2808   0.2933   0.2959   0.3010   0.3011   0.3028   0.3038
     0.3042   0.3053   0.3089   0.3097   0.3104   0.3120   0.3140   0.3149
     0.3170   0.3188   0.3211   0.3220   0.3367   0.3488   0.3591   0.3599
     0.3711   0.3841   0.3966   0.3972   0.3983   0.4031   0.4060   0.4063
     0.4070   0.4072   0.4116   0.4119   0.4202   0.4210   0.4255   0.4256
     0.4399   0.4399   0.4459   0.4474   0.4531   0.4559   0.4815   0.4816
     0.4825   0.4827   0.4900   0.4918   0.5001   0.5098   0.5165   0.5202
     0.5410   0.5410   0.5549   0.5550   0.5570   0.5603   0.5927   0.5949
     0.5984   0.5987   0.6096   0.6101   0.6106   0.6107   0.6110   0.6114
     0.6205   0.6303   0.6305   0.6349   0.6421   0.6434   0.6604   0.6607
     0.6622   0.6623   0.6662   0.6813   0.6816   0.6827   0.6830   0.6835
     0.6854   0.6982   0.7146   0.7210   0.7222   0.7237   0.7745   0.7801
     0.7862   0.7867   0.7885   0.7889   0.8135   0.8141   0.8260   0.8278
     0.8345   0.8359   0.8504   0.8505   0.8510   0.8518   0.8545   0.8584
     0.8855   0.8865   0.8874   0.8874   0.8898   0.8904   0.8948   0.8954
     0.9073   0.9075   0.9099   0.9100   0.9112   0.9113   0.9138   0.9143
     0.9153   0.9166   0.9218   0.9237   0.9443   0.9445   0.9473   0.9476
     0.9476   0.9478   0.9794   0.9808   0.9832   0.9865   0.9870   0.9873
     1.0061   1.0068   1.0108   1.0124   1.0156   1.0156   1.0175   1.0186
     1.0199   1.0217   1.0340   1.0341   1.0432   1.0475   1.0710   1.0732
     1.0758   1.0763   1.0864   1.0868   1.0885   1.0885   1.0885   1.0887
     1.0952   1.0968   1.1008   1.1010   1.1030   1.1031   1.1053   1.1057
     1.1114   1.1126   1.1175   1.1180   1.1186   1.1187   1.1289   1.1290
     1.1301   1.1302   1.1403   1.1405   1.1519   1.1562   1.1591   1.1606
     1.1734   1.1734   1.1746   1.1750   1.1878   1.1878   1.1881   1.1883
     1.2054   1.2069   1.2090   1.2099   1.2194   1.2195   1.2204   1.2209
     1.2394   1.2397   1.2405   1.2486   1.2544   1.2568   1.2603   1.2604
     1.2608   1.2609   1.2715   1.2719   1.2775   1.2820   1.2861   1.2862
     1.2866   1.2868   1.3064   1.3065   1.3472   1.3486   1.3546   1.3576
     1.3825   1.3826   1.3869   1.3873   1.7785   1.7806   1.7873   1.7892
     1.9869   1.9872   1.9985   1.9992   2.0570   2.0578   2.0602   2.0610
     2.3256   2.3298   2.3749   2.3759   2.5883   2.5904   2.5988   2.5996
     2.7631   2.7634   2.9537   2.9558   2.9870   2.9876   3.2651   3.2652
     3.4541   3.4563   3.4886   3.4920   3.6767   3.6777   3.6789   3.6809
     3.8374   3.8398   3.8558   3.8587   3.8701   3.8719   4.3660   4.3739
     4.4447   4.4476   4.5599   4.5633   4.5906   4.5925   4.7287   4.7313
     4.7413   4.7489   4.7838   4.7867   4.8030   4.8037   4.8363   4.8398
     4.8941   4.8973   4.9853   5.0319   5.1895   5.1954   5.2551   5.2594
     5.2737   5.2766   5.4901   5.4951   5.7035   5.7168   5.7418   5.7522
     5.7540   5.7579   5.7965   5.7982   6.0151   6.0220   6.1695   6.1734
     6.4915   6.4972   6.8075   6.8164   6.8503   6.8623   6.9235   6.9256
     7.2676   7.2762   7.3402   7.3423   7.3502   7.3518   7.3592   7.3626
     7.4912   7.4934   7.5814   7.5840   7.6054   7.6080   7.6384   7.6389
     7.6891   7.6929   7.7251   7.7306   7.7808   7.7950   7.8065   7.8176
     7.8970   7.8974   7.9681   7.9707   8.1079   8.1083   8.5010   8.5017
     8.5056   8.5118   8.5280   8.5283   8.5908   8.5909   8.7261   8.7313
     8.7346   8.7348   8.7826   8.7963   8.8015   8.8061   9.0291   9.0309
     9.1091   9.1093   9.1630   9.1669   9.2186   9.2246   9.2595   9.2776

          k =-0.5000-0.2165 0.0000 (256328 PWs)   bands (ev):

   -15.8576 -15.8541 -15.2113 -15.2093 -14.2520 -14.2492 -13.0021 -12.9984
   -12.0554 -12.0550 -11.6114 -11.6096 -11.5228 -11.5223 -10.3491 -10.3477
    -9.2216  -9.2214  -9.1760  -9.1678  -8.0650  -8.0650  -7.4387  -7.4367
    -5.5673  -5.5632  -5.5013  -5.5005  -5.4094  -5.4093  -5.3984  -5.3981
    -5.0083  -4.9961  -4.5184  -4.5140  -4.4934  -4.4835  -4.4262  -4.4260
    -4.4152  -4.4148  -4.3829  -4.3818  -4.3433  -4.3432  -4.0237  -4.0141
    -3.6280  -3.6215  -3.5995  -3.5955  -3.5931  -3.5917  -3.5851  -3.5842
    -3.4872  -3.4863  -3.3212  -3.3170  -2.8114  -2.8112  -2.8075  -2.8075
    -2.7770  -2.7761  -2.7689  -2.7677  -2.5536  -2.5473  -2.5151  -2.5060
    -2.3054  -2.3051  -2.2986  -2.2982  -2.2630  -2.2610  -2.2223  -2.2216
    -2.1577  -2.1548  -2.0320  -2.0312  -2.0295  -2.0287  -1.8304  -1.8295
    -1.8063  -1.8062  -1.7303  -1.7300  -1.7220  -1.7220  -1.7219  -1.7215
    -1.6838  -1.6795  -1.6775  -1.6746  -1.6626  -1.6621  -1.6616  -1.6605
    -1.6115  -1.6112  -1.6102  -1.6098  -1.6097  -1.6094  -1.6080  -1.6077
    -1.5877  -1.5876  -1.5875  -1.5875  -1.5355  -1.5351  -1.5302  -1.5297
    -1.4658  -1.4652  -1.4578  -1.4574  -1.4189  -1.4188  -1.4179  -1.4177
    -1.4163  -1.4117  -1.3932  -1.3927  -1.3829  -1.3827  -1.3581  -1.3580
    -1.3502  -1.3501  -1.3435  -1.3432  -1.3429  -1.3425  -1.3386  -1.3382
    -1.2844  -1.2841  -1.2834  -1.2830  -1.2678  -1.2676  -1.2664  -1.2663
    -1.2647  -1.2644  -1.2619  -1.2616  -1.2244  -1.2152  -1.1255  -1.1200
    -1.1049  -1.1035  -1.1002  -1.1001  -1.0803  -1.0803  -1.0800  -1.0799
    -1.0142  -1.0140  -0.9958  -0.9957  -0.9932  -0.9930  -0.9849  -0.9846
    -0.9837  -0.9834  -0.9420  -0.9396  -0.9285  -0.9283  -0.9214  -0.9195
    -0.9133  -0.9122  -0.8939  -0.8927  -0.8896  -0.8894  -0.8804  -0.8791
    -0.7951  -0.7941  -0.7890  -0.7877  -0.7751  -0.7746  -0.7647  -0.7635
    -0.7234  -0.7233  -0.7229  -0.7227  -0.6742  -0.6734  -0.6731  -0.6722
    -0.6537  -0.6534  -0.6495  -0.6490  -0.6229  -0.6215  -0.6138  -0.6137
    -0.6130  -0.6129  -0.6052  -0.6042  -0.5572  -0.5541  -0.5400  -0.5367
    -0.5003  -0.4998  -0.4981  -0.4976  -0.4834  -0.4832  -0.4828  -0.4826
    -0.4659  -0.4646  -0.4635  -0.4618  -0.4005  -0.4003  -0.3798  -0.3795
    -0.3785  -0.3784  -0.3768  -0.3766  -0.3742  -0.3733  -0.3728  -0.3712
    -0.3404  -0.3403  -0.3401  -0.3401  -0.3257  -0.3256  -0.3250  -0.3249
    -0.3216  -0.3215  -0.3203  -0.3202  -0.2523  -0.2519  -0.2481  -0.2480
    -0.2241  -0.2238  -0.2198  -0.2194  -0.1740  -0.1701  -0.1659  -0.1636
    -0.1474  -0.1470  -0.1460  -0.1457  -0.1409  -0.1400  -0.1349  -0.1331
    -0.1318  -0.1315  -0.1253  -0.1250  -0.1230  -0.1228  -0.1225  -0.1224
    -0.1204  -0.1198  -0.1193  -0.1177  -0.1054  -0.1026  -0.1010  -0.1008
    -0.0987  -0.0984  -0.0748  -0.0745  -0.0741  -0.0740  -0.0611  -0.0606
    -0.0590  -0.0590  -0.0199  -0.0186  -0.0146  -0.0144  -0.0136  -0.0131
     0.0198   0.0198   0.0207   0.0213   0.0723   0.0862   0.1010   0.1019
     0.1041   0.1052   0.1156   0.1166   0.1211   0.1212   0.1241   0.1337
     0.1347   0.1348   0.1354   0.1363   0.1404   0.1456   0.1467   0.1473
     0.1475   0.1503   0.1547   0.1558   0.1925   0.1931   0.2214   0.2322
     0.2331   0.2332   0.2353   0.2357   0.2364   0.2376   0.2378   0.2425
     0.2488   0.2568   0.2736   0.2743   0.2800   0.2804   0.2809   0.2843
     0.2858   0.2894   0.2894   0.2918   0.3307   0.3317   0.3326   0.3327
     0.3340   0.3370   0.3428   0.3428   0.3437   0.3439   0.3517   0.3521
     0.3559   0.3572   0.3663   0.3674   0.3721   0.3739   0.3800   0.3804
     0.3843   0.3902   0.4075   0.4115   0.4349   0.4392   0.4532   0.4557
     0.4570   0.4582   0.4585   0.4587   0.4599   0.4638   0.4676   0.4716
     0.4821   0.4847   0.5004   0.5011   0.5020   0.5036   0.5083   0.5111
     0.5115   0.5143   0.5236   0.5247   0.5513   0.5520   0.5583   0.5613
     0.5818   0.5853   0.5873   0.5874   0.5926   0.6062   0.6192   0.6196
     0.6226   0.6231   0.6397   0.6401   0.6487   0.6502   0.7014   0.7014
     0.7020   0.7021   0.7365   0.7365   0.7401   0.7401   0.7489   0.7491
     0.7606   0.7622   0.7749   0.7853   0.7927   0.7928   0.7949   0.8030
     0.8070   0.8109   0.8146   0.8149   0.8161   0.8166   0.8170   0.8175
     0.8196   0.8197   0.8208   0.8214   0.8260   0.8340   0.8385   0.8390
     0.8488   0.8495   0.8510   0.8510   0.8590   0.8614   0.8677   0.8702
     0.8714   0.8731   0.8864   0.8869   0.8889   0.8919   0.8992   0.8995
     0.9075   0.9084   0.9110   0.9120   0.9138   0.9172   0.9635   0.9639
     0.9646   0.9651   0.9662   0.9670   0.9687   0.9703   0.9793   0.9861
     0.9884   0.9889   1.0009   1.0030   1.0098   1.0100   1.0148   1.0176
     1.0257   1.0261   1.0479   1.0483   1.0522   1.0528   1.0532   1.0542
     1.0568   1.0576   1.0597   1.0597   1.0607   1.0615   1.0946   1.0972
     1.1189   1.1197   1.1270   1.1280   1.1283   1.1288   1.1294   1.1308
     1.1332   1.1334   1.1337   1.1339   1.1398   1.1456   1.1486   1.1523
     1.1539   1.1543   1.1573   1.1577   1.1611   1.1622   1.1637   1.1640
     1.1699   1.1709   1.1730   1.1732   1.1762   1.1783   1.1915   1.1927
     1.1987   1.1988   1.2183   1.2186   1.2231   1.2233   1.2344   1.2345
     1.2389   1.2398   1.2418   1.2425   1.2563   1.2569   1.2667   1.2695
     1.2746   1.2751   1.2973   1.3035   1.3148   1.3216   1.3475   1.3480
     1.3497   1.3503   1.3673   1.3684   1.3737   1.3751   1.3813   1.3814
     1.3883   1.3887   1.3893   1.3912   1.3939   1.3942   1.6017   1.6026
     1.6082   1.6090   2.0527   2.0537   2.1053   2.1079   2.3014   2.3020
     2.3290   2.3296   2.5334   2.5357   2.5580   2.5597   2.7738   2.7808
     2.8161   2.8201   2.8373   2.8524   3.2182   3.2193   3.2250   3.2259
     3.4077   3.4079   3.4448   3.4459   3.7034   3.7041   3.7048   3.7055
     3.9115   3.9131   3.9864   3.9865   4.0006   4.0017   4.0659   4.0737
     4.2680   4.2695   4.3044   4.3057   4.4150   4.4284   4.4451   4.4665
     4.7823   4.7845   4.7907   4.8349   4.9175   4.9317   4.9357   4.9606
     4.9808   4.9845   4.9950   5.0076   5.0498   5.0732   5.1327   5.1947
     5.4184   5.4290   5.4884   5.4908   5.4951   5.5038   5.5400   5.5587
     5.6125   5.6269   6.4586   6.4603   6.5528   6.5537   6.6234   6.6239
     6.8241   6.8334   6.8374   6.8407   6.8451   6.8747   6.8897   6.8958
     6.9019   6.9099   7.0260   7.0291   7.1062   7.1068   7.1155   7.1160
     7.2660   7.2709   7.2877   7.3015   7.4449   7.4482   7.6657   7.6683
     7.6773   7.6788   7.7084   7.7336   7.9853   7.9950   8.0006   8.0118
     8.1399   8.1404   8.2528   8.2532   8.3633   8.3636   8.4887   8.4917
     8.6221   8.6234   8.6345   8.6369   8.7110   8.7118   8.7153   8.7202
     8.7284   8.7324   8.7439   8.7468   8.8447   8.8452   8.8680   8.8841
     8.9351   8.9370   9.0477   9.0483   9.1730   9.1780   9.2633   9.2634

     the Fermi energy is     3.1011 ev

!    total energy              =  -12500.28409770 Ry
     Harris-Foulkes estimate   =  -12500.28409771 Ry
     estimated scf accuracy    <          5.0E-09 Ry

     The total energy is the sum of the following terms:

     one-electron contribution = -109128.15120464 Ry
     hartree contribution      =   55893.51848059 Ry
     xc contribution           =   -4387.92115458 Ry
     ewald contribution        =   45128.32633531 Ry
     Dispersion Correction     =      -2.76364962 Ry
     smearing contrib. (-TS)   =      -3.29290476 Ry

     convergence has been achieved in  45 iterations

     negative rho (up, down):  2.226E-03 0.000E+00

     Forces acting on atoms (Ry/au):

     atom    1 type  1   force =     0.00000000   -0.00000700    0.00002339
     atom    2 type  1   force =     0.00000149   -0.00000372    0.00003997
     atom    3 type  1   force =     0.00000000    0.00003355    0.00000989
     atom    4 type  1   force =    -0.00000149   -0.00000372    0.00003997
     atom    5 type  1   force =     0.00000000    0.00001548    0.00004658
     atom    6 type  1   force =    -0.00000192   -0.00000208    0.00001996
     atom    7 type  1   force =     0.00000000    0.00000404    0.00000683
     atom    8 type  1   force =     0.00000192   -0.00000208    0.00001996
     atom    9 type  1   force =     0.00000000    0.00001046    0.00002491
     atom   10 type  1   force =    -0.00000071   -0.00001790    0.00002684
     atom   11 type  1   force =     0.00000000   -0.00003667    0.00001147
     atom   12 type  1   force =     0.00000071   -0.00001790    0.00002684
     atom   13 type  1   force =     0.00000000    0.00000644    0.00002596
     atom   14 type  1   force =    -0.00001285    0.00000533    0.00006373
[...]
     1.6226   1.6281   2.0681   2.0739   2.1498   2.1556   2.2813   2.2813
     2.3516   2.3558   2.5279   2.5428   2.5591   2.5840   2.6185   2.6452
     2.8452   2.8524   2.8797   2.9429   3.2356   3.2417   3.2455   3.2466
     3.4194   3.4204   3.4706   3.4781   3.7234   3.7251   3.7275   3.7276
     3.9268   3.9466   3.9870   3.9975   4.0118   4.0145   4.1245   4.1596
     4.2811   4.2870   4.3115   4.3157   4.3968   4.4080   4.4718   4.4821
     4.7035   4.7193   4.7929   4.8278   4.9141   4.9244   4.9259   4.9599
     4.9957   5.0025   5.0198   5.0377   5.0940   5.0970   5.1317   5.2087
     5.3354   5.3561   5.4835   5.4990   5.5086   5.5184   5.6031   5.6648
     5.7155   5.7742   6.3465   6.4010   6.5929   6.6080   6.6399   6.6455
     6.7771   6.7910   6.8009   6.8558   6.8630   6.8717   6.9303   6.9372
     6.9540   6.9689   7.0804   7.0960   7.1179   7.1257   7.1323   7.1354
     7.2724   7.2793   7.3134   7.3905   7.4759   7.5043   7.6777   7.6816
     7.7012   7.7108   7.7878   7.9179   8.0004   8.0044   8.0323   8.0414
     8.1353   8.1365   8.2662   8.2681   8.3675   8.3762   8.4582   8.4661
     8.5898   8.5900   8.6220   8.6236   8.7114   8.7200   8.7251   8.7269
     8.7549   8.7559   8.7689   8.7773   8.8115   8.8426   8.8535   8.8757
     8.9072   8.9216   9.0302   9.0347   9.1120   9.1529   9.2656   9.2732

     the Fermi energy is     3.1149 ev

!    total energy              =  -12500.37559119 Ry
     Harris-Foulkes estimate   =  -12500.37559118 Ry
     estimated scf accuracy    <          9.3E-09 Ry

     The total energy is the sum of the following terms:

     one-electron contribution = -109784.41261383 Ry
     hartree contribution      =   56221.91135644 Ry
     xc contribution           =   -4387.50841851 Ry
     ewald contribution        =   45455.70012864 Ry
     Dispersion Correction     =      -2.78305888 Ry
     smearing contrib. (-TS)   =      -3.28298507 Ry

     convergence has been achieved in  14 iterations

     negative rho (up, down):  2.224E-03 0.000E+00

     Forces acting on atoms (Ry/au):

     atom    1 type  1   force =     0.00000000    0.00015172   -0.00017359
     atom    2 type  1   force =     0.00001618   -0.00013459    0.00018642
     atom    3 type  1   force =     0.00000000    0.00023000   -0.00015288
     atom    4 type  1   force =    -0.00001618   -0.00013459    0.00018642
     atom    5 type  1   force =     0.00000000   -0.00016506   -0.00000913
     atom    6 type  1   force =    -0.00003024   -0.00000189   -0.00022469
     atom    7 type  1   force =     0.00000000   -0.00021416    0.00000327
     atom    8 type  1   force =     0.00003024   -0.00000189   -0.00022469
     atom    9 type  1   force =     0.00000000    0.00004553    0.00009296
     atom   10 type  1   force =     0.00001670   -0.00001427    0.00019108
     atom   11 type  1   force =     0.00000000    0.00000712    0.00003394
     atom   12 type  1   force =    -0.00001670   -0.00001427    0.00019108
     atom   13 type  1   force =     0.00000000   -0.00013298   -0.00028125
     atom   14 type  1   force =    -0.00001333   -0.00003059   -0.00069372
     atom   15 type  1   force =     0.00000000   -0.00011128   -0.00023714
     atom   16 type  1   force =     0.00001333   -0.00003059   -0.00069372
     atom   17 type  1   force =     0.00000000    0.00015479   -0.00084366
     atom   18 type  1   force =     0.00000498    0.00040806   -0.00061520
     atom   19 type  1   force =     0.00000000    0.00017414   -0.00072092
     atom   20 type  1   force =    -0.00000498    0.00040806   -0.00061520
     atom   21 type  1   force =     0.00000000    0.00038141    0.00029644
     atom   22 type  1   force =    -0.00002422    0.00031188    0.00089295
     atom   23 type  1   force =     0.00000000    0.00040188    0.00048428
     atom   24 type  1   force =     0.00002422    0.00031188    0.00089295
     atom   25 type  1   force =     0.00000000   -0.00007320    0.00021350
     atom   26 type  1   force =    -0.00002466    0.00016091    0.00028641
     atom   27 type  1   force =     0.00000000    0.00004935    0.00007785
     atom   28 type  1   force =     0.00002466    0.00016091    0.00028641
     atom   29 type  1   force =     0.00000000   -0.00030090    0.00091924
     atom   30 type  1   force =    -0.00004032   -0.00022343    0.00019161
     atom   31 type  1   force =     0.00000000   -0.00034700    0.00080464
     atom   32 type  1   force =     0.00004032   -0.00022343    0.00019161
     atom   33 type  1   force =     0.00000000   -0.00003217    0.00099664
     atom   34 type  1   force =    -0.00005339   -0.00025997    0.00108818
     atom   35 type  1   force =     0.00000000   -0.00013996    0.00076989
     atom   36 type  1   force =     0.00005339   -0.00025997    0.00108818
     atom   37 type  1   force =     0.00000000    0.00014749    0.00107143
     atom   38 type  1   force =    -0.00006589    0.00013579    0.00086252
     atom   39 type  1   force =     0.00000000    0.00018586    0.00099288
     atom   40 type  1   force =     0.00006589    0.00013579    0.00086252
     atom   41 type  1   force =     0.00000000   -0.00056956    0.00117093
     atom   42 type  1   force =     0.00003798   -0.00084745    0.00093454
     atom   43 type  1   force =     0.00000000   -0.00052160    0.00062906
     atom   44 type  1   force =    -0.00003798   -0.00084745    0.00093454
     atom   45 type  1   force =     0.00000000   -0.00014441    0.00045135
     atom   46 type  1   force =    -0.00006496    0.00043209    0.00010228
     atom   47 type  1   force =     0.00000000   -0.00011282    0.00022922
     atom   48 type  1   force =     0.00006496    0.00043209    0.00010228
     atom   49 type  1   force =     0.00000000    0.00091470    0.00098352
     atom   50 type  1   force =     0.00001768    0.00060800    0.00092630
     atom   51 type  1   force =     0.00000000    0.00087311    0.00097767
     atom   52 type  1   force =    -0.00001768    0.00060800    0.00092630
     atom   53 type  1   force =     0.00000000    0.00079590    0.00139499
     atom   54 type  1   force =     0.00000726    0.00009050    0.00215335
     atom   55 type  1   force =     0.00000000    0.00081714    0.00139104
     atom   56 type  1   force =    -0.00000726    0.00009050    0.00215335
     atom   57 type  1   force =     0.00000000   -0.00019431    0.00262247
     atom   58 type  1   force =    -0.00002882   -0.00062847    0.00166358
     atom   59 type  1   force =     0.00000000   -0.00021770    0.00252069
     atom   60 type  1   force =     0.00002882   -0.00062847    0.00166358
     atom   61 type  1   force =     0.00000000    0.00066825   -0.00027754
     atom   62 type  1   force =     0.00039520    0.00028794   -0.00188158
     atom   63 type  1   force =     0.00000000    0.00082558   -0.00016076
     atom   64 type  1   force =    -0.00039520    0.00028794   -0.00188158
     atom   65 type  1   force =     0.00000000    0.00057703    0.00100552
     atom   66 type  1   force =    -0.00008445    0.00018428    0.00034995
     atom   67 type  1   force =     0.00000000    0.00003957    0.00062648
     atom   68 type  1   force =     0.00008445    0.00018428    0.00034995
     atom   69 type  1   force =     0.00000000   -0.00001607   -0.00099298
     atom   70 type  1   force =    -0.00006217   -0.00048976   -0.00009014
     atom   71 type  1   force =     0.00000000   -0.00008112   -0.00115804
     atom   72 type  1   force =     0.00006217   -0.00048976   -0.00009014
     atom   73 type  1   force =     0.00000000    0.00013960   -0.00261882
     atom   74 type  1   force =     0.00000318   -0.00028200   -0.00181903
     atom   75 type  1   force =     0.00000000    0.00031800   -0.00273368
     atom   76 type  1   force =    -0.00000318   -0.00028200   -0.00181903
     atom   77 type  1   force =     0.00000000    0.00003547   -0.00157313
     atom   78 type  1   force =     0.00002958    0.00005411   -0.00275690
     atom   79 type  1   force =     0.00000000   -0.00020676   -0.00192616
     atom   80 type  1   force =    -0.00002958    0.00005411   -0.00275690
     atom   81 type  1   force =     0.00000000    0.00032084   -0.00010041
     atom   82 type  1   force =     0.00010295    0.00057604    0.00004217
     atom   83 type  1   force =     0.00000000    0.00066429   -0.00305135
     atom   84 type  1   force =    -0.00010295    0.00057604    0.00004217
     atom   85 type  1   force =     0.00000000    0.00003451   -0.00024436
     atom   86 type  1   force =    -0.00009032    0.00018323   -0.00000869
     atom   87 type  1   force =     0.00000000   -0.00046670   -0.00048254
     atom   88 type  1   force =     0.00009032    0.00018323   -0.00000869
     atom   89 type  1   force =     0.00000000    0.00028567    0.00034936
     atom   90 type  1   force =     0.00014104   -0.00033494   -0.00014160
     atom   91 type  1   force =     0.00000000    0.00001434    0.00033091
     atom   92 type  1   force =    -0.00014104   -0.00033494   -0.00014160
     atom   93 type  1   force =     0.00000000   -0.00071920   -0.00001123
     atom   94 type  1   force =    -0.00023335   -0.00000725    0.00016529
     atom   95 type  1   force =     0.00000000   -0.00069965    0.00075348
     atom   96 type  1   force =     0.00023335   -0.00000725    0.00016529
     atom   97 type  1   force =     0.00000000    0.00053822    0.00019849
     atom   98 type  1   force =     0.00019319    0.00046155    0.00012534
     atom   99 type  1   force =     0.00000000   -0.00012480   -0.00025086
     atom  100 type  1   force =    -0.00019319    0.00046155    0.00012534
     atom  101 type  2   force =     0.00000000   -0.00002365   -0.00229518
     atom  102 type  2   force =     0.00000000   -0.00057534   -0.00105393
     atom  103 type  2   force =    -0.00007709   -0.00116007   -0.00067617
     atom  104 type  2   force =     0.00023108   -0.00184600    0.00000408
     atom  105 type  2   force =     0.00049440    0.00016752    0.00153571
     atom  106 type  2   force =    -0.00013603   -0.00106112   -0.00088818
     atom  107 type  2   force =     0.00000000   -0.00211450    0.00321638
     atom  108 type  2   force =     0.00000000   -0.00129428   -0.00225031
     atom  109 type  2   force =    -0.00049440    0.00016752    0.00153571
     atom  110 type  2   force =     0.00013603   -0.00106112   -0.00088818
     atom  111 type  2   force =     0.00007709   -0.00116007   -0.00067617
     atom  112 type  2   force =    -0.00023108   -0.00184600    0.00000408
     atom  113 type  2   force =     0.00000000    0.00163012    0.00021955
     atom  114 type  2   force =     0.00000000   -0.00101237   -0.00052840
     atom  115 type  2   force =     0.00013789   -0.00054668    0.00082290
     atom  116 type  2   force =    -0.00088298    0.00247693   -0.00045994
     atom  117 type  2   force =    -0.00031705    0.00130919    0.00048291
     atom  118 type  2   force =     0.00078386   -0.00090926   -0.00005780
     atom  119 type  2   force =     0.00000000   -0.00048823   -0.00042788
     atom  120 type  2   force =     0.00000000    0.00181606   -0.00049859
     atom  121 type  2   force =     0.00031705    0.00130919    0.00048291
     atom  122 type  2   force =    -0.00078386   -0.00090926   -0.00005780
     atom  123 type  2   force =    -0.00013789   -0.00054668    0.00082290
     atom  124 type  2   force =     0.00088298    0.00247693   -0.00045994
     atom  125 type  2   force =     0.00000000    0.00046782   -0.00050206
     atom  126 type  2   force =     0.00111378    0.00002605   -0.00016331
     atom  127 type  2   force =    -0.00090328   -0.00060136   -0.00062389
     atom  128 type  2   force =     0.00000000   -0.00054038   -0.00014925
     atom  129 type  2   force =     0.00090328   -0.00060136   -0.00062389
     atom  130 type  2   force =    -0.00111378    0.00002605   -0.00016331
     atom  131 type  3   force =     0.00018147    0.00043951   -0.00053548
     atom  132 type  3   force =     0.00000000    0.00052256   -0.00044094
     atom  133 type  3   force =    -0.00018147    0.00043951   -0.00053548
     atom  134 type  3   force =     0.00000000   -0.00023634   -0.00117162
     atom  135 type  3   force =    -0.00001842   -0.00011026   -0.00062596
     atom  136 type  3   force =     0.00001842   -0.00011026   -0.00062596

     Total force =     0.014929     Total SCF correction =     0.000449

     number of scf cycles    =  29
     number of bfgs steps    =  27

     energy   old            =  -12500.3751864937 Ry
     energy   new            =  -12500.3755911939 Ry

     CASE: energy  _new < energy  _old

     new trust radius        =       0.0209814834 bohr
     new conv_thr            =       0.0000000100 Ry


ATOMIC_POSITIONS (angstrom)
Cu       0.000000000  -0.000829132   7.386830164
Cu       1.844443097   1.707942874   7.399365766
Cu       3.689036991  -0.001134632   7.386342761
Cu       5.533630886   1.707942874   7.399365766
Cu       0.000000000   3.410552620   7.417564754
Cu       1.844583530   5.109005578   7.421135158
Cu       3.689036991   3.410610145   7.416149604
Cu       5.533490453   5.109005578   7.421135158
Cu       0.000000000   6.811397165   7.405445987
Cu       1.845362907   8.519546205   7.390832391
Cu       3.689036991   6.809879709   7.408130837
Cu       5.532711076   8.519546205   7.390832391
Cu       0.000000000  10.228933634   7.387590940
Cu       1.844618640  11.932888843   7.393708417
Cu       3.689036991  10.231364494   7.389788570
Cu       5.533455343  11.932888843   7.393708417
Cu       0.000000000  13.629827116   7.393369203
Cu       1.844567973  15.329612597   7.387351672
Cu       3.689036991  13.629138117   7.392659986
Cu       5.533506010  15.329612597   7.387351672
Cu       0.000000000   1.690295420   9.230068351
Cu       1.845000957  -0.007584085   9.217071603
Cu       3.689036991   1.690584522   9.229813714
Cu       5.533073026  -0.007584085   9.217071603
Cu       0.000000000   5.115049268   9.247965771
Cu       1.844995586   3.399102662   9.246207262
Cu       3.689036991   5.111160561   9.250377134
Cu       5.533078397   3.399102662   9.246207262
Cu       0.000000000   8.529024682   9.218965107
Cu       1.844895582   6.825638005   9.234474919
Cu       3.689036991   8.529508833   9.219709006
Cu       5.533178401   6.825638005   9.234474919
Cu       0.000000000  11.929619129   9.222387520
Cu       1.845049433  10.228629925   9.217425243
Cu       3.689036991  11.932897462   9.227650920
Cu       5.533024550  10.228629925   9.217425243
Cu       0.000000000  15.335995280   9.217026434
Cu       1.845095321  13.635767353   9.225119033
Cu       3.689036991  15.336209651   9.216882964
Cu       5.532978662  13.635767353   9.225119033
Cu       0.000000000  -0.013850629  11.073866707
Cu       1.846309207   1.676493268  11.076068066
Cu       3.689036991  -0.014291892  11.077172115
Cu       5.531764776   1.676493268  11.076068066
Cu       0.000000000   3.389777700  11.069676556
Cu       1.846414961   5.122546741  11.073867337
Cu       3.689036991   3.384015417  11.079533723
Cu       5.531659022   5.122546741  11.073867337
Cu       0.000000000   6.838395584  11.075185580
Cu       1.843072374   8.535613490  11.071046059
Cu       3.689036991   6.838262106  11.072555795
Cu       5.535001609   8.535613490  11.071046059
Cu       0.000000000  10.228560324  11.069967711
Cu       1.845418218  11.930202242  11.065383991
Cu       3.689036991  10.227004476  11.070198364
Cu       5.532655765  11.930202242  11.065383991
Cu       0.000000000  13.637894302  11.064603473
Cu       1.845399002  15.340406597  11.074309791
Cu       3.689036991  13.647917553  11.073455227
Cu       5.532674981  15.340406597  11.074309791
Cu       0.000000000   1.676402726  12.916798818
Cu       1.846142499  -0.025097799  12.954115926
Cu       3.689036991   1.647192299  12.949897687
Cu       5.531931484  -0.025097799  12.954115926
Cu       0.000000000   5.113426475  12.877799046
Cu       1.853363673   3.396920151  12.882278744
Cu       3.689036991   5.123170377  12.887012970
Cu       5.524710310   3.396920151  12.882278744
Cu       0.000000000   8.551064728  12.943765852
Cu       1.843770612   6.850442301  12.922224526
Cu       3.689036991   8.544652051  12.934517052
Cu       5.534303371   6.850442301  12.922224526
Cu       0.000000000  11.938188933  12.917000564
Cu       1.842509959  10.239506774  12.929510936
Cu       3.689036991  11.941677121  12.912780744
Cu       5.535564024  10.239506774  12.929510936
Cu       0.000000000  15.322641462  12.934274036
Cu       1.849530278  13.631898710  12.913233388
Cu       3.689036991  15.352632307  12.968917079
Cu       5.528543705  13.631898710  12.913233388
Cu       0.000000000  -0.009063083  14.772903694
Cu       1.841768845   1.726439316  14.700751915
Cu       3.689036991  -0.032767306  14.923258962
Cu       5.536305138   1.726439316  14.700751915
Cu       0.000000000   3.420157710  14.689853458
Cu       1.849360979   5.104600456  14.691237730
Cu       3.689036991   3.416572982  14.704284466
Cu       5.528713004   5.104600456  14.691237730
Cu       0.000000000   6.795142970  14.699938477
Cu       1.834508517   8.554377087  14.781353831
Cu       3.689036991   6.815211385  14.711346597
Cu       5.543565466   8.554377087  14.781353831
Cu       0.000000000  10.275807505  14.771604440
Cu       1.856274996  11.948705476  14.762848102
Cu       3.689036991  10.260547204  14.737887376
Cu       5.521798987  11.948705476  14.762848102
Cu       0.000000000  13.603690576  14.778828113
Cu       1.823981754  15.293169950  14.761127853
Cu       3.689036991  13.630935599  14.779351880
Cu       5.554092229  15.293169950  14.761127853
C        0.000000000   0.670752585  17.528195844
C        0.000000000   2.110750686  17.592684056
C        1.230077244  -0.017132278  17.441953008
C        1.227785152   2.822182153  17.593716107
C        2.451965635   0.674846151  17.388947280
C        2.455417304   2.111786989  17.496303172
C        3.689036991  -0.015999983  17.183209224
C        3.689036991   2.824171415  17.514915917
C        4.926108347   0.674846151  17.388947280
C        4.922656678   2.111786989  17.496303172
C        6.147996739  -0.017132278  17.441953008
C        6.150288831   2.822182153  17.593716107
C        0.000000000   4.965213089  17.637135515
C        0.000000000   6.394765603  17.588618843
C        1.228033460   4.252536458  17.623130202
C        1.229287553   7.106925436  17.549231980
C        2.457948545   4.965409294  17.594226464
C        2.458062247   6.394985135  17.566321935
C        3.689036991   4.252443342  17.579693415
C        3.689036991   7.106536928  17.522690667
C        4.920125437   4.965409294  17.594226464
C        4.920011735   6.394985135  17.566321935
C        6.150040523   4.252536458  17.623130202
C        6.148786430   7.106925436  17.549231980
C        0.000000000   9.241861583  17.432748568
C        1.228751745   8.548294717  17.463493890
C        2.460599949   9.235118523  17.388283093
C        3.689036991   8.547259439  17.458425172
C        4.917474033   9.235118523  17.388283093
C        6.149322238   8.548294717  17.463493890
H        1.227916248  -1.109529303  17.395395872
H        3.689036991  -1.103938753  17.296177128
H        6.150157735  -1.109529303  17.395395872
H        0.000000000  10.335707129  17.444012881
H        2.459973369  10.327976124  17.349117907
H        4.918100613  10.327976124  17.349117907



     Writing output data file gc.save
     Check: negative starting charge=   -0.002207
     NEW-OLD atomic charge density approx. for the potential
     Check: negative starting charge=   -0.002206

     negative rho (up, down):  2.258E-03 0.000E+00

     total cpu time spent up to now is   172591.7 secs

     Self-consistent Calculation

     iteration #  1     ecut=    80.00 Ry     beta=0.70
     Davidson diagonalization with overlap
