
     Program PWSCF v.5.4.0 starts on  1May2017 at  9: 3:27 

     This program is part of the open-source Quantum ESPRESSO suite
     for quantum simulation of materials; please cite
         "P. Giannozzi et al., J. Phys.:Condens. Matter 21 395502 (2009);
          URL http://www.quantum-espresso.org", 
     in publications or presentations arising from this work. More details at
     http://www.quantum-espresso.org/quote

     Parallel version (MPI & OpenMP), running on      56 processor cores
     Number of MPI processes:                56
     Threads/MPI process:                     1
     R & G space division:  proc/nbgrp/npool/nimage =      56
     Waiting for input...
     Reading input from standard input
Warning: card &IONS ignored
Warning: card / ignored

     Current dimensions of program PWSCF are:
     Max number of different atomic species (ntypx) = 10
     Max number of k-points (npk) =  40000
     Max angular momentum in pseudopotentials (lmaxx) =  3

     -------------------------------------
     Parameters for Dispersion Correction:
     -------------------------------------
       atom      VdW radius       C_6     

        Cu         2.952        374.666
        C_h        2.744         60.710
        C          2.744         60.710
        H          1.892          4.857

     Subspace diagonalization in iterative solution of the eigenvalue problem:
     one sub-group per band group will be used
     scalapack distributed-memory algorithm (size of sub-group:  5*  5 procs)

 
     Parallelization info
     --------------------
     sticks:   dense  smooth     PW     G-vecs:    dense   smooth      PW
     Min         204     204     54                36612    36612    4962
     Max         205     205     55                36617    36617    4968
     Sum       11433   11433   3039              2050409  2050409  278033
 


     bravais-lattice index     =            0
     lattice parameter (alat)  =      13.9425  a.u.
     unit-cell volume          =   21209.0878 (a.u.)^3
     number of atoms/cell      =          153
     number of atomic types    =            4
     number of electrons       =      1300.00
     number of Kohn-Sham states=          780
     kinetic-energy cutoff     =      80.0000  Ry
     charge density cutoff     =     320.0000  Ry
     convergence threshold     =      1.0E-08
     mixing beta               =       0.7000
     number of iterations used =            8  local-TF  mixing
     Exchange-correlation      =  SLA  PW   PBE  PBE ( 1  4  3  4 0 0)

     celldm(1)=  13.942539  celldm(2)=   0.000000  celldm(3)=   0.000000
     celldm(4)=   0.000000  celldm(5)=   0.000000  celldm(6)=   0.000000

     crystal axes: (cart. coord. in units of alat)
               a(1) = (   1.000000   0.000000   0.000000 )  
               a(2) = (   0.000000   2.309401   0.000000 )  
               a(3) = (   0.000000   0.000000   3.388418 )  

     reciprocal axes: (cart. coord. in units 2 pi/alat)
               b(1) = (  1.000000  0.000000  0.000000 )  
               b(2) = (  0.000000  0.433013  0.000000 )  
               b(3) = (  0.000000  0.000000  0.295123 )  


     PseudoPot. # 1 for Cu read from file:
     /home/549/hxw549/Short/pseudopotentials/Cu.pbe-n-van_ak.UPF
     MD5 check sum: 601f7c30f7467666bec936e0661ce3e1
     Pseudo is Ultrasoft + core correction, Zval = 11.0
     Generated by new atomic code, or converted to UPF format
     Using radial grid of  867 points,  6 beta functions with: 
                l(1) =   0
                l(2) =   0
                l(3) =   1
                l(4) =   1
                l(5) =   2
                l(6) =   2
     Q(r) pseudized with  8 coefficients,  rinner =    1.400   1.400   1.400
                                                       1.400   1.400

     PseudoPot. # 2 for C  read from file:
     /home/549/hxw549/Short/pseudopotentials/C.star1s-pbe-mt_gipaw.UPF
     MD5 check sum: ef0cb3dee31bd9e4ba2a832a2c716264
     Pseudo is Norm-conserving, Zval =  5.0
     Generated by new atomic code, or converted to UPF format
     Using radial grid of 1073 points,  1 beta functions with: 
                l(1) =   0

     PseudoPot. # 3 for C  read from file:
     /home/549/hxw549/Short/pseudopotentials/C.pbe-mt_gipaw.UPF
     MD5 check sum: 5ac2f21f2c440b14befe521540822c15
     Pseudo is Norm-conserving, Zval =  4.0
     Generated by new atomic code, or converted to UPF format
     Using radial grid of 1073 points,  1 beta functions with: 
                l(1) =   0

     PseudoPot. # 4 for H  read from file:
     /home/549/hxw549/Short/pseudopotentials/H.pbe-van_ak.UPF
     MD5 check sum: 077eb6d537518a38cb46c6de387227b7
     Pseudo is Ultrasoft, Zval =  1.0
     Generated by new atomic code, or converted to UPF format
     Using radial grid of  615 points,  1 beta functions with: 
                l(1) =   0
     Q(r) pseudized with  8 coefficients,  rinner =    0.800

     atomic species   valence    mass     pseudopotential
        Cu            11.00    63.54600     Cu( 1.00)
        C_h            5.00    12.01070     C ( 1.00)
        C              4.00    12.01070     C ( 1.00)
        H              1.00     1.00783     H ( 1.00)

     No symmetry found



   Cartesian axes

     site n.     atom                  positions (alat units)
         1           Cu  tau(   1) = (   0.0005942  -0.0038463   0.9930871  )
         2           Cu  tau(   2) = (   0.2511630   0.2244508   0.9942371  )
         3           Cu  tau(   3) = (   0.5007811  -0.0044706   0.9933156  )
         4           Cu  tau(   4) = (   0.7505207   0.2245418   0.9940835  )
         5           Cu  tau(   5) = (   0.0008481   0.4562049   0.9956409  )
         6           Cu  tau(   6) = (   0.2506786   0.6900795   0.9976618  )
         7           Cu  tau(   7) = (   0.5008632   0.4564016   0.9956302  )
         8           Cu  tau(   8) = (   0.7509606   0.6899328   0.9972468  )
         9           Cu  tau(   9) = (   0.0010626   0.9239011   0.9978053  )
        10           Cu  tau(  10) = (   0.2506086   1.1579934   0.9970288  )
        11           Cu  tau(  11) = (   0.5007037   0.9239065   0.9982690  )
        12           Cu  tau(  12) = (   0.7509822   1.1580641   0.9967192  )
        13           Cu  tau(  13) = (   0.0007618   1.3923352   0.9946266  )
        14           Cu  tau(  14) = (   0.2511320   1.6244682   0.9931181  )
        15           Cu  tau(  15) = (   0.5008944   1.3922557   0.9946286  )
        16           Cu  tau(  16) = (   0.7504689   1.6245618   0.9928784  )
        17           Cu  tau(  17) = (   0.0006403   1.8529676   0.9923519  )
        18           Cu  tau(  18) = (   0.2502663   2.0793525   0.9921530  )
        19           Cu  tau(  19) = (   0.5006837   1.8534625   0.9923857  )
        20           Cu  tau(  20) = (   0.7509333   2.0791621   0.9926036  )
        21           Cu  tau(  21) = (   0.0008436   0.2226903   1.2439799  )
        22           Cu  tau(  22) = (   0.2508004  -0.0053476   1.2453895  )
        23           Cu  tau(  23) = (   0.5008992   0.2231066   1.2437588  )
        24           Cu  tau(  24) = (   0.7506478  -0.0047299   1.2459640  )
        25           Cu  tau(  25) = (   0.0008489   0.6881471   1.2427947  )
        26           Cu  tau(  26) = (   0.2509174   0.4537933   1.2424126  )
        27           Cu  tau(  27) = (   0.5014493   0.6879078   1.2426873  )
        28           Cu  tau(  28) = (   0.7510800   0.4540268   1.2428095  )
        29           Cu  tau(  29) = (   0.0008866   1.1607300   1.2418123  )
        30           Cu  tau(  30) = (   0.2504606   0.9243917   1.2433168  )
        31           Cu  tau(  31) = (   0.5012960   1.1608479   1.2417939  )
        32           Cu  tau(  32) = (   0.7514211   0.9242728   1.2422531  )
        33           Cu  tau(  33) = (   0.0008238   1.6260289   1.2427661  )
        34           Cu  tau(  34) = (   0.2508668   1.3949963   1.2411065  )
        35           Cu  tau(  35) = (   0.5008273   1.6259522   1.2425316  )
        36           Cu  tau(  36) = (   0.7510233   1.3949321   1.2413170  )
        37           Cu  tau(  37) = (   0.0002797   2.0789654   1.2472520  )
        38           Cu  tau(  38) = (   0.2506780   1.8539880   1.2445803  )
        39           Cu  tau(  39) = (   0.5009511   2.0786742   1.2465668  )
        40           Cu  tau(  40) = (   0.7506849   1.8531565   1.2454973  )
        41           Cu  tau(  41) = (   0.0004902  -0.0048640   1.5012899  )
        42           Cu  tau(  42) = (   0.2509479   0.2213919   1.4948764  )
        43           Cu  tau(  43) = (   0.5008633  -0.0055096   1.4998236  )
        44           Cu  tau(  44) = (   0.7507049   0.2224039   1.4962002  )
        45           Cu  tau(  45) = (   0.0008858   0.4521035   1.4909719  )
        46           Cu  tau(  46) = (   0.2508978   0.6868072   1.4865842  )
        47           Cu  tau(  47) = (   0.5015522   0.4518694   1.4903810  )
        48           Cu  tau(  48) = (   0.7514726   0.6871259   1.4876615  )
        49           Cu  tau(  49) = (   0.0002500   0.9250368   1.4863019  )
        50           Cu  tau(  50) = (   0.2505897   1.1628075   1.4859838  )
        51           Cu  tau(  51) = (   0.5009744   0.9248361   1.4856989  )
        52           Cu  tau(  52) = (   0.7515423   1.1627813   1.4863707  )
        53           Cu  tau(  53) = (   0.0008363   1.3971227   1.4898823  )
        54           Cu  tau(  54) = (   0.2508389   1.6273910   1.4937434  )
        55           Cu  tau(  55) = (   0.5014752   1.3979066   1.4886943  )
        56           Cu  tau(  56) = (   0.7508714   1.6259248   1.4956944  )
        57           Cu  tau(  57) = (   0.0004376   1.8527965   1.5010687  )
        58           Cu  tau(  58) = (   0.2504027   2.0785939   1.5029371  )
        59           Cu  tau(  59) = (   0.5009858   1.8533152   1.5000881  )
        60           Cu  tau(  60) = (   0.7509970   2.0786638   1.5031194  )
        61           Cu  tau(  61) = (   0.0005135   0.2248349   1.7497996  )
        62           Cu  tau(  62) = (   0.2501688  -0.0032339   1.7566496  )
        63           Cu  tau(  63) = (   0.5014742   0.2227743   1.7482991  )
        64           Cu  tau(  64) = (   0.7513585  -0.0030754   1.7572858  )
        65           Cu  tau(  65) = (   0.0000215   0.6870712   1.7299070  )
        66           Cu  tau(  66) = (   0.2511009   0.4509547   1.7369529  )
        67           Cu  tau(  67) = (   0.5011158   0.6873251   1.7301161  )
        68           Cu  tau(  68) = (   0.7509595   0.4537932   1.7402830  )
        69           Cu  tau(  69) = (  -0.0003510   1.1635795   1.7301589  )
        70           Cu  tau(  70) = (   0.2492962   0.9254838   1.7262694  )
        71           Cu  tau(  71) = (   0.5010931   1.1645368   1.7281440  )
        72           Cu  tau(  72) = (   0.7500918   0.9261363   1.7284522  )
        73           Cu  tau(  73) = (   0.0004784   1.6236149   1.7503063  )
        74           Cu  tau(  74) = (   0.2505399   1.3989206   1.7362958  )
        75           Cu  tau(  75) = (   0.5017544   1.6243122   1.7491481  )
        76           Cu  tau(  76) = (   0.7514313   1.3951350   1.7410358  )
        77           Cu  tau(  77) = (   0.0004742   2.0783503   1.7607120  )
        78           Cu  tau(  78) = (   0.2504192   1.8508274   1.7564756  )
        79           Cu  tau(  79) = (   0.5010106   2.0787662   1.7584609  )
        80           Cu  tau(  80) = (   0.7513912   1.8507985   1.7573143  )
        81           Cu  tau(  81) = (   0.0008813   0.0026029   2.0105797  )
        82           Cu  tau(  82) = (   0.2519774   0.2322381   2.0016112  )
        83           Cu  tau(  83) = (   0.5009841  -0.0002499   2.0097966  )
        84           Cu  tau(  84) = (   0.7498649   0.2319461   2.0026418  )
        85           Cu  tau(  85) = (  -0.0012443   0.4602900   1.9907264  )
        86           Cu  tau(  86) = (   0.2447511   0.6860828   1.9647703  )
        87           Cu  tau(  87) = (   0.5020074   0.4610094   1.9864182  )
        88           Cu  tau(  88) = (   0.7551572   0.6927395   1.9742647  )
        89           Cu  tau(  89) = (   0.0001840   0.9258909   1.9694068  )
        90           Cu  tau(  90) = (   0.2448855   1.1650488   1.9657380  )
        91           Cu  tau(  91) = (   0.5029455   0.9323233   1.9496787  )
        92           Cu  tau(  92) = (   0.7546301   1.1577145   1.9787635  )
        93           Cu  tau(  93) = (  -0.0008328   1.3888834   1.9925616  )
        94           Cu  tau(  94) = (   0.2520653   1.6166694   2.0024762  )
        95           Cu  tau(  95) = (   0.5010134   1.3858075   1.9896408  )
        96           Cu  tau(  96) = (   0.7496504   1.6159218   2.0035855  )
        97           Cu  tau(  97) = (   0.0005533   1.8454381   2.0118807  )
        98           Cu  tau(  98) = (   0.2497981   2.0783156   2.0123703  )
        99           Cu  tau(  99) = (   0.5015435   1.8482404   2.0091037  )
       100           Cu  tau( 100) = (   0.7518512   2.0787787   2.0132458  )
       101           C   tau( 101) = (  -0.0003126   0.1006325   2.4740383  )
       102           C   tau( 102) = (  -0.0003775   0.2920325   2.5081418  )
       103           C   tau( 103) = (   0.1663980   0.0036286   2.4620667  )
       104           C   tau( 104) = (   0.1663498   0.3875619   2.5287554  )
       105           C   tau( 105) = (   0.3329568   0.1006649   2.4741495  )
       106           C   tau( 106) = (   0.3329888   0.2921582   2.5077789  )
       107           C   tau( 107) = (   0.4997204   0.0036301   2.4626464  )
       108           C   tau( 108) = (   0.4994819   0.3878807   2.5283181  )
       109           C   tau( 109) = (   0.6664286   0.1006943   2.4742667  )
       110           C   tau( 110) = (   0.6662607   0.2923989   2.5068094  )
       111           C   tau( 111) = (   0.8330134   0.0037573   2.4607979  )
       112           C   tau( 112) = (   0.8329291   0.3878381   2.5270081  )
       113           C   tau( 113) = (  -0.0004818   0.6734409   2.5851986  )
       114           C   tau( 114) = (  -0.0002469   0.8665147   2.6029464  )
       115           C   tau( 115) = (   0.1665021   0.5772827   2.5711435  )
       116           C   tau( 116) = (   0.1664542   0.9638089   2.6091331  )
       117           C   tau( 117) = (   0.3326642   0.6726237   2.5966217  )
       118           C   tau( 118) = (   0.3324550   0.8658708   2.6237839  )
       119           C_h tau( 119) = (   0.4993534   0.5773360   2.5728227  )
       120           C   tau( 120) = (   0.4998971   0.9649202   2.6219659  )
       121           C   tau( 121) = (   0.6661760   0.6737708   2.5875107  )
       122           C   tau( 122) = (   0.6665804   0.8667296   2.6107608  )
       123           C   tau( 123) = (   0.8328401   0.5779267   2.5667895  )
       124           C   tau( 124) = (   0.8330747   0.9640677   2.6024886  )
       125           C   tau( 125) = (  -0.0000737   1.2522501   2.5628112  )
       126           C   tau( 126) = (  -0.0001253   1.4422912   2.5224834  )
       127           C   tau( 127) = (   0.1666321   1.1566227   2.5840568  )
       128           C   tau( 128) = (   0.1665763   1.5380253   2.5039308  )
       129           C   tau( 129) = (   0.3332648   1.2530529   2.5690923  )
       130           C   tau( 130) = (   0.3332880   1.4426743   2.5261218  )
       131           C   tau( 131) = (   0.4999030   1.1576825   2.5919202  )
       132           C   tau( 132) = (   0.4998036   1.5383355   2.5061839  )
       133           C   tau( 133) = (   0.6663241   1.2529384   2.5671493  )
       134           C   tau( 134) = (   0.6664542   1.4427271   2.5254651  )
       135           C   tau( 135) = (   0.8332378   1.1569421   2.5820745  )
       136           C   tau( 136) = (   0.8331711   1.5381531   2.5038020  )
       137           C   tau( 137) = (  -0.0001042   1.8267606   2.4581975  )
       138           C   tau( 138) = (  -0.0001516   2.0211056   2.4468364  )
       139           C   tau( 139) = (   0.1666301   1.7298093   2.4723584  )
       140           C   tau( 140) = (   0.1664718   2.1188427   2.4491755  )
       141           C   tau( 141) = (   0.3331974   1.8269638   2.4626428  )
       142           C   tau( 142) = (   0.3331985   2.0211166   2.4504279  )
       143           C   tau( 143) = (   0.4998554   1.7299413   2.4736692  )
       144           C   tau( 144) = (   0.4997837   2.1189131   2.4508552  )
       145           C   tau( 145) = (   0.6664794   1.8269319   2.4609715  )
       146           C   tau( 146) = (   0.6664253   2.0211530   2.4491533  )
       147           C   tau( 147) = (   0.8330798   1.7297223   2.4708304  )
       148           C   tau( 148) = (   0.8330937   2.1189094   2.4468884  )
       149           H   tau( 149) = (   0.4446619   0.9035800   2.3768416  )
       150           C   tau( 150) = (   0.3968788   0.8859315   2.2396702  )
       151           H   tau( 151) = (   0.5360793   0.8733752   2.1781091  )
       152           H   tau( 152) = (   0.3176552   0.7592170   2.2348797  )
       153           H   tau( 153) = (   0.3152415   1.0076446   2.2117415  )

     number of k points=     6  gaussian smearing, width (Ry)=  0.1000
                       cart. coord. in units 2pi/alat
        k(    1) = (   0.0000000   0.0000000   0.0000000), wk =   0.2500000
        k(    2) = (   0.0000000  -0.2165064   0.0000000), wk =   0.2500000
        k(    3) = (   0.2500000   0.0000000   0.0000000), wk =   0.5000000
        k(    4) = (   0.2500000  -0.2165064   0.0000000), wk =   0.5000000
        k(    5) = (  -0.5000000   0.0000000   0.0000000), wk =   0.2500000
        k(    6) = (  -0.5000000  -0.2165064   0.0000000), wk =   0.2500000

     Dense  grid:  2050409 G-vectors     FFT dimensions: (  80, 192, 270)

     Largest allocated arrays     est. size (Mb)     dimensions
        Kohn-Sham Wavefunctions        54.80 Mb     (    4604,  780)
        NL pseudopotentials           130.18 Mb     (    4604, 1853)
        Each V/rho on FFT grid          1.17 Mb     (   76800)
        Each G-vector array             0.28 Mb     (   36616)
        G-vector shells                 0.14 Mb     (   17932)
     Largest temporary arrays     est. size (Mb)     dimensions
        Auxiliary wavefunctions       219.18 Mb     (    4604, 3120)
        Each subspace H/S matrix        5.94 Mb     (     624,  624)
        Each <psi_i|beta_j> matrix     22.05 Mb     (    1853,  780)
        Arrays for rho mixing           9.38 Mb     (   76800,    8)

     Initial potential from superposition of free atoms
     Check: negative starting charge=   -0.001558

     starting charge 1274.31748, renormalised to 1300.00000

     negative rho (up, down):  1.589E-03 0.000E+00
     Starting wfc are 1296 randomized atomic wfcs

     total cpu time spent up to now is      107.7 secs

     Self-consistent Calculation

     iteration #  1     ecut=    80.00 Ry     beta=0.70
     Davidson diagonalization with overlap
     c_bands:  3 eigenvalues not converged
     c_bands:  5 eigenvalues not converged
     c_bands:  5 eigenvalues not converged
     c_bands:  5 eigenvalues not converged
     ethr =  1.00E-04,  avg # of iterations = 42.0

     negative rho (up, down):  2.461E+01 0.000E+00

     total cpu time spent up to now is     2396.1 secs

     total energy              =  -10095.86643615 Ry
     Harris-Foulkes estimate   =  -18327.83810745 Ry
     estimated scf accuracy    <  213010.77541076 Ry

     iteration #  2     ecut=    80.00 Ry     beta=0.70
     Davidson diagonalization with overlap
     ethr =  1.00E-02,  avg # of iterations = 13.8

     negative rho (up, down):  3.364E+01 0.000E+00

     total cpu time spent up to now is     3418.9 secs

     total energy              =  -11792.58011223 Ry
     Harris-Foulkes estimate   =  -13801.29977681 Ry
     estimated scf accuracy    <   38378.21288634 Ry

     iteration #  3     ecut=    80.00 Ry     beta=0.70
     Davidson diagonalization with overlap
     ethr =  1.00E-02,  avg # of iterations = 17.5

     negative rho (up, down):  3.099E+01 0.000E+00

     total cpu time spent up to now is     4369.6 secs

     total energy              =  -12125.06238134 Ry
     Harris-Foulkes estimate   =  -13710.63415222 Ry
     estimated scf accuracy    <    6261.11208765 Ry

     iteration #  4     ecut=    80.00 Ry     beta=0.70
     Davidson diagonalization with overlap
     ethr =  1.00E-02,  avg # of iterations =  4.3

     negative rho (up, down):  2.153E+01 0.000E+00

     total cpu time spent up to now is     4857.9 secs

     total energy              =  -12843.15407766 Ry
     Harris-Foulkes estimate   =  -13065.75104681 Ry
     estimated scf accuracy    <     982.53420379 Ry

     iteration #  5     ecut=    80.00 Ry     beta=0.70
     Davidson diagonalization with overlap
     ethr =  1.00E-02,  avg # of iterations =  2.5

     negative rho (up, down):  1.691E+01 0.000E+00

     total cpu time spent up to now is     5114.5 secs

     total energy              =  -12842.43285809 Ry
     Harris-Foulkes estimate   =  -12909.67451845 Ry
     estimated scf accuracy    <    1067.88524516 Ry

     iteration #  6     ecut=    80.00 Ry     beta=0.70
     Davidson diagonalization with overlap
     ethr =  1.00E-02,  avg # of iterations =  1.0

     negative rho (up, down):  1.184E+01 0.000E+00

     total cpu time spent up to now is     5281.3 secs

     total energy              =  -12815.38504612 Ry
     Harris-Foulkes estimate   =  -12866.29360238 Ry
     estimated scf accuracy    <     477.22341663 Ry

     iteration #  7     ecut=    80.00 Ry     beta=0.70
     Davidson diagonalization with overlap
     ethr =  1.00E-02,  avg # of iterations =  2.0

     negative rho (up, down):  8.113E+00 0.000E+00

     total cpu time spent up to now is     5461.8 secs

     total energy              =  -12802.42508102 Ry
     Harris-Foulkes estimate   =  -12835.22017813 Ry
     estimated scf accuracy    <     345.19416051 Ry

     iteration #  8     ecut=    80.00 Ry     beta=0.70
     Davidson diagonalization with overlap
     ethr =  1.00E-02,  avg # of iterations =  1.0

     negative rho (up, down):  6.090E+00 0.000E+00

     total cpu time spent up to now is     5629.2 secs

     total energy              =  -12789.43359727 Ry
     Harris-Foulkes estimate   =  -12808.83974006 Ry
     estimated scf accuracy    <     211.03514206 Ry

     iteration #  9     ecut=    80.00 Ry     beta=0.70
     Davidson diagonalization with overlap
     ethr =  1.00E-02,  avg # of iterations =  1.0

     negative rho (up, down):  3.674E+00 0.000E+00

     total cpu time spent up to now is     5796.2 secs

     total energy              =  -12771.79991131 Ry
     Harris-Foulkes estimate   =  -12791.79473453 Ry
     estimated scf accuracy    <     166.02288979 Ry

     iteration # 10     ecut=    80.00 Ry     beta=0.70
     Davidson diagonalization with overlap
     ethr =  1.00E-02,  avg # of iterations =  1.0

     negative rho (up, down):  4.174E-01 0.000E+00

     total cpu time spent up to now is     5963.3 secs

     total energy              =  -12746.31500175 Ry
     Harris-Foulkes estimate   =  -12775.28056128 Ry
     estimated scf accuracy    <     165.86276090 Ry

     iteration # 11     ecut=    80.00 Ry     beta=0.70
     Davidson diagonalization with overlap
     ethr =  1.00E-02,  avg # of iterations =  1.3

     negative rho (up, down):  3.046E-01 0.000E+00

     total cpu time spent up to now is     6134.7 secs

     total energy              =  -12738.98785883 Ry
     Harris-Foulkes estimate   =  -12751.61556053 Ry
     estimated scf accuracy    <     106.62052798 Ry

     iteration # 12     ecut=    80.00 Ry     beta=0.70
     Davidson diagonalization with overlap
     ethr =  8.20E-03,  avg # of iterations =  2.0

     negative rho (up, down):  1.330E+00 0.000E+00

     total cpu time spent up to now is     6314.6 secs

     total energy              =  -12736.27643301 Ry
     Harris-Foulkes estimate   =  -12746.97520431 Ry
     estimated scf accuracy    <      49.29324660 Ry

     iteration # 13     ecut=    80.00 Ry     beta=0.70
     Davidson diagonalization with overlap
     ethr =  3.79E-03,  avg # of iterations =  2.8

     negative rho (up, down):  5.008E+00 0.000E+00

     total cpu time spent up to now is     6503.3 secs

     total energy              =  -12730.94494962 Ry
     Harris-Foulkes estimate   =  -12738.38741505 Ry
     estimated scf accuracy    <      38.72070165 Ry

     iteration # 14     ecut=    80.00 Ry     beta=0.70
     Davidson diagonalization with overlap
     ethr =  2.98E-03,  avg # of iterations =  4.3

     negative rho (up, down):  5.915E+00 0.000E+00

     total cpu time spent up to now is     6708.9 secs

     total energy              =  -12729.34794449 Ry
     Harris-Foulkes estimate   =  -12732.48849463 Ry
     estimated scf accuracy    <      24.66592652 Ry

     iteration # 15     ecut=    80.00 Ry     beta=0.70
     Davidson diagonalization with overlap
     ethr =  1.90E-03,  avg # of iterations =  4.2

     negative rho (up, down):  5.269E+00 0.000E+00

     total cpu time spent up to now is     6913.8 secs

     total energy              =  -12728.64545493 Ry
     Harris-Foulkes estimate   =  -12730.07466745 Ry
     estimated scf accuracy    <      12.79250092 Ry

     iteration # 16     ecut=    80.00 Ry     beta=0.70
     Davidson diagonalization with overlap
     ethr =  9.84E-04,  avg # of iterations =  6.5

     negative rho (up, down):  3.252E+00 0.000E+00

     total cpu time spent up to now is     7146.6 secs

     total energy              =  -12727.54061875 Ry
     Harris-Foulkes estimate   =  -12729.07560275 Ry
     estimated scf accuracy    <       8.39391530 Ry

     iteration # 17     ecut=    80.00 Ry     beta=0.70
     Davidson diagonalization with overlap
     ethr =  6.46E-04,  avg # of iterations =  3.2

     negative rho (up, down):  2.911E+00 0.000E+00

     total cpu time spent up to now is     7340.4 secs

     total energy              =  -12726.99466563 Ry
     Harris-Foulkes estimate   =  -12727.76227654 Ry
     estimated scf accuracy    <       7.86657992 Ry

     iteration # 18     ecut=    80.00 Ry     beta=0.70
     Davidson diagonalization with overlap
     ethr =  6.05E-04,  avg # of iterations =  3.8

     negative rho (up, down):  2.485E+00 0.000E+00

     total cpu time spent up to now is     7539.7 secs

     total energy              =  -12725.82251877 Ry
     Harris-Foulkes estimate   =  -12727.07209150 Ry
     estimated scf accuracy    <       5.46928871 Ry

     iteration # 19     ecut=    80.00 Ry     beta=0.70
     Davidson diagonalization with overlap
     ethr =  4.21E-04,  avg # of iterations =  8.5

     negative rho (up, down):  1.996E+00 0.000E+00

     total cpu time spent up to now is     7804.9 secs

     total energy              =  -12724.71756324 Ry
     Harris-Foulkes estimate   =  -12725.91247863 Ry
     estimated scf accuracy    <       4.36501373 Ry

     iteration # 20     ecut=    80.00 Ry     beta=0.70
     Davidson diagonalization with overlap
     ethr =  3.36E-04,  avg # of iterations =  1.5

     negative rho (up, down):  1.130E+00 0.000E+00

     total cpu time spent up to now is     7978.8 secs

     total energy              =  -12723.93655655 Ry
     Harris-Foulkes estimate   =  -12724.87998978 Ry
     estimated scf accuracy    <       3.18537305 Ry

     iteration # 21     ecut=    80.00 Ry     beta=0.70
     Davidson diagonalization with overlap
     ethr =  2.45E-04,  avg # of iterations =  1.7

     negative rho (up, down):  7.163E-01 0.000E+00

     total cpu time spent up to now is     8154.3 secs

     total energy              =  -12723.28188297 Ry
     Harris-Foulkes estimate   =  -12724.07166272 Ry
     estimated scf accuracy    <       2.52168720 Ry

     iteration # 22     ecut=    80.00 Ry     beta=0.70
     Davidson diagonalization with overlap
     ethr =  1.94E-04,  avg # of iterations =  6.8

     negative rho (up, down):  7.907E-01 0.000E+00

     total cpu time spent up to now is     8395.4 secs

     total energy              =  -12723.15810998 Ry
     Harris-Foulkes estimate   =  -12723.39662610 Ry
     estimated scf accuracy    <       1.11698185 Ry

     iteration # 23     ecut=    80.00 Ry     beta=0.70
     Davidson diagonalization with overlap
     ethr =  8.59E-05,  avg # of iterations =  7.7

     negative rho (up, down):  5.802E-01 0.000E+00

     total cpu time spent up to now is     8658.3 secs

     total energy              =  -12723.07752909 Ry
     Harris-Foulkes estimate   =  -12723.19220957 Ry
     estimated scf accuracy    <       0.44412992 Ry

     iteration # 24     ecut=    80.00 Ry     beta=0.70
     Davidson diagonalization with overlap
     ethr =  3.42E-05,  avg # of iterations =  7.8

     negative rho (up, down):  3.946E-01 0.000E+00

     total cpu time spent up to now is     8933.7 secs

     total energy              =  -12723.06193612 Ry
     Harris-Foulkes estimate   =  -12723.11397596 Ry
     estimated scf accuracy    <       0.37767968 Ry

     iteration # 25     ecut=    80.00 Ry     beta=0.70
     Davidson diagonalization with overlap
     ethr =  2.91E-05,  avg # of iterations =  9.0

     negative rho (up, down):  2.463E-01 0.000E+00

     total cpu time spent up to now is     9201.4 secs

     total energy              =  -12723.07133310 Ry
     Harris-Foulkes estimate   =  -12723.08081256 Ry
     estimated scf accuracy    <       0.07884720 Ry

     iteration # 26     ecut=    80.00 Ry     beta=0.70
     Davidson diagonalization with overlap
     ethr =  6.07E-06,  avg # of iterations = 13.3

     negative rho (up, down):  1.534E-01 0.000E+00

     total cpu time spent up to now is     9538.3 secs

     total energy              =  -12723.07239382 Ry
     Harris-Foulkes estimate   =  -12723.07585515 Ry
     estimated scf accuracy    <       0.01921804 Ry

     iteration # 27     ecut=    80.00 Ry     beta=0.70
     Davidson diagonalization with overlap
     c_bands:  1 eigenvalues not converged
     c_bands:  2 eigenvalues not converged
     ethr =  1.48E-06,  avg # of iterations = 18.3

     negative rho (up, down):  1.017E-01 0.000E+00

     total cpu time spent up to now is     9949.9 secs

     total energy              =  -12723.07276776 Ry
     Harris-Foulkes estimate   =  -12723.07343801 Ry
     estimated scf accuracy    <       0.00771021 Ry

     iteration # 28     ecut=    80.00 Ry     beta=0.70
     Davidson diagonalization with overlap
     ethr =  5.93E-07,  avg # of iterations = 12.0

     negative rho (up, down):  4.306E-02 0.000E+00

     total cpu time spent up to now is    10271.2 secs

     total energy              =  -12723.07210235 Ry
     Harris-Foulkes estimate   =  -12723.07336280 Ry
     estimated scf accuracy    <       0.00359352 Ry

     iteration # 29     ecut=    80.00 Ry     beta=0.70
     Davidson diagonalization with overlap
     c_bands:  2 eigenvalues not converged
     c_bands:  1 eigenvalues not converged
     ethr =  2.76E-07,  avg # of iterations = 13.2

     negative rho (up, down):  2.286E-02 0.000E+00

     total cpu time spent up to now is    10617.3 secs

     total energy              =  -12723.07195248 Ry
     Harris-Foulkes estimate   =  -12723.07234089 Ry
     estimated scf accuracy    <       0.00072872 Ry

     iteration # 30     ecut=    80.00 Ry     beta=0.70
     Davidson diagonalization with overlap
     c_bands:  1 eigenvalues not converged
     ethr =  5.61E-08,  avg # of iterations = 12.7

     negative rho (up, down):  1.760E-02 0.000E+00

     total cpu time spent up to now is    10942.6 secs

     total energy              =  -12723.07197766 Ry
     Harris-Foulkes estimate   =  -12723.07200865 Ry
     estimated scf accuracy    <       0.00033547 Ry

     iteration # 31     ecut=    80.00 Ry     beta=0.70
     Davidson diagonalization with overlap
     c_bands:  1 eigenvalues not converged
     ethr =  2.58E-08,  avg # of iterations = 12.0

     negative rho (up, down):  1.111E-02 0.000E+00

     total cpu time spent up to now is    11262.7 secs

     total energy              =  -12723.07184384 Ry
     Harris-Foulkes estimate   =  -12723.07200564 Ry
     estimated scf accuracy    <       0.00014654 Ry

     iteration # 32     ecut=    80.00 Ry     beta=0.70
     Davidson diagonalization with overlap
     c_bands:  1 eigenvalues not converged
     ethr =  1.13E-08,  avg # of iterations = 11.0

     negative rho (up, down):  5.444E-03 0.000E+00

     total cpu time spent up to now is    11556.2 secs

     total energy              =  -12723.07173560 Ry
     Harris-Foulkes estimate   =  -12723.07185198 Ry
     estimated scf accuracy    <       0.00008027 Ry

     iteration # 33     ecut=    80.00 Ry     beta=0.70
     Davidson diagonalization with overlap
     c_bands:  1 eigenvalues not converged
     ethr =  6.17E-09,  avg # of iterations = 14.5

     negative rho (up, down):  3.178E-03 0.000E+00

     total cpu time spent up to now is    11895.8 secs

     total energy              =  -12723.07170812 Ry
     Harris-Foulkes estimate   =  -12723.07174043 Ry
     estimated scf accuracy    <       0.00004618 Ry

     iteration # 34     ecut=    80.00 Ry     beta=0.70
     Davidson diagonalization with overlap
     ethr =  3.55E-09,  avg # of iterations =  8.7

     negative rho (up, down):  1.764E-03 0.000E+00

     total cpu time spent up to now is    12166.4 secs

     total energy              =  -12723.07170029 Ry
     Harris-Foulkes estimate   =  -12723.07171161 Ry
     estimated scf accuracy    <       0.00002532 Ry

     iteration # 35     ecut=    80.00 Ry     beta=0.70
     Davidson diagonalization with overlap
     ethr =  1.95E-09,  avg # of iterations =  2.7

     negative rho (up, down):  1.384E-03 0.000E+00

     total cpu time spent up to now is    12363.4 secs

     total energy              =  -12723.07170361 Ry
     Harris-Foulkes estimate   =  -12723.07170223 Ry
     estimated scf accuracy    <       0.00000868 Ry

     iteration # 36     ecut=    80.00 Ry     beta=0.70
     Davidson diagonalization with overlap
     ethr =  6.68E-10,  avg # of iterations =  4.8

     negative rho (up, down):  1.619E-03 0.000E+00

     total cpu time spent up to now is    12585.2 secs

     total energy              =  -12723.07170523 Ry
     Harris-Foulkes estimate   =  -12723.07170422 Ry
     estimated scf accuracy    <       0.00000195 Ry

     iteration # 37     ecut=    80.00 Ry     beta=0.70
     Davidson diagonalization with overlap
     ethr =  1.50E-10,  avg # of iterations =  2.3

     negative rho (up, down):  1.652E-03 0.000E+00

     total cpu time spent up to now is    12774.2 secs

     total energy              =  -12723.07170569 Ry
     Harris-Foulkes estimate   =  -12723.07170543 Ry
     estimated scf accuracy    <       0.00000079 Ry

     iteration # 38     ecut=    80.00 Ry     beta=0.70
     Davidson diagonalization with overlap
     ethr =  6.04E-11,  avg # of iterations =  3.0

     negative rho (up, down):  1.667E-03 0.000E+00

     total cpu time spent up to now is    12974.0 secs

     total energy              =  -12723.07170574 Ry
     Harris-Foulkes estimate   =  -12723.07170579 Ry
     estimated scf accuracy    <       0.00000023 Ry

     iteration # 39     ecut=    80.00 Ry     beta=0.70
     Davidson diagonalization with overlap
     ethr =  1.81E-11,  avg # of iterations =  3.0

     negative rho (up, down):  1.642E-03 0.000E+00

     total cpu time spent up to now is    13177.6 secs

     total energy              =  -12723.07170569 Ry
     Harris-Foulkes estimate   =  -12723.07170577 Ry
     estimated scf accuracy    <       0.00000011 Ry

     iteration # 40     ecut=    80.00 Ry     beta=0.70
     Davidson diagonalization with overlap
     ethr =  8.36E-12,  avg # of iterations =  3.0

     negative rho (up, down):  1.645E-03 0.000E+00

     total cpu time spent up to now is    13375.3 secs

     total energy              =  -12723.07170565 Ry
     Harris-Foulkes estimate   =  -12723.07170570 Ry
     estimated scf accuracy    <       0.00000004 Ry

     iteration # 41     ecut=    80.00 Ry     beta=0.70
     Davidson diagonalization with overlap
     ethr =  3.24E-12,  avg # of iterations =  2.7

     negative rho (up, down):  1.654E-03 0.000E+00

     total cpu time spent up to now is    13569.5 secs

     total energy              =  -12723.07170564 Ry
     Harris-Foulkes estimate   =  -12723.07170565 Ry
     estimated scf accuracy    <       0.00000002 Ry

     iteration # 42     ecut=    80.00 Ry     beta=0.70
     Davidson diagonalization with overlap
     ethr =  1.41E-12,  avg # of iterations =  2.0

     negative rho (up, down):  1.666E-03 0.000E+00

     total cpu time spent up to now is    13747.8 secs

     End of self-consistent calculation

          k = 0.0000 0.0000 0.0000 (256287 PWs)   bands (ev):

   -16.9215 -15.8032 -15.6892 -15.0385 -14.6664 -14.4036 -14.3016 -13.8220
   -13.7766 -13.7411 -13.7066 -13.1280 -12.9713 -12.7646 -12.7474 -12.7040
   -12.6977 -11.3751 -11.1778 -11.1406 -11.0510 -10.9461 -10.8454  -9.9701
    -9.4589  -9.4351  -9.2757  -9.2134  -8.5854  -8.4152  -8.2756  -8.2051
    -7.7285  -7.5077  -7.4536  -7.2917  -7.2173  -7.1858  -7.1441  -7.1288
    -6.0372  -6.0204  -5.8959  -5.7903  -5.6730  -5.6214  -5.5865  -5.5569
    -5.5453  -5.3660  -5.3621  -4.8645  -4.7795  -4.5490  -4.5272  -4.4084
    -4.3208  -4.2813  -4.2183  -4.1040  -4.0366  -3.9683  -3.8751  -3.8544
    -3.7195  -3.6396  -3.5303  -3.3603  -3.3232  -3.3063  -3.2755  -3.2686
    -3.2426  -3.1364  -3.1086  -3.0935  -2.9218  -2.8963  -2.8893  -2.8862
    -2.8811  -2.8773  -2.8579  -2.6698  -2.6602  -2.5997  -2.5681  -2.5513
    -2.5139  -2.4636  -2.4487  -2.4292  -2.3810  -2.3789  -2.1882  -2.1747
    -2.1715  -2.1640  -2.1375  -2.0790  -2.0751  -2.0497  -2.0480  -2.0450
    -2.0426  -1.9572  -1.9182  -1.9174  -1.8938  -1.8919  -1.8726  -1.7662
    -1.7436  -1.7153  -1.6712  -1.6383  -1.6280  -1.6266  -1.6215  -1.6191
    -1.6146  -1.6081  -1.5919  -1.5821  -1.5433  -1.5325  -1.5213  -1.5132
    -1.5010  -1.4818  -1.4630  -1.4610  -1.4535  -1.4435  -1.4382  -1.4241
    -1.4184  -1.4091  -1.4079  -1.3665  -1.3534  -1.3424  -1.3268  -1.3041
    -1.2480  -1.2128  -1.1947  -1.1911  -1.1813  -1.1801  -1.1730  -1.1667
    -1.1510  -1.1365  -1.1108  -1.1046  -1.0863  -1.0845  -1.0669  -1.0452
    -0.9699  -0.9591  -0.9526  -0.9461  -0.9396  -0.9362  -0.9335  -0.9304
    -0.9277  -0.9247  -0.9176  -0.9162  -0.9092  -0.8941  -0.8861  -0.8835
    -0.8809  -0.8779  -0.8443  -0.8394  -0.8379  -0.8160  -0.8150  -0.8062
    -0.7955  -0.7902  -0.7765  -0.7639  -0.7610  -0.7572  -0.7529  -0.7470
    -0.7437  -0.7434  -0.7413  -0.7388  -0.7355  -0.7319  -0.7295  -0.7265
    -0.7255  -0.7211  -0.7046  -0.6504  -0.5961  -0.5935  -0.5877  -0.5872
    -0.5806  -0.5760  -0.5498  -0.5369  -0.5339  -0.5309  -0.5290  -0.5231
    -0.5164  -0.5114  -0.5046  -0.4868  -0.4826  -0.4692  -0.4594  -0.4580
    -0.4530  -0.4507  -0.4488  -0.4473  -0.4371  -0.4357  -0.4338  -0.3888
    -0.3830  -0.3814  -0.3612  -0.3481  -0.3447  -0.3277  -0.3213  -0.3183
    -0.3154  -0.3134  -0.3110  -0.3068  -0.3066  -0.3014  -0.2999  -0.2983
    -0.2957  -0.2938  -0.2926  -0.2903  -0.2755  -0.2738  -0.2528  -0.2451
    -0.2320  -0.2300  -0.2120  -0.2081  -0.2025  -0.1877  -0.1850  -0.1808
    -0.1752  -0.1623  -0.1620  -0.1597  -0.1516  -0.1492  -0.1427  -0.1410
    -0.1298  -0.1285  -0.1246  -0.1209  -0.1191  -0.1101  -0.1074  -0.1044
    -0.0987  -0.0848  -0.0846  -0.0816  -0.0799  -0.0776  -0.0764  -0.0555
    -0.0366  -0.0308  -0.0272  -0.0197  -0.0172   0.0132   0.0157   0.0298
     0.0316   0.0350   0.0385   0.0480   0.0500   0.0561   0.0629   0.0651
     0.0700   0.0791   0.0809   0.0856   0.1033   0.1070   0.1138   0.1151
     0.1208   0.1273   0.1287   0.1325   0.1377   0.1424   0.1456   0.1600
     0.1605   0.1637   0.1658   0.1698   0.1805   0.1822   0.1942   0.1978
     0.2014   0.2047   0.2142   0.2198   0.2335   0.2401   0.2600   0.2641
     0.2684   0.2699   0.2718   0.2785   0.2896   0.3016   0.3088   0.3111
     0.3259   0.3318   0.3567   0.3658   0.3739   0.3874   0.3880   0.3970
     0.4044   0.4098   0.4109   0.4306   0.4331   0.4414   0.4516   0.4625
     0.4664   0.4742   0.4758   0.4782   0.4851   0.4925   0.4933   0.5021
     0.5159   0.5209   0.5254   0.5298   0.5400   0.5443   0.5611   0.5675
     0.5702   0.5708   0.5794   0.5851   0.5871   0.5932   0.5960   0.6013
     0.6089   0.6196   0.6283   0.6315   0.6353   0.6394   0.6516   0.6526
     0.6564   0.6578   0.6589   0.6616   0.6635   0.6669   0.6686   0.6760
     0.6833   0.6857   0.6974   0.7005   0.7024   0.7128   0.7182   0.7298
     0.7364   0.7379   0.7410   0.7543   0.7565   0.7592   0.7617   0.7700
     0.7764   0.7787   0.7796   0.7806   0.7811   0.7849   0.7875   0.7901
     0.7983   0.8002   0.8136   0.8147   0.8218   0.8250   0.8278   0.8315
     0.8397   0.8414   0.8417   0.8496   0.8569   0.8594   0.8608   0.8675
     0.8720   0.8743   0.8959   0.8986   0.9031   0.9109   0.9262   0.9287
     0.9479   0.9504   0.9517   0.9563   0.9604   0.9633   0.9681   0.9707
     0.9792   0.9820   0.9872   0.9905   0.9938   0.9949   1.0083   1.0102
     1.0157   1.0166   1.0195   1.0258   1.0308   1.0355   1.0373   1.0394
     1.0467   1.0590   1.0788   1.0817   1.0863   1.0881   1.0985   1.1000
     1.1012   1.1055   1.1102   1.1140   1.1201   1.1222   1.1250   1.1324
     1.1349   1.1361   1.1395   1.1402   1.1419   1.1523   1.1552   1.1575
     1.1675   1.1712   1.1790   1.1807   1.1856   1.1872   1.1941   1.1969
     1.2003   1.2019   1.2042   1.2055   1.2079   1.2150   1.2200   1.2202
     1.2265   1.2277   1.2296   1.2324   1.2357   1.2409   1.2472   1.2549
     1.2629   1.2631   1.2730   1.2790   1.2856   1.2870   1.2984   1.3024
     1.3058   1.3074   1.3109   1.3204   1.3257   1.3351   1.3359   1.3371
     1.3414   1.3438   1.3464   1.3531   1.3571   1.3660   1.3666   1.3682
     1.3708   1.3718   1.3777   1.3803   1.3843   1.3874   1.3913   1.3920
     1.4024   1.4046   1.4056   1.4066   1.4077   1.4092   1.4126   1.4190
     1.4199   1.4242   1.4323   1.4348   1.4391   1.4404   1.4419   1.4441
     1.4489   1.4531   1.4569   1.4659   1.4742   1.4838   1.4916   1.4924
     1.4952   1.4957   1.5085   1.5104   1.5108   1.5170   1.5179   1.5207
     1.5227   1.5249   1.5260   1.5283   1.5308   1.5309   1.5368   1.5480
     1.5507   1.5555   1.5574   1.5588   1.5671   1.5676   1.5692   1.5704
     1.5786   1.5869   1.5988   1.6083   1.6104   1.6136   1.6417   1.6446
     1.6491   1.6515   1.6567   1.6653   1.6810   1.6865   1.7121   1.7134
     1.7204   1.7216   1.7239   1.7314   1.7341   1.7508   1.7514   1.7750
     2.0196   2.0496   2.1538   2.1597   2.1818   2.2537   2.2904   2.2917
     2.2933   2.2951   2.3042   2.3117   2.3177   2.3203   2.4380   2.4401
     2.5101   2.5175   2.5459   2.5615   2.5832   2.6536   2.7729   2.7868
     2.8099   2.8163   2.9938   3.1134   3.2595   3.2792   3.3639   3.5416
     3.5678   3.8431   3.8549   3.8771   3.8924   3.9225   3.9352   3.9417
     3.9761   4.0089   4.0278   4.0559   4.0914   4.0990   4.1023   4.1040
     4.1202   4.2114   4.2293   4.2523   4.3591   4.5556   4.6561   4.8543
     5.0094   5.1783   5.2116   5.2267   5.2359   5.3358   5.3877   5.4109
     5.6231   5.6414   5.8327   5.8470   6.0142   6.0164   6.2412   6.2459
     6.3793   6.4370   6.4844   6.4968   6.5308   6.5425   6.6185   6.6396
     6.7061   6.7266   6.8191   6.8813   6.9253   6.9518   6.9617   7.0001
     7.0138   7.0693   7.0844   7.1265   7.1849   7.2207   7.3894   7.4498
     7.4641   7.5046   7.5429   7.7027   7.7259   7.7755   7.8531   7.9957
     8.0331   8.0812   8.1294   8.1584   8.2013   8.2180   8.2818   8.3124
     8.3465   8.3826   8.3962   8.4271   8.4419   8.5464   8.5636   8.6024
     8.6101   8.6332   8.6348   8.6828   8.7223   8.7573   8.7674   8.8285
     8.8554   8.8731   8.9145   8.9558   9.0008   9.0432   9.0609   9.0801
     9.1610   9.1858   9.2779   9.4049   9.4216   9.4548   9.4671   9.4980
     9.5239   9.5873   9.6399   9.6713   9.6811   9.9265   9.9471   9.9806
    10.0346  10.1337  10.1368  10.1416

          k = 0.0000-0.2165 0.0000 (256176 PWs)   bands (ev):

   -16.9211 -15.8777 -15.4895 -15.2714 -14.6804 -14.2933 -13.9533 -13.9108
   -13.9017 -13.8520 -13.4230 -13.3549 -13.3237 -13.2998 -12.2784 -12.0774
   -12.0162 -11.9416 -11.8277 -11.7524 -10.8708 -10.3154 -10.2321 -10.2108
   -10.0603  -9.1565  -9.0883  -8.9431  -8.7790  -8.6028  -8.5684  -8.0151
    -7.8830  -7.8230  -7.7617  -7.1495  -6.9889  -6.6472  -6.6108  -6.5311
    -6.5285  -6.4941  -6.4659  -5.9398  -5.8458  -5.7670  -5.7558  -5.2075
    -5.1032  -4.8975  -4.8737  -4.8196  -4.7191  -4.7043  -4.6759  -4.6409
    -4.6334  -4.4833  -4.3670  -4.3529  -4.1594  -4.0920  -3.8593  -3.7140
    -3.6218  -3.5516  -3.4278  -3.4157  -3.3693  -3.1856  -3.1760  -3.1747
    -3.1707  -3.0408  -3.0125  -2.9661  -2.9131  -2.9019  -2.8296  -2.8089
    -2.7789  -2.7590  -2.6494  -2.6459  -2.5922  -2.5865  -2.5702  -2.5608
    -2.4697  -2.4686  -2.4636  -2.4597  -2.4567  -2.3384  -2.3353  -2.3047
    -2.2984  -2.2858  -2.1857  -2.1717  -2.1504  -2.0727  -2.0682  -2.0178
    -2.0155  -2.0132  -2.0084  -1.9227  -1.8728  -1.8725  -1.8544  -1.8543
    -1.8060  -1.7842  -1.7727  -1.7615  -1.6727  -1.6625  -1.6616  -1.6532
    -1.6393  -1.6298  -1.6293  -1.6122  -1.6004  -1.5582  -1.5526  -1.5503
    -1.5474  -1.5459  -1.5251  -1.4731  -1.3982  -1.3969  -1.3660  -1.3424
    -1.2668  -1.2579  -1.2392  -1.2336  -1.2148  -1.2118  -1.2085  -1.1894
    -1.1848  -1.1826  -1.1757  -1.1723  -1.1707  -1.1603  -1.1550  -1.1512
    -1.1479  -1.1326  -1.1258  -1.1176  -1.1110  -1.1095  -1.0989  -1.0927
    -1.0884  -1.0722  -1.0582  -1.0341  -0.9899  -0.9847  -0.9790  -0.9781
    -0.9757  -0.9505  -0.9488  -0.9432  -0.9420  -0.9133  -0.9024  -0.8943
    -0.8859  -0.8771  -0.8647  -0.8645  -0.8608  -0.8603  -0.8289  -0.8259
    -0.8235  -0.8214  -0.8188  -0.8064  -0.7982  -0.7927  -0.7764  -0.7711
    -0.7407  -0.7387  -0.7319  -0.7231  -0.7127  -0.7105  -0.7078  -0.6953
    -0.6811  -0.6761  -0.6742  -0.6540  -0.6509  -0.6464  -0.6427  -0.6298
    -0.5788  -0.5757  -0.5329  -0.5323  -0.5201  -0.5176  -0.5084  -0.5062
    -0.5042  -0.5035  -0.5017  -0.5014  -0.4818  -0.4640  -0.4408  -0.4370
    -0.4330  -0.4321  -0.4271  -0.4246  -0.4239  -0.4202  -0.4186  -0.3885
    -0.3873  -0.3808  -0.3796  -0.3675  -0.3603  -0.3552  -0.3525  -0.3484
    -0.3433  -0.3425  -0.3393  -0.2995  -0.2938  -0.2918  -0.2905  -0.2650
    -0.2609  -0.2288  -0.2180  -0.2143  -0.2138  -0.2107  -0.2107  -0.2080
    -0.2056  -0.2031  -0.1987  -0.1829  -0.1723  -0.1564  -0.1552  -0.1515
    -0.1502  -0.1493  -0.1414  -0.1386  -0.1374  -0.1356  -0.1162  -0.1152
    -0.1105  -0.1090  -0.0969  -0.0959  -0.0952  -0.0932  -0.0923  -0.0858
    -0.0798  -0.0617  -0.0584  -0.0578  -0.0491  -0.0444  -0.0405  -0.0304
    -0.0286  -0.0202  -0.0083  -0.0026   0.0040   0.0150   0.0160   0.0192
     0.0193   0.0299   0.0362   0.0400   0.0431   0.0583   0.0675   0.0701
     0.0747   0.0841   0.0949   0.0957   0.1023   0.1050   0.1141   0.1229
     0.1268   0.1289   0.1384   0.1419   0.1512   0.1588   0.1595   0.1623
     0.1661   0.1740   0.1826   0.1879   0.2004   0.2014   0.2056   0.2121
     0.2140   0.2220   0.2306   0.2318   0.2364   0.2440   0.2468   0.2518
     0.2559   0.2580   0.2849   0.2907   0.2921   0.2949   0.2972   0.3052
     0.3140   0.3216   0.3265   0.3333   0.3408   0.3462   0.3559   0.3867
     0.3943   0.4010   0.4020   0.4204   0.4372   0.4492   0.4644   0.4724
     0.4851   0.4881   0.4935   0.4993   0.5138   0.5159   0.5200   0.5214
     0.5282   0.5355   0.5366   0.5400   0.5424   0.5509   0.5620   0.5641
     0.5749   0.5796   0.5808   0.5875   0.5922   0.5937   0.5953   0.5975
     0.6029   0.6073   0.6109   0.6176   0.6220   0.6230   0.6279   0.6294
     0.6295   0.6331   0.6358   0.6400   0.6479   0.6522   0.6560   0.6622
     0.6657   0.6662   0.6738   0.6787   0.6794   0.6853   0.6913   0.6939
     0.7029   0.7040   0.7069   0.7085   0.7246   0.7310   0.7331   0.7373
     0.7405   0.7468   0.7540   0.7550   0.7604   0.7655   0.7712   0.7729
     0.7821   0.7851   0.7882   0.7883   0.7886   0.7968   0.8038   0.8101
     0.8209   0.8356   0.8410   0.8457   0.8472   0.8545   0.8580   0.8603
     0.8636   0.8743   0.8901   0.8911   0.8915   0.8928   0.8952   0.8974
     0.9274   0.9303   0.9746   0.9759   0.9814   0.9865   0.9928   1.0005
     1.0017   1.0054   1.0065   1.0138   1.0153   1.0177   1.0184   1.0216
     1.0232   1.0294   1.0294   1.0306   1.0340   1.0389   1.0470   1.0516
     1.0527   1.0580   1.0585   1.0604   1.0640   1.0653   1.0674   1.0691
     1.0771   1.0778   1.0790   1.0809   1.0879   1.0908   1.0919   1.0990
     1.1023   1.1041   1.1142   1.1166   1.1208   1.1228   1.1293   1.1320
     1.1332   1.1347   1.1362   1.1407   1.1408   1.1432   1.1488   1.1494
     1.1808   1.1824   1.1850   1.1893   1.2190   1.2208   1.2230   1.2378
     1.2560   1.2593   1.2642   1.2708   1.2723   1.2760   1.2780   1.2817
     1.2854   1.2896   1.2917   1.2952   1.2959   1.2987   1.3001   1.3016
     1.3030   1.3060   1.3111   1.3132   1.3157   1.3191   1.3223   1.3244
     1.3259   1.3304   1.3335   1.3394   1.3402   1.3418   1.3552   1.3579
     1.3614   1.3641   1.3651   1.3735   1.3768   1.3855   1.3863   1.3892
     1.3914   1.3998   1.4011   1.4064   1.4114   1.4138   1.4194   1.4262
     1.4286   1.4298   1.4307   1.4333   1.4499   1.4597   1.4602   1.4680
     1.4717   1.4748   1.4761   1.4779   1.4783   1.4808   1.4829   1.4888
     1.4910   1.4914   1.5013   1.5030   1.5241   1.5253   1.5284   1.5329
     1.5403   1.5422   1.5427   1.5444   1.5459   1.5520   1.5549   1.5632
     1.5666   1.5770   1.5802   1.5853   1.5883   1.5887   1.5914   1.5922
     1.6057   1.6061   1.6081   1.6086   1.6112   1.6305   1.6593   1.6617
     1.6637   1.6751   1.6760   1.6853   1.7432   1.7555   1.7591   1.8237
     1.8562   1.8574   1.8584   1.8603   1.8709   1.8826   1.8961   1.9153
     1.9176   1.9221   1.9296   1.9409   1.9653   1.9679   2.0615   2.2731
     2.2870   2.3340   2.4384   2.4396   2.5055   2.5169   2.5835   2.5927
     2.6092   2.6249   2.6516   2.6741   2.6794   2.6807   2.7691   2.7885
     2.8107   2.8118   2.8651   2.9333   3.0176   3.0189   3.2258   3.2478
     3.2621   3.2633   3.2813   3.4727   3.7581   3.7692   3.8627   4.0208
     4.0272   4.1569   4.1733   4.2547   4.2664   4.3047   4.3351   4.3668
     4.4058   4.4157   4.4385   4.5064   4.5276   4.6247   4.7104   4.9407
     5.1854   5.1920   5.2670   5.3064   5.3691   5.4332   5.4398   5.4425
     5.4638   5.5200   5.6998   5.8669   5.9187   6.0582   6.1029   6.1176
     6.2434   6.2569   6.2831   6.2952   6.4253   6.4460   6.5301   6.6195
     6.7342   6.7450   6.7747   6.8216   6.8907   7.0086   7.0505   7.1165
     7.1276   7.1460   7.1552   7.1673   7.2570   7.2687   7.3332   7.3592
     7.3704   7.4137   7.4290   7.4979   7.5906   7.7128   7.7973   7.8401
     7.8805   7.9280   8.1729   8.1837   8.2314   8.2415   8.3471   8.4008
     8.4327   8.4480   8.4588   8.4929   8.5126   8.6042   8.6079   8.6612
     8.7150   8.7400   8.7561   8.7739   8.7808   8.8275   8.8425   8.8981
     8.9769   8.9938   9.0239   9.0944   9.1202   9.1478   9.1761   9.2886
     9.3400   9.3528   9.3736   9.4067   9.4119   9.4161   9.4359   9.4892
     9.4921   9.5127   9.5923   9.6001   9.6364   9.7668   9.7915   9.8824
     9.8989   9.9683   9.9807   9.9844

          k = 0.2500 0.0000 0.0000 (256240 PWs)   bands (ev):

   -16.8720 -15.6983 -15.5675 -15.2636 -14.7309 -14.6233 -14.5433 -14.4962
   -13.7279 -13.5703 -13.3859 -12.8884 -12.8166 -12.6973 -12.6379 -12.0074
   -11.8793 -11.7643 -11.6998 -10.9892 -10.8786 -10.7680 -10.4086 -10.2581
   -10.1007  -9.8443  -9.5839  -9.5491  -9.1150  -8.8644  -8.7724  -8.4216
    -7.6923  -7.4712  -7.4177  -7.2402  -7.2176  -7.1104  -6.7189  -6.6068
    -5.9893  -5.8575  -5.7169  -5.6822  -5.6023  -5.5440  -5.1957  -5.1893
    -5.1577  -5.0104  -4.7810  -4.6214  -4.6071  -4.3594  -4.3036  -4.2632
    -4.2454  -4.1994  -4.1372  -4.0724  -4.0418  -3.9409  -3.8879  -3.8587
    -3.8482  -3.8366  -3.7327  -3.7090  -3.6506  -3.5195  -3.4950  -3.3551
    -3.3451  -3.3346  -3.2660  -3.1687  -3.1421  -3.1332  -3.1059  -3.0779
    -2.9678  -2.9513  -2.9248  -2.9183  -2.7911  -2.7736  -2.6990  -2.6823
    -2.6804  -2.5776  -2.5239  -2.4182  -2.3963  -2.2840  -2.2654  -2.2036
    -2.1938  -2.1681  -2.1149  -2.0876  -1.9876  -1.9858  -1.9742  -1.9647
    -1.9310  -1.8378  -1.8177  -1.7910  -1.7496  -1.7014  -1.6948  -1.6944
    -1.6906  -1.6899  -1.6862  -1.6853  -1.6660  -1.6511  -1.6467  -1.6180
    -1.5747  -1.5534  -1.5258  -1.5228  -1.5169  -1.4703  -1.4660  -1.4636
    -1.4611  -1.4604  -1.4526  -1.4503  -1.4397  -1.4258  -1.4083  -1.3980
    -1.3958  -1.3887  -1.3817  -1.2737  -1.2592  -1.2177  -1.2105  -1.2079
    -1.1790  -1.1501  -1.1460  -1.1404  -1.1331  -1.1296  -1.1196  -1.1125
    -1.0939  -1.0834  -1.0818  -1.0754  -1.0694  -1.0645  -1.0572  -1.0315
    -1.0290  -1.0252  -1.0157  -1.0059  -0.9996  -0.9943  -0.9921  -0.9823
    -0.9783  -0.9489  -0.9345  -0.9192  -0.9165  -0.9098  -0.9088  -0.9054
    -0.9033  -0.9010  -0.8950  -0.8935  -0.8921  -0.8895  -0.8852  -0.8785
    -0.8733  -0.8678  -0.8614  -0.8578  -0.8538  -0.8528  -0.8375  -0.8361
    -0.7983  -0.7806  -0.7719  -0.7503  -0.7434  -0.7242  -0.7160  -0.7049
    -0.7021  -0.6836  -0.6793  -0.6758  -0.6659  -0.6593  -0.6385  -0.6356
    -0.6288  -0.6211  -0.6131  -0.6007  -0.5854  -0.5128  -0.5061  -0.4894
    -0.4814  -0.4766  -0.4677  -0.4660  -0.4643  -0.4563  -0.4474  -0.4456
    -0.4444  -0.4385  -0.4221  -0.4197  -0.4147  -0.4068  -0.3972  -0.3849
    -0.3836  -0.3796  -0.3745  -0.3730  -0.3691  -0.3654  -0.3630  -0.3610
    -0.3567  -0.3235  -0.3060  -0.3036  -0.2971  -0.2892  -0.2856  -0.2835
    -0.2650  -0.2636  -0.2602  -0.2544  -0.2483  -0.2433  -0.2408  -0.2395
    -0.2093  -0.2033  -0.2027  -0.1887  -0.1882  -0.1843  -0.1822  -0.1782
    -0.1776  -0.1658  -0.1641  -0.1590  -0.1493  -0.1483  -0.1454  -0.1277
    -0.1084  -0.1060  -0.0972  -0.0949  -0.0931  -0.0889  -0.0789  -0.0741
    -0.0728  -0.0655  -0.0631  -0.0615  -0.0375  -0.0300  -0.0237  -0.0164
    -0.0140  -0.0111  -0.0051   0.0035   0.0144   0.0214   0.0339   0.0466
     0.0524   0.0573   0.0723   0.0761   0.0782   0.0802   0.0916   0.0953
     0.0994   0.1023   0.1128   0.1168   0.1210   0.1239   0.1260   0.1288
     0.1332   0.1350   0.1390   0.1410   0.1513   0.1520   0.1554   0.1716
     0.1743   0.1814   0.1947   0.2012   0.2062   0.2132   0.2168   0.2208
     0.2261   0.2294   0.2303   0.2410   0.2436   0.2499   0.2549   0.2627
     0.2708   0.2963   0.3140   0.3161   0.3268   0.3396   0.3463   0.3576
     0.3653   0.3726   0.3745   0.3809   0.3822   0.3853   0.3888   0.3933
     0.3989   0.3997   0.4032   0.4066   0.4273   0.4288   0.4337   0.4351
     0.4390   0.4462   0.4519   0.4596   0.4696   0.4737   0.4805   0.4845
     0.4878   0.4922   0.5082   0.5142   0.5209   0.5248   0.5350   0.5378
     0.5473   0.5499   0.5515   0.5553   0.5616   0.5681   0.5703   0.5763
     0.5798   0.5855   0.5954   0.5962   0.6007   0.6058   0.6072   0.6098
     0.6150   0.6189   0.6237   0.6390   0.6480   0.6512   0.6544   0.6572
     0.6612   0.6654   0.6666   0.6734   0.6761   0.6786   0.6899   0.6912
     0.6976   0.7013   0.7086   0.7133   0.7237   0.7305   0.7319   0.7362
     0.7377   0.7431   0.7458   0.7534   0.7561   0.7579   0.7600   0.7682
     0.7705   0.7933   0.7961   0.8014   0.8104   0.8190   0.8298   0.8392
     0.8421   0.8446   0.8498   0.8529   0.8608   0.8622   0.8658   0.8704
     0.8776   0.8852   0.8871   0.8892   0.8917   0.9198   0.9243   0.9275
     0.9350   0.9439   0.9467   0.9491   0.9509   0.9542   0.9608   0.9694
     0.9771   0.9793   0.9818   0.9854   0.9866   0.9915   0.9963   0.9976
     1.0030   1.0073   1.0127   1.0171   1.0200   1.0298   1.0362   1.0469
     1.0497   1.0667   1.0674   1.0799   1.0827   1.0845   1.0950   1.1002
     1.1033   1.1044   1.1098   1.1108   1.1123   1.1152   1.1171   1.1209
     1.1224   1.1246   1.1337   1.1361   1.1385   1.1437   1.1462   1.1469
     1.1527   1.1564   1.1601   1.1624   1.1682   1.1707   1.1765   1.1808
     1.1853   1.1873   1.1924   1.1990   1.2040   1.2063   1.2095   1.2116
     1.2139   1.2165   1.2186   1.2200   1.2227   1.2264   1.2273   1.2341
     1.2403   1.2506   1.2533   1.2578   1.2686   1.2845   1.2859   1.2877
     1.2898   1.2931   1.3000   1.3100   1.3164   1.3190   1.3287   1.3389
     1.3440   1.3479   1.3494   1.3524   1.3531   1.3557   1.3566   1.3678
     1.3704   1.3724   1.3770   1.3813   1.3826   1.3844   1.3929   1.3949
     1.3979   1.4007   1.4028   1.4079   1.4108   1.4127   1.4148   1.4205
     1.4215   1.4228   1.4257   1.4328   1.4391   1.4426   1.4451   1.4469
     1.4566   1.4592   1.4689   1.4733   1.4760   1.4821   1.4881   1.4937
     1.5072   1.5074   1.5085   1.5093   1.5115   1.5163   1.5252   1.5261
     1.5280   1.5291   1.5319   1.5364   1.5379   1.5406   1.5451   1.5467
     1.5530   1.5535   1.5575   1.5627   1.5665   1.5708   1.5746   1.5786
     1.5816   1.5844   1.5881   1.5918   1.5967   1.5979   1.5992   1.6099
     1.6164   1.6217   1.6405   1.6477   1.6622   1.6704   1.6738   1.7139
     1.7161   1.7178   1.7290   1.7302   1.7455   1.8114   1.8253   1.8562
     1.8604   1.8999   1.9186   1.9308   2.0859   2.1161   2.1231   2.1289
     2.1328   2.1562   2.1667   2.2300   2.2578   2.2599   2.4200   2.6387
     2.6445   2.6511   2.6863   3.0222   3.0713   3.0719   3.2639   3.2911
     3.2951   3.3114   3.3125   3.3414   3.4147   3.5092   3.5915   3.6258
     3.6998   3.7179   3.7666   3.7751   3.7810   3.8196   3.8591   3.9064
     3.9335   3.9772   4.0044   4.0301   4.0907   4.3136   4.3421   4.3718
     4.4170   4.6016   4.6649   4.7437   4.8648   4.9063   4.9125   5.0767
     5.2872   5.2934   5.3094   5.3363   5.4133   5.4579   5.4833   5.5060
     5.5233   5.5713   5.5959   5.6068   5.6284   5.6590   5.7194   5.7233
     5.8588   5.9425   6.0143   6.0718   6.0895   6.1097   6.1249   6.1566
     6.6463   6.6706   6.7124   6.7616   6.8261   6.8428   6.8660   6.9269
     6.9871   7.0025   7.0172   7.0856   7.1149   7.1262   7.1572   7.1657
     7.1884   7.2044   7.3013   7.3326   7.4916   7.5694   7.6089   7.6448
     7.6665   7.6897   7.7322   7.8098   8.0307   8.0598   8.1065   8.1234
     8.1442   8.1660   8.2202   8.2386   8.2723   8.3067   8.3408   8.3662
     8.3995   8.5056   8.5164   8.5659   8.6961   8.7217   8.9372   8.9762
     9.0169   9.0245   9.0483   9.1038   9.1211   9.1435   9.1749   9.1950
     9.2469   9.2586   9.3025   9.3101   9.3461   9.4688   9.4940   9.5140
     9.5252   9.5439   9.6076   9.6476   9.7437   9.7631   9.7806   9.8051
     9.8314   9.8459   9.8726   9.9887

          k = 0.2500-0.2165 0.0000 (256316 PWs)   bands (ev):

   -16.8718 -15.7539 -15.4714 -15.1524 -15.0607 -14.7633 -14.3122 -14.1726
   -13.8847 -13.7473 -13.3418 -12.8912 -12.8388 -12.7908 -12.3590 -12.2683
   -11.8664 -11.7018 -11.1490 -11.0626 -10.9713 -10.8703 -10.7964 -10.5741
   -10.1915  -9.4740  -9.4210  -9.0917  -9.0317  -8.7842  -8.7246  -8.3551
    -8.2675  -8.1122  -8.0633  -6.9387  -6.7170  -6.5092  -6.3236  -6.2589
    -6.1525  -6.0187  -5.9782  -5.8155  -5.7838  -5.5904  -5.5774  -5.0887
    -4.9031  -4.7976  -4.7580  -4.6353  -4.5574  -4.5502  -4.5097  -4.4831
    -4.2715  -4.2616  -4.2189  -4.1565  -4.0786  -4.0176  -3.9077  -3.8483
    -3.8016  -3.7737  -3.6239  -3.5092  -3.4626  -3.4418  -3.3618  -3.3309
    -3.3109  -3.2823  -3.2726  -3.2412  -3.1823  -3.0964  -3.0135  -3.0026
    -2.8985  -2.8588  -2.8219  -2.8064  -2.7945  -2.7844  -2.7813  -2.7043
    -2.6729  -2.6342  -2.5696  -2.5546  -2.4588  -2.4201  -2.2025  -2.1951
    -2.1775  -2.1071  -2.0971  -2.0616  -2.0612  -2.0380  -2.0296  -1.9401
    -1.9009  -1.8982  -1.8906  -1.8547  -1.8132  -1.7517  -1.7268  -1.7065
    -1.7054  -1.6901  -1.6746  -1.6461  -1.6130  -1.6051  -1.5983  -1.5963
    -1.5900  -1.5804  -1.5725  -1.5704  -1.5675  -1.5659  -1.5615  -1.5558
    -1.5538  -1.5332  -1.4817  -1.4565  -1.4288  -1.4063  -1.3569  -1.3525
    -1.2908  -1.2683  -1.2257  -1.2193  -1.1877  -1.1800  -1.1732  -1.1686
    -1.1610  -1.1576  -1.1513  -1.1463  -1.1405  -1.1349  -1.1307  -1.1302
    -1.1242  -1.1139  -1.1045  -1.1000  -1.0981  -1.0894  -1.0657  -1.0617
    -1.0590  -1.0556  -1.0383  -1.0303  -1.0273  -1.0038  -1.0009  -0.9994
    -0.9971  -0.9790  -0.9599  -0.9510  -0.9391  -0.9335  -0.9147  -0.9143
    -0.9037  -0.8946  -0.8892  -0.8832  -0.8709  -0.8654  -0.8589  -0.8542
    -0.8535  -0.8452  -0.8434  -0.8374  -0.8252  -0.8224  -0.8096  -0.8043
    -0.8024  -0.7876  -0.7546  -0.7532  -0.7295  -0.7027  -0.7008  -0.6950
    -0.6617  -0.6470  -0.6429  -0.6421  -0.6387  -0.6153  -0.6102  -0.6081
    -0.5987  -0.5971  -0.5948  -0.5882  -0.5843  -0.5707  -0.5385  -0.5352
    -0.5154  -0.5063  -0.5035  -0.4921  -0.4859  -0.4743  -0.4617  -0.4613
    -0.4410  -0.4405  -0.4352  -0.4199  -0.4097  -0.3992  -0.3963  -0.3896
    -0.3876  -0.3804  -0.3768  -0.3665  -0.3632  -0.3301  -0.3274  -0.3193
    -0.3165  -0.3095  -0.3030  -0.2998  -0.2957  -0.2937  -0.2766  -0.2727
    -0.2705  -0.2676  -0.2597  -0.2584  -0.2568  -0.2436  -0.2394  -0.2355
    -0.2301  -0.2253  -0.2220  -0.2117  -0.2095  -0.1992  -0.1889  -0.1853
    -0.1829  -0.1732  -0.1656  -0.1631  -0.1479  -0.1415  -0.1383  -0.1361
    -0.1345  -0.1220  -0.1060  -0.0980  -0.0906  -0.0869  -0.0804  -0.0761
    -0.0604  -0.0413  -0.0344  -0.0166  -0.0067  -0.0036  -0.0018   0.0027
     0.0055   0.0066   0.0127   0.0192   0.0219   0.0354   0.0369   0.0406
     0.0522   0.0539   0.0661   0.0697   0.0766   0.0873   0.0882   0.0932
     0.0949   0.0962   0.0996   0.1031   0.1066   0.1099   0.1146   0.1156
     0.1187   0.1218   0.1309   0.1333   0.1371   0.1385   0.1600   0.1661
     0.1720   0.1746   0.1854   0.1865   0.1975   0.2031   0.2113   0.2258
     0.2300   0.2423   0.2447   0.2488   0.2540   0.2599   0.2622   0.2666
     0.2715   0.2745   0.2807   0.2827   0.2874   0.3059   0.3201   0.3351
     0.3394   0.3426   0.3596   0.3685   0.3784   0.3816   0.3835   0.3915
     0.3932   0.4059   0.4107   0.4176   0.4202   0.4256   0.4337   0.4412
     0.4445   0.4490   0.4521   0.4529   0.4595   0.4750   0.4811   0.4831
     0.4890   0.4925   0.4967   0.5053   0.5134   0.5203   0.5205   0.5255
     0.5293   0.5350   0.5441   0.5585   0.5613   0.5674   0.5779   0.5836
     0.5879   0.5891   0.5937   0.5980   0.6020   0.6096   0.6150   0.6179
     0.6251   0.6313   0.6351   0.6477   0.6756   0.6821   0.6884   0.6899
     0.6911   0.6974   0.6982   0.7043   0.7075   0.7099   0.7128   0.7177
     0.7197   0.7232   0.7286   0.7412   0.7461   0.7484   0.7546   0.7587
     0.7633   0.7640   0.7708   0.7720   0.7758   0.7814   0.7840   0.7862
     0.7921   0.7945   0.7997   0.8008   0.8031   0.8062   0.8082   0.8110
     0.8166   0.8212   0.8274   0.8314   0.8341   0.8477   0.8569   0.8595
     0.8603   0.8679   0.8932   0.8988   0.9062   0.9109   0.9148   0.9221
     0.9254   0.9293   0.9336   0.9393   0.9412   0.9456   0.9465   0.9486
     0.9519   0.9551   0.9580   0.9594   0.9621   0.9631   0.9795   0.9859
     0.9951   1.0001   1.0050   1.0077   1.0123   1.0131   1.0193   1.0228
     1.0281   1.0304   1.0428   1.0453   1.0504   1.0576   1.0656   1.0661
     1.0693   1.0743   1.0874   1.1021   1.1034   1.1096   1.1157   1.1174
     1.1404   1.1446   1.1507   1.1564   1.1712   1.1744   1.1777   1.1801
     1.1828   1.1868   1.1907   1.1956   1.1968   1.1977   1.1993   1.2001
     1.2026   1.2058   1.2076   1.2118   1.2149   1.2181   1.2234   1.2339
     1.2417   1.2433   1.2476   1.2508   1.2518   1.2585   1.2623   1.2656
     1.2713   1.2729   1.2755   1.2799   1.2825   1.2844   1.2916   1.2931
     1.2948   1.2979   1.3025   1.3065   1.3115   1.3162   1.3188   1.3195
     1.3209   1.3240   1.3255   1.3271   1.3366   1.3407   1.3443   1.3488
     1.3560   1.3615   1.3629   1.3714   1.3732   1.3753   1.3804   1.3839
     1.3948   1.3976   1.4064   1.4125   1.4146   1.4213   1.4251   1.4285
     1.4299   1.4329   1.4385   1.4443   1.4471   1.4508   1.4535   1.4578
     1.4614   1.4654   1.4666   1.4700   1.4798   1.4816   1.4843   1.4868
     1.4929   1.4998   1.5025   1.5063   1.5087   1.5107   1.5120   1.5128
     1.5141   1.5174   1.5207   1.5273   1.5311   1.5332   1.5350   1.5429
     1.5459   1.5488   1.5538   1.5558   1.5573   1.5621   1.5740   1.5746
     1.5760   1.5798   1.5985   1.6042   1.6043   1.6080   1.6157   1.6198
     1.6295   1.6397   1.6420   1.6433   1.6601   1.6735   1.6747   1.7111
     1.7317   1.7423   1.7671   1.8127   1.8174   1.8208   1.8320   1.8361
     1.8380   1.8433   1.8568   1.8703   1.8746   1.8858   2.0607   2.0966
     2.2167   2.2196   2.2481   2.2515   2.3403   2.4023   2.6736   2.6772
     2.8122   2.8148   2.8484   2.8582   2.8773   2.8825   2.9100   2.9469
     3.0385   3.0756   3.0792   3.1968   3.5350   3.5416   3.5768   3.6146
     3.6569   3.7925   3.9156   3.9222   3.9340   3.9729   4.0659   4.0715
     4.0892   4.1774   4.1818   4.2528   4.2557   4.4591   4.4634   4.5490
     4.5677   4.6022   4.6982   4.7366   4.7439   4.7611   4.8742   4.8873
     4.9562   5.0163   5.0472   5.0895   5.1363   5.2675   5.3451   5.3726
     5.3933   5.4635   5.5158   5.5505   5.6066   5.6837   5.8270   5.8423
     5.8457   5.8626   5.9674   6.1177   6.2365   6.2808   6.4731   6.5041
     6.6596   6.6632   6.6916   6.7631   6.8146   6.8365   6.8510   6.9585
     7.0283   7.0422   7.0616   7.0911   7.2164   7.2287   7.2573   7.3005
     7.3198   7.3284   7.3630   7.4028   7.4719   7.5098   7.5550   7.5774
     7.6426   7.7167   7.7493   7.7890   7.8399   7.8682   7.8834   8.0588
     8.1498   8.2591   8.2814   8.3855   8.4315   8.5051   8.5538   8.5861
     8.6073   8.6243   8.6312   8.6699   8.7223   8.7468   8.7735   8.8044
     8.8247   8.8782   8.9179   8.9352   8.9926   9.0311   9.1146   9.1531
     9.1791   9.2111   9.2406   9.2674   9.2902   9.3092   9.3172   9.3509
     9.3925   9.4305   9.4594   9.4721   9.5105   9.5626   9.6539   9.6761
     9.8420   9.9293   9.9542   9.9591

          k =-0.5000 0.0000 0.0000 (256496 PWs)   bands (ev):

   -16.8137 -15.6029 -15.3127 -15.2465 -15.1906 -15.1369 -14.4370 -14.2468
   -14.1192 -14.0894 -12.8716 -12.5580 -12.4129 -12.3521 -12.0936 -12.0567
   -11.4803 -11.4734 -11.4078 -11.3785 -10.9326 -10.8104 -10.7944 -10.7171
   -10.5094  -9.9534  -9.9338  -9.7007  -9.3600  -8.8120  -8.8009  -8.6363
    -8.5932  -7.5522  -7.3570  -7.3249  -7.1457  -7.0789  -7.0506  -5.9368
    -5.8862  -5.4627  -5.1934  -5.1872  -4.9484  -4.8203  -4.7554  -4.6861
    -4.6854  -4.6782  -4.6206  -4.5400  -4.5256  -4.4533  -4.3857  -4.3696
    -4.3234  -4.3161  -4.2427  -4.2353  -4.2249  -4.1421  -4.0915  -4.0903
    -4.0234  -3.8931  -3.7359  -3.6706  -3.6532  -3.5863  -3.5475  -3.4954
    -3.3964  -3.3561  -3.3014  -3.3005  -3.2995  -3.2928  -3.2710  -3.1889
    -3.1544  -3.1321  -3.0925  -3.0653  -3.0596  -2.8473  -2.5998  -2.5934
    -2.5521  -2.5408  -2.5319  -2.5267  -2.5190  -2.5051  -2.5018  -2.4743
    -2.3142  -2.2630  -2.2363  -2.1877  -2.0978  -1.9577  -1.9480  -1.8110
    -1.7737  -1.7725  -1.7718  -1.7698  -1.7682  -1.7609  -1.6844  -1.6798
    -1.6760  -1.6108  -1.5741  -1.5549  -1.5445  -1.5426  -1.5413  -1.5396
    -1.4996  -1.4961  -1.4897  -1.4847  -1.4214  -1.4148  -1.4012  -1.3937
    -1.3797  -1.3217  -1.3158  -1.3133  -1.3114  -1.3056  -1.3043  -1.2671
    -1.2547  -1.2474  -1.2414  -1.2405  -1.2396  -1.2386  -1.2367  -1.2276
    -1.2215  -1.2207  -1.2114  -1.1946  -1.1922  -1.1902  -1.1834  -1.1770
    -1.1601  -1.1579  -1.1571  -1.1553  -1.1051  -1.1037  -1.0984  -1.0797
    -1.0770  -1.0733  -1.0684  -1.0622  -1.0613  -1.0371  -1.0314  -1.0256
    -1.0168  -1.0112  -1.0036  -1.0010  -0.9895  -0.9874  -0.9706  -0.9688
    -0.9621  -0.9610  -0.9054  -0.8997  -0.8816  -0.8790  -0.8742  -0.8719
    -0.8554  -0.8516  -0.8490  -0.8467  -0.8253  -0.8231  -0.8185  -0.8162
    -0.8154  -0.8086  -0.8065  -0.8056  -0.8050  -0.7905  -0.7834  -0.7420
    -0.7237  -0.7198  -0.7160  -0.7146  -0.6910  -0.6865  -0.6094  -0.6052
    -0.6035  -0.6014  -0.5879  -0.5705  -0.5676  -0.5616  -0.5589  -0.5545
    -0.5520  -0.5357  -0.5215  -0.5114  -0.5035  -0.4957  -0.4895  -0.4863
    -0.4855  -0.4854  -0.4829  -0.4770  -0.4743  -0.4658  -0.4603  -0.3532
    -0.3518  -0.3472  -0.3399  -0.3380  -0.3291  -0.3222  -0.3141  -0.3083
    -0.3057  -0.3049  -0.3045  -0.3028  -0.2905  -0.2754  -0.2670  -0.2640
    -0.2630  -0.2397  -0.2318  -0.2279  -0.2207  -0.2195  -0.2155  -0.2019
    -0.2000  -0.1985  -0.1954  -0.1937  -0.1929  -0.1909  -0.1847  -0.1795
    -0.1772  -0.1492  -0.1460  -0.1367  -0.1326  -0.1104  -0.1074  -0.1050
    -0.1029  -0.0938  -0.0570  -0.0544  -0.0522  -0.0501  -0.0493  -0.0407
    -0.0323  -0.0283  -0.0216  -0.0039   0.0001   0.0032   0.0145   0.0213
     0.0259   0.0342   0.0606   0.0619   0.0722   0.0740   0.0755   0.0780
     0.0790   0.0826   0.0865   0.0871   0.0894   0.0932   0.1223   0.1474
     0.1561   0.1581   0.1635   0.1669   0.1691   0.1733   0.1740   0.1747
     0.1781   0.1814   0.1828   0.1863   0.1893   0.1898   0.1916   0.1949
     0.1988   0.2056   0.2088   0.2123   0.2155   0.2228   0.2245   0.2264
     0.2281   0.2313   0.2324   0.2339   0.2417   0.2425   0.2579   0.2614
     0.2632   0.2667   0.2708   0.2841   0.2881   0.2938   0.2971   0.3183
     0.3434   0.3554   0.3658   0.3721   0.3881   0.3892   0.3934   0.3974
     0.4135   0.4165   0.4187   0.4226   0.4301   0.4475   0.4487   0.4510
     0.4565   0.4578   0.4680   0.4753   0.4801   0.4862   0.4898   0.4910
     0.4940   0.4956   0.4995   0.5052   0.5072   0.5080   0.5110   0.5154
     0.5176   0.5312   0.5373   0.5617   0.5835   0.5883   0.5899   0.5997
     0.6049   0.6116   0.6177   0.6216   0.6256   0.6264   0.6319   0.6337
     0.6408   0.6428   0.6455   0.6471   0.6501   0.6526   0.6535   0.6597
     0.6613   0.6650   0.6676   0.6689   0.6720   0.6730   0.6895   0.6919
     0.6957   0.7067   0.7092   0.7179   0.7241   0.7311   0.7343   0.7367
     0.7399   0.7426   0.7431   0.7472   0.7498   0.7551   0.7573   0.7586
     0.7602   0.7631   0.7662   0.7698   0.7702   0.7841   0.7917   0.7951
     0.8120   0.8157   0.8227   0.8234   0.8277   0.8328   0.8352   0.8403
     0.8498   0.8548   0.8660   0.8737   0.8763   0.8849   0.8875   0.8949
     0.9056   0.9112   0.9215   0.9249   0.9276   0.9287   0.9313   0.9323
     0.9355   0.9385   0.9447   0.9461   0.9506   0.9547   0.9581   0.9650
     0.9671   0.9680   0.9866   0.9886   0.9894   0.9898   0.9931   1.0056
     1.0068   1.0078   1.0148   1.0170   1.0300   1.0325   1.0359   1.0414
     1.0481   1.0591   1.0983   1.1036   1.1076   1.1121   1.1135   1.1160
     1.1243   1.1285   1.1338   1.1443   1.1501   1.1563   1.1595   1.1618
     1.1773   1.1788   1.1840   1.1871   1.1988   1.2026   1.2043   1.2068
     1.2087   1.2116   1.2124   1.2169   1.2174   1.2244   1.2257   1.2297
     1.2311   1.2336   1.2343   1.2415   1.2451   1.2467   1.2498   1.2506
     1.2549   1.2564   1.2623   1.2682   1.2695   1.2742   1.2945   1.2995
     1.3015   1.3041   1.3059   1.3096   1.3169   1.3234   1.3275   1.3282
     1.3299   1.3311   1.3351   1.3360   1.3370   1.3384   1.3421   1.3443
     1.3501   1.3565   1.3753   1.3865   1.3901   1.3909   1.3915   1.3934
     1.3952   1.3977   1.3988   1.4036   1.4050   1.4059   1.4092   1.4120
     1.4187   1.4219   1.4254   1.4265   1.4274   1.4289   1.4343   1.4353
     1.4367   1.4414   1.4472   1.4480   1.4491   1.4513   1.4556   1.4575
     1.4584   1.4616   1.4697   1.4762   1.4946   1.4967   1.4973   1.4986
     1.5036   1.5053   1.5080   1.5100   1.5165   1.5209   1.5264   1.5284
     1.5289   1.5351   1.5371   1.5386   1.5404   1.5483   1.5508   1.5534
     1.5602   1.5661   1.5784   1.5805   1.5819   1.5836   1.5848   1.5864
     1.5978   1.6025   1.6031   1.6056   1.6066   1.6097   1.6181   1.6207
     1.6431   1.6571   1.6629   1.6705   1.6823   1.6943   1.6976   1.6989
     1.7067   1.7214   2.0753   2.0846   2.1047   2.1264   2.2682   2.2888
     2.3262   2.3340   2.3817   2.3822   2.3854   2.3870   2.5984   2.6204
     2.6503   2.8135   2.9140   2.9223   2.9239   2.9617   3.2731   3.2778
     3.2846   3.2899   3.5344   3.5594   3.7395   3.7609   3.7839   3.8228
     3.9691   3.9813   3.9904   4.0113   4.0828   4.1189   4.1523   4.1659
     4.1839   4.2282   4.2359   4.6181   4.6468   4.6821   4.7540   4.7680
     4.8410   4.8897   4.9113   4.9214   4.9336   4.9529   5.0862   5.0963
     5.1078   5.1107   5.1222   5.1287   5.1351   5.1426   5.1474   5.1864
     5.3363   5.3546   5.4515   5.4835   5.4885   5.5272   5.5491   5.5847
     5.6076   5.6218   5.9340   5.9802   6.0091   6.0138   6.0398   6.0510
     6.0691   6.0905   6.0914   6.1349   6.2365   6.2748   6.3312   6.4053
     6.5048   6.6500   6.6911   6.7548   7.0462   7.0667   7.1000   7.1266
     7.1405   7.2415   7.4996   7.5531   7.5849   7.6323   7.6472   7.6568
     7.6631   7.7131   7.8226   7.8443   7.8727   7.9105   7.9415   7.9445
     7.9632   8.0020   8.0271   8.0519   8.0772   8.0871   8.1200   8.1449
     8.1859   8.4809   8.6335   8.6625   8.6761   8.7662   8.8358   8.8550
     8.8614   8.8669   8.9988   9.0019   9.0229   9.0288   9.0779   9.1104
     9.1260   9.2878   9.3293   9.3575   9.4217   9.4419   9.4489   9.4628
     9.4967   9.5203   9.5247   9.5252   9.5354   9.5581   9.5792   9.6066
     9.6335   9.6969   9.9209   9.9520

          k =-0.5000-0.2165 0.0000 (256328 PWs)   bands (ev):

   -16.8136 -15.5781 -15.4048 -15.3620 -14.9896 -14.8409 -14.7385 -14.7095
   -13.7066 -13.4790 -13.3349 -13.2981 -12.3005 -12.0817 -11.6536 -11.5758
   -11.5648 -11.4368 -11.3548 -11.2706 -11.1597 -11.1383 -11.0247 -11.0056
   -10.8263  -9.6889  -9.6761  -9.3915  -9.3476  -8.9439  -8.5787  -8.4808
    -8.4253  -7.9649  -7.9369  -7.7037  -7.6895  -6.2764  -5.9782  -5.8658
    -5.6739  -5.5560  -5.3292  -5.0806  -5.0671  -5.0547  -5.0537  -5.0512
    -4.9658  -4.9642  -4.8199  -4.6718  -4.5684  -4.5532  -4.2560  -4.1175
    -4.1131  -4.0874  -4.0741  -4.0582  -4.0441  -4.0163  -4.0071  -3.9942
    -3.8814  -3.8727  -3.8256  -3.7826  -3.7745  -3.6290  -3.5908  -3.5127
    -3.4867  -3.4368  -3.4073  -3.3722  -3.3401  -3.3200  -3.3149  -3.2970
    -3.1369  -3.1201  -3.1008  -3.0822  -2.8896  -2.6810  -2.6766  -2.4914
    -2.4759  -2.4660  -2.4654  -2.4644  -2.4592  -2.4451  -2.4183  -2.3834
    -2.3007  -2.2565  -2.1637  -2.1011  -1.9666  -1.9632  -1.9619  -1.9604
    -1.9537  -1.9438  -1.9343  -1.8616  -1.8473  -1.7961  -1.7550  -1.7028
    -1.6926  -1.6923  -1.6852  -1.6847  -1.4929  -1.4844  -1.4803  -1.4776
    -1.4136  -1.4005  -1.3961  -1.3909  -1.3881  -1.3860  -1.3824  -1.3676
    -1.3372  -1.3315  -1.3251  -1.3186  -1.3151  -1.3009  -1.2932  -1.2798
    -1.2736  -1.2704  -1.2666  -1.2643  -1.2624  -1.2522  -1.2491  -1.2477
    -1.2441  -1.2036  -1.2018  -1.1888  -1.1814  -1.1747  -1.1615  -1.1341
    -1.1092  -1.1046  -1.1006  -1.0973  -1.0887  -1.0807  -1.0772  -1.0705
    -1.0621  -1.0526  -1.0481  -1.0441  -1.0403  -1.0352  -1.0339  -1.0238
    -1.0188  -1.0141  -1.0126  -1.0048  -0.9981  -0.9942  -0.9774  -0.9710
    -0.9664  -0.9653  -0.9583  -0.9556  -0.9388  -0.9345  -0.9318  -0.9252
    -0.9196  -0.9177  -0.9165  -0.9112  -0.9088  -0.8205  -0.7821  -0.7805
    -0.7724  -0.7630  -0.7620  -0.7543  -0.7535  -0.7517  -0.7507  -0.7480
    -0.6850  -0.6786  -0.6735  -0.6714  -0.6649  -0.6606  -0.6503  -0.6493
    -0.6465  -0.6454  -0.6404  -0.6389  -0.6030  -0.5963  -0.5936  -0.5922
    -0.5905  -0.5825  -0.5749  -0.5682  -0.5644  -0.5601  -0.5196  -0.5173
    -0.4785  -0.4654  -0.4572  -0.4497  -0.4266  -0.4233  -0.4227  -0.4204
    -0.3979  -0.3967  -0.3889  -0.3873  -0.3478  -0.3466  -0.3424  -0.3409
    -0.3277  -0.3264  -0.3149  -0.3112  -0.2979  -0.2906  -0.2887  -0.2842
    -0.2819  -0.2700  -0.2687  -0.2619  -0.2134  -0.2115  -0.2006  -0.1944
    -0.1916  -0.1899  -0.1688  -0.1644  -0.1505  -0.1499  -0.1441  -0.1428
    -0.1396  -0.1383  -0.1283  -0.1257  -0.0907  -0.0800  -0.0751  -0.0710
    -0.0684  -0.0675  -0.0613  -0.0600  -0.0525  -0.0444  -0.0426  -0.0424
    -0.0359  -0.0233  -0.0223  -0.0210  -0.0173  -0.0099  -0.0072  -0.0015
     0.0045   0.0127   0.0147   0.0220   0.0234   0.0356   0.0497   0.0717
     0.0782   0.0787   0.0824   0.1142   0.1266   0.1362   0.1459   0.1518
     0.1519   0.1523   0.1562   0.1647   0.1705   0.1761   0.1830   0.1860
     0.1887   0.1920   0.1951   0.1987   0.2007   0.2057   0.2080   0.2089
     0.2131   0.2142   0.2183   0.2197   0.2216   0.2227   0.2245   0.2267
     0.2327   0.2468   0.2492   0.2576   0.2629   0.2680   0.2691   0.2720
     0.2767   0.2889   0.2914   0.2944   0.3037   0.3073   0.3220   0.3307
     0.3328   0.3439   0.3497   0.3518   0.3576   0.3728   0.3893   0.3988
     0.4101   0.4142   0.4150   0.4451   0.4483   0.4556   0.4604   0.4663
     0.4686   0.4833   0.4938   0.4941   0.4955   0.5008   0.5055   0.5072
     0.5146   0.5162   0.5259   0.5306   0.5436   0.5497   0.5524   0.5564
     0.5613   0.5672   0.5686   0.5696   0.5707   0.5726   0.5733   0.5762
     0.5821   0.5938   0.5964   0.5983   0.6019   0.6035   0.6094   0.6146
     0.6296   0.6339   0.6396   0.6483   0.6517   0.6586   0.6600   0.6653
     0.6660   0.6717   0.6768   0.6809   0.6855   0.6873   0.6939   0.7022
     0.7099   0.7133   0.7142   0.7168   0.7189   0.7218   0.7241   0.7253
     0.7277   0.7305   0.7339   0.7410   0.7540   0.7660   0.7693   0.7749
     0.7782   0.7795   0.7830   0.7901   0.7953   0.7964   0.8008   0.8084
     0.8142   0.8197   0.8246   0.8286   0.8308   0.8334   0.8337   0.8377
     0.8408   0.8419   0.8471   0.8520   0.8540   0.8695   0.8729   0.8766
     0.8834   0.9004   0.9028   0.9098   0.9145   0.9178   0.9219   0.9336
     0.9478   0.9496   0.9561   0.9587   0.9669   0.9693   0.9709   0.9736
     0.9906   1.0050   1.0100   1.0198   1.0241   1.0262   1.0350   1.0411
     1.0476   1.0524   1.0642   1.0714   1.0773   1.0813   1.0892   1.0931
     1.0945   1.0981   1.1067   1.1102   1.1195   1.1226   1.1271   1.1285
     1.1317   1.1354   1.1360   1.1373   1.1384   1.1408   1.1416   1.1442
     1.1481   1.1498   1.1514   1.1532   1.1584   1.1606   1.1629   1.1703
     1.1747   1.1760   1.1773   1.1839   1.1852   1.1891   1.1932   1.2015
     1.2038   1.2069   1.2179   1.2188   1.2228   1.2263   1.2311   1.2340
     1.2356   1.2364   1.2391   1.2418   1.2787   1.2890   1.2894   1.2915
     1.2935   1.2946   1.2973   1.3004   1.3012   1.3054   1.3074   1.3119
     1.3162   1.3193   1.3201   1.3228   1.3232   1.3246   1.3277   1.3618
     1.3709   1.3712   1.3721   1.3742   1.3748   1.3757   1.3764   1.3794
     1.3799   1.3828   1.3869   1.3916   1.4237   1.4251   1.4287   1.4299
     1.4400   1.4416   1.4453   1.4460   1.4482   1.4512   1.4525   1.4529
     1.4543   1.4554   1.4577   1.4585   1.4596   1.4611   1.4642   1.4662
     1.4684   1.4747   1.4764   1.4834   1.4850   1.4904   1.4913   1.4923
     1.4931   1.4951   1.4983   1.5037   1.5074   1.5083   1.5164   1.5300
     1.5333   1.5342   1.5359   1.5374   1.5388   1.5544   1.5561   1.5575
     1.5677   1.5711   1.5742   1.5928   1.5937   1.5970   1.5981   1.6011
     1.6235   1.6267   1.6287   1.6297   1.6596   1.6616   1.6670   1.6712
     1.6722   1.6780   1.6783   1.6874   1.6955   1.7005   1.7059   1.7120
     1.7132   1.7165   1.7186   1.7902   1.9218   1.9249   1.9295   1.9443
     2.3175   2.3226   2.3932   2.4978   2.6401   2.6461   2.6488   2.6687
     2.8394   2.8434   2.8682   2.8732   3.0757   3.1063   3.1301   3.2952
     3.5472   3.5500   3.5503   3.5508   3.6979   3.7016   3.7254   3.7722
     4.0231   4.0267   4.0283   4.0337   4.1954   4.2029   4.2493   4.2876
     4.3089   4.3209   4.3242   4.3265   4.3835   4.5636   4.5775   4.6199
     4.6684   4.7644   4.7660   4.7851   4.7959   4.9717   5.1019   5.1333
     5.1358   5.1892   5.1981   5.2123   5.2243   5.2358   5.2489   5.2680
     5.2829   5.2957   5.3447   5.3777   5.4015   5.4802   5.5080   5.5408
     5.6363   5.6448   5.6958   5.7797   5.7976   5.8045   5.8218   5.8315
     5.8384   5.9863   6.0047   6.0382   6.7137   6.7340   6.9869   7.0337
     7.0557   7.0673   7.0810   7.0984   7.1072   7.1247   7.1509   7.1624
     7.2004   7.2026   7.2603   7.2912   7.3661   7.4013   7.4249   7.4708
     7.4902   7.5159   7.5509   7.7284   7.7627   7.8969   7.9044   7.9501
     8.0291   8.1313   8.1391   8.1794   8.2056   8.2240   8.2413   8.2827
     8.3683   8.3925   8.4197   8.5147   8.8852   8.8969   8.9081   8.9095
     8.9415   8.9636   8.9792   8.9833   9.0147   9.0348   9.0705   9.0847
     9.1312   9.1336   9.1668   9.1794   9.2617   9.2973   9.3057   9.3241
     9.3870   9.4104   9.4393   9.4462   9.4565   9.4924   9.5163   9.5856
     9.6725   9.7914   9.9552   9.9649

     the Fermi energy is     3.4128 ev

!    total energy              =  -12723.07170566 Ry
     Harris-Foulkes estimate   =  -12723.07170565 Ry
     estimated scf accuracy    <          5.6E-09 Ry

     The total energy is the sum of the following terms:

     one-electron contribution =  -99667.65897846 Ry
     hartree contribution      =   51203.78986582 Ry
     xc contribution           =   -4452.97739275 Ry
     ewald contribution        =   40199.95505664 Ry
     Dispersion Correction     =      -2.81045542 Ry
     smearing contrib. (-TS)   =      -3.36980149 Ry

     convergence has been achieved in  42 iterations

     Writing output data file gc.save
 
     init_run     :    100.04s CPU    107.26s WALL (       1 calls)
     electrons    :  12791.12s CPU  13640.43s WALL (       1 calls)

     Called by init_run:
     wfcinit      :     97.61s CPU    104.49s WALL (       1 calls)
     potinit      :      0.42s CPU      0.43s WALL (       1 calls)

     Called by electrons:
     c_bands      :  11848.63s CPU  12606.40s WALL (      42 calls)
     sum_band     :    784.13s CPU    850.10s WALL (      42 calls)
     v_of_rho     :      2.80s CPU      3.45s WALL (      43 calls)
     newd         :      8.42s CPU     13.66s WALL (      43 calls)
     mix_rho      :    146.98s CPU    166.69s WALL (      42 calls)

     Called by c_bands:
     init_us_2    :     35.29s CPU     35.75s WALL (     510 calls)
     cegterg      :  11676.51s CPU  12428.93s WALL (     260 calls)

     Called by sum_band:
     sum_band:bec :      4.47s CPU      5.11s WALL (     252 calls)
     addusdens    :      8.47s CPU     13.56s WALL (      42 calls)

     Called by *egterg:
     h_psi        :   4104.50s CPU   4437.81s WALL (    2045 calls)
     s_psi        :    994.57s CPU   1005.90s WALL (    2045 calls)
     g_psi        :     10.72s CPU     10.72s WALL (    1779 calls)
     cdiaghg      :   3590.22s CPU   3727.44s WALL (    2031 calls)

     Called by h_psi:
     add_vuspsi   :   1000.45s CPU   1013.21s WALL (    2045 calls)

     General routines
     calbec       :   1393.09s CPU   1403.13s WALL (    2297 calls)
     fft          :      4.19s CPU      4.72s WALL (     558 calls)
     ffts         :     86.06s CPU     97.93s WALL (   22401 calls)
     fftw         :   2339.28s CPU   2602.76s WALL ( 1289656 calls)
     davcio       :      0.29s CPU      3.88s WALL (       6 calls)
 
     Parallel routines
     fft_scatter  :   1521.66s CPU   1670.98s WALL ( 1312615 calls)
 
     PWSCF        :     3h34m CPU        3h49m WALL

 
   This run was terminated on:  12:52:43   1May2017            

=------------------------------------------------------------------------------=
   JOB DONE.
=------------------------------------------------------------------------------=
