
     Program PWSCF v.5.4.0 starts on 18Apr2017 at  8:14:44 

     This program is part of the open-source Quantum ESPRESSO suite
     for quantum simulation of materials; please cite
         "P. Giannozzi et al., J. Phys.:Condens. Matter 21 395502 (2009);
          URL http://www.quantum-espresso.org", 
     in publications or presentations arising from this work. More details at
     http://www.quantum-espresso.org/quote

     Parallel version (MPI & OpenMP), running on      56 processor cores
     Number of MPI processes:                56
     Threads/MPI process:                     1
     R & G space division:  proc/nbgrp/npool/nimage =      56
     Waiting for input...
     Reading input from standard input

     Current dimensions of program PWSCF are:
     Max number of different atomic species (ntypx) = 10
     Max number of k-points (npk) =  40000
     Max angular momentum in pseudopotentials (lmaxx) =  3

     -------------------------------------
     Parameters for Dispersion Correction:
     -------------------------------------
       atom      VdW radius       C_6     

        Cu         2.952        374.666
        C          2.744         60.710

     Subspace diagonalization in iterative solution of the eigenvalue problem:
     one sub-group per band group will be used
     scalapack distributed-memory algorithm (size of sub-group:  5*  5 procs)

 
     Parallelization info
     --------------------
     sticks:   dense  smooth     PW     G-vecs:    dense   smooth      PW
     Min         204     204     54                36612    36612    4962
     Max         205     205     55                36617    36617    4968
     Sum       11433   11433   3039              2050409  2050409  278033
 


     bravais-lattice index     =            0
     lattice parameter (alat)  =      13.9425  a.u.
     unit-cell volume          =   21209.0878 (a.u.)^3
     number of atoms/cell      =          156
     number of atomic types    =            2
     number of electrons       =      1380.00
     number of Kohn-Sham states=          828
     kinetic-energy cutoff     =      80.0000  Ry
     charge density cutoff     =     320.0000  Ry
     convergence threshold     =      1.0E-08
     mixing beta               =       0.7000
     number of iterations used =            8  local-TF  mixing
     Exchange-correlation      =  SLA  PW   PBX  PBC ( 1  4  3  4 0 0)
     nstep                     =           50


     celldm(1)=  13.942539  celldm(2)=   0.000000  celldm(3)=   0.000000
     celldm(4)=   0.000000  celldm(5)=   0.000000  celldm(6)=   0.000000

     crystal axes: (cart. coord. in units of alat)
               a(1) = (   1.000000   0.000000   0.000000 )  
               a(2) = (   0.000000   2.309401   0.000000 )  
               a(3) = (   0.000000   0.000000   3.388418 )  

     reciprocal axes: (cart. coord. in units 2 pi/alat)
               b(1) = (  1.000000  0.000000  0.000000 )  
               b(2) = (  0.000000  0.433013  0.000000 )  
               b(3) = (  0.000000  0.000000  0.295123 )  


     PseudoPot. # 1 for Cu read from file:
     /home/549/hxw549/Short/pseudopotentials/Cu.pbe-n-van_ak.UPF
     MD5 check sum: 601f7c30f7467666bec936e0661ce3e1
     Pseudo is Ultrasoft + core correction, Zval = 11.0
     Generated by new atomic code, or converted to UPF format
     Using radial grid of  867 points,  6 beta functions with: 
                l(1) =   0
                l(2) =   0
                l(3) =   1
                l(4) =   1
                l(5) =   2
                l(6) =   2
     Q(r) pseudized with  8 coefficients,  rinner =    1.400   1.400   1.400
                                                       1.400   1.400

     PseudoPot. # 2 for C  read from file:
     /home/549/hxw549/Short/pseudopotentials/C.pbe-mt_gipaw.UPF
     MD5 check sum: 5ac2f21f2c440b14befe521540822c15
     Pseudo is Norm-conserving, Zval =  4.0
     Generated by new atomic code, or converted to UPF format
     Using radial grid of 1073 points,  1 beta functions with: 
                l(1) =   0

     atomic species   valence    mass     pseudopotential
        Cu            11.00    63.54600     Cu( 1.00)
        C              4.00    12.01070     C ( 1.00)

     No symmetry found



   Cartesian axes

     site n.     atom                  positions (alat units)
         1           Cu  tau(   1) = (   0.0000697   0.0033610   0.8954389  )
         2           Cu  tau(   2) = (   0.2500445   0.2357662   0.8942415  )
         3           Cu  tau(   3) = (   0.4998179   0.0033025   0.8963297  )
         4           Cu  tau(   4) = (   0.7498494   0.2355504   0.8944726  )
         5           Cu  tau(   5) = (  -0.0001111   0.4693137   0.8947167  )
         6           Cu  tau(   6) = (   0.2500034   0.7008747   0.8995496  )
         7           Cu  tau(   7) = (   0.5000237   0.4691333   0.8947981  )
         8           Cu  tau(   8) = (   0.7499244   0.7007512   0.8996225  )
         9           Cu  tau(   9) = (  -0.0001443   0.9287936   0.9059832  )
        10           Cu  tau(  10) = (   0.2499904   1.1551628   0.9054577  )
        11           Cu  tau(  11) = (   0.5000843   0.9289714   0.9064107  )
        12           Cu  tau(  12) = (   0.7499544   1.1553343   0.9057624  )
        13           Cu  tau(  13) = (   0.0000345   1.3828379   0.8982413  )
        14           Cu  tau(  14) = (   0.2500193   1.6140943   0.8939665  )
        15           Cu  tau(  15) = (   0.4999053   1.3828067   0.8986272  )
        16           Cu  tau(  16) = (   0.7499049   1.6142131   0.8943095  )
        17           Cu  tau(  17) = (  -0.0000608   1.8481270   0.8947240  )
        18           Cu  tau(  18) = (   0.2498085   2.0811524   0.8961232  )
        19           Cu  tau(  19) = (   0.4999689   1.8482052   0.8940183  )
        20           Cu  tau(  20) = (   0.7500844   2.0811799   0.8958844  )
        21           Cu  tau(  21) = (  -0.0001745   0.2342183   1.1404528  )
        22           Cu  tau(  22) = (   0.2500313   0.0033749   1.1416138  )
        23           Cu  tau(  23) = (   0.5000846   0.2346812   1.1411452  )
        24           Cu  tau(  24) = (   0.7498805   0.0030213   1.1415050  )
        25           Cu  tau(  25) = (   0.0001243   0.6953279   1.1497488  )
        26           Cu  tau(  26) = (   0.2497516   0.4652214   1.1430186  )
        27           Cu  tau(  27) = (   0.4997945   0.6950794   1.1494747  )
        28           Cu  tau(  28) = (   0.7501597   0.4654116   1.1430404  )
        29           Cu  tau(  29) = (   0.0001609   1.1584156   1.1547601  )
        30           Cu  tau(  30) = (   0.2499247   0.9263289   1.1550003  )
        31           Cu  tau(  31) = (   0.4997718   1.1584996   1.1552598  )
        32           Cu  tau(  32) = (   0.7500071   0.9262129   1.1548674  )
        33           Cu  tau(  33) = (  -0.0000382   1.6177076   1.1424868  )
        34           Cu  tau(  34) = (   0.2499798   1.3886740   1.1496698  )
        35           Cu  tau(  35) = (   0.4999769   1.6184512   1.1424743  )
        36           Cu  tau(  36) = (   0.7499549   1.3887199   1.1493842  )
        37           Cu  tau(  37) = (   0.0001559   2.0817534   1.1414005  )
        38           Cu  tau(  38) = (   0.2497548   1.8491340   1.1398657  )
        39           Cu  tau(  39) = (   0.4997663   2.0807644   1.1409299  )
        40           Cu  tau(  40) = (   0.7501802   1.8495385   1.1401595  )
        41           Cu  tau(  41) = (   0.0001147   0.0017029   1.3916330  )
        42           Cu  tau(  42) = (   0.2500333   0.2295024   1.3897993  )
        43           Cu  tau(  43) = (   0.4998251   0.0001889   1.3904319  )
        44           Cu  tau(  44) = (   0.7498819   0.2294001   1.3897739  )
        45           Cu  tau(  45) = (  -0.0001460   0.4581420   1.3925687  )
        46           Cu  tau(  46) = (   0.2494145   0.6909039   1.3981955  )
        47           Cu  tau(  47) = (   0.5000397   0.4591968   1.3923712  )
        48           Cu  tau(  48) = (   0.7504765   0.6910993   1.3978374  )
        49           Cu  tau(  49) = (   0.0002802   0.9256406   1.4024970  )
        50           Cu  tau(  50) = (   0.2497426   1.1587549   1.4030439  )
        51           Cu  tau(  51) = (   0.4996101   0.9249794   1.4018386  )
        52           Cu  tau(  52) = (   0.7501470   1.1589051   1.4018052  )
        53           Cu  tau(  53) = (   0.0001610   1.3930745   1.3985569  )
        54           Cu  tau(  54) = (   0.2497145   1.6260414   1.3921422  )
        55           Cu  tau(  55) = (   0.4997383   1.3937207   1.3981372  )
        56           Cu  tau(  56) = (   0.7502173   1.6253837   1.3919355  )
        57           Cu  tau(  57) = (  -0.0000804   1.8545558   1.3886508  )
        58           Cu  tau(  58) = (   0.2497588   2.0829620   1.3905284  )
        59           Cu  tau(  59) = (   0.5000314   1.8550616   1.3888843  )
        60           Cu  tau(  60) = (   0.7502019   2.0834699   1.3902991  )
        61           Cu  tau(  61) = (  -0.0000981   0.2262127   1.6436222  )
        62           Cu  tau(  62) = (   0.2493273   0.0007534   1.6455287  )
        63           Cu  tau(  63) = (   0.5000103   0.2242022   1.6395919  )
        64           Cu  tau(  64) = (   0.7506324   0.0008514   1.6453804  )
        65           Cu  tau(  65) = (  -0.0002016   0.6845718   1.6427867  )
        66           Cu  tau(  66) = (   0.2500160   0.4524715   1.6410172  )
        67           Cu  tau(  67) = (   0.5000829   0.6860607   1.6414686  )
        68           Cu  tau(  68) = (   0.7498773   0.4530057   1.6411832  )
        69           Cu  tau(  69) = (  -0.0000989   1.1623634   1.6502786  )
        70           Cu  tau(  70) = (   0.2487581   0.9213470   1.6499413  )
        71           Cu  tau(  71) = (   0.4999504   1.1614584   1.6472612  )
        72           Cu  tau(  72) = (   0.7511350   0.9223575   1.6481746  )
        73           Cu  tau(  73) = (  -0.0001756   1.6322242   1.6417100  )
        74           Cu  tau(  74) = (   0.2488554   1.3997256   1.6418367  )
        75           Cu  tau(  75) = (   0.5000739   1.6322047   1.6399926  )
        76           Cu  tau(  76) = (   0.7509989   1.3984175   1.6415992  )
        77           Cu  tau(  77) = (   0.0000956   2.0828263   1.6447772  )
        78           Cu  tau(  78) = (   0.2503443   1.8596542   1.6417485  )
        79           Cu  tau(  79) = (   0.4998898   2.0838488   1.6458980  )
        80           Cu  tau(  80) = (   0.7496224   1.8597502   1.6402094  )
        81           Cu  tau(  81) = (  -0.0007692  -0.0013641   1.8995338  )
        82           Cu  tau(  82) = (   0.2490275   0.2247689   1.9025156  )
        83           Cu  tau(  83) = (   0.5007339   0.0023813   1.8992390  )
        84           Cu  tau(  84) = (   0.7509009   0.2255317   1.9023063  )
        85           Cu  tau(  85) = (  -0.0003378   0.4458631   1.8950201  )
        86           Cu  tau(  86) = (   0.2478066   0.6688022   1.8958429  )
        87           Cu  tau(  87) = (   0.5002015   0.4447394   1.8860327  )
        88           Cu  tau(  88) = (   0.7521259   0.6706140   1.8962821  )
        89           Cu  tau(  89) = (  -0.0014589   0.9143333   1.8878184  )
        90           Cu  tau(  90) = (   0.2486800   1.1701005   1.8847959  )
        91           Cu  tau(  91) = (   0.5014323   0.9156873   1.8831475  )
        92           Cu  tau(  92) = (   0.7511618   1.1695277   1.8861934  )
        93           Cu  tau(  93) = (   0.0000258   1.4176482   1.9005411  )
        94           Cu  tau(  94) = (   0.2512233   1.6393006   1.8901524  )
        95           Cu  tau(  95) = (   0.4997959   1.4111704   1.8899377  )
        96           Cu  tau(  96) = (   0.7487057   1.6388787   1.8878635  )
        97           Cu  tau(  97) = (   0.0001163   1.8598846   1.9023564  )
        98           Cu  tau(  98) = (   0.2514142   2.0846694   1.9003092  )
        99           Cu  tau(  99) = (   0.4998656   1.8590508   1.9033030  )
       100           Cu  tau( 100) = (   0.7485816   2.0833468   1.8988932  )
       101           Cu  tau( 101) = (   0.2580843   1.4046515   2.1285498  )
       102           Cu  tau( 102) = (   0.7416727   1.4048139   2.1280534  )
       103           Cu  tau( 103) = (   0.0009824   1.1628289   2.1159254  )
       104           Cu  tau( 104) = (   0.2508336   0.9238240   2.1113178  )
       105           Cu  tau( 105) = (   0.4989341   1.1576208   2.1135408  )
       106           Cu  tau( 106) = (   0.7491295   0.9255441   2.1166522  )
       107           Cu  tau( 107) = (  -0.0003546   0.6836341   2.1349758  )
       108           Cu  tau( 108) = (   0.5003096   0.6792194   2.1224905  )
       109           C   tau( 109) = (   0.0001304   0.0901851   2.4137553  )
       110           C   tau( 110) = (   0.0001237   0.2828152   2.4223672  )
       111           C   tau( 111) = (   0.1667933  -0.0063646   2.4121348  )
       112           C   tau( 112) = (   0.1669207   0.3789529   2.4304891  )
       113           C   tau( 113) = (   0.3334401   0.0899429   2.4147590  )
       114           C   tau( 114) = (   0.3334735   0.2824504   2.4243743  )
       115           C   tau( 115) = (   0.5001148  -0.0065523   2.4120624  )
       116           C   tau( 116) = (   0.5000981   0.3784651   2.4314194  )
       117           C   tau( 117) = (   0.6668209   0.0899363   2.4150372  )
       118           C   tau( 118) = (   0.6667643   0.2824396   2.4246499  )
       119           C   tau( 119) = (   0.8334414  -0.0063658   2.4124180  )
       120           C   tau( 120) = (   0.8332968   0.3789233   2.4307331  )
       121           C   tau( 121) = (   0.0000961   0.6682958   2.4587485  )
       122           C   tau( 122) = (   0.0001243   0.8596552   2.4920702  )
       123           C   tau( 123) = (   0.1672932   0.5707502   2.4503018  )
       124           C   tau( 124) = (   0.1665786   0.9555032   2.5009460  )
       125           C   tau( 125) = (   0.3330512   0.6671022   2.4666998  )
       126           C   tau( 126) = (   0.3333605   0.8588391   2.4919349  )
       127           C   tau( 127) = (   0.5000940   0.5711155   2.4503834  )
       128           C   tau( 128) = (   0.5000240   0.9547311   2.4994752  )
       129           C   tau( 129) = (   0.6670980   0.6670455   2.4666332  )
       130           C   tau( 130) = (   0.6667749   0.8588785   2.4912811  )
       131           C   tau( 131) = (   0.8329363   0.5707284   2.4503635  )
       132           C   tau( 132) = (   0.8335649   0.9555660   2.5002510  )
       133           C   tau( 133) = (   0.0000653   1.2454921   2.4950512  )
       134           C   tau( 134) = (   0.0000806   1.4373371   2.4702184  )
       135           C   tau( 135) = (   0.1669648   1.1489664   2.5021754  )
       136           C   tau( 136) = (   0.1661377   1.5329417   2.4502255  )
       137           C   tau( 137) = (   0.3332078   1.2442959   2.4885852  )
       138           C   tau( 138) = (   0.3334814   1.4358352   2.4571442  )
       139           C   tau( 139) = (   0.5000665   1.1479978   2.4948417  )
       140           C   tau( 140) = (   0.5000686   1.5328103   2.4440695  )
       141           C   tau( 141) = (   0.6668807   1.2443303   2.4886694  )
       142           C   tau( 142) = (   0.6666677   1.4358617   2.4573268  )
       143           C   tau( 143) = (   0.8331767   1.1490338   2.5020814  )
       144           C   tau( 144) = (   0.8340015   1.5329506   2.4503845  )
       145           C   tau( 145) = (   0.0001077   1.8214258   2.4244708  )
       146           C   tau( 146) = (   0.0001045   2.0138303   2.4149543  )
       147           C   tau( 147) = (   0.1666130   1.7251005   2.4297541  )
       148           C   tau( 148) = (   0.1667891   2.1102292   2.4117609  )
       149           C   tau( 149) = (   0.3333371   1.8209096   2.4192379  )
       150           C   tau( 150) = (   0.3334027   2.0135782   2.4114899  )
       151           C   tau( 151) = (   0.5000872   1.7243536   2.4248726  )
       152           C   tau( 152) = (   0.5001365   2.1100284   2.4100460  )
       153           C   tau( 153) = (   0.6668710   1.8209161   2.4194399  )
       154           C   tau( 154) = (   0.6668019   2.0135812   2.4117165  )
       155           C   tau( 155) = (   0.8335601   1.7251014   2.4299344  )
       156           C   tau( 156) = (   0.8334739   2.1102334   2.4120202  )

     number of k points=     6  gaussian smearing, width (Ry)=  0.1000
                       cart. coord. in units 2pi/alat
        k(    1) = (   0.0000000   0.0000000   0.0000000), wk =   0.2500000
        k(    2) = (   0.0000000  -0.2165064   0.0000000), wk =   0.2500000
        k(    3) = (   0.2500000   0.0000000   0.0000000), wk =   0.5000000
        k(    4) = (   0.2500000  -0.2165064   0.0000000), wk =   0.5000000
        k(    5) = (  -0.5000000   0.0000000   0.0000000), wk =   0.2500000
        k(    6) = (  -0.5000000  -0.2165064   0.0000000), wk =   0.2500000

     Dense  grid:  2050409 G-vectors     FFT dimensions: (  80, 192, 270)

     Largest allocated arrays     est. size (Mb)     dimensions
        Kohn-Sham Wavefunctions        58.17 Mb     (    4604,  828)
        NL pseudopotentials           139.94 Mb     (    4604, 1992)
        Each V/rho on FFT grid          1.17 Mb     (   76800)
        Each G-vector array             0.28 Mb     (   36616)
        G-vector shells                 0.14 Mb     (   17932)
     Largest temporary arrays     est. size (Mb)     dimensions
        Auxiliary wavefunctions       232.67 Mb     (    4604, 3312)
        Each subspace H/S matrix        6.69 Mb     (     662,  662)
        Each <psi_i|beta_j> matrix     25.17 Mb     (    1992,  828)
        Arrays for rho mixing           9.38 Mb     (   76800,    8)

     Initial potential from superposition of free atoms
     Check: negative starting charge=   -0.001476

     starting charge 1354.72292, renormalised to 1380.00000

     negative rho (up, down):  1.503E-03 0.000E+00
     Starting wfc are 1356 randomized atomic wfcs

     total cpu time spent up to now is      116.5 secs

     Self-consistent Calculation

     iteration #  1     ecut=    80.00 Ry     beta=0.70
     Davidson diagonalization with overlap
     ethr =  1.00E-04,  avg # of iterations = 27.0

     negative rho (up, down):  2.716E+01 0.000E+00

     total cpu time spent up to now is     2236.7 secs

     total energy              =  -10520.06795070 Ry
     Harris-Foulkes estimate   =  -18858.59618519 Ry
     estimated scf accuracy    <  215768.33021641 Ry

     iteration #  2     ecut=    80.00 Ry     beta=0.70
     Davidson diagonalization with overlap
     ethr =  1.00E-02,  avg # of iterations = 15.7

     negative rho (up, down):  3.100E+01 0.000E+00

     total cpu time spent up to now is     3414.6 secs

     total energy              =  -13100.00108435 Ry
     Harris-Foulkes estimate   =  -14619.12386274 Ry
     estimated scf accuracy    <   19478.66392971 Ry

     iteration #  3     ecut=    80.00 Ry     beta=0.70
     Davidson diagonalization with overlap
     ethr =  1.00E-02,  avg # of iterations =  6.3

     negative rho (up, down):  3.506E+01 0.000E+00

     total cpu time spent up to now is     3986.9 secs

     total energy              =  -13532.15661465 Ry
     Harris-Foulkes estimate   =  -14424.40703700 Ry
     estimated scf accuracy    <   16107.80343049 Ry

     iteration #  4     ecut=    80.00 Ry     beta=0.70
     Davidson diagonalization with overlap
     ethr =  1.00E-02,  avg # of iterations =  6.0

     negative rho (up, down):  2.625E+01 0.000E+00

     total cpu time spent up to now is     4551.6 secs

     total energy              =  -13761.27978837 Ry
     Harris-Foulkes estimate   =  -14134.44207059 Ry
     estimated scf accuracy    <    1492.75512435 Ry

     iteration #  5     ecut=    80.00 Ry     beta=0.70
     Davidson diagonalization with overlap
     ethr =  1.00E-02,  avg # of iterations =  3.0

     negative rho (up, down):  1.768E+01 0.000E+00

     total cpu time spent up to now is     4868.8 secs

     total energy              =  -13779.94707233 Ry
     Harris-Foulkes estimate   =  -13924.87674287 Ry
     estimated scf accuracy    <     833.09756829 Ry

     iteration #  6     ecut=    80.00 Ry     beta=0.70
     Davidson diagonalization with overlap
     ethr =  1.00E-02,  avg # of iterations =  3.0

     negative rho (up, down):  1.198E+01 0.000E+00

     total cpu time spent up to now is     5125.4 secs

     total energy              =  -13810.81395670 Ry
     Harris-Foulkes estimate   =  -13855.38772367 Ry
     estimated scf accuracy    <     378.09311727 Ry

     iteration #  7     ecut=    80.00 Ry     beta=0.70
     Davidson diagonalization with overlap
     ethr =  1.00E-02,  avg # of iterations =  2.0

     negative rho (up, down):  8.839E+00 0.000E+00

     total cpu time spent up to now is     5324.1 secs

     total energy              =  -13787.61526880 Ry
     Harris-Foulkes estimate   =  -13814.73679946 Ry
     estimated scf accuracy    <     310.03023389 Ry

     iteration #  8     ecut=    80.00 Ry     beta=0.70
     Davidson diagonalization with overlap
     ethr =  1.00E-02,  avg # of iterations =  1.0

     negative rho (up, down):  5.472E+00 0.000E+00

     total cpu time spent up to now is     5507.2 secs

     total energy              =  -13752.79493916 Ry
     Harris-Foulkes estimate   =  -13790.73019796 Ry
     estimated scf accuracy    <     256.34143096 Ry

     iteration #  9     ecut=    80.00 Ry     beta=0.70
     Davidson diagonalization with overlap
     ethr =  1.00E-02,  avg # of iterations =  2.0

     negative rho (up, down):  4.757E+00 0.000E+00

     total cpu time spent up to now is     5704.0 secs

     total energy              =  -13746.26329125 Ry
     Harris-Foulkes estimate   =  -13758.36729266 Ry
     estimated scf accuracy    <     210.60503012 Ry

     iteration # 10     ecut=    80.00 Ry     beta=0.70
     Davidson diagonalization with overlap
     ethr =  1.00E-02,  avg # of iterations =  2.0

     negative rho (up, down):  3.179E+00 0.000E+00

     total cpu time spent up to now is     5900.6 secs

     total energy              =  -13692.88812045 Ry
     Harris-Foulkes estimate   =  -13751.01481444 Ry
     estimated scf accuracy    <     157.59240057 Ry

     iteration # 11     ecut=    80.00 Ry     beta=0.70
     Davidson diagonalization with overlap
     ethr =  1.00E-02,  avg # of iterations =  1.8

     negative rho (up, down):  7.772E+00 0.000E+00

     total cpu time spent up to now is     6094.0 secs

     total energy              =  -13685.74389536 Ry
     Harris-Foulkes estimate   =  -13697.23400427 Ry
     estimated scf accuracy    <      83.17085432 Ry

     iteration # 12     ecut=    80.00 Ry     beta=0.70
     Davidson diagonalization with overlap
     ethr =  6.03E-03,  avg # of iterations =  2.0

     negative rho (up, down):  9.309E+00 0.000E+00

     total cpu time spent up to now is     6290.6 secs

     total energy              =  -13682.14603014 Ry
     Harris-Foulkes estimate   =  -13690.78390781 Ry
     estimated scf accuracy    <      87.34244955 Ry

     iteration # 13     ecut=    80.00 Ry     beta=0.70
     Davidson diagonalization with overlap
     ethr =  6.03E-03,  avg # of iterations =  1.0

     negative rho (up, down):  8.821E+00 0.000E+00

     total cpu time spent up to now is     6473.1 secs

     total energy              =  -13680.60999358 Ry
     Harris-Foulkes estimate   =  -13685.46267712 Ry
     estimated scf accuracy    <      25.28435561 Ry

     iteration # 14     ecut=    80.00 Ry     beta=0.70
     Davidson diagonalization with overlap
     ethr =  1.83E-03,  avg # of iterations =  2.3

     negative rho (up, down):  7.010E+00 0.000E+00

     total cpu time spent up to now is     6673.8 secs

     total energy              =  -13678.77486757 Ry
     Harris-Foulkes estimate   =  -13682.22483387 Ry
     estimated scf accuracy    <      22.18233778 Ry

     iteration # 15     ecut=    80.00 Ry     beta=0.70
     Davidson diagonalization with overlap
     ethr =  1.61E-03,  avg # of iterations =  6.3

     negative rho (up, down):  6.467E+00 0.000E+00

     total cpu time spent up to now is     6929.2 secs

     total energy              =  -13678.97148525 Ry
     Harris-Foulkes estimate   =  -13679.97015009 Ry
     estimated scf accuracy    <      15.25575712 Ry

     iteration # 16     ecut=    80.00 Ry     beta=0.70
     Davidson diagonalization with overlap
     ethr =  1.11E-03,  avg # of iterations =  2.8

     negative rho (up, down):  4.972E+00 0.000E+00

     total cpu time spent up to now is     7135.6 secs

     total energy              =  -13677.99480132 Ry
     Harris-Foulkes estimate   =  -13679.27842694 Ry
     estimated scf accuracy    <      11.54647865 Ry

     iteration # 17     ecut=    80.00 Ry     beta=0.70
     Davidson diagonalization with overlap
     ethr =  8.37E-04,  avg # of iterations =  4.2

     negative rho (up, down):  1.624E+00 0.000E+00

     total cpu time spent up to now is     7360.7 secs

     total energy              =  -13675.19721189 Ry
     Harris-Foulkes estimate   =  -13678.09242554 Ry
     estimated scf accuracy    <      10.42700793 Ry

     iteration # 18     ecut=    80.00 Ry     beta=0.70
     Davidson diagonalization with overlap
     ethr =  7.56E-04,  avg # of iterations =  3.3

     negative rho (up, down):  6.815E-01 0.000E+00

     total cpu time spent up to now is     7575.6 secs

     total energy              =  -13673.52278213 Ry
     Harris-Foulkes estimate   =  -13675.44208708 Ry
     estimated scf accuracy    <      13.62360618 Ry

     iteration # 19     ecut=    80.00 Ry     beta=0.70
     Davidson diagonalization with overlap
     ethr =  7.56E-04,  avg # of iterations =  1.3

     negative rho (up, down):  7.421E-01 0.000E+00

     total cpu time spent up to now is     7763.6 secs

     total energy              =  -13672.28843190 Ry
     Harris-Foulkes estimate   =  -13673.89785927 Ry
     estimated scf accuracy    <       7.31012279 Ry

     iteration # 20     ecut=    80.00 Ry     beta=0.70
     Davidson diagonalization with overlap
     ethr =  5.30E-04,  avg # of iterations =  7.5

     negative rho (up, down):  8.025E-01 0.000E+00

     total cpu time spent up to now is     8044.1 secs

     total energy              =  -13671.07514704 Ry
     Harris-Foulkes estimate   =  -13672.44985529 Ry
     estimated scf accuracy    <       4.79052571 Ry

     iteration # 21     ecut=    80.00 Ry     beta=0.70
     Davidson diagonalization with overlap
     ethr =  3.47E-04,  avg # of iterations =  6.5

     negative rho (up, down):  9.383E-01 0.000E+00

     total cpu time spent up to now is     8309.9 secs

     total energy              =  -13671.06480411 Ry
     Harris-Foulkes estimate   =  -13671.36103222 Ry
     estimated scf accuracy    <       1.60590253 Ry

     iteration # 22     ecut=    80.00 Ry     beta=0.70
     Davidson diagonalization with overlap
     ethr =  1.16E-04,  avg # of iterations =  6.5

     negative rho (up, down):  1.175E+00 0.000E+00

     total cpu time spent up to now is     8581.4 secs

     total energy              =  -13671.01449291 Ry
     Harris-Foulkes estimate   =  -13671.16171711 Ry
     estimated scf accuracy    <       1.05224173 Ry

     iteration # 23     ecut=    80.00 Ry     beta=0.70
     Davidson diagonalization with overlap
     ethr =  7.62E-05,  avg # of iterations =  6.3

     negative rho (up, down):  9.428E-01 0.000E+00

     total cpu time spent up to now is     8861.6 secs

     total energy              =  -13670.98574664 Ry
     Harris-Foulkes estimate   =  -13671.05714133 Ry
     estimated scf accuracy    <       0.39531347 Ry

     iteration # 24     ecut=    80.00 Ry     beta=0.70
     Davidson diagonalization with overlap
     ethr =  2.86E-05,  avg # of iterations =  8.3

     negative rho (up, down):  5.401E-01 0.000E+00

     total cpu time spent up to now is     9171.3 secs

     total energy              =  -13670.96936365 Ry
     Harris-Foulkes estimate   =  -13671.02078663 Ry
     estimated scf accuracy    <       0.23180070 Ry

     iteration # 25     ecut=    80.00 Ry     beta=0.70
     Davidson diagonalization with overlap
     c_bands:  4 eigenvalues not converged
     ethr =  1.68E-05,  avg # of iterations = 12.8

     negative rho (up, down):  2.299E-01 0.000E+00

     total cpu time spent up to now is     9554.7 secs

     total energy              =  -13670.97187775 Ry
     Harris-Foulkes estimate   =  -13670.98891821 Ry
     estimated scf accuracy    <       0.04925712 Ry

     iteration # 26     ecut=    80.00 Ry     beta=0.70
     Davidson diagonalization with overlap
     c_bands:  2 eigenvalues not converged
     ethr =  3.57E-06,  avg # of iterations = 14.5

     negative rho (up, down):  1.313E-01 0.000E+00

     total cpu time spent up to now is     9994.4 secs

     total energy              =  -13670.97300328 Ry
     Harris-Foulkes estimate   =  -13670.97677911 Ry
     estimated scf accuracy    <       0.01785119 Ry

     iteration # 27     ecut=    80.00 Ry     beta=0.70
     Davidson diagonalization with overlap
     c_bands:  4 eigenvalues not converged
     c_bands:  1 eigenvalues not converged
     ethr =  1.29E-06,  avg # of iterations = 14.8

     negative rho (up, down):  5.050E-02 0.000E+00

     total cpu time spent up to now is    10411.6 secs

     total energy              =  -13670.97274190 Ry
     Harris-Foulkes estimate   =  -13670.97490818 Ry
     estimated scf accuracy    <       0.00753787 Ry

     iteration # 28     ecut=    80.00 Ry     beta=0.70
     Davidson diagonalization with overlap
     c_bands:  1 eigenvalues not converged
     ethr =  5.46E-07,  avg # of iterations = 11.8

     negative rho (up, down):  2.777E-02 0.000E+00

     total cpu time spent up to now is    10797.9 secs

     total energy              =  -13670.97304399 Ry
     Harris-Foulkes estimate   =  -13670.97344291 Ry
     estimated scf accuracy    <       0.00117094 Ry

     iteration # 29     ecut=    80.00 Ry     beta=0.70
     Davidson diagonalization with overlap
     ethr =  8.49E-08,  avg # of iterations = 10.8

     negative rho (up, down):  1.936E-02 0.000E+00

     total cpu time spent up to now is    11155.8 secs

     total energy              =  -13670.97304394 Ry
     Harris-Foulkes estimate   =  -13670.97322462 Ry
     estimated scf accuracy    <       0.00079462 Ry

     iteration # 30     ecut=    80.00 Ry     beta=0.70
     Davidson diagonalization with overlap
     c_bands:  1 eigenvalues not converged
     ethr =  5.76E-08,  avg # of iterations =  7.5

     negative rho (up, down):  7.724E-03 0.000E+00

     total cpu time spent up to now is    11447.0 secs

     total energy              =  -13670.97297877 Ry
     Harris-Foulkes estimate   =  -13670.97311776 Ry
     estimated scf accuracy    <       0.00021716 Ry

     iteration # 31     ecut=    80.00 Ry     beta=0.70
     Davidson diagonalization with overlap
     c_bands:  1 eigenvalues not converged
     ethr =  1.57E-08,  avg # of iterations =  9.0

     negative rho (up, down):  2.855E-03 0.000E+00

     total cpu time spent up to now is    11768.1 secs

     total energy              =  -13670.97295225 Ry
     Harris-Foulkes estimate   =  -13670.97299791 Ry
     estimated scf accuracy    <       0.00009433 Ry

     iteration # 32     ecut=    80.00 Ry     beta=0.70
     Davidson diagonalization with overlap
     c_bands:  1 eigenvalues not converged
     ethr =  6.84E-09,  avg # of iterations = 10.8

     negative rho (up, down):  1.829E-03 0.000E+00

     total cpu time spent up to now is    12123.9 secs

     total energy              =  -13670.97296748 Ry
     Harris-Foulkes estimate   =  -13670.97296229 Ry
     estimated scf accuracy    <       0.00001257 Ry

     iteration # 33     ecut=    80.00 Ry     beta=0.70
     Davidson diagonalization with overlap
     ethr =  9.11E-10,  avg # of iterations =  4.7

     negative rho (up, down):  1.214E-03 0.000E+00

     total cpu time spent up to now is    12392.1 secs

     total energy              =  -13670.97297530 Ry
     Harris-Foulkes estimate   =  -13670.97296927 Ry
     estimated scf accuracy    <       0.00000571 Ry

     iteration # 34     ecut=    80.00 Ry     beta=0.70
     Davidson diagonalization with overlap
     ethr =  4.14E-10,  avg # of iterations =  5.2

     negative rho (up, down):  1.301E-03 0.000E+00

     total cpu time spent up to now is    12645.3 secs

     total energy              =  -13670.97297861 Ry
     Harris-Foulkes estimate   =  -13670.97297604 Ry
     estimated scf accuracy    <       0.00000266 Ry

     iteration # 35     ecut=    80.00 Ry     beta=0.70
     Davidson diagonalization with overlap
     ethr =  1.92E-10,  avg # of iterations =  4.7

     negative rho (up, down):  1.346E-03 0.000E+00

     total cpu time spent up to now is    12897.9 secs

     total energy              =  -13670.97297946 Ry
     Harris-Foulkes estimate   =  -13670.97297889 Ry
     estimated scf accuracy    <       0.00000037 Ry

     iteration # 36     ecut=    80.00 Ry     beta=0.70
     Davidson diagonalization with overlap
     ethr =  2.66E-11,  avg # of iterations =  3.0

     negative rho (up, down):  1.373E-03 0.000E+00

     total cpu time spent up to now is    13183.0 secs

     total energy              =  -13670.97297978 Ry
     Harris-Foulkes estimate   =  -13670.97297954 Ry
     estimated scf accuracy    <       0.00000021 Ry

     iteration # 37     ecut=    80.00 Ry     beta=0.70
     Davidson diagonalization with overlap
     ethr =  1.54E-11,  avg # of iterations =  3.0

     negative rho (up, down):  1.429E-03 0.000E+00

     total cpu time spent up to now is    13402.1 secs

     total energy              =  -13670.97297979 Ry
     Harris-Foulkes estimate   =  -13670.97297979 Ry
     estimated scf accuracy    <       0.00000009 Ry

     iteration # 38     ecut=    80.00 Ry     beta=0.70
     Davidson diagonalization with overlap
     ethr =  6.62E-12,  avg # of iterations =  3.2

     negative rho (up, down):  1.471E-03 0.000E+00

     total cpu time spent up to now is    13629.7 secs

     total energy              =  -13670.97297971 Ry
     Harris-Foulkes estimate   =  -13670.97297980 Ry
     estimated scf accuracy    <       0.00000005 Ry

     iteration # 39     ecut=    80.00 Ry     beta=0.70
     Davidson diagonalization with overlap
     ethr =  3.63E-12,  avg # of iterations =  2.3

     negative rho (up, down):  1.477E-03 0.000E+00

     total cpu time spent up to now is    13838.8 secs

     total energy              =  -13670.97297967 Ry
     Harris-Foulkes estimate   =  -13670.97297971 Ry
     estimated scf accuracy    <       0.00000002 Ry

     iteration # 40     ecut=    80.00 Ry     beta=0.70
     Davidson diagonalization with overlap
     ethr =  1.50E-12,  avg # of iterations =  2.2

     negative rho (up, down):  1.493E-03 0.000E+00

     total cpu time spent up to now is    14044.4 secs

     total energy              =  -13670.97297962 Ry
     Harris-Foulkes estimate   =  -13670.97297967 Ry
     estimated scf accuracy    <       0.00000001 Ry

     iteration # 41     ecut=    80.00 Ry     beta=0.70
     Davidson diagonalization with overlap
     ethr =  8.58E-13,  avg # of iterations =  2.8

     negative rho (up, down):  1.489E-03 0.000E+00

     total cpu time spent up to now is    14256.1 secs

     End of self-consistent calculation

          k = 0.0000 0.0000 0.0000 (256287 PWs)   bands (ev):

   -15.5555 -15.1728 -15.0781 -14.0398 -14.0301 -13.5924 -13.5871 -13.2187
   -13.2126 -13.1249 -13.1230 -12.2562 -12.2467 -12.1252 -12.1235 -12.1124
   -12.1064 -10.4462 -10.4408 -10.4351 -10.4329 -10.2727  -9.2147  -8.5927
    -8.5881  -8.5400  -8.5364  -7.6819  -7.6720  -7.6399  -7.6378  -6.7137
    -6.7059  -6.6068  -6.5978  -6.5910  -6.5860  -6.5673  -6.5663  -5.2198
    -5.0629  -5.0534  -5.0515  -5.0474  -4.9166  -4.9133  -4.8966  -4.8957
    -4.7051  -4.6793  -4.3527  -3.9985  -3.7645  -3.7596  -3.7556  -3.6852
    -3.4781  -3.4652  -3.4445  -3.2405  -3.1773  -3.1744  -2.7844  -2.6469
    -2.6455  -2.6438  -2.6426  -2.6052  -2.6050  -2.4564  -2.4532  -2.4454
    -2.4229  -2.3544  -2.2194  -2.2184  -2.2000  -2.1994  -2.1983  -2.1220
    -2.0993  -2.0848  -2.0664  -2.0115  -1.9472  -1.9366  -1.8079  -1.8053
    -1.7723  -1.7721  -1.6644  -1.6604  -1.5510  -1.5497  -1.5288  -1.5282
    -1.4701  -1.3969  -1.3885  -1.3432  -1.3408  -1.3365  -1.3285  -1.3269
    -1.3269  -1.2307  -1.2275  -1.2273  -1.1898  -1.1898  -1.1687  -1.0536
    -1.0451  -1.0442  -1.0438  -1.0401  -1.0114  -1.0046  -0.9587  -0.9473
    -0.9311  -0.9278  -0.9254  -0.8995  -0.8992  -0.8731  -0.8469  -0.8461
    -0.8262  -0.8261  -0.7627  -0.7604  -0.7530  -0.7443  -0.7236  -0.7229
    -0.7114  -0.7078  -0.6559  -0.6558  -0.6381  -0.5946  -0.5603  -0.5601
    -0.5381  -0.5362  -0.4949  -0.4826  -0.4629  -0.4545  -0.4503  -0.4300
    -0.4219  -0.4211  -0.3995  -0.3934  -0.3907  -0.3751  -0.3737  -0.3477
    -0.3461  -0.3431  -0.3247  -0.3153  -0.2640  -0.2629  -0.2483  -0.2469
    -0.2442  -0.2381  -0.2317  -0.2297  -0.2262  -0.2234  -0.2229  -0.2134
    -0.1970  -0.1693  -0.1641  -0.1630  -0.1568  -0.1451  -0.1335  -0.1271
    -0.1228  -0.1144  -0.1137  -0.1107  -0.1090  -0.1087  -0.0710  -0.0704
    -0.0687  -0.0617  -0.0493  -0.0489  -0.0416  -0.0333  -0.0331  -0.0282
    -0.0275  -0.0198  -0.0189  -0.0022   0.0033   0.0200   0.0282   0.0439
     0.0493   0.0862   0.0902   0.0916   0.0994   0.1132   0.1214   0.1350
     0.1357   0.1387   0.1526   0.1613   0.1830   0.1880   0.1909   0.1918
     0.2088   0.2098   0.2166   0.2206   0.2316   0.2332   0.2374   0.2425
     0.2451   0.2460   0.2469   0.2532   0.2569   0.2940   0.2962   0.3082
     0.3127   0.3410   0.3475   0.3480   0.3606   0.3617   0.3782   0.3785
     0.3861   0.3956   0.4062   0.4071   0.4195   0.4201   0.4205   0.4253
     0.4259   0.4301   0.4312   0.4532   0.4566   0.4576   0.4629   0.4648
     0.4654   0.4739   0.4748   0.4880   0.5041   0.5045   0.5087   0.5087
     0.5318   0.5322   0.5436   0.5438   0.5502   0.5510   0.5538   0.5647
     0.5655   0.5769   0.5841   0.5875   0.5896   0.5985   0.5998   0.6035
     0.6085   0.6091   0.6123   0.6253   0.6318   0.6329   0.6378   0.6392
     0.6421   0.6481   0.6565   0.6574   0.6799   0.6830   0.6850   0.6930
     0.7102   0.7107   0.7317   0.7330   0.7347   0.7364   0.7440   0.7517
     0.7542   0.7673   0.7678   0.7747   0.7758   0.7796   0.7962   0.7987
     0.8049   0.8052   0.8145   0.8187   0.8212   0.8292   0.8321   0.8330
     0.8475   0.8490   0.8514   0.8574   0.8592   0.8644   0.8678   0.8679
     0.8703   0.8715   0.8751   0.8753   0.8899   0.8934   0.9001   0.9061
     0.9076   0.9231   0.9342   0.9367   0.9549   0.9642   0.9675   0.9704
     0.9732   0.9940   0.9969   1.0001   1.0056   1.0096   1.0108   1.0415
     1.0428   1.0469   1.0596   1.0596   1.0604   1.0708   1.0720   1.0832
     1.0857   1.0912   1.1113   1.1163   1.1184   1.1202   1.1245   1.1412
     1.1415   1.1500   1.1580   1.1621   1.1654   1.1672   1.1678   1.1853
     1.1859   1.2210   1.2306   1.2345   1.2377   1.2421   1.2440   1.2454
     1.2471   1.2508   1.2513   1.2617   1.2647   1.2655   1.2724   1.2802
     1.2918   1.2955   1.3107   1.3142   1.3172   1.3195   1.3330   1.3332
     1.3561   1.3644   1.3651   1.3782   1.3791   1.3811   1.3820   1.3891
     1.3914   1.4026   1.4050   1.4067   1.4171   1.4205   1.4212   1.4247
     1.4251   1.4254   1.4403   1.4426   1.4435   1.4504   1.4516   1.4531
     1.4559   1.4697   1.4741   1.4747   1.4824   1.4856   1.4885   1.4911
     1.4920   1.5023   1.5079   1.5084   1.5141   1.5144   1.5168   1.5257
     1.5331   1.5343   1.5372   1.5497   1.5514   1.5550   1.5554   1.5632
     1.5649   1.5673   1.5681   1.5701   1.5707   1.5746   1.5769   1.5898
     1.5904   1.5974   1.6013   1.6060   1.6066   1.6114   1.6216   1.6255
     1.6336   1.6348   1.6546   1.6606   1.6698   1.6708   1.6803   1.6814
     1.6852   1.6905   1.7031   1.7074   1.7078   1.7147   1.7158   1.7202
     1.7229   1.7339   1.7353   1.7397   1.7421   1.7477   1.7488   1.7535
     1.7577   1.7629   1.7733   1.7746   1.7759   1.7824   1.7830   1.7876
     1.7918   1.8004   1.8060   1.8067   1.8104   1.8136   1.8147   1.8188
     1.8228   1.8325   1.8327   1.8340   1.8368   1.8491   1.8597   1.8623
     1.8672   1.8797   1.8826   1.8852   1.8872   1.8904   1.8928   1.8953
     1.9107   1.9140   1.9142   1.9164   1.9169   1.9189   1.9219   1.9269
     1.9296   1.9329   1.9422   1.9443   1.9458   1.9483   1.9487   1.9525
     1.9567   1.9600   1.9672   1.9735   1.9751   1.9787   1.9812   1.9827
     1.9872   1.9982   2.0022   2.0093   2.0153   2.0231   2.0243   2.0248
     2.0271   2.0303   2.0458   2.0465   2.0551   2.0636   2.0656   2.0676
     2.0722   2.0750   2.0804   2.0822   2.0882   2.0887   2.0924   2.0989
     2.0991   2.1058   2.1122   2.1122   2.1182   2.1214   2.1252   2.1335
     2.1337   2.1353   2.1358   2.1397   2.1467   2.1506   2.1508   2.1560
     2.1613   2.1683   2.1784   2.1802   2.1826   2.1834   2.1854   2.1872
     2.1914   2.1926   2.1972   2.2072   2.2122   2.2148   2.2155   2.2207
     2.2213   2.2225   2.2259   2.2277   2.2327   2.2362   2.2365   2.2384
     2.2395   2.2409   2.2417   2.2433   2.2477   2.2553   2.2597   2.2621
     2.2629   2.2660   2.2697   2.2712   2.2766   2.2854   2.2861   2.2987
     2.3024   2.3038   2.3097   2.3136   2.3145   2.3173   2.3188   2.3422
     2.3442   2.3464   2.3619   2.3752   2.3761   2.3874   2.3909   2.3948
     2.3988   2.4099   2.4278   2.4306   2.4410   2.4460   2.4620   2.4626
     2.4650   2.4661   2.4736   2.4759   2.5369   2.6319   2.7143   2.7787
     2.8064   2.8629   2.8978   2.8985   2.9681   2.9683   3.0058   3.0059
     3.0281   3.0286   3.0417   3.0421   3.1094   3.1097   3.1426   3.1727
     3.1729   3.2061   3.2190   3.3947   3.3958   3.4495   3.4499   3.6337
     3.7429   3.8624   3.8673   3.9554   3.9648   4.0601   4.0611   4.1805
     4.2592   4.2622   4.2795   4.4263   4.4290   4.5001   4.5016   4.6591
     4.7031   4.7283   4.7285   4.7735   4.7736   4.7956   4.8161   4.8161
     4.8247   4.8253   5.2351   5.2376   5.2587   5.3082   5.3973   5.5234
     5.6551   5.7405   5.7506   5.7772   5.8299   5.8372   5.9058   5.9194
     6.0352   6.1330   6.2896   6.3391   6.5202   6.5501   6.5574   6.6766
     6.7046   7.0280   7.0287   7.0556   7.0638   7.2636   7.2726   7.2869
     7.3633   7.5180   7.5512   7.5649   7.5982   7.6116   7.6123   7.6127
     7.6635   7.6706   7.6957   7.7325   7.7930   7.8854   7.8913   7.9360
     7.9502   8.0610   8.0652   8.1593   8.1654   8.3145   8.3180   8.4006
     8.4670   8.4686   8.5005   8.5019   8.5039   8.8062   8.8067   8.8075
     8.8781   8.8834   8.9045   8.9102   8.9942   9.0163   9.0441   9.0472
     9.1066   9.1256   9.2905   9.3281   9.3294   9.3571   9.3580   9.3907
     9.4063   9.4124   9.4197   9.4445   9.5089   9.5159   9.5364   9.5606
     9.5621   9.6091   9.7129   9.7627   9.7914   9.9195   9.9238   9.9850
     9.9916  10.0137  10.1161  10.1391  10.2936  10.2965  10.3218  10.3294
    10.3491  10.5275  10.5370  10.5975  10.5977  10.6387  10.6736  10.7038
    10.7066  10.8218  10.8230  10.8384

          k = 0.0000-0.2165 0.0000 (256176 PWs)   bands (ev):

   -15.5249 -15.3383 -14.6914 -14.6491 -13.5631 -13.5576 -13.3783 -13.3745
   -13.2424 -13.2063 -12.7517 -12.7452 -12.7096 -12.7086 -11.3639 -11.3594
   -11.3306 -11.3273 -11.1961 -11.0958  -9.4880  -9.4842  -9.4225  -9.4198
    -8.2307  -8.1873  -8.0802  -8.0757  -7.9980  -7.9943  -7.2095  -7.1997
    -7.1768  -7.1742  -6.0866  -6.0859  -5.9773  -5.9754  -5.8872  -5.8740
    -5.8544  -5.8540  -5.1209  -5.0938  -5.0933  -5.0723  -4.3756  -4.2951
    -4.2882  -4.1726  -4.1624  -4.0704  -4.0158  -3.9713  -3.8974  -3.6969
    -3.6949  -3.6924  -3.6889  -3.6561  -3.1402  -3.1308  -2.8642  -2.7720
    -2.7150  -2.5144  -2.5143  -2.4901  -2.4890  -2.4286  -2.4113  -2.2560
    -2.2236  -2.2215  -2.2027  -2.1972  -2.1310  -2.1284  -1.9741  -1.9735
    -1.9158  -1.9070  -1.9062  -1.8950  -1.8943  -1.8465  -1.7962  -1.7734
    -1.7726  -1.7702  -1.7636  -1.7626  -1.6678  -1.6615  -1.6534  -1.6280
    -1.6105  -1.5835  -1.4952  -1.4323  -1.4122  -1.4110  -1.3676  -1.3564
    -1.3563  -1.3167  -1.3162  -1.2549  -1.1690  -1.1612  -1.1608  -1.1477
    -1.1476  -1.1187  -1.0095  -1.0092  -0.9717  -0.9711  -0.9708  -0.9652
    -0.9495  -0.9403  -0.9116  -0.9115  -0.9034  -0.8959  -0.8619  -0.8426
    -0.8275  -0.8264  -0.7960  -0.7666  -0.7627  -0.7350  -0.7316  -0.7305
    -0.6755  -0.6747  -0.6016  -0.6004  -0.5725  -0.5697  -0.5475  -0.5472
    -0.5097  -0.4976  -0.4931  -0.4871  -0.4771  -0.4661  -0.4610  -0.4599
    -0.4508  -0.4481  -0.4451  -0.4419  -0.4389  -0.4216  -0.4141  -0.4058
    -0.4042  -0.3966  -0.3882  -0.3792  -0.3229  -0.3220  -0.2976  -0.2970
    -0.2860  -0.2668  -0.2494  -0.2363  -0.2340  -0.2326  -0.2313  -0.2195
    -0.2172  -0.2102  -0.1884  -0.1653  -0.1639  -0.1574  -0.1512  -0.1471
    -0.1458  -0.1293  -0.1212  -0.1152  -0.1045  -0.1001  -0.0994  -0.0861
    -0.0843  -0.0523  -0.0523  -0.0479  -0.0432  -0.0289  -0.0244  -0.0210
    -0.0144   0.0006   0.0194   0.0322   0.0381   0.0398   0.0408   0.0889
     0.1102   0.1321   0.1328   0.1513   0.1515   0.1588   0.1703   0.1709
     0.1713   0.1724   0.1822   0.1861   0.1871   0.1966   0.2089   0.2131
     0.2134   0.2194   0.2196   0.2200   0.2327   0.2467   0.2598   0.2639
     0.2706   0.2721   0.2753   0.2987   0.3119   0.3129   0.3192   0.3305
     0.3314   0.3353   0.3363   0.3385   0.3520   0.3523   0.3704   0.3707
     0.4102   0.4115   0.4316   0.4369   0.4407   0.4419   0.4616   0.4617
     0.4680   0.4737   0.4765   0.4776   0.4843   0.4930   0.4934   0.5081
     0.5083   0.5175   0.5204   0.5225   0.5268   0.5345   0.5351   0.5388
     0.5402   0.5449   0.5460   0.5529   0.5651   0.5704   0.5728   0.5739
     0.5794   0.5892   0.5895   0.5961   0.5977   0.6016   0.6047   0.6170
     0.6202   0.6226   0.6298   0.6302   0.6387   0.6477   0.6479   0.6534
     0.6613   0.6667   0.6739   0.6904   0.7032   0.7040   0.7074   0.7087
     0.7167   0.7200   0.7247   0.7297   0.7335   0.7355   0.7410   0.7485
     0.7514   0.7604   0.7625   0.7672   0.7727   0.7742   0.7804   0.7815
     0.7986   0.8003   0.8108   0.8129   0.8174   0.8183   0.8219   0.8259
     0.8311   0.8339   0.8400   0.8403   0.8449   0.8554   0.8568   0.8633
     0.8824   0.8855   0.8931   0.8945   0.9019   0.9042   0.9083   0.9171
     0.9211   0.9234   0.9256   0.9259   0.9310   0.9358   0.9469   0.9498
     0.9528   0.9610   0.9679   0.9819   0.9866   0.9868   0.9904   0.9974
     1.0015   1.0038   1.0208   1.0313   1.0385   1.0393   1.0621   1.0725
     1.0740   1.0792   1.0847   1.0871   1.1000   1.1007   1.1022   1.1113
     1.1130   1.1505   1.1507   1.1514   1.1518   1.1586   1.1686   1.1771
     1.1850   1.1889   1.1967   1.2052   1.2073   1.2262   1.2400   1.2489
     1.2550   1.2559   1.2594   1.2603   1.2729   1.2744   1.2816   1.2978
     1.2980   1.3149   1.3182   1.3221   1.3256   1.3300   1.3362   1.3369
     1.3511   1.3524   1.3569   1.3588   1.3637   1.3640   1.3702   1.3763
     1.3773   1.3798   1.3869   1.3992   1.4015   1.4041   1.4051   1.4211
     1.4230   1.4274   1.4280   1.4337   1.4356   1.4381   1.4419   1.4426
     1.4527   1.4550   1.4573   1.4594   1.4643   1.4729   1.4754   1.4825
     1.4835   1.4876   1.4889   1.4914   1.4987   1.5026   1.5110   1.5118
     1.5121   1.5182   1.5220   1.5230   1.5268   1.5308   1.5420   1.5438
     1.5448   1.5465   1.5490   1.5597   1.5600   1.5663   1.5749   1.5771
     1.5776   1.5804   1.5842   1.6075   1.6314   1.6322   1.6324   1.6329
     1.6387   1.6444   1.6503   1.6516   1.6630   1.6877   1.6894   1.7056
     1.7117   1.7123   1.7134   1.7186   1.7238   1.7260   1.7310   1.7373
     1.7436   1.7451   1.7473   1.7494   1.7507   1.7516   1.7547   1.7612
     1.7673   1.7690   1.7734   1.7861   1.7873   1.7929   1.7950   1.8011
     1.8053   1.8059   1.8073   1.8094   1.8105   1.8116   1.8129   1.8160
     1.8167   1.8191   1.8301   1.8304   1.8338   1.8400   1.8421   1.8460
     1.8468   1.8489   1.8538   1.8548   1.8646   1.8696   1.8702   1.8740
     1.8768   1.8917   1.8934   1.9001   1.9010   1.9106   1.9111   1.9124
     1.9246   1.9274   1.9391   1.9472   1.9519   1.9524   1.9533   1.9583
     1.9643   1.9648   1.9737   1.9798   1.9953   1.9988   2.0046   2.0082
     2.0088   2.0112   2.0118   2.0208   2.0215   2.0265   2.0283   2.0307
     2.0337   2.0359   2.0394   2.0452   2.0459   2.0504   2.0510   2.0590
     2.0624   2.0633   2.0698   2.0785   2.0798   2.0821   2.0858   2.0871
     2.0960   2.0970   2.1049   2.1059   2.1138   2.1146   2.1179   2.1201
     2.1243   2.1357   2.1359   2.1406   2.1411   2.1474   2.1515   2.1541
     2.1562   2.1618   2.1635   2.1641   2.1643   2.1655   2.1743   2.1869
     2.1881   2.1892   2.1910   2.1940   2.2024   2.2030   2.2140   2.2237
     2.2256   2.2293   2.2308   2.2332   2.2352   2.2377   2.2422   2.2429
     2.2539   2.2542   2.2571   2.2607   2.2693   2.2703   2.2723   2.2723
     2.2794   2.2856   2.2871   2.2876   2.3041   2.3041   2.3110   2.3129
     2.3145   2.3164   2.3393   2.3407   2.3435   2.3450   2.3454   2.3571
     2.3578   2.3608   2.3633   2.3641   2.3642   2.3696   2.3771   2.3780
     2.4005   2.4321   2.4519   2.4679   2.4694   2.5446   2.5692   2.5706
     2.5721   2.5951   2.5953   2.6224   2.6234   2.6551   2.6561   2.6597
     2.6850   2.6880   2.8832   2.8841   2.9221   2.9261   2.9717   2.9745
     2.9946   3.0564   3.1197   3.1226   3.2109   3.2201   3.2202   3.2551
     3.2552   3.2987   3.3800   3.3921   3.3925   3.4831   3.4880   3.4904
     3.5260   3.7300   3.7303   3.7670   3.8034   3.8043   3.9809   3.9810
     4.0393   4.0401   4.2881   4.3036   4.3880   4.3895   4.4914   4.5387
     4.7316   4.7352   4.7429   4.8673   4.8731   4.8980   4.8990   4.9112
     4.9367   5.0117   5.1900   5.2251   5.3846   5.3878   5.6459   5.7553
     5.8356   5.8360   5.8554   5.8817   5.9927   6.0705   6.0730   6.1658
     6.1862   6.1901   6.2349   6.3290   6.4087   6.5243   6.5431   6.5922
     6.6268   6.6847   6.8023   6.8186   6.8501   6.9184   7.0183   7.1912
     7.2745   7.2754   7.4142   7.4148   7.4271   7.5405   7.6555   7.7299
     7.7412   7.7772   7.8154   7.8192   7.8752   7.9090   7.9094   7.9864
     7.9880   7.9991   8.0853   8.1245   8.2185   8.2193   8.3383   8.3548
     8.4953   8.5122   8.5615   8.5952   8.6063   8.6085   8.6333   8.7860
     8.7898   8.7955   8.8736   8.9124   8.9765   9.0658   9.0711   9.2099
     9.2109   9.2677   9.3289   9.3302   9.3475   9.3485   9.3730   9.4119
     9.4589   9.5095   9.5147   9.6236   9.6327   9.6556   9.6602   9.6861
     9.7700   9.8018   9.8482   9.8545   9.9266   9.9290   9.9618   9.9685
    10.0611  10.0620  10.1255  10.1260  10.1767  10.1800  10.2379  10.3023
    10.3049  10.5000  10.5193  10.5480  10.5505  10.6205  10.6306  10.6339
    10.6747  10.6875  10.7487  10.7970

          k = 0.2500 0.0000 0.0000 (256240 PWs)   bands (ev):

   -15.4311 -15.0489 -14.9544 -14.4428 -14.0653 -13.9720 -13.9181 -13.9083
   -12.9524 -12.9428 -12.5106 -12.1473 -12.1378 -12.1300 -12.0549 -11.2173
   -11.2087 -11.0916 -11.0826 -10.1671  -9.8876  -9.8058  -9.6775  -9.3227
    -9.1100  -8.8435  -8.8260  -8.4105  -8.1617  -8.1519  -7.6474  -6.6397
    -6.6316  -6.6115  -6.6076  -6.5063  -6.4884  -6.0145  -5.7402  -5.2135
    -5.0417  -5.0338  -4.9967  -4.9351  -4.9273  -4.5315  -4.5061  -4.2771
    -4.2591  -4.1854  -3.8390  -3.7412  -3.6656  -3.6147  -3.5363  -3.4811
    -3.4482  -3.4248  -3.4146  -3.3116  -3.2155  -3.1943  -3.0968  -3.0305
    -3.0274  -2.9695  -2.9399  -2.7259  -2.7226  -2.6870  -2.6546  -2.6339
    -2.6134  -2.5548  -2.5248  -2.4666  -2.4612  -2.4257  -2.3534  -2.2989
    -2.2378  -2.2208  -2.2057  -2.0647  -2.0007  -1.9895  -1.9857  -1.9765
    -1.9550  -1.9352  -1.6105  -1.5991  -1.5495  -1.5271  -1.5219  -1.4997
    -1.3573  -1.3058  -1.2958  -1.2894  -1.2816  -1.2726  -1.2625  -1.2119
    -1.1846  -1.1204  -1.1129  -1.0649  -1.0570  -1.0241  -1.0114  -0.9864
    -0.9809  -0.9753  -0.9724  -0.9609  -0.9458  -0.9429  -0.8965  -0.8877
    -0.8705  -0.8441  -0.8438  -0.8278  -0.7961  -0.7819  -0.7753  -0.7650
    -0.7611  -0.7445  -0.7434  -0.7322  -0.7082  -0.7039  -0.7018  -0.6879
    -0.6843  -0.6722  -0.6387  -0.6168  -0.5776  -0.5594  -0.5404  -0.5348
    -0.5018  -0.4952  -0.4685  -0.4659  -0.4437  -0.4305  -0.4282  -0.4188
    -0.4153  -0.3963  -0.3925  -0.3846  -0.3772  -0.3696  -0.3612  -0.3513
    -0.3396  -0.3340  -0.3239  -0.3203  -0.3170  -0.3054  -0.3028  -0.2975
    -0.2959  -0.2775  -0.2747  -0.2464  -0.2377  -0.2264  -0.2182  -0.2170
    -0.2123  -0.2097  -0.2037  -0.2007  -0.1954  -0.1856  -0.1822  -0.1749
    -0.1729  -0.1658  -0.1646  -0.1609  -0.1579  -0.1555  -0.1496  -0.1349
    -0.1270  -0.1184  -0.1117  -0.0869  -0.0810  -0.0783  -0.0594  -0.0464
    -0.0443  -0.0247  -0.0204  -0.0163  -0.0004   0.0078   0.0120   0.0154
     0.0326   0.0400   0.0453   0.0476   0.0596   0.0740   0.0757   0.0857
     0.1079   0.1128   0.1235   0.1555   0.1626   0.1898   0.1934   0.2107
     0.2275   0.2293   0.2358   0.2398   0.2570   0.2574   0.2599   0.2639
     0.2760   0.2785   0.2848   0.2907   0.2988   0.3086   0.3154   0.3228
     0.3267   0.3322   0.3368   0.3504   0.3514   0.3561   0.3608   0.3688
     0.3938   0.4036   0.4074   0.4156   0.4180   0.4205   0.4299   0.4332
     0.4372   0.4430   0.4508   0.4510   0.4621   0.4765   0.4795   0.4809
     0.4872   0.4992   0.5017   0.5085   0.5137   0.5162   0.5206   0.5227
     0.5318   0.5345   0.5374   0.5390   0.5480   0.5542   0.5576   0.5622
     0.5745   0.5870   0.5982   0.6009   0.6025   0.6101   0.6133   0.6143
     0.6278   0.6296   0.6375   0.6495   0.6512   0.6592   0.6634   0.6658
     0.6745   0.6839   0.6892   0.6961   0.7052   0.7100   0.7190   0.7203
     0.7226   0.7253   0.7288   0.7297   0.7469   0.7544   0.7642   0.7709
     0.7725   0.7739   0.7885   0.7958   0.7986   0.8078   0.8094   0.8129
     0.8142   0.8221   0.8261   0.8286   0.8366   0.8412   0.8429   0.8477
     0.8516   0.8541   0.8552   0.8586   0.8745   0.8798   0.8850   0.8915
     0.8930   0.8939   0.8981   0.9030   0.9080   0.9101   0.9174   0.9187
     0.9233   0.9427   0.9489   0.9550   0.9703   0.9726   0.9796   0.9816
     0.9897   1.0008   1.0058   1.0104   1.0152   1.0272   1.0332   1.0412
     1.0431   1.0490   1.0538   1.0591   1.0681   1.0900   1.0934   1.0951
     1.1016   1.1082   1.1177   1.1220   1.1228   1.1261   1.1288   1.1306
     1.1336   1.1367   1.1423   1.1439   1.1529   1.1540   1.1582   1.1616
     1.1667   1.1733   1.1765   1.1788   1.1809   1.1834   1.1951   1.2070
     1.2094   1.2324   1.2398   1.2407   1.2506   1.2559   1.2620   1.2649
     1.2698   1.2755   1.2800   1.2841   1.2925   1.2974   1.3019   1.3066
     1.3111   1.3184   1.3263   1.3285   1.3327   1.3361   1.3429   1.3481
     1.3535   1.3607   1.3746   1.3752   1.3775   1.3806   1.3823   1.3879
     1.3968   1.4022   1.4047   1.4073   1.4116   1.4144   1.4180   1.4260
     1.4268   1.4375   1.4423   1.4476   1.4535   1.4563   1.4622   1.4643
     1.4693   1.4707   1.4799   1.4857   1.4872   1.4958   1.4986   1.5083
     1.5093   1.5107   1.5151   1.5209   1.5293   1.5356   1.5454   1.5561
     1.5574   1.5690   1.5754   1.5790   1.5806   1.5837   1.5868   1.5881
     1.5901   1.6012   1.6019   1.6102   1.6130   1.6152   1.6410   1.6425
     1.6442   1.6466   1.6485   1.6519   1.6627   1.6700   1.6720   1.6772
     1.6778   1.6824   1.6881   1.6931   1.6978   1.7047   1.7060   1.7119
     1.7153   1.7194   1.7206   1.7263   1.7303   1.7363   1.7427   1.7450
     1.7557   1.7588   1.7607   1.7640   1.7808   1.7824   1.7869   1.7940
     1.7956   1.8016   1.8109   1.8164   1.8185   1.8222   1.8282   1.8298
     1.8329   1.8341   1.8395   1.8404   1.8474   1.8540   1.8558   1.8615
     1.8659   1.8696   1.8706   1.8765   1.8792   1.8816   1.8834   1.8867
     1.8869   1.8910   1.8918   1.8954   1.8977   1.9021   1.9088   1.9178
     1.9227   1.9241   1.9254   1.9322   1.9333   1.9386   1.9413   1.9445
     1.9505   1.9523   1.9578   1.9640   1.9664   1.9751   1.9780   1.9844
     1.9879   1.9933   1.9989   2.0000   2.0118   2.0210   2.0227   2.0268
     2.0302   2.0325   2.0343   2.0462   2.0497   2.0523   2.0546   2.0627
     2.0652   2.0676   2.0722   2.0807   2.0833   2.0860   2.0880   2.0918
     2.0987   2.1020   2.1029   2.1047   2.1064   2.1106   2.1137   2.1170
     2.1222   2.1239   2.1290   2.1296   2.1398   2.1428   2.1444   2.1465
     2.1499   2.1529   2.1566   2.1647   2.1718   2.1850   2.1915   2.1942
     2.1948   2.1983   2.2019   2.2040   2.2069   2.2103   2.2170   2.2202
     2.2238   2.2255   2.2297   2.2358   2.2366   2.2379   2.2389   2.2431
     2.2437   2.2538   2.2549   2.2563   2.2565   2.2597   2.2654   2.2664
     2.2690   2.2719   2.2796   2.2833   2.2896   2.2906   2.2948   2.2975
     2.3009   2.3020   2.3056   2.3121   2.3187   2.3215   2.3229   2.3278
     2.3326   2.3403   2.3433   2.3462   2.3508   2.3587   2.3609   2.3825
     2.3873   2.3967   2.3988   2.4133   2.4249   2.4286   2.4420   2.4444
     2.4546   2.4630   2.4662   2.5549   2.5593   2.5643   2.6068   2.6305
     2.6432   2.6594   2.6816   2.7383   2.7630   2.8228   2.8383   2.8519
     2.8917   2.9334   2.9516   3.2139   3.2687   3.2930   3.3037   3.3332
     3.4004   3.5534   3.7198   3.7436   3.7865   3.7900   3.8345   3.9344
     3.9595   3.9881   4.0336   4.0378   4.0877   4.2313   4.2976   4.3082
     4.3796   4.4151   4.4499   4.4623   4.4859   4.4937   4.4955   4.5042
     4.5377   4.7920   4.8982   4.9698   5.0091   5.0973   5.1274   5.1950
     5.2233   5.2707   5.3878   5.4148   5.4416   5.4573   5.4763   5.5814
     5.6107   5.7942   5.8290   5.8787   5.8932   5.9391   5.9800   6.0152
     6.1236   6.1577   6.1891   6.2330   6.2576   6.3225   6.3815   6.4078
     6.6201   6.6393   6.7315   6.7591   6.7761   6.7818   6.7870   6.7888
     7.0417   7.1528   7.2089   7.3596   7.4104   7.4609   7.5365   7.5391
     7.5737   7.6002   7.6143   7.6374   7.6560   7.6844   7.7052   7.7300
     7.7605   7.7755   7.8326   7.8470   7.9546   8.0470   8.0951   8.1232
     8.1804   8.2847   8.3116   8.3144   8.4730   8.5362   8.5471   8.5676
     8.6093   8.6588   8.6653   8.6928   8.7172   8.8246   8.8437   8.9729
     9.0124   9.0926   9.1295   9.1660   9.1852   9.2161   9.2173   9.2801
     9.3210   9.3335   9.3965   9.4597   9.4721   9.5447   9.5879   9.5993
     9.7271   9.7343   9.7410   9.7562   9.7859   9.7888   9.8699   9.8897
     9.9109   9.9214   9.9800  10.0256  10.0745  10.0792  10.0992  10.1868
    10.2303  10.2563  10.3738  10.3797  10.4338  10.5453  10.5515  10.5648
    10.5680  10.5819  10.5901  10.6804

          k = 0.2500-0.2165 0.0000 (256316 PWs)   bands (ev):

   -15.4005 -15.2142 -14.5685 -14.5263 -14.4124 -14.2284 -13.5912 -13.5505
   -13.1227 -13.0867 -12.4818 -12.3034 -12.1724 -12.1386 -11.6900 -11.6536
   -11.0843 -10.9837 -10.4007 -10.3807 -10.2020 -10.1045  -9.8216  -9.6474
    -8.7136  -8.6867  -8.2586  -8.1367  -8.1325  -8.0925  -7.5752  -7.5224
    -7.4606  -7.4300  -5.8077  -5.7216  -5.7088  -5.6710  -5.6235  -5.4627
    -5.4042  -5.3163  -5.0726  -5.0520  -4.9190  -4.8940  -4.2337  -4.2125
    -4.1892  -3.9220  -3.9204  -3.9062  -3.8528  -3.8053  -3.7466  -3.5580
    -3.5352  -3.5119  -3.3260  -3.2477  -3.2413  -3.2284  -2.9958  -2.9859
    -2.9394  -2.9337  -2.7685  -2.7253  -2.7114  -2.6727  -2.6415  -2.6267
    -2.5793  -2.5695  -2.5662  -2.5473  -2.3623  -2.2926  -2.2852  -2.2824
    -2.1251  -2.1070  -2.1013  -2.0993  -2.0233  -1.9665  -1.9653  -1.9580
    -1.7303  -1.7037  -1.6922  -1.6739  -1.6488  -1.5870  -1.5183  -1.5148
    -1.5042  -1.4110  -1.3786  -1.3552  -1.3529  -1.3187  -1.2746  -1.2040
    -1.1995  -1.1550  -1.1389  -1.1206  -1.0756  -1.0605  -1.0109  -0.9973
    -0.9961  -0.9906  -0.9636  -0.9357  -0.9304  -0.8978  -0.8942  -0.8815
    -0.8787  -0.8723  -0.8663  -0.8619  -0.8603  -0.8556  -0.8361  -0.8093
    -0.7904  -0.7801  -0.7517  -0.7399  -0.7247  -0.7220  -0.6760  -0.6610
    -0.6213  -0.6056  -0.5945  -0.5684  -0.5276  -0.5150  -0.5102  -0.5092
    -0.5013  -0.4752  -0.4703  -0.4635  -0.4614  -0.4511  -0.4315  -0.4287
    -0.4217  -0.4151  -0.4086  -0.4042  -0.3899  -0.3853  -0.3832  -0.3801
    -0.3731  -0.3651  -0.3612  -0.3468  -0.3280  -0.3096  -0.3006  -0.2980
    -0.2952  -0.2881  -0.2825  -0.2572  -0.2450  -0.2362  -0.2335  -0.2302
    -0.2220  -0.2168  -0.2034  -0.1974  -0.1944  -0.1891  -0.1863  -0.1796
    -0.1646  -0.1597  -0.1551  -0.1543  -0.1510  -0.1470  -0.1312  -0.1299
    -0.0948  -0.0772  -0.0663  -0.0656  -0.0507  -0.0419  -0.0408  -0.0371
    -0.0356  -0.0071  -0.0018   0.0130   0.0169   0.0366   0.0407   0.0451
     0.0568   0.0614   0.0695   0.0837   0.0885   0.0931   0.1058   0.1068
     0.1158   0.1309   0.1386   0.1430   0.1633   0.1654   0.1849   0.2092
     0.2201   0.2244   0.2343   0.2460   0.2473   0.2496   0.2559   0.2615
     0.2644   0.2750   0.2869   0.2942   0.3054   0.3163   0.3172   0.3228
     0.3356   0.3384   0.3453   0.3518   0.3598   0.3665   0.3688   0.3736
     0.3775   0.3810   0.3932   0.3994   0.4101   0.4231   0.4243   0.4308
     0.4407   0.4432   0.4445   0.4495   0.4655   0.4669   0.4676   0.4727
     0.4752   0.4784   0.4847   0.4917   0.4958   0.4987   0.5017   0.5072
     0.5105   0.5133   0.5186   0.5422   0.5424   0.5650   0.5697   0.5712
     0.5824   0.5861   0.5888   0.5932   0.5980   0.6049   0.6143   0.6249
     0.6293   0.6320   0.6385   0.6461   0.6518   0.6545   0.6624   0.6792
     0.6969   0.6994   0.7022   0.7089   0.7127   0.7131   0.7191   0.7200
     0.7270   0.7328   0.7474   0.7538   0.7581   0.7615   0.7633   0.7677
     0.7701   0.7742   0.7787   0.7805   0.7832   0.7942   0.8022   0.8041
     0.8095   0.8106   0.8140   0.8161   0.8197   0.8242   0.8277   0.8424
     0.8505   0.8542   0.8562   0.8598   0.8697   0.8758   0.8846   0.8930
     0.9052   0.9070   0.9082   0.9175   0.9242   0.9253   0.9327   0.9343
     0.9580   0.9613   0.9625   0.9717   0.9753   0.9812   0.9840   0.9880
     0.9900   0.9921   0.9994   1.0019   1.0094   1.0136   1.0169   1.0196
     1.0307   1.0335   1.0458   1.0495   1.0596   1.0695   1.0753   1.0791
     1.0831   1.0953   1.1071   1.1153   1.1162   1.1234   1.1253   1.1337
     1.1355   1.1391   1.1425   1.1438   1.1462   1.1564   1.1613   1.1640
     1.1703   1.1731   1.1777   1.1814   1.1962   1.1993   1.2119   1.2181
     1.2197   1.2264   1.2278   1.2333   1.2419   1.2445   1.2539   1.2569
     1.2588   1.2622   1.2711   1.2792   1.2858   1.2921   1.2964   1.3191
     1.3215   1.3294   1.3335   1.3390   1.3415   1.3450   1.3489   1.3592
     1.3649   1.3674   1.3775   1.3827   1.3937   1.3944   1.3984   1.4078
     1.4099   1.4158   1.4222   1.4281   1.4317   1.4348   1.4365   1.4429
     1.4437   1.4509   1.4544   1.4599   1.4657   1.4709   1.4770   1.4809
     1.4829   1.4865   1.4899   1.4932   1.4940   1.5053   1.5068   1.5114
     1.5188   1.5255   1.5302   1.5313   1.5368   1.5404   1.5413   1.5449
     1.5535   1.5597   1.5670   1.5693   1.5728   1.5747   1.5804   1.5825
     1.5835   1.5859   1.5870   1.6014   1.6028   1.6059   1.6089   1.6174
     1.6201   1.6238   1.6324   1.6434   1.6545   1.6592   1.6597   1.6704
     1.6714   1.6738   1.6778   1.6836   1.6895   1.6934   1.7006   1.7051
     1.7073   1.7111   1.7133   1.7173   1.7178   1.7208   1.7270   1.7404
     1.7471   1.7491   1.7508   1.7538   1.7561   1.7694   1.7724   1.7762
     1.7816   1.7912   1.7953   1.7976   1.8012   1.8023   1.8130   1.8221
     1.8251   1.8281   1.8310   1.8355   1.8434   1.8663   1.8698   1.8734
     1.8787   1.8859   1.8881   1.8906   1.8994   1.9008   1.9030   1.9073
     1.9089   1.9144   1.9182   1.9196   1.9244   1.9269   1.9341   1.9355
     1.9370   1.9401   1.9419   1.9443   1.9533   1.9567   1.9604   1.9616
     1.9783   1.9810   1.9829   1.9875   1.9896   1.9908   1.9954   1.9990
     1.9998   2.0008   2.0030   2.0066   2.0093   2.0119   2.0134   2.0172
     2.0247   2.0306   2.0323   2.0336   2.0364   2.0396   2.0428   2.0449
     2.0511   2.0558   2.0622   2.0716   2.0757   2.0791   2.0815   2.0874
     2.0894   2.0906   2.0951   2.0969   2.0983   2.1021   2.1166   2.1239
     2.1288   2.1324   2.1366   2.1388   2.1446   2.1461   2.1506   2.1537
     2.1569   2.1628   2.1636   2.1757   2.1780   2.1811   2.1856   2.1901
     2.1926   2.1945   2.1969   2.1981   2.2026   2.2041   2.2103   2.2132
     2.2159   2.2211   2.2233   2.2264   2.2292   2.2319   2.2481   2.2500
     2.2517   2.2526   2.2548   2.2576   2.2581   2.2609   2.2643   2.2686
     2.2700   2.2712   2.2771   2.2792   2.2828   2.2846   2.2931   2.2964
     2.3021   2.3028   2.3050   2.3064   2.3103   2.3132   2.3153   2.3217
     2.3220   2.3263   2.3326   2.3351   2.3455   2.3527   2.3541   2.3701
     2.3757   2.3767   2.3842   2.3856   2.4068   2.4112   2.4203   2.4620
     2.4896   2.5039   2.5211   2.5358   2.5458   2.5533   2.5575   2.5786
     2.5797   2.5862   2.6450   2.7044   2.9236   2.9318   2.9555   2.9616
     2.9953   3.0575   3.0744   3.0856   3.1935   3.3057   3.3692   3.3809
     3.3947   3.4375   3.5018   3.5883   3.5905   3.6371   3.6830   3.7215
     3.7423   3.9069   3.9750   3.9905   3.9949   4.2092   4.4178   4.4418
     4.4785   4.5410   4.6111   4.6367   4.6665   4.6878   4.7868   4.8286
     4.8737   4.9510   4.9519   4.9658   5.0708   5.1148   5.1310   5.1502
     5.1702   5.2283   5.2810   5.3320   5.3802   5.4095   5.4511   5.4716
     5.5386   5.6345   5.6716   5.7018   5.7603   5.8209   5.8318   6.0112
     6.0285   6.0896   6.2028   6.2684   6.2891   6.3120   6.3614   6.4437
     6.5248   6.5289   6.6125   6.7928   6.7983   6.8225   6.8538   6.8921
     7.0277   7.0995   7.2102   7.2703   7.2991   7.3034   7.3537   7.5578
     7.5960   7.6394   7.6830   7.7917   7.8343   7.8853   7.9071   7.9227
     7.9309   7.9482   7.9762   7.9927   8.0090   8.0665   8.1438   8.1885
     8.2400   8.2662   8.2841   8.2926   8.3244   8.4346   8.6005   8.6569
     8.6794   8.6930   8.7779   8.7913   8.8066   8.8432   8.8871   8.9575
     8.9967   9.0243   9.0822   9.1104   9.1274   9.1419   9.2495   9.2646
     9.3047   9.3549   9.3588   9.3748   9.4347   9.5246   9.5462   9.5511
     9.5793   9.6540   9.6825   9.7492   9.7905   9.7932   9.8347   9.8542
     9.8583   9.8740   9.9258   9.9722  10.0002  10.0335  10.0510  10.1357
    10.1440  10.1477  10.1530  10.1882  10.2492  10.2695  10.4133  10.4176
    10.4321  10.5148  10.5929  10.6424

          k =-0.5000 0.0000 0.0000 (256496 PWs)   bands (ev):

   -15.0611 -15.0569 -14.6791 -14.6781 -14.5852 -14.5836 -13.5553 -13.5533
   -13.5450 -13.5438 -11.7914 -11.7907 -11.7824 -11.7809 -11.2438 -11.2252
   -10.8999 -10.8884 -10.8061 -10.7998 -10.2039 -10.1929  -9.8508  -9.8488
    -9.2367  -9.2240  -8.8127  -8.8088  -8.0055  -8.0022  -7.9866  -7.9787
    -6.5209  -6.5176  -6.4528  -6.4509  -6.4415  -6.4407  -4.9732  -4.9636
    -4.5122  -4.5067  -4.2529  -4.2448  -4.0271  -4.0203  -3.9999  -3.9943
    -3.8602  -3.8539  -3.8014  -3.7982  -3.7560  -3.7532  -3.7370  -3.7363
    -3.6658  -3.6560  -3.4964  -3.4751  -3.4715  -3.4486  -3.3513  -3.3407
    -3.1518  -3.1420  -3.0681  -3.0632  -2.8952  -2.8903  -2.6657  -2.6629
    -2.6110  -2.6083  -2.6076  -2.6047  -2.4654  -2.4604  -2.4506  -2.4460
    -2.4451  -2.4436  -2.2105  -2.2055  -1.9678  -1.9598  -1.9070  -1.9033
    -1.8667  -1.8637  -1.8428  -1.8406  -1.7023  -1.6985  -1.6876  -1.6873
    -1.6031  -1.5948  -1.5418  -1.5377  -1.1236  -1.1212  -1.1198  -1.1163
    -1.0752  -1.0668  -1.0650  -1.0643  -1.0589  -1.0586  -0.9966  -0.9948
    -0.8450  -0.8435  -0.8409  -0.8407  -0.8038  -0.7962  -0.7954  -0.7873
    -0.7698  -0.7689  -0.7588  -0.7559  -0.7099  -0.7059  -0.6727  -0.6722
    -0.6471  -0.6452  -0.6343  -0.6294  -0.6103  -0.6075  -0.5714  -0.5690
    -0.5638  -0.5627  -0.5486  -0.5456  -0.5411  -0.5390  -0.5374  -0.5346
    -0.5022  -0.5009  -0.4924  -0.4896  -0.4829  -0.4819  -0.4757  -0.4739
    -0.4702  -0.4670  -0.4634  -0.4594  -0.3995  -0.3968  -0.3725  -0.3715
    -0.3704  -0.3641  -0.3463  -0.3393  -0.3367  -0.3349  -0.3339  -0.3249
    -0.2942  -0.2931  -0.2904  -0.2895  -0.2859  -0.2835  -0.2681  -0.2659
    -0.2545  -0.2478  -0.2185  -0.2134  -0.2121  -0.2090  -0.1922  -0.1872
    -0.1687  -0.1685  -0.1543  -0.1524  -0.1495  -0.1486  -0.1430  -0.1423
    -0.1218  -0.1196  -0.1190  -0.1143  -0.0950  -0.0929  -0.0918  -0.0900
    -0.0856  -0.0836  -0.0782  -0.0755  -0.0695  -0.0675  -0.0134  -0.0114
     0.0498   0.0556   0.0772   0.0854   0.0865   0.0915   0.1035   0.1112
     0.1396   0.1439   0.1511   0.1518   0.1607   0.1616   0.1765   0.1833
     0.2068   0.2074   0.2143   0.2169   0.2183   0.2196   0.2329   0.2354
     0.2433   0.2463   0.2672   0.2785   0.3072   0.3121   0.3158   0.3191
     0.3428   0.3505   0.3538   0.3564   0.3581   0.3628   0.3667   0.3775
     0.3833   0.3875   0.3999   0.4013   0.4084   0.4116   0.4131   0.4164
     0.4415   0.4432   0.4539   0.4546   0.4737   0.4746   0.4787   0.4804
     0.4936   0.4946   0.5071   0.5214   0.5230   0.5233   0.5277   0.5283
     0.5409   0.5494   0.5502   0.5540   0.5643   0.5650   0.5673   0.5689
     0.5865   0.5962   0.6008   0.6096   0.6151   0.6173   0.6357   0.6413
     0.6540   0.6622   0.6673   0.6731   0.6874   0.6876   0.6890   0.6899
     0.7096   0.7137   0.7164   0.7227   0.7292   0.7602   0.7613   0.7655
     0.7698   0.7744   0.7787   0.7817   0.7849   0.7899   0.7910   0.7921
     0.7961   0.8108   0.8112   0.8174   0.8177   0.8200   0.8209   0.8289
     0.8435   0.8514   0.8531   0.8587   0.8607   0.8721   0.8779   0.8797
     0.8977   0.9002   0.9118   0.9139   0.9150   0.9158   0.9181   0.9220
     0.9249   0.9267   0.9281   0.9291   0.9401   0.9409   0.9430   0.9441
     0.9510   0.9560   0.9604   0.9608   0.9664   0.9677   0.9695   0.9704
     0.9780   0.9843   0.9899   0.9980   1.0008   1.0011   1.0032   1.0128
     1.0264   1.0453   1.0467   1.0661   1.0690   1.0729   1.0873   1.1053
     1.1068   1.1073   1.1172   1.1195   1.1223   1.1242   1.1270   1.1289
     1.1462   1.1512   1.1556   1.1682   1.1690   1.1734   1.1763   1.1814
     1.1841   1.1872   1.1885   1.1897   1.1973   1.1987   1.2050   1.2057
     1.2066   1.2092   1.2123   1.2150   1.2161   1.2267   1.2313   1.2324
     1.2425   1.2572   1.2594   1.2717   1.2788   1.2852   1.3013   1.3027
     1.3049   1.3171   1.3192   1.3302   1.3303   1.3315   1.3347   1.3376
     1.3478   1.3514   1.3599   1.3642   1.3649   1.3682   1.3722   1.3753
     1.3821   1.3840   1.3875   1.3928   1.3964   1.3967   1.3988   1.3990
     1.4052   1.4277   1.4336   1.4387   1.4399   1.4466   1.4481   1.4523
     1.4546   1.4570   1.4626   1.4659   1.4668   1.4721   1.4733   1.4749
     1.4793   1.4862   1.4896   1.4927   1.4961   1.4992   1.5130   1.5142
     1.5178   1.5189   1.5380   1.5426   1.5614   1.5624   1.5644   1.5663
     1.5710   1.5724   1.5815   1.5834   1.5851   1.5862   1.5900   1.5977
     1.6009   1.6034   1.6216   1.6258   1.6308   1.6336   1.6420   1.6443
     1.6470   1.6527   1.6541   1.6619   1.6641   1.6714   1.6750   1.6874
     1.6882   1.6912   1.6925   1.6986   1.7018   1.7025   1.7032   1.7196
     1.7254   1.7265   1.7318   1.7330   1.7357   1.7387   1.7505   1.7529
     1.7639   1.7776   1.7826   1.7832   1.7912   1.7939   1.8047   1.8095
     1.8136   1.8211   1.8311   1.8316   1.8460   1.8506   1.8600   1.8608
     1.8729   1.8787   1.8862   1.8965   1.9026   1.9060   1.9061   1.9073
     1.9094   1.9125   1.9129   1.9193   1.9274   1.9297   1.9340   1.9358
     1.9438   1.9452   1.9533   1.9542   1.9548   1.9566   1.9571   1.9579
     1.9650   1.9713   1.9801   1.9813   1.9827   1.9857   1.9957   1.9967
     2.0045   2.0074   2.0081   2.0127   2.0190   2.0202   2.0270   2.0304
     2.0380   2.0407   2.0429   2.0440   2.0466   2.0494   2.0539   2.0560
     2.0570   2.0579   2.0596   2.0619   2.0660   2.0703   2.0729   2.0875
     2.0899   2.1019   2.1041   2.1093   2.1130   2.1165   2.1189   2.1209
     2.1245   2.1259   2.1264   2.1286   2.1366   2.1374   2.1425   2.1446
     2.1466   2.1474   2.1498   2.1560   2.1563   2.1569   2.1620   2.1652
     2.1692   2.1705   2.1716   2.1786   2.1815   2.1839   2.1883   2.1995
     2.1998   2.2011   2.2043   2.2058   2.2118   2.2201   2.2237   2.2244
     2.2269   2.2294   2.2314   2.2451   2.2458   2.2461   2.2463   2.2485
     2.2508   2.2511   2.2568   2.2595   2.2634   2.2716   2.2745   2.2750
     2.2759   2.2774   2.2915   2.2970   2.2980   2.2988   2.3057   2.3086
     2.3207   2.3229   2.3256   2.3279   2.3354   2.3367   2.3376   2.3396
     2.3483   2.3518   2.3638   2.3764   2.3887   2.3913   2.3924   2.3996
     2.4034   2.4058   2.4359   2.4402   2.4455   2.4505   2.5730   2.5760
     2.6154   2.6183   2.7602   2.7625   3.0179   3.0210   3.0605   3.0630
     3.0867   3.0897   3.1004   3.1014   3.1221   3.1235   3.5378   3.5405
     3.5884   3.5885   3.8823   3.8886   3.9199   3.9231   3.9575   3.9616
     3.9817   3.9851   4.1074   4.1163   4.1655   4.1693   4.5988   4.5993
     4.6193   4.6226   4.7443   4.7570   4.8094   4.8113   4.8198   4.8532
     4.9296   4.9306   5.3016   5.3158   5.3770   5.3941   5.4630   5.4974
     5.5044   5.5158   5.5189   5.5542   5.6678   5.6710   5.6771   5.6860
     5.7070   5.7381   5.8125   5.8235   5.8361   5.8439   5.9058   5.9156
     5.9369   5.9617   5.9968   5.9977   6.0367   6.0755   6.1500   6.1509
     6.2089   6.2367   6.5514   6.5536   6.5892   6.6156   6.6653   6.6763
     6.7307   6.7402   6.7485   6.7997   6.8033   6.8073   6.8560   6.8804
     7.3080   7.3192   7.3643   7.3796   7.3887   7.3936   7.4535   7.4617
     7.8734   7.9185   7.9199   7.9488   8.0400   8.0474   8.0482   8.0674
     8.3144   8.3348   8.3835   8.3920   8.4106   8.4181   8.4275   8.4358
     8.6118   8.6184   8.6502   8.6513   8.6638   8.6699   8.7129   8.7226
     8.7440   8.7510   8.9759   8.9824   9.0458   9.0552   9.0706   9.0719
     9.1725   9.1734   9.2992   9.3219   9.4908   9.4962   9.5501   9.5515
     9.6118   9.6305   9.6791   9.6803   9.6893   9.6934   9.6980   9.6994
     9.9069   9.9179   9.9729   9.9822  10.0258  10.0346  10.2010  10.2033
    10.2365  10.2474  10.2943  10.3017  10.3022  10.3143  10.3777  10.3806
    10.4142  10.4169  10.4418  10.4460

          k =-0.5000-0.2165 0.0000 (256328 PWs)   bands (ev):

   -15.0311 -15.0260 -14.8432 -14.8428 -14.2007 -14.1999 -14.1600 -14.1575
   -12.7651 -12.7643 -12.7302 -12.7280 -11.2199 -11.1962 -11.0351 -11.0320
   -10.7511 -10.7496 -10.6507 -10.6498 -10.5457 -10.5206 -10.4349 -10.4030
    -8.8796  -8.8423  -8.7566  -8.7324  -7.8749  -7.8704  -7.8272  -7.8265
    -7.1654  -7.1504  -7.0300  -7.0159  -5.0371  -5.0365  -5.0230  -5.0216
    -4.4509  -4.4028  -4.3973  -4.3909  -4.3711  -4.3670  -4.3587  -4.3184
    -4.2119  -4.2020  -4.0399  -4.0376  -3.7170  -3.7003  -3.4281  -3.4198
    -3.3813  -3.3768  -3.3225  -3.3200  -3.3113  -3.3083  -3.2578  -3.2538
    -3.2457  -3.2441  -3.0758  -3.0702  -2.8447  -2.8396  -2.7371  -2.7349
    -2.7170  -2.7164  -2.6584  -2.6506  -2.5777  -2.5724  -2.5711  -2.5650
    -2.3094  -2.3080  -2.2180  -2.2070  -2.1546  -2.1498  -1.8785  -1.8748
    -1.7706  -1.7682  -1.7666  -1.7647  -1.4682  -1.4651  -1.4474  -1.4459
    -1.4379  -1.4375  -1.4214  -1.4213  -1.2719  -1.2699  -1.2685  -1.2661
    -1.1670  -1.1638  -1.0497  -1.0474  -1.0131  -1.0111  -1.0018  -1.0003
    -0.9946  -0.9901  -0.8986  -0.8978  -0.8926  -0.8920  -0.7645  -0.7637
    -0.7500  -0.7466  -0.6780  -0.6774  -0.6745  -0.6737  -0.6501  -0.6411
    -0.6256  -0.6235  -0.6170  -0.6166  -0.6059  -0.6011  -0.5991  -0.5952
    -0.5839  -0.5812  -0.5790  -0.5768  -0.5714  -0.5666  -0.5569  -0.5552
    -0.5525  -0.5510  -0.5478  -0.5457  -0.5446  -0.5384  -0.4964  -0.4915
    -0.4263  -0.4209  -0.4187  -0.4111  -0.3865  -0.3848  -0.3657  -0.3643
    -0.3632  -0.3495  -0.3427  -0.3415  -0.3276  -0.3225  -0.3157  -0.3148
    -0.3078  -0.3002  -0.2982  -0.2975  -0.2965  -0.2958  -0.2680  -0.2643
    -0.2510  -0.2482  -0.2469  -0.2415  -0.2332  -0.2322  -0.2277  -0.2255
    -0.2161  -0.2126  -0.2104  -0.2072  -0.1790  -0.1735  -0.1544  -0.1517
    -0.1383  -0.1351  -0.1000  -0.0967  -0.0963  -0.0881  -0.0799  -0.0780
    -0.0531  -0.0490  -0.0310  -0.0292   0.0004   0.0030   0.0039   0.0055
     0.0562   0.0586   0.0663   0.0673   0.0692   0.0721   0.0794   0.0841
     0.0888   0.0891   0.0982   0.1010   0.1190   0.1224   0.1279   0.1317
     0.1490   0.1501   0.1522   0.1550   0.2448   0.2456   0.2500   0.2508
     0.2652   0.2734   0.2787   0.2846   0.2940   0.3049   0.3144   0.3187
     0.3245   0.3266   0.3338   0.3360   0.3414   0.3424   0.3722   0.3733
     0.3778   0.3803   0.3870   0.3890   0.3924   0.3925   0.4173   0.4236
     0.4336   0.4382   0.4459   0.4507   0.4563   0.4658   0.5037   0.5056
     0.5272   0.5327   0.5431   0.5474   0.5494   0.5514   0.5562   0.5594
     0.5614   0.5660   0.5670   0.5717   0.5736   0.5809   0.5859   0.5914
     0.5970   0.6182   0.6384   0.6428   0.6509   0.6543   0.6584   0.6587
     0.6602   0.6685   0.6960   0.6977   0.7006   0.7033   0.7038   0.7082
     0.7093   0.7100   0.7109   0.7169   0.7171   0.7229   0.7263   0.7386
     0.7467   0.7511   0.7545   0.7642   0.7724   0.7807   0.7879   0.7893
     0.7987   0.8239   0.8295   0.8343   0.8482   0.8563   0.8598   0.8621
     0.8645   0.8651   0.8763   0.8781   0.8812   0.8866   0.8913   0.8948
     0.9012   0.9037   0.9122   0.9138   0.9156   0.9163   0.9167   0.9185
     0.9263   0.9309   0.9347   0.9363   0.9389   0.9391   0.9441   0.9469
     0.9504   0.9643   0.9654   0.9676   0.9696   0.9771   0.9801   0.9824
     0.9839   0.9933   1.0055   1.0122   1.0292   1.0299   1.0306   1.0343
     1.0403   1.0570   1.0588   1.0624   1.0667   1.0697   1.0720   1.0773
     1.0900   1.0952   1.0960   1.1044   1.1178   1.1219   1.1309   1.1420
     1.1465   1.1502   1.1518   1.1571   1.1660   1.1747   1.1861   1.1880
     1.1907   1.1927   1.1949   1.2020   1.2027   1.2056   1.2063   1.2216
     1.2224   1.2371   1.2399   1.2410   1.2479   1.2506   1.2591   1.2595
     1.2704   1.2716   1.2737   1.2794   1.2803   1.2844   1.2858   1.2889
     1.2948   1.3064   1.3127   1.3129   1.3177   1.3210   1.3299   1.3313
     1.3353   1.3393   1.3519   1.3587   1.3607   1.3655   1.3703   1.3841
     1.3883   1.3929   1.3934   1.3948   1.3974   1.3996   1.4015   1.4213
     1.4317   1.4363   1.4387   1.4393   1.4399   1.4431   1.4439   1.4464
     1.4473   1.4604   1.4651   1.4710   1.4734   1.4750   1.4776   1.4806
     1.4901   1.4972   1.4999   1.5005   1.5026   1.5072   1.5175   1.5231
     1.5322   1.5355   1.5359   1.5410   1.5457   1.5492   1.5511   1.5520
     1.5633   1.5649   1.5668   1.5695   1.5762   1.5792   1.5844   1.5893
     1.5918   1.5982   1.6027   1.6077   1.6136   1.6144   1.6203   1.6267
     1.6304   1.6347   1.6366   1.6470   1.6509   1.6553   1.6556   1.6763
     1.6776   1.6879   1.6902   1.6943   1.7116   1.7140   1.7215   1.7235
     1.7430   1.7441   1.7503   1.7539   1.7770   1.7791   1.7924   1.7952
     1.7993   1.8020   1.8035   1.8106   1.8249   1.8312   1.8380   1.8400
     1.8417   1.8456   1.8491   1.8520   1.8541   1.8548   1.8603   1.8632
     1.8660   1.8671   1.8685   1.8699   1.8709   1.8746   1.8757   1.8767
     1.8774   1.8780   1.8913   1.8936   1.9093   1.9127   1.9129   1.9146
     1.9237   1.9264   1.9286   1.9317   1.9362   1.9388   1.9411   1.9468
[...]
     atom   78 type  1   force =     0.00002422    0.00022788   -0.00040750
     atom   79 type  1   force =    -0.00012619   -0.00030096    0.00038718
     atom   80 type  1   force =     0.00000990    0.00027230   -0.00079880
     atom   81 type  1   force =    -0.00006253   -0.00000710    0.00021970
     atom   82 type  1   force =    -0.00055951   -0.00021197    0.00158686
     atom   83 type  1   force =     0.00007400    0.00003054    0.00053791
     atom   84 type  1   force =     0.00051156    0.00001605    0.00167363
     atom   85 type  1   force =     0.00005670   -0.00017683   -0.00006146
     atom   86 type  1   force =     0.00050972   -0.00066041    0.00063168
     atom   87 type  1   force =    -0.00001676    0.00171011    0.00001201
     atom   88 type  1   force =    -0.00056740    0.00021789    0.00070105
     atom   89 type  1   force =    -0.00068220   -0.00002268    0.00192847
     atom   90 type  1   force =    -0.00032036    0.00135952    0.00163313
     atom   91 type  1   force =     0.00082316   -0.00107753    0.00196242
     atom   92 type  1   force =     0.00025410    0.00058195    0.00273904
     atom   93 type  1   force =    -0.00005156   -0.00019811    0.00096049
     atom   94 type  1   force =     0.00015137   -0.00024348   -0.00010504
     atom   95 type  1   force =     0.00016096   -0.00060268    0.00117523
     atom   96 type  1   force =    -0.00019133   -0.00087015   -0.00026163
     atom   97 type  1   force =     0.00004719    0.00015248    0.00148491
     atom   98 type  1   force =     0.00021699    0.00030715    0.00052323
     atom   99 type  1   force =    -0.00003850   -0.00028361    0.00187150
     atom  100 type  1   force =    -0.00017542    0.00001459    0.00045381
     atom  101 type  1   force =     0.00036846    0.00098840   -0.00066366
     atom  102 type  1   force =    -0.00048054    0.00133326   -0.00105243
     atom  103 type  1   force =     0.00008877   -0.00000752   -0.00145214
     atom  104 type  1   force =     0.00004916   -0.00018242   -0.00077265
     atom  105 type  1   force =     0.00006827   -0.00005047   -0.00045549
     atom  106 type  1   force =    -0.00027539    0.00048089   -0.00073401
     atom  107 type  1   force =    -0.00004138   -0.00147580    0.00133890
     atom  108 type  1   force =     0.00010799   -0.00098447   -0.00175525
     atom  109 type  2   force =    -0.00026015    0.00141135   -0.00035275
     atom  110 type  2   force =    -0.00027703   -0.00203127   -0.00144084
     atom  111 type  2   force =    -0.00053942    0.00114229   -0.00294934
     atom  112 type  2   force =    -0.00051921    0.00184241   -0.00316746
     atom  113 type  2   force =     0.00109631   -0.00013681   -0.00136593
     atom  114 type  2   force =     0.00072905   -0.00006521   -0.00231102
     atom  115 type  2   force =     0.00059357    0.00110112   -0.00062603
     atom  116 type  2   force =     0.00053519   -0.00070255    0.00148032
     atom  117 type  2   force =    -0.00190100   -0.00012231   -0.00120683
     atom  118 type  2   force =    -0.00147218   -0.00015173   -0.00233274
     atom  119 type  2   force =     0.00147944    0.00107320   -0.00298530
     atom  120 type  2   force =     0.00146631    0.00187158   -0.00306116
     atom  121 type  2   force =     0.00070807   -0.00201223   -0.00168435
     atom  122 type  2   force =    -0.00061043    0.00293335   -0.00420271
     atom  123 type  2   force =     0.00012510    0.00118359    0.00136783
     atom  124 type  2   force =     0.00177620    0.00104997    0.00333785
     atom  125 type  2   force =    -0.00018595   -0.00074446   -0.00052485
     atom  126 type  2   force =    -0.00186563   -0.00028644   -0.00015738
     atom  127 type  2   force =    -0.00067190    0.00108474   -0.00003313
     atom  128 type  2   force =     0.00042795    0.00222097   -0.00096352
     atom  129 type  2   force =     0.00155607   -0.00078863   -0.00086220
     atom  130 type  2   force =     0.00083690   -0.00025545   -0.00030866
     atom  131 type  2   force =    -0.00151749    0.00115290    0.00165348
     atom  132 type  2   force =    -0.00056512    0.00103155    0.00372820
     atom  133 type  2   force =     0.00050970    0.00119775    0.00037054
     atom  134 type  2   force =    -0.00034509    0.00038126    0.00179032
     atom  135 type  2   force =    -0.00358064   -0.00157987    0.00113048
     atom  136 type  2   force =     0.00029489   -0.00025655   -0.00005900
     atom  137 type  2   force =     0.00327208   -0.00101267   -0.00242252
     atom  138 type  2   force =    -0.00115005    0.00132627   -0.00172794
     atom  139 type  2   force =    -0.00062849   -0.00124979    0.00311464
     atom  140 type  2   force =     0.00041827   -0.00329209    0.00172691
     atom  141 type  2   force =    -0.00218796   -0.00084562   -0.00249300
     atom  142 type  2   force =     0.00018087    0.00128989   -0.00165268
     atom  143 type  2   force =     0.00243987   -0.00163161    0.00090097
     atom  144 type  2   force =     0.00025156   -0.00021907    0.00006352
     atom  145 type  2   force =    -0.00050099    0.00109087   -0.00153261
     atom  146 type  2   force =     0.00076666    0.00196301   -0.00162077
     atom  147 type  2   force =     0.00179210   -0.00038474   -0.00093017
     atom  148 type  2   force =    -0.00018155   -0.00141409   -0.00196630
     atom  149 type  2   force =    -0.00199446    0.00045332   -0.00184954
     atom  150 type  2   force =     0.00076478   -0.00200658   -0.00102568
     atom  151 type  2   force =     0.00024799   -0.00250909   -0.00359178
     atom  152 type  2   force =    -0.00094446   -0.00045409   -0.00385422
     atom  153 type  2   force =     0.00119891    0.00036249   -0.00190353
     atom  154 type  2   force =     0.00101111   -0.00189036   -0.00086788
     atom  155 type  2   force =    -0.00106521   -0.00025818   -0.00099603
     atom  156 type  2   force =    -0.00146147   -0.00149191   -0.00198646

     Total force =     0.022228     Total SCF correction =     0.000399

     number of scf cycles    =  13
     number of bfgs steps    =  12

     energy   old            =  -13670.9842771067 Ry
     energy   new            =  -13670.9850049390 Ry

     CASE: energy  _new < energy  _old

     new trust radius        =       0.0347583613 bohr
     new conv_thr            =       0.0000000100 Ry


ATOMIC_POSITIONS (angstrom)
Cu      -0.000405172   0.028733307   6.562825271
Cu       1.843456831   1.744227505   6.589759843
Cu       3.688914350   0.029712625   6.559901851
Cu       5.534038763   1.745485777   6.589017050
Cu      -0.000414651   3.453296477   6.630569259
Cu       1.843931112   5.149601313   6.657971692
Cu       3.688867198   3.453380971   6.630260399
Cu       5.533495603   5.149282993   6.658112472
Cu      -0.000075826   6.841099893   6.666500420
Cu       1.844215591   8.532542788   6.667614018
Cu       3.688406035   6.840676375   6.665643315
Cu       5.533159060   8.532184153   6.666966177
Cu      -0.000840457  10.226191938   6.660322557
Cu       1.843633646  11.925489253   6.630487947
Cu       3.689243343  10.225865021   6.658589549
Cu       5.533785632  11.923407768   6.629552535
Cu       0.000311949  13.633790459   6.587024753
Cu       1.844721645  15.348210755   6.560433682
Cu       3.688169370  13.632067197   6.588915234
Cu       5.532834811  15.348213087   6.560600721
Cu      -0.000004152   1.707586773   8.424806783
Cu       1.843700813   0.012484278   8.398489980
Cu       3.688524503   1.706735918   8.423800683
Cu       5.533787420   0.012714713   8.399442440
Cu      -0.000522916   5.133476889   8.497513452
Cu       1.844698333   3.418158468   8.465661913
Cu       3.688945679   5.133542893   8.497094568
Cu       5.532805607   3.417842299   8.464950323
Cu      -0.000464849   8.535456895   8.516519764
Cu       1.843985341   6.838329855   8.516981583
Cu       3.688833202   8.535467452   8.515674622
Cu       5.533575464   6.839315095   8.516675076
Cu      -0.000060192  11.960300072   8.462695489
Cu       1.843482628  10.241835088   8.495288380
Cu       3.688427361  11.959534162   8.465117923
Cu       5.533917180  10.242921393   8.495182896
Cu      -0.001009379  15.362581363   8.399481693
Cu       1.845195016  13.670123893   8.423729420
Cu       3.689360559  15.364202857   8.397855975
Cu       5.532271196  13.670791740   8.424008931
Cu      -0.001016810   0.005078112  10.270177168
Cu       1.844404108   1.687505804  10.276927001
Cu       3.689393437   0.007888618  10.270910159
Cu       5.533096958   1.687239659  10.276197845
Cu       0.000045571   3.382574119  10.296353255
Cu       1.844490868   5.101688185  10.329060641
Cu       3.688435560   3.379783683  10.293404733
Cu       5.533211021   5.099814259  10.329816499
Cu      -0.000265591   6.826285727  10.361072730
Cu       1.843988735   8.551474866  10.357311672
Cu       3.688645354   6.826011787  10.362068949
Cu       5.533741922   8.551525324  10.360751541
Cu      -0.000545488  10.276536126  10.324441028
Cu       1.845028081  11.994996106  10.290145424
Cu       3.688951633  10.274959814  10.325574283
Cu       5.532311837  11.996169384  10.290434698
Cu      -0.000360483  13.689320213  10.276520728
Cu       1.843953968  15.370505816  10.269987523
Cu       3.688586614  13.691134995  10.272448725
Cu       5.533391840  15.368413834  10.271016405
Cu      -0.000438430   1.679201491  12.153030272
Cu       1.845257200   0.001135977  12.150360431
Cu       3.688614125   1.678678445  12.155911007
Cu       5.532138204   0.001512905  12.151637732
Cu       0.000263240   5.053317109  12.165148617
Cu       1.845276055   3.357173606  12.152827828
Cu       3.688424602   5.048361313  12.159373432
Cu       5.532160295   3.355986037  12.152624865
Cu      -0.000388640   8.586088477  12.178873922
Cu       1.845631918   6.799740560  12.180806173
Cu       3.689418732   8.580078250  12.185450541
Cu       5.531849386   6.797826457  12.184657499
Cu      -0.000841352  12.015531712  12.152815149
Cu       1.845217571  10.326503212  12.157844654
Cu       3.689102774  12.020971731  12.146205642
Cu       5.532557815  10.330773473  12.159628357
Cu      -0.001252869  15.375409876  12.152735569
Cu       1.842610625  13.698855809  12.149974084
Cu       3.689805219  15.373099224  12.148047139
Cu       5.534601801  13.698933271  12.154413303
Cu       0.000446814   0.004106345  14.037894198
Cu       1.847271720   1.658769726  14.029478667
Cu       3.687710057  -0.003795621  14.036573747
Cu       5.530392676   1.657845538  14.029247298
Cu       0.000249163   3.296346107  14.050255517
Cu       1.839732936   4.964492286  14.040112781
Cu       3.688152990   3.287539856  14.034328579
Cu       5.537730131   4.959302791  14.039445362
Cu       0.004620757   6.776125262  13.920244979
Cu       1.842879720   8.611441755  13.923523532
Cu       3.682887529   6.763551267  13.922729235
Cu       5.534535107   8.615098499  13.917889044
Cu       0.000022594  10.425199108  14.049297247
Cu       1.845635753  12.086199756  14.037952156
Cu       3.688270946  10.419731329  14.023073841
Cu       5.531967377  12.088716475  14.041558504
Cu      -0.000241546  13.715997407  14.030828959
Cu       1.839787506  15.373509077  14.035165515
Cu       3.688432514  13.722562313  14.025129296
Cu       5.537116746  15.376287196  14.037817658
Cu       1.871577404  10.288603554  15.757811051
Cu       5.507021577  10.286745584  15.762055739
Cu      -0.003415201   8.546313724  15.648195256
Cu       1.848269864   6.853070946  15.646080106
Cu       3.691081120   8.530564618  15.636512348
Cu       5.530063194   6.847257756  15.641061091
Cu      -0.000142604   5.126594064  15.755514975
Cu       3.688158822   5.077754607  15.756488899
C        0.000731282   0.665080330  17.730619913
C        0.000686210   2.083442417  17.840266643
C        1.229757630  -0.047596124  17.704852919
C        1.231243313   2.790688380  17.912245092
C        2.459178024   0.664182346  17.726728331
C        2.459870748   2.082325306  17.826430569
C        3.689649601  -0.046691027  17.694733782
C        3.689602968   2.789589955  17.875446171
C        4.920468014   0.664282164  17.725867493
C        4.919664250   2.082413488  17.826074209
C        6.149525269  -0.047566992  17.704222648
C        6.147954427   2.790784918  17.911752562
C        0.000542565   4.921307373  18.153084838
C        0.000774607   6.336756805  18.376652675
C        1.234035139   4.204398262  18.075121784
C        1.229165519   7.047903025  18.418531540
C        2.457182690   4.917597807  18.177853803
C        2.460840818   6.334471669  18.367053538
C        3.689893007   4.211381941  18.036786226
C        3.689677640   7.044594021  18.431217909
C        4.921995368   4.917416301  18.179655283
C        4.918816064   6.334349403  18.367845919
C        6.145659359   4.204486859  18.075089770
C        6.149967052   7.047917587  18.417779927
C        0.000672267   9.187048415  18.353853908
C        0.000834766  10.603554322  18.163317432
C        1.232636301   8.476056004  18.423246557
C        1.226782940  11.311142860  18.030158900
C        2.458856403   9.185108680  18.356638967
C        2.462628936  10.601117267  18.132358509
C        3.689944375   8.472140226  18.401510079
C        3.689633999  11.320107435  18.049984943
C        4.920524918   9.185075842  18.357913331
C        4.917050023  10.601019923  18.132251155
C        6.147190452   8.476013082  18.424288955
C        6.152629761  11.311026747  18.029580268
C        0.000740138  13.436706878  17.800705895
C        0.000562301  14.856145555  17.715090571
C        1.229841114  12.729964726  17.867374140
C        1.229551729  15.570003555  17.695540041
C        2.459196244  13.439988853  17.814244872
C        2.459577650  14.859459823  17.720472803
C        3.689634103  12.732052434  17.891277136
C        3.689943708  15.571231184  17.701758678
C        4.920327860  13.439946136  17.813930806
C        4.919612730  14.859360007  17.719405083
C        6.149368620  12.729884523  17.867120085
C        6.150242325  15.570014935  17.694755876



     Writing output data file gc.save
     Check: negative starting charge=   -0.001548
     NEW-OLD atomic charge density approx. for the potential
     Check: negative starting charge=   -0.001550

     negative rho (up, down):  1.558E-03 0.000E+00

     total cpu time spent up to now is    54041.6 secs

     Self-consistent Calculation

     iteration #  1     ecut=    80.00 Ry     beta=0.70
     Davidson diagonalization with overlap
     ethr =  1.00E-06,  avg # of iterations =  8.7

     negative rho (up, down):  6.321E-04 0.000E+00

     total cpu time spent up to now is    54681.6 secs

     total energy              =  -13670.98337949 Ry
     Harris-Foulkes estimate   =  -13670.99396489 Ry
     estimated scf accuracy    <       0.14195717 Ry

     iteration #  2     ecut=    80.00 Ry     beta=0.70
     Davidson diagonalization with overlap
     ethr =  1.03E-05,  avg # of iterations =  2.2

     negative rho (up, down):  4.576E-04 0.000E+00

     total cpu time spent up to now is    54892.4 secs

     total energy              =  -13670.98347094 Ry
     Harris-Foulkes estimate   =  -13670.98906160 Ry
     estimated scf accuracy    <       0.02540147 Ry

     iteration #  3     ecut=    80.00 Ry     beta=0.70
     Davidson diagonalization with overlap
     ethr =  1.84E-06,  avg # of iterations =  5.5

     negative rho (up, down):  3.094E-04 0.000E+00

     total cpu time spent up to now is    55159.6 secs

     total energy              =  -13670.98442375 Ry
     Harris-Foulkes estimate   =  -13670.98759205 Ry
     estimated scf accuracy    <       0.04017579 Ry

     iteration #  4     ecut=    80.00 Ry     beta=0.70
     Davidson diagonalization with overlap
     ethr =  1.84E-06,  avg # of iterations =  5.2

     negative rho (up, down):  3.157E-04 0.000E+00

     total cpu time spent up to now is    55407.2 secs

     total energy              =  -13670.98586488 Ry
     Harris-Foulkes estimate   =  -13670.98600290 Ry
     estimated scf accuracy    <       0.00241015 Ry

     iteration #  5     ecut=    80.00 Ry     beta=0.70
     Davidson diagonalization with overlap
     ethr =  1.75E-07,  avg # of iterations =  3.2

     negative rho (up, down):  3.814E-04 0.000E+00

     total cpu time spent up to now is    55629.3 secs

     total energy              =  -13670.98583124 Ry
     Harris-Foulkes estimate   =  -13670.98594943 Ry
     estimated scf accuracy    <       0.00155883 Ry

     iteration #  6     ecut=    80.00 Ry     beta=0.70
     Davidson diagonalization with overlap
     ethr =  1.13E-07,  avg # of iterations =  1.5

     negative rho (up, down):  4.866E-04 0.000E+00

     total cpu time spent up to now is    55829.0 secs

     total energy              =  -13670.98588589 Ry
     Harris-Foulkes estimate   =  -13670.98588334 Ry
     estimated scf accuracy    <       0.00018078 Ry

     iteration #  7     ecut=    80.00 Ry     beta=0.70
     Davidson diagonalization with overlap
     ethr =  1.31E-08,  avg # of iterations =  2.3

     negative rho (up, down):  7.249E-04 0.000E+00

     total cpu time spent up to now is    56037.6 secs

     total energy              =  -13670.98591649 Ry
     Harris-Foulkes estimate   =  -13670.98589825 Ry
     estimated scf accuracy    <       0.00005310 Ry

     iteration #  8     ecut=    80.00 Ry     beta=0.70
     Davidson diagonalization with overlap
     ethr =  3.85E-09,  avg # of iterations =  2.8

     negative rho (up, down):  1.018E-03 0.000E+00

     total cpu time spent up to now is    56260.1 secs

     total energy              =  -13670.98592508 Ry
     Harris-Foulkes estimate   =  -13670.98592078 Ry
     estimated scf accuracy    <       0.00002626 Ry

     iteration #  9     ecut=    80.00 Ry     beta=0.70
     Davidson diagonalization with overlap
     ethr =  1.90E-09,  avg # of iterations =  2.5

     negative rho (up, down):  1.280E-03 0.000E+00

     total cpu time spent up to now is    56474.9 secs

     total energy              =  -13670.98592705 Ry
     Harris-Foulkes estimate   =  -13670.98592676 Ry
     estimated scf accuracy    <       0.00001138 Ry

     iteration # 10     ecut=    80.00 Ry     beta=0.70
     Davidson diagonalization with overlap
     ethr =  8.25E-10,  avg # of iterations =  2.0

     negative rho (up, down):  1.418E-03 0.000E+00

     total cpu time spent up to now is    56682.0 secs

     total energy              =  -13670.98592742 Ry
     Harris-Foulkes estimate   =  -13670.98592759 Ry
     estimated scf accuracy    <       0.00000126 Ry

     iteration # 11     ecut=    80.00 Ry     beta=0.70
     Davidson diagonalization with overlap
     ethr =  9.13E-11,  avg # of iterations =  3.0

     negative rho (up, down):  1.486E-03 0.000E+00

     total cpu time spent up to now is    56911.4 secs

     total energy              =  -13670.98592733 Ry
     Harris-Foulkes estimate   =  -13670.98592759 Ry
     estimated scf accuracy    <       0.00000087 Ry

     iteration # 12     ecut=    80.00 Ry     beta=0.70
     Davidson diagonalization with overlap
     ethr =  6.28E-11,  avg # of iterations =  3.0

     negative rho (up, down):  1.532E-03 0.000E+00

     total cpu time spent up to now is    57130.4 secs

     total energy              =  -13670.98592727 Ry
     Harris-Foulkes estimate   =  -13670.98592740 Ry
     estimated scf accuracy    <       0.00000052 Ry

     iteration # 13     ecut=    80.00 Ry     beta=0.70
     Davidson diagonalization with overlap
     ethr =  3.80E-11,  avg # of iterations =  2.2

     negative rho (up, down):  1.534E-03 0.000E+00

     total cpu time spent up to now is    57340.0 secs

     total energy              =  -13670.98592725 Ry
     Harris-Foulkes estimate   =  -13670.98592729 Ry
     estimated scf accuracy    <       0.00000007 Ry

     iteration # 14     ecut=    80.00 Ry     beta=0.70
     Davidson diagonalization with overlap
