mpirun: INFO: switching to OpenMPI runtime version 1.10.2

     Program PWSCF v.5.4.0 starts on  8Sep2017 at  0:57:45 

     This program is part of the open-source Quantum ESPRESSO suite
     for quantum simulation of materials; please cite
         "P. Giannozzi et al., J. Phys.:Condens. Matter 21 395502 (2009);
          URL http://www.quantum-espresso.org", 
     in publications or presentations arising from this work. More details at
     http://www.quantum-espresso.org/quote

     Parallel version (MPI & OpenMP), running on      56 processor cores
     Number of MPI processes:                56
     Threads/MPI process:                     1
     R & G space division:  proc/nbgrp/npool/nimage =      56
     Waiting for input...
     Reading input from standard input
Warning: card &IONS ignored
Warning: card / ignored

     Current dimensions of program PWSCF are:
     Max number of different atomic species (ntypx) = 10
     Max number of k-points (npk) =  40000
     Max angular momentum in pseudopotentials (lmaxx) =  3

     -------------------------------------
     Parameters for Dispersion Correction:
     -------------------------------------
       atom      VdW radius       C_6     

        Cu         2.952        374.666
        C_h        2.744         60.710
        C          2.744         60.710

     Subspace diagonalization in iterative solution of the eigenvalue problem:
     one sub-group per band group will be used
     scalapack distributed-memory algorithm (size of sub-group:  5*  5 procs)

 
     Parallelization info
     --------------------
     sticks:   dense  smooth     PW     G-vecs:    dense   smooth      PW
     Min         204     204     54                36612    36612    4962
     Max         205     205     55                36617    36617    4968
     Sum       11433   11433   3039              2050409  2050409  278033
 


     bravais-lattice index     =            0
     lattice parameter (alat)  =      13.9425  a.u.
     unit-cell volume          =   21209.0878 (a.u.)^3
     number of atoms/cell      =          148
     number of atomic types    =            3
     number of electrons       =      1292.00
     number of Kohn-Sham states=          775
     kinetic-energy cutoff     =      80.0000  Ry
     charge density cutoff     =     320.0000  Ry
     convergence threshold     =      1.0E-08
     mixing beta               =       0.7000
     number of iterations used =            8  local-TF  mixing
     Exchange-correlation      =  SLA  PW   PBX  PBC ( 1  4  3  4 0 0)

     celldm(1)=  13.942539  celldm(2)=   0.000000  celldm(3)=   0.000000
     celldm(4)=   0.000000  celldm(5)=   0.000000  celldm(6)=   0.000000

     crystal axes: (cart. coord. in units of alat)
               a(1) = (   1.000000   0.000000   0.000000 )  
               a(2) = (   0.000000   2.309401   0.000000 )  
               a(3) = (   0.000000   0.000000   3.388418 )  

     reciprocal axes: (cart. coord. in units 2 pi/alat)
               b(1) = (  1.000000  0.000000  0.000000 )  
               b(2) = (  0.000000  0.433013  0.000000 )  
               b(3) = (  0.000000  0.000000  0.295123 )  


     PseudoPot. # 1 for Cu read from file:
     /home/549/hxw549/Short/pseudopotentials/Cu.pbe-n-van_ak.UPF
     MD5 check sum: 601f7c30f7467666bec936e0661ce3e1
     Pseudo is Ultrasoft + core correction, Zval = 11.0
     Generated by new atomic code, or converted to UPF format
     Using radial grid of  867 points,  6 beta functions with: 
                l(1) =   0
                l(2) =   0
                l(3) =   1
                l(4) =   1
                l(5) =   2
                l(6) =   2
     Q(r) pseudized with  8 coefficients,  rinner =    1.400   1.400   1.400
                                                       1.400   1.400

     PseudoPot. # 2 for C  read from file:
     /home/549/hxw549/Short/pseudopotentials/C.star1s-pbe-mt_gipaw.UPF
     MD5 check sum: ef0cb3dee31bd9e4ba2a832a2c716264
     Pseudo is Norm-conserving, Zval =  5.0
     Generated by new atomic code, or converted to UPF format
     Using radial grid of 1073 points,  1 beta functions with: 
                l(1) =   0

     PseudoPot. # 3 for C  read from file:
     /home/549/hxw549/Short/pseudopotentials/C.pbe-mt_gipaw.UPF
     MD5 check sum: 5ac2f21f2c440b14befe521540822c15
     Pseudo is Norm-conserving, Zval =  4.0
     Generated by new atomic code, or converted to UPF format
     Using radial grid of 1073 points,  1 beta functions with: 
                l(1) =   0

     atomic species   valence    mass     pseudopotential
        Cu            11.00    63.54600     Cu( 1.00)
        C_h            5.00    12.01070     C ( 1.00)
        C              4.00    12.01070     C ( 1.00)

     No symmetry found



   Cartesian axes

     site n.     atom                  positions (alat units)
         1           Cu  tau(   1) = (   0.0000000   0.0000567   0.9971194  )
         2           Cu  tau(   2) = (   0.2499927   0.2309760   0.9972946  )
         3           Cu  tau(   3) = (   0.5000000   0.0000313   0.9971490  )
         4           Cu  tau(   4) = (   0.7500073   0.2309760   0.9972946  )
         5           Cu  tau(   5) = (   0.0000000   0.4618437   0.9973425  )
         6           Cu  tau(   6) = (   0.2499840   0.6927701   0.9971914  )
         7           Cu  tau(   7) = (   0.5000000   0.4618722   0.9973119  )
         8           Cu  tau(   8) = (   0.7500160   0.6927701   0.9971914  )
         9           Cu  tau(   9) = (   0.0000000   0.9237521   0.9970621  )
        10           Cu  tau(  10) = (   0.2500157   1.1547420   0.9971373  )
        11           Cu  tau(  11) = (   0.5000000   0.9237453   0.9970727  )
        12           Cu  tau(  12) = (   0.7499843   1.1547420   0.9971373  )
        13           Cu  tau(  13) = (   0.0000000   1.3856555   0.9972830  )
        14           Cu  tau(  14) = (   0.2500029   1.6165618   0.9973242  )
        15           Cu  tau(  15) = (   0.5000000   1.3857014   0.9973005  )
        16           Cu  tau(  16) = (   0.7499971   1.6165618   0.9973242  )
        17           Cu  tau(  17) = (   0.0000000   1.8474941   0.9971969  )
        18           Cu  tau(  18) = (   0.2500043   2.0784518   0.9970745  )
        19           Cu  tau(  19) = (   0.5000000   1.8474499   0.9971773  )
        20           Cu  tau(  20) = (   0.7499957   2.0784518   0.9970745  )
        21           Cu  tau(  21) = (   0.0000000   0.2308065   1.2457643  )
        22           Cu  tau(  22) = (   0.2499892  -0.0001010   1.2455764  )
        23           Cu  tau(  23) = (   0.5000000   0.2308938   1.2456746  )
        24           Cu  tau(  24) = (   0.7500108  -0.0001010   1.2455764  )
        25           Cu  tau(  25) = (   0.0000000   0.6929786   1.2456406  )
        26           Cu  tau(  26) = (   0.2499874   0.4619293   1.2457459  )
        27           Cu  tau(  27) = (   0.5000000   0.6929012   1.2456074  )
        28           Cu  tau(  28) = (   0.7500126   0.4619293   1.2457459  )
        29           Cu  tau(  29) = (   0.0000000   1.1546142   1.2455676  )
        30           Cu  tau(  30) = (   0.2499981   0.9237849   1.2455149  )
        31           Cu  tau(  31) = (   0.5000000   1.1545763   1.2455800  )
        32           Cu  tau(  32) = (   0.7500019   0.9237849   1.2455149  )
        33           Cu  tau(  33) = (   0.0000000   1.6166029   1.2456910  )
        34           Cu  tau(  34) = (   0.2500161   1.3855492   1.2457134  )
        35           Cu  tau(  35) = (   0.5000000   1.6166555   1.2458019  )
        36           Cu  tau(  36) = (   0.7499839   1.3855492   1.2457134  )
        37           Cu  tau(  37) = (   0.0000000   2.0784993   1.2455162  )
        38           Cu  tau(  38) = (   0.2500161   1.8476387   1.2456210  )
        39           Cu  tau(  39) = (   0.5000000   2.0784755   1.2455152  )
        40           Cu  tau(  40) = (   0.7499839   1.8476387   1.2456210  )
        41           Cu  tau(  41) = (   0.0000000  -0.0003182   1.4954305  )
        42           Cu  tau(  42) = (   0.2500224   0.2307186   1.4951678  )
        43           Cu  tau(  43) = (   0.5000000  -0.0002059   1.4952775  )
        44           Cu  tau(  44) = (   0.7499776   0.2307186   1.4951678  )
        45           Cu  tau(  45) = (   0.0000000   0.4620254   1.4950571  )
        46           Cu  tau(  46) = (   0.2500339   0.6931225   1.4952807  )
        47           Cu  tau(  47) = (   0.5000000   0.4619896   1.4952144  )
        48           Cu  tau(  48) = (   0.7499661   0.6931225   1.4952807  )
        49           Cu  tau(  49) = (   0.0000000   0.9238798   1.4954544  )
        50           Cu  tau(  50) = (   0.2499708   1.1544329   1.4953374  )
        51           Cu  tau(  51) = (   0.5000000   0.9237633   1.4954072  )
        52           Cu  tau(  52) = (   0.7500292   1.1544329   1.4953374  )
        53           Cu  tau(  53) = (   0.0000000   1.3854453   1.4952066  )
        54           Cu  tau(  54) = (   0.2499861   1.6167017   1.4951298  )
        55           Cu  tau(  55) = (   0.5000000   1.3853760   1.4951346  )
        56           Cu  tau(  56) = (   0.7500139   1.6167017   1.4951298  )
        57           Cu  tau(  57) = (   0.0000000   1.8477718   1.4952308  )
        58           Cu  tau(  58) = (   0.2499930   2.0785254   1.4954090  )
        59           Cu  tau(  59) = (   0.5000000   1.8478762   1.4953503  )
        60           Cu  tau(  60) = (   0.7500070   2.0785254   1.4954090  )
        61           Cu  tau(  61) = (   0.0000000   0.2310733   1.7440777  )
        62           Cu  tau(  62) = (   0.2501089  -0.0001294   1.7450479  )
        63           Cu  tau(  63) = (   0.5000000   0.2306045   1.7445985  )
        64           Cu  tau(  64) = (   0.7498911  -0.0001294   1.7450479  )
        65           Cu  tau(  65) = (   0.0000000   0.6927994   1.7446059  )
        66           Cu  tau(  66) = (   0.2502918   0.4619532   1.7441197  )
        67           Cu  tau(  67) = (   0.5000000   0.6931011   1.7451318  )
        68           Cu  tau(  68) = (   0.7497082   0.4619532   1.7441197  )
        69           Cu  tau(  69) = (   0.0000000   1.1545789   1.7453503  )
        70           Cu  tau(  70) = (   0.2500220   0.9237908   1.7453835  )
        71           Cu  tau(  71) = (   0.5000000   1.1545999   1.7449118  )
        72           Cu  tau(  72) = (   0.7499780   0.9237908   1.7453835  )
        73           Cu  tau(  73) = (   0.0000000   1.6167791   1.7444075  )
        74           Cu  tau(  74) = (   0.2497438   1.3855115   1.7442733  )
        75           Cu  tau(  75) = (   0.5000000   1.6164906   1.7439233  )
        76           Cu  tau(  76) = (   0.7502562   1.3855115   1.7442733  )
        77           Cu  tau(  77) = (   0.0000000   2.0782721   1.7455014  )
        78           Cu  tau(  78) = (   0.2498426   1.8476765   1.7447807  )
        79           Cu  tau(  79) = (   0.5000000   2.0787016   1.7454002  )
        80           Cu  tau(  80) = (   0.7501574   1.8476765   1.7447807  )
        81           Cu  tau(  81) = (   0.0000000   0.0010732   1.9906710  )
        82           Cu  tau(  82) = (   0.2503054   0.2314650   1.9904877  )
        83           Cu  tau(  83) = (   0.5000000   0.0001335   1.9924670  )
        84           Cu  tau(  84) = (   0.7496946   0.2314650   1.9904877  )
        85           Cu  tau(  85) = (   0.0000000   0.4618379   1.9901778  )
        86           Cu  tau(  86) = (   0.2508441   0.6921348   1.9910282  )
        87           Cu  tau(  87) = (   0.5000000   0.4613052   1.9913358  )
        88           Cu  tau(  88) = (   0.7491559   0.6921348   1.9910282  )
        89           Cu  tau(  89) = (   0.0000000   0.9224699   1.9915918  )
        90           Cu  tau(  90) = (   0.2491275   1.1552920   1.9912642  )
        91           Cu  tau(  91) = (   0.5000000   0.9247757   1.9920574  )
        92           Cu  tau(  92) = (   0.7508725   1.1552920   1.9912642  )
        93           Cu  tau(  93) = (   0.0000000   1.3865904   1.9916296  )
        94           Cu  tau(  94) = (   0.2499532   1.6162906   1.9903050  )
        95           Cu  tau(  95) = (   0.5000000   1.3858063   1.9901800  )
        96           Cu  tau(  96) = (   0.7500468   1.6162906   1.9903050  )
        97           Cu  tau(  97) = (   0.0000000   1.8468318   1.9923212  )
        98           Cu  tau(  98) = (   0.2497561   2.0783183   1.9915134  )
        99           Cu  tau(  99) = (   0.5000000   1.8467805   1.9903847  )
       100           Cu  tau( 100) = (   0.7502439   2.0783183   1.9915134  )
       101           C   tau( 101) = (   0.1666289   0.0962962   2.3888871  )
       102           C   tau( 102) = (   0.1666289   0.2886925   2.3900713  )
       103           C   tau( 103) = (   0.3332618   0.0000435   2.3878440  )
       104           C   tau( 104) = (   0.3331195   0.3848966   2.3886743  )
       105           C   tau( 105) = (   0.4997524   0.0962174   2.3860158  )
       106           C   tau( 106) = (   0.4997564   0.2886629   2.3856823  )
       107           C   tau( 107) = (   0.6666293  -0.0000818   2.3845687  )
       108           C   tau( 108) = (   0.6666293   0.3849277   2.3842391  )
       109           C   tau( 109) = (   0.8335048   0.0962174   2.3860158  )
       110           C   tau( 110) = (   0.8335007   0.2886629   2.3856823  )
       111           C   tau( 111) = (   0.9999967   0.0000435   2.3878440  )
       112           C   tau( 112) = (   1.0001391   0.3848966   2.3886743  )
       113           C   tau( 113) = (   0.1666289   0.6735163   2.3892509  )
       114           C   tau( 114) = (   0.1666289   0.8659398   2.3870960  )
       115           C   tau( 115) = (   0.3331045   0.5773226   2.3882842  )
       116           C   tau( 116) = (   0.3333716   0.9622141   2.3870264  )
       117           C   tau( 117) = (   0.4998378   0.6735984   2.3858047  )
       118           C   tau( 118) = (   0.4998323   0.8660537   2.3866148  )
       119           C   tau( 119) = (   0.6666293   0.5773685   2.3848465  )
       120           C_h tau( 120) = (   0.6666293   0.9623380   2.3860825  )
       121           C   tau( 121) = (   0.8334194   0.6735984   2.3858047  )
       122           C   tau( 122) = (   0.8334262   0.8660537   2.3866148  )
       123           C   tau( 123) = (   1.0001526   0.5773226   2.3882842  )
       124           C   tau( 124) = (   0.9998856   0.9622141   2.3870264  )
       125           C   tau( 125) = (   0.1666289   1.2508867   2.3852683  )
       126           C   tau( 126) = (   0.1666289   1.4433300   2.3840871  )
       127           C   tau( 127) = (   0.3333648   1.1546708   2.3859697  )
       128           C   tau( 128) = (   0.3335234   1.5396104   2.3857176  )
       129           C   tau( 129) = (   0.5001387   1.2509657   2.3878953  )
       130           C   tau( 130) = (   0.5001156   1.4433958   2.3886602  )
       131           C   tau( 131) = (   0.6666293   1.1547731   2.3885512  )
       132           C   tau( 132) = (   0.6666293   1.5396099   2.3901428  )
       133           C   tau( 133) = (   0.8331199   1.2509657   2.3878953  )
       134           C   tau( 134) = (   0.8331429   1.4433958   2.3886602  )
       135           C   tau( 135) = (   0.9998924   1.1546708   2.3859697  )
       136           C   tau( 136) = (   0.9997352   1.5396104   2.3857176  )
       137           C   tau( 137) = (   0.1666289   1.8283510   2.3842019  )
       138           C   tau( 138) = (   0.1666289   2.0207949   2.3863399  )
       139           C   tau( 139) = (   0.3335247   1.7320513   2.3858703  )
       140           C   tau( 140) = (   0.3332469   2.1169980   2.3865340  )
       141           C   tau( 141) = (   0.5000438   1.8282368   2.3882160  )
       142           C   tau( 142) = (   0.5000641   2.0206763   2.3869561  )
       143           C   tau( 143) = (   0.6666293   1.7319961   2.3895398  )
       144           C   tau( 144) = (   0.6666293   2.1168754   2.3870198  )
       145           C   tau( 145) = (   0.8332134   1.8282368   2.3882160  )
       146           C   tau( 146) = (   0.8331931   2.0206763   2.3869561  )
       147           C   tau( 147) = (   0.9997325   1.7320513   2.3858703  )
       148           C   tau( 148) = (   1.0000103   2.1169980   2.3865340  )

     number of k points=     6  gaussian smearing, width (Ry)=  0.1000
                       cart. coord. in units 2pi/alat
        k(    1) = (   0.0000000   0.0000000   0.0000000), wk =   0.2500000
        k(    2) = (   0.0000000  -0.2165064   0.0000000), wk =   0.2500000
        k(    3) = (   0.2500000   0.0000000   0.0000000), wk =   0.5000000
        k(    4) = (   0.2500000  -0.2165064   0.0000000), wk =   0.5000000
        k(    5) = (  -0.5000000   0.0000000   0.0000000), wk =   0.2500000
        k(    6) = (  -0.5000000  -0.2165064   0.0000000), wk =   0.2500000

     Dense  grid:  2050409 G-vectors     FFT dimensions: (  80, 192, 270)

     Largest allocated arrays     est. size (Mb)     dimensions
        Kohn-Sham Wavefunctions        54.44 Mb     (    4604,  775)
        NL pseudopotentials           129.82 Mb     (    4604, 1848)
        Each V/rho on FFT grid          1.17 Mb     (   76800)
        Each G-vector array             0.28 Mb     (   36616)
        G-vector shells                 0.14 Mb     (   17932)
     Largest temporary arrays     est. size (Mb)     dimensions
        Auxiliary wavefunctions       217.78 Mb     (    4604, 3100)
        Each subspace H/S matrix        5.87 Mb     (     620,  620)
        Each <psi_i|beta_j> matrix     21.85 Mb     (    1848,  775)
        Arrays for rho mixing           9.38 Mb     (   76800,    8)

     Initial potential from superposition of free atoms
     Check: negative starting charge=   -0.001843

     starting charge 1266.81751, renormalised to 1292.00000

     negative rho (up, down):  1.879E-03 0.000E+00
     Starting wfc are 1284 randomized atomic wfcs

     total cpu time spent up to now is      106.3 secs

     Self-consistent Calculation

     iteration #  1     ecut=    80.00 Ry     beta=0.70
     Davidson diagonalization with overlap
     c_bands:  2 eigenvalues not converged
     c_bands:  2 eigenvalues not converged
     c_bands:  5 eigenvalues not converged
     ethr =  1.00E-04,  avg # of iterations = 37.2

     negative rho (up, down):  2.723E+01 0.000E+00

     total cpu time spent up to now is     2079.9 secs

     total energy              =   -9476.02996862 Ry
     Harris-Foulkes estimate   =  -17310.55153237 Ry
     estimated scf accuracy    <  180109.24382460 Ry

     iteration #  2     ecut=    80.00 Ry     beta=0.70
     Davidson diagonalization with overlap
     ethr =  1.00E-02,  avg # of iterations = 12.3

     negative rho (up, down):  3.151E+01 0.000E+00

     total cpu time spent up to now is     2992.0 secs

     total energy              =  -12214.46872069 Ry
     Harris-Foulkes estimate   =  -13665.00472781 Ry
     estimated scf accuracy    <   23884.51912687 Ry

     iteration #  3     ecut=    80.00 Ry     beta=0.70
     Davidson diagonalization with overlap
     ethr =  1.00E-02,  avg # of iterations =  7.2

     negative rho (up, down):  3.203E+01 0.000E+00

     total cpu time spent up to now is     3523.0 secs

     total energy              =  -12460.90316405 Ry
     Harris-Foulkes estimate   =  -13403.47861262 Ry
     estimated scf accuracy    <    5839.34760513 Ry

     iteration #  4     ecut=    80.00 Ry     beta=0.70
     Davidson diagonalization with overlap
     ethr =  1.00E-02,  avg # of iterations =  5.8

     negative rho (up, down):  2.386E+01 0.000E+00

     total cpu time spent up to now is     4001.0 secs

     total energy              =  -12847.47476383 Ry
     Harris-Foulkes estimate   =  -13084.96050143 Ry
     estimated scf accuracy    <    1796.87662883 Ry

     iteration #  5     ecut=    80.00 Ry     beta=0.70
     Davidson diagonalization with overlap
     ethr =  1.00E-02,  avg # of iterations =  3.5

     negative rho (up, down):  1.860E+01 0.000E+00

     total cpu time spent up to now is     4271.2 secs

     total energy              =  -12845.46685340 Ry
     Harris-Foulkes estimate   =  -12962.25590553 Ry
     estimated scf accuracy    <    1272.31600647 Ry

     iteration #  6     ecut=    80.00 Ry     beta=0.70
     Davidson diagonalization with overlap
     ethr =  1.00E-02,  avg # of iterations =  3.0

     negative rho (up, down):  1.289E+01 0.000E+00

     total cpu time spent up to now is     4480.7 secs

     total energy              =  -12834.63681076 Ry
     Harris-Foulkes estimate   =  -12908.71322944 Ry
     estimated scf accuracy    <     574.28160192 Ry

     iteration #  7     ecut=    80.00 Ry     beta=0.70
     Davidson diagonalization with overlap
     ethr =  1.00E-02,  avg # of iterations =  2.0

     negative rho (up, down):  9.106E+00 0.000E+00

     total cpu time spent up to now is     4662.7 secs

     total energy              =  -12805.98598492 Ry
     Harris-Foulkes estimate   =  -12852.05764557 Ry
     estimated scf accuracy    <     444.67057908 Ry

     iteration #  8     ecut=    80.00 Ry     beta=0.70
     Davidson diagonalization with overlap
     ethr =  1.00E-02,  avg # of iterations =  2.0

     negative rho (up, down):  7.254E+00 0.000E+00

     total cpu time spent up to now is     4841.2 secs

     total energy              =  -12787.90130969 Ry
     Harris-Foulkes estimate   =  -12822.91348807 Ry
     estimated scf accuracy    <     516.47521622 Ry

     iteration #  9     ecut=    80.00 Ry     beta=0.70
     Davidson diagonalization with overlap
     ethr =  1.00E-02,  avg # of iterations =  2.3

     negative rho (up, down):  5.982E+00 0.000E+00

     total cpu time spent up to now is     5022.0 secs

     total energy              =  -12785.35067957 Ry
     Harris-Foulkes estimate   =  -12800.59278358 Ry
     estimated scf accuracy    <     191.41221251 Ry

     iteration # 10     ecut=    80.00 Ry     beta=0.70
     Davidson diagonalization with overlap
     ethr =  1.00E-02,  avg # of iterations =  1.3

     negative rho (up, down):  1.298E+00 0.000E+00

     total cpu time spent up to now is     5190.9 secs

     total energy              =  -12739.17439591 Ry
     Harris-Foulkes estimate   =  -12787.16177881 Ry
     estimated scf accuracy    <     156.26196424 Ry

     iteration # 11     ecut=    80.00 Ry     beta=0.70
     Davidson diagonalization with overlap
     ethr =  1.00E-02,  avg # of iterations =  2.5

     negative rho (up, down):  9.326E-01 0.000E+00

     total cpu time spent up to now is     5373.8 secs

     total energy              =  -12727.55495339 Ry
     Harris-Foulkes estimate   =  -12750.32501919 Ry
     estimated scf accuracy    <     482.10204545 Ry

     iteration # 12     ecut=    80.00 Ry     beta=0.70
     Davidson diagonalization with overlap
     ethr =  1.00E-02,  avg # of iterations =  1.5

     negative rho (up, down):  5.739E-01 0.000E+00

     total cpu time spent up to now is     5545.7 secs

     total energy              =  -12725.25501899 Ry
     Harris-Foulkes estimate   =  -12741.60416325 Ry
     estimated scf accuracy    <     298.43378586 Ry

     iteration # 13     ecut=    80.00 Ry     beta=0.70
     Davidson diagonalization with overlap
     ethr =  1.00E-02,  avg # of iterations =  2.0

     negative rho (up, down):  2.328E+00 0.000E+00

     total cpu time spent up to now is     5722.1 secs

     total energy              =  -12717.26782985 Ry
     Harris-Foulkes estimate   =  -12735.29777475 Ry
     estimated scf accuracy    <     132.93893950 Ry

     iteration # 14     ecut=    80.00 Ry     beta=0.70
     Davidson diagonalization with overlap
     ethr =  1.00E-02,  avg # of iterations =  2.0

     negative rho (up, down):  5.474E+00 0.000E+00

     total cpu time spent up to now is     5901.2 secs

     total energy              =  -12719.49889829 Ry
     Harris-Foulkes estimate   =  -12727.15654013 Ry
     estimated scf accuracy    <      66.09353710 Ry

     iteration # 15     ecut=    80.00 Ry     beta=0.70
     Davidson diagonalization with overlap
     ethr =  5.12E-03,  avg # of iterations =  2.0

     negative rho (up, down):  5.230E+00 0.000E+00

     total cpu time spent up to now is     6077.8 secs

     total energy              =  -12717.29457856 Ry
     Harris-Foulkes estimate   =  -12721.39530118 Ry
     estimated scf accuracy    <      43.70904424 Ry

     iteration # 16     ecut=    80.00 Ry     beta=0.70
     Davidson diagonalization with overlap
     ethr =  3.38E-03,  avg # of iterations =  2.5

     negative rho (up, down):  6.109E+00 0.000E+00

     total cpu time spent up to now is     6259.1 secs

     total energy              =  -12715.55136633 Ry
     Harris-Foulkes estimate   =  -12718.94711374 Ry
     estimated scf accuracy    <      37.16534777 Ry

     iteration # 17     ecut=    80.00 Ry     beta=0.70
     Davidson diagonalization with overlap
     ethr =  2.88E-03,  avg # of iterations =  2.5

     negative rho (up, down):  5.286E+00 0.000E+00

     total cpu time spent up to now is     6442.1 secs

     total energy              =  -12715.16110112 Ry
     Harris-Foulkes estimate   =  -12716.95369230 Ry
     estimated scf accuracy    <      24.02110400 Ry

     iteration # 18     ecut=    80.00 Ry     beta=0.70
     Davidson diagonalization with overlap
     ethr =  1.86E-03,  avg # of iterations =  3.2

     negative rho (up, down):  3.903E+00 0.000E+00

     total cpu time spent up to now is     6631.5 secs

     total energy              =  -12713.31355631 Ry
     Harris-Foulkes estimate   =  -12715.70291042 Ry
     estimated scf accuracy    <      16.82114364 Ry

     iteration # 19     ecut=    80.00 Ry     beta=0.70
     Davidson diagonalization with overlap
     ethr =  1.30E-03,  avg # of iterations =  7.8

     negative rho (up, down):  2.995E+00 0.000E+00

     total cpu time spent up to now is     6878.3 secs

     total energy              =  -12712.43816782 Ry
     Harris-Foulkes estimate   =  -12713.60822705 Ry
     estimated scf accuracy    <       9.97378070 Ry

     iteration # 20     ecut=    80.00 Ry     beta=0.70
     Davidson diagonalization with overlap
     ethr =  7.72E-04,  avg # of iterations =  2.5

     negative rho (up, down):  2.037E+00 0.000E+00

     total cpu time spent up to now is     7061.9 secs

     total energy              =  -12711.11353455 Ry
     Harris-Foulkes estimate   =  -12712.58105668 Ry
     estimated scf accuracy    <       7.58704611 Ry

     iteration # 21     ecut=    80.00 Ry     beta=0.70
     Davidson diagonalization with overlap
     ethr =  5.87E-04,  avg # of iterations =  3.7

     negative rho (up, down):  1.976E+00 0.000E+00

     total cpu time spent up to now is     7259.2 secs

     total energy              =  -12711.01486788 Ry
     Harris-Foulkes estimate   =  -12711.35755694 Ry
     estimated scf accuracy    <      12.87669570 Ry

     iteration # 22     ecut=    80.00 Ry     beta=0.70
     Davidson diagonalization with overlap
     ethr =  5.87E-04,  avg # of iterations =  2.0

     negative rho (up, down):  2.026E+00 0.000E+00

     total cpu time spent up to now is     7435.8 secs

     total energy              =  -12710.39567722 Ry
     Harris-Foulkes estimate   =  -12711.40483678 Ry
     estimated scf accuracy    <       9.55472282 Ry

     iteration # 23     ecut=    80.00 Ry     beta=0.70
     Davidson diagonalization with overlap
     ethr =  5.87E-04,  avg # of iterations =  3.5

     negative rho (up, down):  1.698E+00 0.000E+00

     total cpu time spent up to now is     7630.5 secs

     total energy              =  -12709.44055172 Ry
     Harris-Foulkes estimate   =  -12710.58203830 Ry
     estimated scf accuracy    <       7.46481038 Ry

     iteration # 24     ecut=    80.00 Ry     beta=0.70
     Davidson diagonalization with overlap
     ethr =  5.78E-04,  avg # of iterations =  2.0

     negative rho (up, down):  1.836E+00 0.000E+00

     total cpu time spent up to now is     7807.7 secs

     total energy              =  -12708.38046912 Ry
     Harris-Foulkes estimate   =  -12709.75168428 Ry
     estimated scf accuracy    <      12.44646669 Ry

     iteration # 25     ecut=    80.00 Ry     beta=0.70
     Davidson diagonalization with overlap
     ethr =  5.78E-04,  avg # of iterations =  5.0

     negative rho (up, down):  1.673E+00 0.000E+00

     total cpu time spent up to now is     8023.4 secs

     total energy              =  -12707.71303387 Ry
     Harris-Foulkes estimate   =  -12708.75724054 Ry
     estimated scf accuracy    <       5.30782357 Ry

     iteration # 26     ecut=    80.00 Ry     beta=0.70
     Davidson diagonalization with overlap
     ethr =  4.11E-04,  avg # of iterations =  6.0

     negative rho (up, down):  1.428E+00 0.000E+00

     total cpu time spent up to now is     8251.2 secs

     total energy              =  -12707.57944605 Ry
     Harris-Foulkes estimate   =  -12707.96168148 Ry
     estimated scf accuracy    <       1.57100359 Ry

     iteration # 27     ecut=    80.00 Ry     beta=0.70
     Davidson diagonalization with overlap
     ethr =  1.22E-04,  avg # of iterations =  6.2

     negative rho (up, down):  1.223E+00 0.000E+00

     total cpu time spent up to now is     8480.8 secs

     total energy              =  -12707.41098886 Ry
     Harris-Foulkes estimate   =  -12707.69298367 Ry
     estimated scf accuracy    <       2.26604137 Ry

     iteration # 28     ecut=    80.00 Ry     beta=0.70
     Davidson diagonalization with overlap
     ethr =  1.22E-04,  avg # of iterations =  1.3

     negative rho (up, down):  1.034E+00 0.000E+00

     total cpu time spent up to now is     8652.9 secs

     total energy              =  -12707.23272787 Ry
     Harris-Foulkes estimate   =  -12707.51145312 Ry
     estimated scf accuracy    <       0.87556221 Ry

     iteration # 29     ecut=    80.00 Ry     beta=0.70
     Davidson diagonalization with overlap
     ethr =  6.78E-05,  avg # of iterations =  9.0

     negative rho (up, down):  9.066E-01 0.000E+00

     total cpu time spent up to now is     8939.4 secs

     total energy              =  -12707.19682113 Ry
     Harris-Foulkes estimate   =  -12707.27413882 Ry
     estimated scf accuracy    <       0.42343612 Ry

     iteration # 30     ecut=    80.00 Ry     beta=0.70
     Davidson diagonalization with overlap
     ethr =  3.28E-05,  avg # of iterations =  6.3

     negative rho (up, down):  3.138E-01 0.000E+00

     total cpu time spent up to now is     9177.6 secs

     total energy              =  -12707.14634641 Ry
     Harris-Foulkes estimate   =  -12707.22266289 Ry
     estimated scf accuracy    <       0.20236236 Ry

     iteration # 31     ecut=    80.00 Ry     beta=0.70
     Davidson diagonalization with overlap
     c_bands:  1 eigenvalues not converged
     c_bands:  1 eigenvalues not converged
     ethr =  1.57E-05,  avg # of iterations = 13.3

     negative rho (up, down):  2.740E-01 0.000E+00

     total cpu time spent up to now is     9517.2 secs

     total energy              =  -12707.14804971 Ry
     Harris-Foulkes estimate   =  -12707.15997802 Ry
     estimated scf accuracy    <       0.09389544 Ry

     iteration # 32     ecut=    80.00 Ry     beta=0.70
     Davidson diagonalization with overlap
     c_bands:  1 eigenvalues not converged
     ethr =  7.27E-06,  avg # of iterations = 10.8

     negative rho (up, down):  9.431E-02 0.000E+00

     total cpu time spent up to now is     9814.6 secs

     total energy              =  -12707.14219072 Ry
     Harris-Foulkes estimate   =  -12707.15401631 Ry
     estimated scf accuracy    <       0.02771058 Ry

     iteration # 33     ecut=    80.00 Ry     beta=0.70
     Davidson diagonalization with overlap
     c_bands:  1 eigenvalues not converged
     c_bands:  2 eigenvalues not converged
     c_bands:  1 eigenvalues not converged
     c_bands:  1 eigenvalues not converged
     ethr =  2.14E-06,  avg # of iterations = 18.7

     negative rho (up, down):  5.311E-02 0.000E+00

     total cpu time spent up to now is    10245.8 secs

     total energy              =  -12707.14274971 Ry
     Harris-Foulkes estimate   =  -12707.14515683 Ry
     estimated scf accuracy    <       0.00787476 Ry

     iteration # 34     ecut=    80.00 Ry     beta=0.70
     Davidson diagonalization with overlap
     c_bands:  2 eigenvalues not converged
     c_bands:  1 eigenvalues not converged
     ethr =  6.10E-07,  avg # of iterations = 12.3

     negative rho (up, down):  2.836E-02 0.000E+00

     total cpu time spent up to now is    10566.9 secs

     total energy              =  -12707.14347626 Ry
     Harris-Foulkes estimate   =  -12707.14345038 Ry
     estimated scf accuracy    <       0.00208250 Ry

     iteration # 35     ecut=    80.00 Ry     beta=0.70
     Davidson diagonalization with overlap
     ethr =  1.61E-07,  avg # of iterations =  8.8

     negative rho (up, down):  1.210E-02 0.000E+00

     total cpu time spent up to now is    10834.1 secs

     total energy              =  -12707.14343523 Ry
     Harris-Foulkes estimate   =  -12707.14360321 Ry
     estimated scf accuracy    <       0.00060654 Ry

     iteration # 36     ecut=    80.00 Ry     beta=0.70
     Davidson diagonalization with overlap
     ethr =  4.69E-08,  avg # of iterations =  9.3

     negative rho (up, down):  3.934E-03 0.000E+00

     total cpu time spent up to now is    11120.7 secs

     total energy              =  -12707.14340835 Ry
     Harris-Foulkes estimate   =  -12707.14350911 Ry
     estimated scf accuracy    <       0.00026140 Ry

     iteration # 37     ecut=    80.00 Ry     beta=0.70
     Davidson diagonalization with overlap
     c_bands:  2 eigenvalues not converged
     c_bands:  1 eigenvalues not converged
     ethr =  2.02E-08,  avg # of iterations = 13.3

     negative rho (up, down):  4.317E-03 0.000E+00

     total cpu time spent up to now is    11451.2 secs

     total energy              =  -12707.14346117 Ry
     Harris-Foulkes estimate   =  -12707.14343416 Ry
     estimated scf accuracy    <       0.00004496 Ry

     iteration # 38     ecut=    80.00 Ry     beta=0.70
     Davidson diagonalization with overlap
     c_bands:  1 eigenvalues not converged
     ethr =  3.48E-09,  avg # of iterations =  8.7

     negative rho (up, down):  3.068E-03 0.000E+00

     total cpu time spent up to now is    11733.6 secs

     total energy              =  -12707.14344828 Ry
     Harris-Foulkes estimate   =  -12707.14346588 Ry
     estimated scf accuracy    <       0.00001276 Ry

     iteration # 39     ecut=    80.00 Ry     beta=0.70
     Davidson diagonalization with overlap
     ethr =  9.87E-10,  avg # of iterations =  3.8

     negative rho (up, down):  2.704E-03 0.000E+00

     total cpu time spent up to now is    11947.9 secs

     total energy              =  -12707.14344375 Ry
     Harris-Foulkes estimate   =  -12707.14344987 Ry
     estimated scf accuracy    <       0.00000751 Ry

     iteration # 40     ecut=    80.00 Ry     beta=0.70
     Davidson diagonalization with overlap
     ethr =  5.82E-10,  avg # of iterations =  3.5

     negative rho (up, down):  2.212E-03 0.000E+00

     total cpu time spent up to now is    12151.4 secs

     total energy              =  -12707.14344370 Ry
     Harris-Foulkes estimate   =  -12707.14344441 Ry
     estimated scf accuracy    <       0.00000157 Ry

     iteration # 41     ecut=    80.00 Ry     beta=0.70
     Davidson diagonalization with overlap
     ethr =  1.22E-10,  avg # of iterations =  3.0

     negative rho (up, down):  2.080E-03 0.000E+00

     total cpu time spent up to now is    12365.4 secs

     total energy              =  -12707.14344421 Ry
     Harris-Foulkes estimate   =  -12707.14344392 Ry
     estimated scf accuracy    <       0.00000085 Ry

     iteration # 42     ecut=    80.00 Ry     beta=0.70
     Davidson diagonalization with overlap
     ethr =  6.59E-11,  avg # of iterations =  2.7

     negative rho (up, down):  2.071E-03 0.000E+00

     total cpu time spent up to now is    12554.2 secs

     total energy              =  -12707.14344474 Ry
     Harris-Foulkes estimate   =  -12707.14344428 Ry
     estimated scf accuracy    <       0.00000015 Ry

     iteration # 43     ecut=    80.00 Ry     beta=0.70
     Davidson diagonalization with overlap
     ethr =  1.20E-11,  avg # of iterations =  3.5

     negative rho (up, down):  2.065E-03 0.000E+00

     total cpu time spent up to now is    12777.1 secs

     total energy              =  -12707.14344482 Ry
     Harris-Foulkes estimate   =  -12707.14344477 Ry
     estimated scf accuracy    <       0.00000012 Ry

     iteration # 44     ecut=    80.00 Ry     beta=0.70
     Davidson diagonalization with overlap
     ethr =  9.43E-12,  avg # of iterations =  2.7

     negative rho (up, down):  2.098E-03 0.000E+00

     total cpu time spent up to now is    12969.6 secs

     total energy              =  -12707.14344483 Ry
     Harris-Foulkes estimate   =  -12707.14344483 Ry
     estimated scf accuracy    <       0.00000003 Ry

     iteration # 45     ecut=    80.00 Ry     beta=0.70
     Davidson diagonalization with overlap
     ethr =  2.27E-12,  avg # of iterations =  2.8

     negative rho (up, down):  2.115E-03 0.000E+00

     total cpu time spent up to now is    13155.8 secs

     End of self-consistent calculation

          k = 0.0000 0.0000 0.0000 (256287 PWs)   bands (ev):

   -17.2710 -16.2345 -16.0884 -15.4268 -15.0443 -14.7905 -14.6908 -14.2531
   -14.1999 -14.1397 -14.1247 -13.4653 -13.3259 -13.1560 -13.1219 -13.0868
   -13.0800 -11.6715 -11.5320 -11.4839 -11.3906 -11.2054 -10.3524  -9.7650
    -9.7619  -9.6254  -9.5242  -8.9859  -8.8009  -8.6715  -8.6023  -8.0438
    -7.9021  -7.7640  -7.6411  -7.5815  -7.5743  -7.5361  -7.5245  -6.3587
    -6.3488  -6.1253  -6.0212  -6.0199  -5.9501  -5.8905  -5.8602  -5.8453
    -5.4970  -5.4847  -5.2968  -4.8897  -4.8393  -4.7988  -4.6347  -4.6215
    -4.5827  -4.4258  -4.2551  -4.1470  -3.9890  -3.9876  -3.9693  -3.9459
    -3.6202  -3.5499  -3.5272  -3.5200  -3.4219  -3.4184  -3.4067  -3.4002
    -3.2768  -3.1865  -3.1234  -3.0569  -3.0161  -3.0072  -3.0068  -3.0063
    -2.9914  -2.8585  -2.8351  -2.7986  -2.7813  -2.7453  -2.7401  -2.7384
    -2.7190  -2.7149  -2.5315  -2.4336  -2.3769  -2.3762  -2.3392  -2.3360
    -2.1940  -2.1918  -2.1824  -2.1771  -2.1519  -2.1516  -2.1516  -2.1515
    -2.1138  -2.0784  -2.0780  -2.0356  -2.0209  -2.0207  -2.0207  -2.0204
    -1.9600  -1.8413  -1.7767  -1.7413  -1.7384  -1.7378  -1.7374  -1.7029
    -1.6927  -1.6715  -1.6581  -1.6565  -1.6100  -1.6011  -1.5888  -1.5699
    -1.5640  -1.5632  -1.5613  -1.5508  -1.5396  -1.5350  -1.5346  -1.5152
    -1.5138  -1.4550  -1.4410  -1.4242  -1.4155  -1.3845  -1.3818  -1.3762
    -1.3721  -1.3527  -1.2989  -1.2961  -1.2637  -1.2618  -1.2505  -1.2113
    -1.2111  -1.1915  -1.1895  -1.1768  -1.1667  -1.1639  -1.1264  -1.1197
    -1.1094  -1.1070  -1.0493  -1.0463  -1.0354  -1.0299  -1.0265  -1.0247
    -1.0243  -1.0218  -1.0203  -1.0155  -1.0151  -0.9981  -0.9965  -0.9807
    -0.9515  -0.9424  -0.9383  -0.9340  -0.9230  -0.9188  -0.9176  -0.9171
    -0.9000  -0.8581  -0.8578  -0.8564  -0.8559  -0.8552  -0.8542  -0.8535
    -0.8526  -0.8525  -0.8493  -0.8480  -0.8480  -0.8475  -0.8455  -0.8425
    -0.8418  -0.8322  -0.8295  -0.8287  -0.8242  -0.7854  -0.6895  -0.6894
    -0.6854  -0.6827  -0.6827  -0.6603  -0.6583  -0.6412  -0.6410  -0.6195
    -0.6195  -0.6051  -0.6043  -0.6027  -0.6022  -0.5875  -0.5642  -0.5635
    -0.5616  -0.5611  -0.5536  -0.5527  -0.5419  -0.5418  -0.4919  -0.4918
    -0.4380  -0.4376  -0.4273  -0.4257  -0.4255  -0.4243  -0.4104  -0.4102
    -0.4046  -0.4045  -0.4041  -0.4038  -0.3994  -0.3993  -0.3848  -0.3848
    -0.3819  -0.3770  -0.3753  -0.3743  -0.3508  -0.3501  -0.2991  -0.2985
    -0.2966  -0.2908  -0.2906  -0.2642  -0.2641  -0.2641  -0.2641  -0.2488
    -0.2467  -0.2465  -0.2422  -0.2421  -0.2229  -0.2212  -0.2193  -0.2190
    -0.2145  -0.2142  -0.2142  -0.2138  -0.2113  -0.2085  -0.1929  -0.1898
    -0.1891  -0.1878  -0.1872  -0.1683  -0.1201  -0.1199  -0.1179  -0.1177
    -0.1152  -0.0738  -0.0698  -0.0692  -0.0681  -0.0679  -0.0623  -0.0618
    -0.0616  -0.0615  -0.0612  -0.0528  -0.0462  -0.0347  -0.0102  -0.0095
    -0.0074  -0.0067   0.0013   0.0173   0.0216   0.0218   0.0220   0.0265
     0.0303   0.0458   0.0464   0.0479   0.0487   0.0494   0.0496   0.0633
     0.0640   0.0640   0.0642   0.0688   0.0772   0.0774   0.0784   0.1008
     0.1021   0.1343   0.1355   0.1399   0.1568   0.1646   0.1651   0.1891
     0.1938   0.2299   0.2380   0.2387   0.2391   0.2401   0.2435   0.2467
     0.2712   0.2736   0.2738   0.2740   0.2743   0.2842   0.2843   0.2949
     0.3266   0.3410   0.3410   0.3473   0.3498   0.3507   0.3509   0.3776
     0.3836   0.3838   0.3844   0.3847   0.3971   0.4150   0.4183   0.4232
     0.4233   0.4371   0.4379   0.4392   0.4407   0.4786   0.4795   0.4943
     0.4952   0.4968   0.4971   0.4973   0.5092   0.5257   0.5297   0.5313
     0.5331   0.5347   0.5359   0.5361   0.5378   0.5401   0.5472   0.5476
     0.5496   0.5533   0.5543   0.5561   0.5626   0.5644   0.5947   0.5961
     0.6060   0.6061   0.6166   0.6168   0.6485   0.6492   0.6502   0.6508
     0.6527   0.6531   0.6536   0.6542   0.6651   0.6659   0.6740   0.6766
     0.6793   0.6793   0.6813   0.6854   0.6877   0.6880   0.6975   0.6987
     0.7192   0.7208   0.7210   0.7218   0.7314   0.7323   0.7391   0.7429
     0.7465   0.7488   0.7488   0.7495   0.7555   0.7574   0.7595   0.7611
     0.7687   0.7842   0.8060   0.8062   0.8166   0.8179   0.8238   0.8244
     0.8246   0.8255   0.8559   0.8563   0.8701   0.8712   0.8764   0.8765
     0.8911   0.8912   0.9002   0.9007   0.9010   0.9027   0.9093   0.9230
     0.9360   0.9374   0.9397   0.9420   0.9426   0.9440   0.9572   0.9625
     0.9724   0.9780   0.9864   0.9865   0.9973   1.0070   1.0106   1.0114
     1.0133   1.0137   1.0140   1.0154   1.0197   1.0245   1.0264   1.0287
     1.0289   1.0294   1.0312   1.0441   1.0441   1.0626   1.0630   1.0643
     1.0651   1.0706   1.0739   1.1001   1.1044   1.1059   1.1088   1.1092
     1.1098   1.1127   1.1144   1.1156   1.1198   1.1199   1.1200   1.1201
     1.1224   1.1359   1.1363   1.1602   1.1664   1.1837   1.1842   1.1929
     1.2016   1.2038   1.2039   1.2053   1.2062   1.2070   1.2201   1.2222
     1.2259   1.2385   1.2397   1.2401   1.2404   1.2413   1.2451   1.2467
     1.2468   1.2552   1.2741   1.2753   1.2762   1.2763   1.2774   1.2777
     1.2786   1.2788   1.2945   1.2949   1.2965   1.3036   1.3102   1.3108
     1.3114   1.3118   1.3121   1.3219   1.3242   1.3250   1.3396   1.3447
     1.3509   1.3557   1.3560   1.3566   1.3575   1.3579   1.3594   1.3711
     1.3842   1.3869   1.3884   1.3934   1.4033   1.4164   1.4165   1.4229
     1.4229   1.4230   1.4293   1.4303   1.4324   1.4344   1.4347   1.4349
     1.4352   1.4371   1.4387   1.4460   1.4465   1.4504   1.4677   1.4677
     1.4686   1.4687   1.4721   1.4797   1.4809   1.4968   1.5042   1.5067
     1.5100   1.5209   1.5571   1.5576   1.5605   1.5616   1.5797   1.5801
     1.5802   1.5879   1.5914   1.6062   1.6298   1.6323   1.6327   1.6332
     1.6336   1.6435   1.6441   1.6444   1.9003   1.9561   2.1050   2.1082
     2.1477   2.1548   2.2005   2.2056   2.2061   2.2070   2.2160   2.2251
     2.2260   2.2268   2.3987   2.4021   2.4542   2.4659   2.4674   2.4678
     2.4785   2.4809   2.6448   2.7211   2.7260   2.7266   2.7584   2.9744
     2.9904   3.0222   3.1689   3.5200   3.5227   3.8136   3.8186   3.8463
     3.8534   3.8556   3.8561   3.8924   3.9677   3.9802   3.9866   4.0060
     4.0090   4.0097   4.0101   4.0137   4.0149   4.2373   4.2485   4.2489
     4.2499   4.3663   4.4017   4.6399   4.7654   4.8469   4.8732   4.9218
     5.3057   5.3918   5.3992   5.4059   5.6996   5.7100   5.7224   5.7244
     5.9192   5.9301   6.2121   6.3421   6.3445   6.4085   6.4147   6.4754
     6.4784   6.4808   6.4828   6.5659   6.5797   6.5989   6.7157   6.7767
     6.7805   6.7934   6.8127   6.8182   7.0163   7.0508   7.0522   7.0670
     7.0740   7.0915   7.3564   7.3578   7.5106   7.5474   7.5524   7.6917
     7.6956   7.7077   7.7084   8.0002   8.0389   8.0982   8.1446   8.1915
     8.2135   8.2991   8.3027   8.3042   8.3350   8.3367   8.3486   8.3996
     8.4012   8.4205   8.4901   8.5582   8.5740   8.5798   8.6622   8.6648
     8.6668   8.6674   8.8130   8.8155   8.8296   8.8321   8.8379   8.8394
     9.1070   9.1092   9.1104   9.1159   9.1200   9.1384   9.1745   9.3165
     9.3446   9.3501   9.4222   9.4804   9.4910   9.5773   9.5786   9.6617
     9.6709   9.8145   9.8311  10.0438  10.0442  10.1238  10.1474

          k = 0.0000-0.2165 0.0000 (256176 PWs)   bands (ev):

   -17.2705 -16.3032 -15.8943 -15.6605 -15.0704 -14.6790 -14.3581 -14.3400
   -14.2666 -14.2325 -13.8270 -13.7723 -13.7210 -13.6937 -12.5993 -12.4470
   -12.3909 -12.3037 -12.1457 -12.0806 -10.6533 -10.5519 -10.5195 -10.3931
    -9.4542  -9.4371  -9.2990  -9.1243  -8.9852  -8.9577  -8.4040  -8.2860
    -8.2128  -8.1618  -7.4785  -7.3422  -7.0151  -6.9723  -6.9090  -6.8946
    -6.8504  -6.8425  -6.1890  -6.0832  -5.8906  -5.8824  -5.5179  -5.3870
    -5.2861  -5.2138  -5.1395  -4.9648  -4.9128  -4.8414  -4.8379  -4.7404
    -4.6824  -4.6316  -4.6132  -4.4706  -4.1541  -4.0480  -3.8262  -3.6935
    -3.6621  -3.5906  -3.3151  -3.3046  -3.3019  -3.3009  -3.2456  -3.2273
    -3.1354  -3.0932  -3.0675  -3.0485  -3.0391  -3.0310  -3.0017  -2.8994
    -2.8688  -2.8676  -2.8296  -2.7914  -2.7740  -2.7135  -2.6970  -2.6014
    -2.5879  -2.5876  -2.5783  -2.5780  -2.5776  -2.5768  -2.4767  -2.3692
    -2.3363  -2.3327  -2.2531  -2.2511  -2.2467  -2.2449  -2.1479  -2.1454
    -2.1450  -2.1434  -2.0852  -2.0415  -1.9865  -1.9864  -1.9609  -1.9609
    -1.8762  -1.8654  -1.8526  -1.8118  -1.7906  -1.7820  -1.7681  -1.7672
    -1.7495  -1.7493  -1.7405  -1.7405  -1.7224  -1.7222  -1.6452  -1.6451
    -1.6239  -1.5879  -1.5731  -1.5673  -1.5603  -1.4677  -1.4667  -1.4626
    -1.4621  -1.3771  -1.3757  -1.3706  -1.3703  -1.3697  -1.3165  -1.3164
    -1.2797  -1.2785  -1.2746  -1.2745  -1.2720  -1.2720  -1.2532  -1.2489
    -1.2288  -1.2286  -1.2235  -1.2227  -1.2129  -1.2115  -1.1700  -1.1535
    -1.1499  -1.1488  -1.1325  -1.1321  -1.0887  -1.0886  -1.0504  -1.0504
    -1.0472  -1.0471  -1.0042  -1.0030  -0.9837  -0.9834  -0.9824  -0.9820
    -0.9779  -0.9777  -0.9271  -0.9265  -0.9191  -0.9186  -0.9106  -0.9105
    -0.9009  -0.8982  -0.8970  -0.8966  -0.8351  -0.8280  -0.8279  -0.8183
    -0.8182  -0.8180  -0.8170  -0.8143  -0.7956  -0.7952  -0.7819  -0.7808
    -0.7548  -0.7544  -0.7514  -0.7504  -0.6545  -0.6545  -0.6540  -0.6539
    -0.6333  -0.6330  -0.6240  -0.6093  -0.6068  -0.6059  -0.6046  -0.6012
    -0.6011  -0.5843  -0.5752  -0.5749  -0.5413  -0.5409  -0.5402  -0.5398
    -0.5377  -0.5362  -0.5346  -0.5331  -0.5037  -0.5037  -0.4836  -0.4836
    -0.4827  -0.4743  -0.4482  -0.4474  -0.4471  -0.4468  -0.4437  -0.4359
    -0.4353  -0.4353  -0.4348  -0.4139  -0.3714  -0.3573  -0.3571  -0.3568
    -0.3567  -0.3289  -0.3248  -0.3034  -0.3030  -0.3027  -0.2989  -0.2963
    -0.2955  -0.2951  -0.2723  -0.2696  -0.2690  -0.2685  -0.2671  -0.2583
    -0.2553  -0.2477  -0.2468  -0.2467  -0.2458  -0.2431  -0.2430  -0.2334
    -0.2329  -0.2327  -0.2065  -0.2063  -0.2044  -0.2043  -0.1802  -0.1609
    -0.1417  -0.1401  -0.1399  -0.1379  -0.1326  -0.1313  -0.1286  -0.1282
    -0.1280  -0.1185  -0.1030  -0.1012  -0.0883  -0.0880  -0.0861  -0.0859
    -0.0768  -0.0766  -0.0750  -0.0738  -0.0737  -0.0733  -0.0419  -0.0171
    -0.0168  -0.0134  -0.0133   0.0024   0.0033   0.0053   0.0059   0.0111
     0.0114   0.0117   0.0286   0.0294   0.0300   0.0310   0.0425   0.0465
     0.0586   0.0600   0.0758   0.0760   0.0761   0.0766   0.0943   0.0959
     0.1110   0.1111   0.1221   0.1222   0.1345   0.1354   0.1357   0.1362
     0.1797   0.1808   0.1837   0.1844   0.1958   0.1967   0.2017   0.2023
     0.2290   0.2292   0.2614   0.2631   0.2645   0.2678   0.3004   0.3004
     0.3089   0.3385   0.3860   0.3863   0.3866   0.3874   0.3986   0.4128
     0.4131   0.4132   0.4142   0.4262   0.4418   0.4507   0.4509   0.4525
     0.4552   0.4553   0.4557   0.4573   0.4653   0.4664   0.4771   0.4787
     0.4794   0.4804   0.4812   0.4819   0.4826   0.4830   0.5164   0.5166
     0.5277   0.5278   0.5284   0.5285   0.5362   0.5362   0.5445   0.5552
     0.5567   0.5574   0.5580   0.5581   0.5585   0.5586   0.5591   0.5595
     0.5819   0.5820   0.5834   0.5838   0.5840   0.5846   0.5855   0.5855
     0.6016   0.6018   0.6448   0.6449   0.6569   0.6572   0.6671   0.6680
     0.6689   0.6697   0.6751   0.6758   0.6762   0.6770   0.6820   0.6826
     0.6834   0.6835   0.7236   0.7245   0.7245   0.7255   0.7401   0.7415
     0.7418   0.7425   0.7429   0.7440   0.7546   0.7584   0.7750   0.7759
     0.7798   0.7813   0.7822   0.7823   0.8341   0.8350   0.8846   0.8859
     0.8899   0.8941   0.8943   0.8945   0.9029   0.9042   0.9110   0.9112
     0.9172   0.9173   0.9207   0.9252   0.9258   0.9269   0.9376   0.9388
     0.9413   0.9416   0.9422   0.9425   0.9526   0.9558   0.9593   0.9667
     0.9667   0.9683   0.9690   0.9708   0.9710   0.9740   0.9778   0.9779
     0.9894   0.9894   0.9903   0.9920   0.9929   0.9934   1.0114   1.0116
     1.0210   1.0243   1.0256   1.0275   1.0291   1.0300   1.0387   1.0388
     1.0396   1.0397   1.0406   1.0408   1.0816   1.0892   1.1002   1.1159
     1.1274   1.1275   1.1417   1.1436   1.1498   1.1550   1.1568   1.1570
     1.1701   1.1704   1.1838   1.1859   1.1920   1.1931   1.1954   1.1972
     1.1984   1.1990   1.1993   1.1998   1.2002   1.2015   1.2030   1.2034
     1.2103   1.2105   1.2202   1.2227   1.2291   1.2314   1.2318   1.2318
     1.2394   1.2409   1.2662   1.2695   1.2699   1.2700   1.2767   1.2769
     1.2792   1.2798   1.2919   1.2960   1.2974   1.2979   1.3102   1.3108
     1.3129   1.3137   1.3146   1.3155   1.3321   1.3327   1.3331   1.3337
     1.3516   1.3519   1.3531   1.3553   1.3708   1.3726   1.3782   1.3792
     1.3794   1.3803   1.3950   1.3952   1.3953   1.3956   1.4119   1.4126
     1.4264   1.4265   1.4268   1.4287   1.4467   1.4471   1.4486   1.4492
     1.4504   1.4504   1.4511   1.4516   1.4791   1.4792   1.4871   1.4878
     1.4940   1.4968   1.5005   1.5043   1.5188   1.5195   1.5197   1.5200
     1.5288   1.5289   1.5411   1.5411   1.5803   1.5854   1.5878   1.5883
     1.6730   1.6889   1.6949   1.7133   1.7165   1.7292   1.7302   1.7343
     1.7831   1.7866   1.7923   1.7932   1.8052   1.8118   1.8121   1.8131
     1.8534   1.8535   1.8854   2.0604   2.0663   2.0977   2.4140   2.4154
     2.4194   2.4199   2.4958   2.4983   2.5577   2.5647   2.5651   2.5664
     2.5813   2.5821   2.7088   2.7109   2.7562   2.7603   2.7789   2.7801
     2.9232   2.9243   3.1698   3.1699   3.1782   3.1912   3.3935   3.4147
     3.5820   3.6703   3.6822   3.9157   3.9334   3.9740   4.0854   4.0938
     4.0983   4.1014   4.3210   4.3250   4.3280   4.3296   4.4960   4.4983
     4.6624   4.6892   4.7642   4.7705   4.9091   5.0687   5.0986   5.1026
     5.3004   5.3585   5.3593   5.3601   5.3607   5.4317   5.5113   5.6557
     5.6756   5.7387   5.7673   5.8129   6.3811   6.3901   6.4206   6.4236
     6.4357   6.4379   6.5494   6.5577   6.6630   6.6679   6.7998   6.8120
     6.9917   7.0123   7.0359   7.0403   7.0783   7.0801   7.1116   7.1207
     7.1267   7.1300   7.2332   7.3374   7.3393   7.3751   7.3846   7.4074
     7.5301   7.6083   7.6969   7.7191   7.7373   7.7592   8.1429   8.1442
     8.3295   8.3569   8.3742   8.4222   8.4244   8.4253   8.4320   8.4446
     8.4472   8.4860   8.6375   8.6493   8.7141   8.7157   8.7202   8.7206
     8.7547   8.7613   8.8750   8.9149   8.9304   9.0145   9.0233   9.0614
     9.1432   9.1505   9.2312   9.2386   9.2815   9.3153   9.3856   9.3860
     9.3860   9.3862   9.4586   9.4597   9.4733   9.4806   9.4894   9.4920
     9.6604   9.6658   9.7862   9.7876   9.8077   9.8896   9.8899

          k = 0.2500 0.0000 0.0000 (256240 PWs)   bands (ev):

   -17.2188 -16.1279 -15.9657 -15.6619 -15.1441 -15.0059 -14.9459 -14.8939
   -14.1104 -13.9544 -13.7715 -13.2469 -13.1735 -13.0919 -13.0450 -12.3461
   -12.2371 -12.1545 -12.0747 -11.2316 -11.1452 -10.7897 -10.6724 -10.3590
   -10.2254  -9.9541  -9.9043  -9.5081  -9.2552  -9.1594  -8.6802  -7.9880
    -7.7971  -7.7283  -7.5668  -7.5432  -7.4474  -7.0942  -6.9778  -6.3020
    -6.2206  -6.0436  -5.9688  -5.9158  -5.8417  -5.4533  -5.3290  -5.3117
    -5.3015  -5.1652  -4.9236  -4.7440  -4.6335  -4.5428  -4.4667  -4.4650
    -4.4622  -4.4273  -4.3725  -4.2282  -4.1358  -4.0012  -4.0000  -3.9974
    -3.9097  -3.8447  -3.8403  -3.8097  -3.7942  -3.6310  -3.6007  -3.5738
    -3.5246  -3.4822  -3.4078  -3.4050  -3.2786  -3.2349  -3.2133  -3.1973
    -3.1422  -3.0361  -2.9561  -2.8959  -2.7997  -2.7986  -2.7912  -2.7525
    -2.6546  -2.6253  -2.6232  -2.5074  -2.4010  -2.3946  -2.3462  -2.3372
    -2.1276  -2.0990  -2.0968  -2.0823  -2.0799  -2.0600  -2.0034  -1.9900
    -1.9820  -1.8976  -1.8954  -1.8412  -1.8031  -1.8015  -1.7988  -1.7938
    -1.7934  -1.7846  -1.7736  -1.7460  -1.7349  -1.7237  -1.7198  -1.7169
    -1.7138  -1.6530  -1.6468  -1.6034  -1.5895  -1.5827  -1.5810  -1.5787
    -1.5781  -1.5774  -1.5482  -1.5270  -1.5139  -1.5037  -1.5020  -1.4907
    -1.4887  -1.3725  -1.3361  -1.3289  -1.3128  -1.2749  -1.2693  -1.2613
    -1.2440  -1.2428  -1.2377  -1.2365  -1.2298  -1.2201  -1.2076  -1.1978
    -1.1924  -1.1849  -1.1835  -1.1780  -1.1585  -1.1393  -1.1356  -1.1338
    -1.1329  -1.1323  -1.1168  -1.1117  -1.1108  -1.0913  -1.0767  -1.0669
    -1.0506  -1.0492  -1.0466  -1.0461  -1.0412  -1.0210  -1.0129  -1.0123
    -1.0043  -1.0020  -0.9967  -0.9922  -0.9816  -0.9812  -0.9810  -0.9802
    -0.9760  -0.9755  -0.9644  -0.9537  -0.9504  -0.9470  -0.9456  -0.9398
    -0.9218  -0.9017  -0.9005  -0.8959  -0.8527  -0.8521  -0.8162  -0.8162
    -0.7970  -0.7955  -0.7861  -0.7708  -0.7706  -0.7574  -0.7543  -0.7523
    -0.7499  -0.7426  -0.7414  -0.7222  -0.6073  -0.6028  -0.6000  -0.5969
    -0.5682  -0.5677  -0.5663  -0.5511  -0.5497  -0.5494  -0.5478  -0.5401
    -0.5313  -0.5268  -0.5267  -0.5243  -0.5165  -0.5060  -0.4945  -0.4874
    -0.4847  -0.4847  -0.4816  -0.4811  -0.4606  -0.4606  -0.4573  -0.4032
    -0.3994  -0.3993  -0.3964  -0.3912  -0.3894  -0.3834  -0.3802  -0.3762
    -0.3564  -0.3563  -0.3398  -0.3332  -0.3329  -0.3316  -0.3284  -0.3056
    -0.2948  -0.2947  -0.2917  -0.2898  -0.2816  -0.2809  -0.2708  -0.2688
    -0.2646  -0.2591  -0.2467  -0.2382  -0.2299  -0.2148  -0.2032  -0.1989
    -0.1985  -0.1962  -0.1918  -0.1818  -0.1801  -0.1799  -0.1789  -0.1633
    -0.1554  -0.1518  -0.1515  -0.1393  -0.1371  -0.1249  -0.1122  -0.1107
    -0.1107  -0.0659  -0.0636  -0.0632  -0.0553  -0.0548  -0.0454  -0.0271
    -0.0191  -0.0179  -0.0119  -0.0117  -0.0101  -0.0063   0.0012   0.0039
     0.0042   0.0061   0.0075   0.0081   0.0091   0.0129   0.0272   0.0332
     0.0337   0.0369   0.0401   0.0456   0.0588   0.0592   0.0705   0.0753
     0.0770   0.0937   0.1144   0.1146   0.1168   0.1170   0.1187   0.1340
     0.1388   0.1400   0.1417   0.1423   0.1425   0.1530   0.1773   0.1786
     0.1984   0.2536   0.2538   0.2551   0.2651   0.2716   0.2739   0.2750
     0.2770   0.2776   0.2827   0.2832   0.2844   0.2870   0.2879   0.2888
     0.2954   0.3052   0.3068   0.3077   0.3095   0.3212   0.3213   0.3268
     0.3289   0.3337   0.3359   0.3592   0.3595   0.3618   0.3775   0.3882
     0.3953   0.4054   0.4130   0.4250   0.4258   0.4425   0.4431   0.4448
     0.4477   0.4557   0.4605   0.4774   0.4801   0.4807   0.4854   0.4857
     0.4914   0.4920   0.4961   0.4962   0.5169   0.5215   0.5242   0.5316
     0.5396   0.5444   0.5447   0.5512   0.5520   0.5530   0.5549   0.5557
     0.5745   0.5794   0.5799   0.5915   0.5928   0.5938   0.5940   0.5967
     0.6100   0.6105   0.6136   0.6180   0.6183   0.6375   0.6377   0.6539
     0.6572   0.6632   0.6640   0.6668   0.6699   0.6718   0.6806   0.6894
     0.7014   0.7052   0.7241   0.7288   0.7403   0.7408   0.7448   0.7456
     0.7484   0.7546   0.7659   0.7713   0.7742   0.7784   0.7794   0.7881
     0.7900   0.7929   0.8036   0.8041   0.8153   0.8246   0.8246   0.8254
     0.8499   0.8517   0.8556   0.8566   0.8574   0.8796   0.8808   0.8914
     0.8930   0.8932   0.8942   0.8961   0.9018   0.9038   0.9040   0.9056
     0.9183   0.9447   0.9470   0.9493   0.9546   0.9549   0.9568   0.9689
     0.9695   0.9898   0.9912   0.9923   0.9930   0.9996   1.0015   1.0020
     1.0155   1.0169   1.0185   1.0190   1.0212   1.0222   1.0224   1.0254
     1.0282   1.0307   1.0325   1.0332   1.0371   1.0425   1.0553   1.0588
     1.0609   1.0628   1.0685   1.0690   1.0693   1.0760   1.0769   1.0902
     1.0907   1.1046   1.1071   1.1076   1.1080   1.1117   1.1221   1.1253
     1.1335   1.1361   1.1370   1.1442   1.1486   1.1545   1.1571   1.1578
     1.1594   1.1747   1.1837   1.1897   1.1910   1.1920   1.1924   1.2263
     1.2283   1.2353   1.2397   1.2431   1.2453   1.2510   1.2531   1.2534
     1.2538   1.2619   1.2634   1.2705   1.2754   1.2776   1.2790   1.2791
     1.2960   1.2972   1.3006   1.3008   1.3062   1.3116   1.3137   1.3145
     1.3154   1.3158   1.3177   1.3212   1.3237   1.3249   1.3326   1.3374
     1.3459   1.3496   1.3512   1.3514   1.3557   1.3558   1.3602   1.3652
     1.3738   1.3799   1.3804   1.3815   1.4035   1.4037   1.4121   1.4168
     1.4189   1.4227   1.4229   1.4256   1.4268   1.4269   1.4337   1.4339
     1.4349   1.4403   1.4412   1.4450   1.4607   1.4629   1.4634   1.4643
     1.4657   1.4694   1.4701   1.4828   1.4833   1.4898   1.4946   1.4983
     1.5060   1.5065   1.5079   1.5118   1.5144   1.5165   1.5460   1.5527
     1.5615   1.5682   1.5818   1.6235   1.6250   1.6283   1.6401   1.6547
     1.6598   1.7485   1.7530   1.7620   1.7628   1.7821   1.7876   1.7974
     1.8369   1.9599   2.0307   2.0609   2.0696   2.0799   2.0852   2.0875
     2.1895   2.2469   2.2531   2.5600   2.5616   2.5636   2.5655   2.9753
     2.9755   3.0085   3.1930   3.1936   3.2179   3.2180   3.2610   3.2788
     3.4545   3.4671   3.5593   3.5795   3.6046   3.6309   3.6562   3.7017
     3.7072   3.7158   3.7257   3.7820   3.8689   3.8717   3.9664   3.9691
     4.0517   4.1787   4.1858   4.1889   4.2801   4.3342   4.4128   4.5467
     4.7523   4.8169   4.8264   5.0896   5.1529   5.2180   5.2185   5.2289
     5.2548   5.3601   5.4622   5.4661   5.5057   5.5508   5.5817   5.5857
     5.6486   5.6781   5.6820   5.7320   5.7347   5.8012   5.8223   5.8250
     6.0085   6.0117   6.0234   6.0417   6.4140   6.6028   6.6912   6.6964
     6.7025   6.7481   6.7541   6.7887   6.8648   6.9259   7.0146   7.0359
     7.0503   7.0513   7.0660   7.2333   7.2379   7.2937   7.2984   7.5021
     7.5049   7.5161   7.5540   7.5678   7.6789   7.7592   7.7623   7.7896
     7.9943   8.0028   8.0342   8.0615   8.0907   8.1866   8.2048   8.2224
     8.2325   8.2604   8.3126   8.3132   8.3919   8.3950   8.4374   8.4707
     8.6438   8.6452   8.9452   8.9536   8.9835   8.9866   9.0078   9.1433
     9.1693   9.1893   9.2104   9.2247   9.2284   9.2551   9.2627   9.3371
     9.4003   9.4037   9.4384   9.4426   9.4858   9.5102   9.6416   9.6783
     9.7151   9.7200   9.8238   9.8322   9.8354   9.8472   9.9372

          k = 0.2500-0.2165 0.0000 (256316 PWs)   bands (ev):

   -17.2185 -16.1794 -15.8730 -15.5411 -15.4583 -15.1915 -14.7117 -14.5646
   -14.2554 -14.1159 -13.7210 -13.2700 -13.2529 -13.1602 -12.7669 -12.6633
   -12.1500 -12.0263 -11.5148 -11.4302 -11.2813 -11.1264 -10.9621 -10.6237
    -9.8682  -9.7843  -9.3903  -9.3568  -9.1049  -9.0504  -8.6752  -8.6255
    -8.4732  -8.4255  -7.2997  -7.0254  -6.8335  -6.6756  -6.5978  -6.5024
    -6.4513  -6.3185  -6.0847  -6.0321  -5.7135  -5.7043  -5.4278  -5.2557
    -5.1652  -5.0701  -4.9344  -4.8021  -4.6782  -4.6746  -4.5429  -4.5404
    -4.4782  -4.3490  -4.3457  -4.3166  -4.1885  -4.1611  -4.1491  -4.0503
    -3.9018  -3.7728  -3.7597  -3.7388  -3.5860  -3.5620  -3.5010  -3.4594
    -3.4581  -3.4552  -3.3635  -3.2901  -3.2534  -3.1990  -3.1426  -3.1020
    -3.0301  -2.9450  -2.9409  -2.9245  -2.9104  -2.9093  -2.8622  -2.8165
    -2.6941  -2.6566  -2.6050  -2.5055  -2.3329  -2.3136  -2.3117  -2.2684
    -2.1865  -2.1807  -2.1686  -2.1685  -2.1026  -2.0675  -2.0098  -2.0094
    -1.9779  -1.9766  -1.9724  -1.9690  -1.8954  -1.8299  -1.8222  -1.8128
    -1.8128  -1.7805  -1.7599  -1.7527  -1.7312  -1.7238  -1.7210  -1.7096
    -1.7094  -1.6930  -1.6786  -1.6776  -1.6762  -1.6760  -1.6671  -1.6669
    -1.5821  -1.5820  -1.5514  -1.4688  -1.4670  -1.3793  -1.3700  -1.3662
    -1.3608  -1.3299  -1.3296  -1.2775  -1.2773  -1.2698  -1.2626  -1.2625
    -1.2493  -1.2488  -1.2409  -1.2394  -1.2250  -1.2243  -1.2129  -1.2128
    -1.2108  -1.2039  -1.2007  -1.1983  -1.1871  -1.1871  -1.1726  -1.1334
    -1.1308  -1.1276  -1.1262  -1.1206  -1.1154  -1.1141  -1.1116  -1.0930
    -1.0830  -1.0815  -1.0397  -1.0394  -1.0354  -1.0295  -1.0261  -1.0239
    -0.9963  -0.9962  -0.9736  -0.9725  -0.9620  -0.9615  -0.9603  -0.9563
    -0.9556  -0.9522  -0.9503  -0.9342  -0.9240  -0.9239  -0.9131  -0.9049
    -0.8864  -0.8680  -0.8679  -0.8624  -0.8619  -0.8239  -0.7781  -0.7780
    -0.7738  -0.7737  -0.7705  -0.7693  -0.7243  -0.7214  -0.7147  -0.7124
    -0.7118  -0.7060  -0.7055  -0.6944  -0.6940  -0.6800  -0.6530  -0.6521
    -0.6154  -0.6142  -0.5804  -0.5677  -0.5664  -0.5663  -0.5637  -0.5611
    -0.5337  -0.5333  -0.5208  -0.5203  -0.5018  -0.5007  -0.4929  -0.4897
    -0.4885  -0.4734  -0.4598  -0.4585  -0.4527  -0.4504  -0.4428  -0.4426
    -0.4106  -0.4080  -0.4078  -0.3969  -0.3932  -0.3876  -0.3816  -0.3799
    -0.3679  -0.3675  -0.3633  -0.3631  -0.3572  -0.3554  -0.3521  -0.3519
    -0.3339  -0.3337  -0.3175  -0.3174  -0.2934  -0.2888  -0.2750  -0.2740
    -0.2611  -0.2565  -0.2400  -0.2399  -0.2352  -0.2310  -0.2178  -0.2174
    -0.2131  -0.2128  -0.1858  -0.1806  -0.1561  -0.1540  -0.1525  -0.1179
    -0.1178  -0.1089  -0.1088  -0.1050  -0.1036  -0.0875  -0.0874  -0.0848
    -0.0701  -0.0698  -0.0591  -0.0565  -0.0490  -0.0479  -0.0428  -0.0425
    -0.0405  -0.0398  -0.0144  -0.0135  -0.0122  -0.0057  -0.0042  -0.0030
    -0.0022  -0.0011  -0.0006   0.0012   0.0061   0.0073   0.0308   0.0316
     0.0317   0.0318   0.0347   0.0654   0.0655   0.0734   0.0738   0.0744
     0.0771   0.0958   0.1000   0.1021   0.1165   0.1316   0.1317   0.1340
     0.1411   0.1414   0.1517   0.1520   0.1549   0.1556   0.1689   0.1691
     0.1752   0.1763   0.2047   0.2051   0.2679   0.2692   0.2810   0.2816
     0.2827   0.2833   0.2850   0.2865   0.2881   0.2890   0.2920   0.2936
     0.3120   0.3170   0.3171   0.3194   0.3200   0.3280   0.3301   0.3317
     0.3344   0.3344   0.3661   0.3671   0.3790   0.3811   0.3820   0.3947
     0.4005   0.4028   0.4196   0.4436   0.4438   0.4481   0.4509   0.4516
     0.4574   0.4576   0.4690   0.4692   0.4726   0.4779   0.4795   0.4811
     0.4821   0.4829   0.4943   0.5122   0.5130   0.5181   0.5200   0.5345
     0.5347   0.5545   0.5666   0.5672   0.5678   0.5693   0.5993   0.6009
     0.6036   0.6051   0.6075   0.6086   0.6124   0.6145   0.6252   0.6260
     0.6272   0.6286   0.6327   0.6362   0.6481   0.6485   0.6589   0.6599
     0.6680   0.6681   0.6711   0.6711   0.6784   0.6806   0.6816   0.6866
     0.6891   0.6894   0.7018   0.7052   0.7098   0.7108   0.7158   0.7165
     0.7190   0.7191   0.7205   0.7211   0.7546   0.7563   0.7672   0.7678
     0.7822   0.7880   0.8035   0.8071   0.8229   0.8234   0.8246   0.8247
     0.8303   0.8311   0.8396   0.8538   0.8539   0.8543   0.8544   0.8553
     0.8558   0.8625   0.8664   0.8784   0.8831   0.8843   0.8908   0.8948
     0.8998   0.9052   0.9179   0.9286   0.9286   0.9440   0.9509   0.9517
     0.9587   0.9596   0.9643   0.9646   0.9710   0.9711   0.9751   0.9916
     0.9990   1.0033   1.0069   1.0172   1.0184   1.0277   1.0308   1.0382
     1.0466   1.0609   1.0626   1.0665   1.0792   1.0804   1.0867   1.0870
     1.0894   1.0895   1.0909   1.0909   1.0952   1.0953   1.1048   1.1053
     1.1141   1.1157   1.1168   1.1180   1.1356   1.1366   1.1608   1.1656
     1.1661   1.1696   1.1713   1.1726   1.1744   1.1762   1.1799   1.1834
     1.1862   1.1905   1.1913   1.1915   1.1988   1.1995   1.2010   1.2022
     1.2076   1.2095   1.2176   1.2204   1.2232   1.2234   1.2244   1.2247
     1.2361   1.2370   1.2449   1.2450   1.2678   1.2695   1.2775   1.2779
     1.2835   1.2919   1.2937   1.2960   1.3038   1.3099   1.3104   1.3123
     1.3191   1.3219   1.3305   1.3309   1.3346   1.3364   1.3433   1.3450
     1.3476   1.3478   1.3564   1.3598   1.3603   1.3714   1.3789   1.3807
     1.3813   1.3813   1.3863   1.3871   1.3912   1.3920   1.3971   1.4050
     1.4052   1.4105   1.4112   1.4168   1.4197   1.4207   1.4286   1.4332
     1.4361   1.4372   1.4374   1.4427   1.4440   1.4441   1.4446   1.4468
     1.4534   1.4534   1.4781   1.4782   1.4858   1.4860   1.4960   1.5009
     1.5151   1.5189   1.5246   1.5266   1.5274   1.5495   1.5499   1.5566
     1.5569   1.5766   1.5825   1.5888   1.6142   1.6467   1.6614   1.6628
     1.7120   1.7500   1.7585   1.7648   1.7687   1.7818   1.7852   1.7857
     1.7860   1.8049   1.8349   1.8426   2.1243   2.1249   2.1565   2.1578
     2.2821   2.2864   2.5817   2.5832   2.7773   2.7831   2.7864   2.7871
     2.7984   2.8018   2.8277   2.8313   2.9795   2.9827   3.0675   3.0795
     3.5233   3.5358   3.5825   3.6036   3.6524   3.6742   3.7696   3.8353
     3.8404   3.8448   3.8715   3.9914   3.9936   4.0578   4.0867   4.1603
     4.1619   4.3239   4.3709   4.3725   4.4298   4.5430   4.5443   4.6153
     4.6661   4.6769   4.7077   4.7219   4.9172   4.9247   4.9944   5.0126
     5.0199   5.1294   5.2583   5.2749   5.3927   5.4336   5.4395   5.4500
     5.4516   5.4724   5.7430   5.7577   5.8111   5.8812   5.8871   5.9495
     5.9536   5.9647   6.5751   6.5875   6.6056   6.6153   6.7351   6.7441
     6.8132   6.8501   6.8679   7.0190   7.0238   7.0445   7.0689   7.0882
     7.0982   7.1187   7.1953   7.2135   7.2153   7.3197   7.3253   7.3283
     7.3323   7.3929   7.4361   7.4373   7.6536   7.6598   7.7603   7.7851
     7.7882   7.8643   7.9721   7.9786   8.1829   8.1910   8.2358   8.2464
     8.2593   8.3912   8.5793   8.5813   8.5941   8.6037   8.6363   8.6377
     8.7042   8.7062   8.8018   8.8149   8.8990   8.9080   8.9384   8.9425
     9.0699   9.1155   9.1353   9.1466   9.1715   9.1728   9.1892   9.2036
     9.2135   9.2620   9.2677   9.2995   9.3407   9.3503   9.4251   9.4394
     9.4464   9.4787   9.6257   9.6267   9.9538   9.9600   9.9675

          k =-0.5000 0.0000 0.0000 (256496 PWs)   bands (ev):

   -17.1564 -16.0106 -15.7428 -15.6294 -15.6097 -15.5606 -14.8117 -14.6179
   -14.5152 -14.4819 -13.2035 -12.9078 -12.7681 -12.7015 -12.4583 -12.4302
   -11.9127 -11.8918 -11.8082 -11.8002 -11.2461 -11.2057 -10.9812 -10.7492
   -10.3351 -10.3027 -10.0792  -9.7621  -9.1475  -9.1466  -8.9780  -8.9457
    -7.8129  -7.6411  -7.5850  -7.4116  -7.3685  -7.3469  -6.3053  -6.2253
    -5.8450  -5.3251  -5.3205  -5.3089  -5.1429  -4.9908  -4.9700  -4.8643
    -4.8079  -4.8036  -4.8029  -4.8021  -4.7760  -4.7652  -4.7387  -4.6932
    -4.6668  -4.5436  -4.5424  -4.4734  -4.3806  -4.3768  -4.2907  -4.0551
    -4.0160  -3.9965  -3.9672  -3.9657  -3.6915  -3.6746  -3.6035  -3.5742
    -3.5732  -3.5560  -3.4279  -3.4205  -3.4197  -3.4187  -3.4185  -3.4131
    -3.3770  -3.3650  -2.9454  -2.9311  -2.8961  -2.8544  -2.8129  -2.7875
    -2.7671  -2.7599  -2.6219  -2.6091  -2.5677  -2.4790  -2.4512  -2.4399
    -2.3067  -2.3035  -2.3026  -2.3023  -1.8790  -1.8789  -1.8787  -1.8787
    -1.8765  -1.8764  -1.8659  -1.8163  -1.7796  -1.7593  -1.7565  -1.7554
    -1.6862  -1.6514  -1.6510  -1.6499  -1.6497  -1.6023  -1.6021  -1.6012
    -1.6010  -1.5115  -1.5061  -1.4885  -1.4883  -1.4878  -1.4777  -1.4541
    -1.4303  -1.4263  -1.4251  -1.4244  -1.4066  -1.4064  -1.3573  -1.3572
    -1.3549  -1.3543  -1.3520  -1.3431  -1.3424  -1.3404  -1.3399  -1.3378
    -1.2937  -1.2922  -1.2920  -1.2909  -1.2694  -1.2683  -1.2675  -1.2673
    -1.2268  -1.2046  -1.2042  -1.1832  -1.1827  -1.1821  -1.1819  -1.1592
    -1.1559  -1.1546  -1.1519  -1.1516  -1.1504  -1.1493  -1.1082  -1.1080
    -1.1068  -1.1067  -1.0859  -1.0858  -1.0727  -1.0567  -1.0556  -1.0554
    -1.0096  -1.0094  -1.0092  -0.9812  -0.9808  -0.9796  -0.9794  -0.9554
    -0.9532  -0.9528  -0.9513  -0.9478  -0.9460  -0.9431  -0.9318  -0.9316
    -0.9290  -0.9289  -0.9074  -0.9024  -0.8908  -0.8405  -0.8403  -0.8386
    -0.8370  -0.7946  -0.7945  -0.7132  -0.7116  -0.7115  -0.7110  -0.7054
    -0.6870  -0.6816  -0.6730  -0.6729  -0.6720  -0.6719  -0.6672  -0.6622
    -0.6388  -0.6337  -0.6299  -0.6298  -0.6223  -0.6182  -0.6104  -0.6045
    -0.6004  -0.5987  -0.5711  -0.5314  -0.5209  -0.5106  -0.4856  -0.4731
    -0.4664  -0.4653  -0.4564  -0.4563  -0.4311  -0.4160  -0.4132  -0.4102
    -0.4058  -0.4058  -0.4043  -0.4043  -0.3934  -0.3819  -0.3682  -0.3681
    -0.3678  -0.3677  -0.3293  -0.3292  -0.3284  -0.3283  -0.3092  -0.2957
    -0.2956  -0.2955  -0.2947  -0.2839  -0.2839  -0.2541  -0.2510  -0.2510
    -0.2496  -0.2496  -0.2474  -0.2409  -0.2284  -0.2134  -0.2023  -0.2004
    -0.1811  -0.1358  -0.1354  -0.1354  -0.1339  -0.1288  -0.1287  -0.1278
    -0.1276  -0.0886  -0.0882  -0.0868  -0.0860  -0.0638  -0.0522  -0.0517
    -0.0258  -0.0256  -0.0237  -0.0235  -0.0220  -0.0217  -0.0208  -0.0207
    -0.0202  -0.0201  -0.0196  -0.0190   0.0547   0.0554   0.0614   0.0631
     0.0662   0.0670   0.0720   0.0723   0.0729   0.0731   0.0778   0.0779
     0.0799   0.0800   0.0837   0.0843   0.0887   0.0892   0.1022   0.1022
     0.1150   0.1163   0.1166   0.1167   0.1169   0.1169   0.1213   0.1278
     0.1280   0.1280   0.1285   0.1409   0.1411   0.1434   0.1532   0.1533
     0.1534   0.1536   0.1735   0.1816   0.1823   0.1942   0.2513   0.2655
     0.2865   0.2866   0.2873   0.2875   0.3191   0.3197   0.3204   0.3208
     0.3346   0.3347   0.3405   0.3411   0.3438   0.3446   0.3451   0.3458
     0.3491   0.3500   0.3521   0.3524   0.3528   0.3538   0.3667   0.3668
     0.3690   0.3748   0.3818   0.3838   0.3895   0.3900   0.3952   0.3954
     0.3991   0.4002   0.4318   0.4376   0.4906   0.4919   0.4920   0.4926
     0.5007   0.5023   0.5200   0.5239   0.5254   0.5265   0.5286   0.5292
     0.5305   0.5317   0.5328   0.5330   0.5355   0.5362   0.5373   0.5376
     0.5440   0.5448   0.5455   0.5466   0.5586   0.5655   0.5813   0.5835
     0.5838   0.6006   0.6066   0.6122   0.6191   0.6197   0.6221   0.6225
     0.6304   0.6305   0.6315   0.6316   0.6335   0.6340   0.6460   0.6477
     0.6514   0.6520   0.6675   0.6686   0.6692   0.6695   0.7061   0.7061
     0.7068   0.7069   0.7074   0.7074   0.7252   0.7258   0.7491   0.7581
     0.7660   0.7667   0.7671   0.7676   0.7678   0.7685   0.7954   0.8064
     0.8346   0.8353   0.8376   0.8393   0.8400   0.8403   0.8441   0.8454
     0.8489   0.8524   0.8531   0.8533   0.8624   0.8651   0.8748   0.8850
     0.8850   0.8866   0.8868   0.8998   0.9057   0.9060   0.9063   0.9064
     0.9077   0.9081   0.9430   0.9455   0.9459   0.9460   0.9567   0.9938
     1.0123   1.0123   1.0125   1.0129   1.0423   1.0463   1.0468   1.0470
     1.0475   1.0486   1.0653   1.0663   1.0761   1.0768   1.0781   1.0848
     1.0895   1.0900   1.1092   1.1104   1.1154   1.1156   1.1164   1.1166
     1.1239   1.1243   1.1245   1.1251   1.1348   1.1349   1.1364   1.1369
     1.1374   1.1379   1.1382   1.1384   1.1723   1.1743   1.1757   1.1757
     1.1855   1.1995   1.2054   1.2073   1.2107   1.2109   1.2119   1.2120
     1.2298   1.2306   1.2347   1.2401   1.2408   1.2410   1.2425   1.2504
     1.2509   1.2515   1.2516   1.2566   1.2623   1.2664   1.2691   1.2726
     1.2983   1.2988   1.3127   1.3138   1.3142   1.3144   1.3146   1.3147
     1.3148   1.3149   1.3254   1.3268   1.3283   1.3284   1.3285   1.3285
     1.3309   1.3312   1.3358   1.3364   1.3413   1.3415   1.3419   1.3422
     1.3491   1.3494   1.3641   1.3642   1.3796   1.3820   1.3829   1.3833
     1.3911   1.3914   1.3930   1.3933   1.4069   1.4095   1.4131   1.4133
     1.4288   1.4296   1.4338   1.4345   1.4403   1.4475   1.4478   1.4478
     1.4489   1.4660   1.4684   1.4687   1.4696   1.4714   1.4786   1.4787
     1.4789   1.4789   1.4829   1.4864   1.4982   1.4983   1.5123   1.5126
     1.5127   1.5130   1.5130   1.5243   1.5259   1.5262   1.5763   1.5765
     1.6002   1.6060   1.6064   1.6106   1.6106   1.6170   2.0238   2.0271
     2.0290   2.0293   2.2313   2.2329   2.2467   2.2508   2.2834   2.2837
     2.2903   2.2911   2.6030   2.6128   2.6155   2.6171   2.8256   2.8274
     2.8332   2.8356   3.1810   3.1828   3.1854   3.1864   3.4646   3.4679
     3.7144   3.7502   3.7525   3.7547   3.8594   3.9174   3.9189   3.9235
     3.9475   4.0658   4.0715   4.0726   4.0915   4.1810   4.1844   4.3859
     4.3947   4.4859   4.7191   4.7410   4.7472   4.7500   4.8046   4.8239
     4.8253   4.8523   4.9268   5.0187   5.0199   5.0370   5.0423   5.0458
     5.0464   5.0526   5.0713   5.0726   5.0961   5.1013   5.1538   5.1613
     5.4722   5.5156   5.5298   5.5333   5.6482   5.6558   5.7589   5.8269
     5.9840   5.9874   5.9955   6.0026   6.0292   6.0336   6.0388   6.0394
     6.1945   6.4023   6.4289   6.4323   6.4335   6.4345   6.4477   6.4796
     7.0800   7.0887   7.1072   7.1103   7.1153   7.1166   7.5646   7.5745
     7.5970   7.5975   7.5990   7.5996   7.6266   7.6283   7.8106   7.8155
     7.8792   7.8812   7.8831   7.8835   8.0411   8.0467   8.0483   8.0532
     8.1140   8.1187   8.1267   8.1312   8.1616   8.1962   8.6469   8.6898
     8.6919   8.7062   8.8225   8.8276   8.8302   8.8314   8.9596   8.9859
     8.9886   9.0634   9.0685   9.0704   9.0914   9.2585   9.2605   9.3747
     9.4251   9.4479   9.4918   9.4942   9.4943   9.4951   9.5064   9.5083
     9.5132   9.5141   9.5309   9.5341   9.8241   9.8314  10.0191

          k =-0.5000-0.2165 0.0000 (256328 PWs)   bands (ev):

   -17.1563 -15.9789 -15.8211 -15.7959 -15.3888 -15.2197 -15.1512 -15.1151
   -14.0549 -13.8408 -13.7104 -13.6736 -12.6794 -12.4559 -12.0024 -11.9976
   -11.9222 -11.7777 -11.6753 -11.5874 -11.5430 -11.5310 -11.4243 -11.4054
   -10.0433 -10.0363  -9.7698  -9.7244  -9.2260  -8.9127  -8.7984  -8.7591
    -8.2677  -8.2322  -8.0222  -8.0006  -6.5323  -6.3383  -6.1228  -5.9495
    -5.8409  -5.6260  -5.3894  -5.3173  -5.3080  -5.2163  -5.2128  -5.1815
    -5.1797  -5.1795  -5.0200  -5.0057  -4.9425  -4.5113  -4.3883  -4.3523
    -4.3268  -4.3206  -4.2643  -4.2147  -4.2016  -4.1982  -4.1977  -4.1973
    -4.0815  -4.0744  -3.9155  -3.8779  -3.8653  -3.8584  -3.7559  -3.7464
    -3.7030  -3.6907  -3.5966  -3.5923  -3.5898  -3.4875  -3.4667  -3.4567
    -3.1724  -3.0870  -3.0725  -3.0621  -2.6361  -2.5830  -2.5808  -2.5789
    -2.5786  -2.5785  -2.5443  -2.5288  -2.5236  -2.5231  -2.4095  -2.3538
    -2.1582  -2.1530  -2.1108  -2.1009  -2.0965  -2.0955  -2.0524  -2.0502
    -2.0218  -2.0182  -2.0171  -2.0114  -1.9342  -1.8030  -1.8028  -1.8019
    -1.8018  -1.7722  -1.7398  -1.7274  -1.5686  -1.5236  -1.5090  -1.5025
    -1.4933  -1.4933  -1.4932  -1.4932  -1.4591  -1.4560  -1.4538  -1.4537
    -1.4336  -1.4333  -1.4332  -1.4331  -1.3842  -1.3840  -1.3838  -1.3835
    -1.3823  -1.3820  -1.3816  -1.3814  -1.3585  -1.3584  -1.3583  -1.3582
    -1.3089  -1.3082  -1.3072  -1.3072  -1.3040  -1.2380  -1.2334  -1.2326
    -1.2322  -1.1909  -1.1909  -1.1906  -1.1906  -1.1720  -1.1713  -1.1708
    -1.1704  -1.1283  -1.1219  -1.1217  -1.1214  -1.1166  -1.1156  -1.1155
    -1.1154  -1.1133  -1.0956  -1.0922  -1.0905  -1.0895  -1.0571  -1.0570
    -1.0567  -1.0567  -1.0406  -1.0400  -1.0400  -1.0399  -1.0373  -1.0370
    -1.0367  -1.0366  -1.0365  -1.0153  -0.8826  -0.8823  -0.8819  -0.8817
    -0.8533  -0.8528  -0.8525  -0.8524  -0.8048  -0.7709  -0.7700  -0.7697
    -0.7691  -0.7690  -0.7680  -0.7667  -0.7627  -0.7621  -0.7612  -0.7611
    -0.7057  -0.7003  -0.7001  -0.6997  -0.6929  -0.6887  -0.6883  -0.6880
    -0.6770  -0.6676  -0.6670  -0.6669  -0.6437  -0.5829  -0.5712  -0.5711
    -0.5678  -0.5672  -0.5670  -0.5664  -0.5016  -0.4983  -0.4977  -0.4976
    -0.4913  -0.4493  -0.4486  -0.4485  -0.4464  -0.4284  -0.4283  -0.4271
    -0.4270  -0.4098  -0.3999  -0.3997  -0.3891  -0.3891  -0.3883  -0.3882
    -0.3742  -0.3495  -0.3488  -0.3472  -0.3154  -0.2736  -0.2736  -0.2729
    -0.2728  -0.2575  -0.2575  -0.2569  -0.2569  -0.2409  -0.2405  -0.2402
    -0.2373  -0.1603  -0.1593  -0.1581  -0.1574  -0.1533  -0.1532  -0.1528
    -0.1527  -0.1515  -0.1492  -0.1491  -0.1468  -0.1125  -0.1125  -0.1124
    -0.1123  -0.1001  -0.0999  -0.0998  -0.0990  -0.0964  -0.0960  -0.0956
    -0.0956  -0.0731  -0.0268  -0.0264  -0.0260  -0.0258  -0.0007  -0.0002
     0.0011   0.0035   0.0485   0.0487   0.0535   0.0546   0.0613   0.0652
     0.0788   0.0797   0.0804   0.0806   0.0836   0.0865   0.0871   0.0898
     0.0900   0.0916   0.0922   0.0935   0.1004   0.1005   0.1010   0.1013
     0.1064   0.1065   0.1066   0.1067   0.1218   0.1227   0.1231   0.1231
     0.1487   0.1510   0.1512   0.1512   0.1513   0.1604   0.1612   0.1616
     0.1651   0.2098   0.2108   0.2109   0.2113   0.2231   0.2390   0.2438
     0.2440   0.2478   0.2585   0.3085   0.3140   0.3170   0.3247   0.3274
     0.3288   0.3290   0.3313   0.3410   0.3450   0.3458   0.3462   0.3485
     0.3597   0.3611   0.3612   0.3616   0.3621   0.3657   0.3676   0.3685
     0.3693   0.3699   0.3712   0.3728   0.3825   0.3862   0.3962   0.3994
     0.4489   0.4493   0.4519   0.4539   0.4579   0.4581   0.4585   0.4594
     0.4693   0.4694   0.4697   0.4702   0.5046   0.5075   0.5082   0.5086
     0.5101   0.5106   0.5111   0.5113   0.5361   0.5535   0.5537   0.5544
     0.5545   0.5591   0.5671   0.5677   0.5677   0.5682   0.5684   0.5691
     0.5764   0.5767   0.5770   0.5771   0.5885   0.5899   0.5903   0.5906
     0.6048   0.6059   0.6095   0.6102   0.6579   0.6761   0.6764   0.6792
     0.6794   0.6823   0.6832   0.6832   0.6836   0.6842   0.6910   0.6918
     0.6943   0.7022   0.7070   0.7105   0.7282   0.7284   0.7294   0.7294
     0.7314   0.7315   0.7320   0.7323   0.7710   0.7783   0.7836   0.7837
     0.7938   0.8098   0.8116   0.8116   0.8128   0.8208   0.8294   0.8341
     0.8476   0.8478   0.8484   0.8485   0.8693   0.8712   0.8725   0.8727
     0.9253   0.9254   0.9260   0.9261   0.9575   0.9578   0.9601   0.9601
     1.0009   1.0105   1.0113   1.0133   1.0148   1.0226   1.0269   1.0274
     1.0284   1.0370   1.0375   1.0380   1.0391   1.0442   1.0443   1.0445
     1.0446   1.0471   1.0474   1.0482   1.0483   1.0583   1.0719   1.0747
     1.0762   1.0764   1.0774   1.0779   1.0785   1.0787   1.0794   1.0828
     1.0926   1.0942   1.0973   1.0985   1.1174   1.1196   1.1218   1.1222
     1.1255   1.1274   1.1313   1.1324   1.1409   1.1410   1.1419   1.1420
     1.1889   1.1908   1.1941   1.1946   1.1949   1.1952   1.1959   1.1980
     1.2202   1.2209   1.2212   1.2213   1.2316   1.2360   1.2380   1.2386
     1.2395   1.2438   1.2554   1.2559   1.2701   1.2703   1.2705   1.2707
     1.2786   1.2789   1.2801   1.2803   1.2852   1.2857   1.2864   1.2864
     1.3468   1.3523   1.3525   1.3530   1.3530   1.3538   1.3539   1.3546
     1.3547   1.3596   1.3613   1.3636   1.3673   1.3697   1.3709   1.3712
     1.3757   1.3769   1.3810   1.3812   1.3840   1.3855   1.3862   1.3870
     1.3926   1.3933   1.3941   1.3945   1.3993   1.4001   1.4034   1.4042
     1.4143   1.4148   1.4151   1.4153   1.4474   1.4478   1.4480   1.4480
     1.4604   1.4619   1.4631   1.4632   1.4752   1.4762   1.4784   1.4787
     1.4978   1.4987   1.5002   1.5004   1.5406   1.5436   1.5498   1.5508
     1.5724   1.5725   1.5731   1.5732   1.6015   1.6020   1.6034   1.6041
     1.6058   1.6077   1.6087   1.6091   1.6148   1.6151   1.6155   1.6158
     1.8320   1.8339   1.8342   1.8347   2.3275   2.3366   2.3420   2.3426
     2.5548   2.5568   2.5587   2.5588   2.7861   2.7915   2.7929   2.7935
     3.0755   3.0861   3.0874   3.0887   3.4484   3.4521   3.4523   3.4525
     3.6296   3.6377   3.6409   3.6412   3.8963   3.9278   3.9278   3.9280
     3.9919   4.2243   4.2254   4.2260   4.2336   4.3192   4.3286   4.3365
     4.3382   4.5121   4.5519   4.5540   4.5603   4.5634   4.5911   4.5956
     4.6789   4.7903   4.8303   4.8869   4.8904   5.0091   5.0326   5.0699
     5.1598   5.1685   5.1695   5.1713   5.1970   5.2614   5.2904   5.3033
     5.3193   5.3384   5.3456   5.3485   5.5255   5.5934   5.7332   5.7359
     5.7450   5.7459   5.7484   5.7490   5.8448   5.8579   5.8816   5.8826
     6.7813   6.7833   6.7840   6.7846   7.1065   7.1160   7.1225   7.1231
     7.1448   7.1480   7.1496   7.1509   7.2569   7.2654   7.2667   7.2727
     7.3617   7.3653   7.3660   7.3664   7.5398   7.5998   7.6036   7.6102
     7.6492   7.8957   7.9470   7.9552   7.9707   7.9789   7.9906   7.9943
     8.2214   8.2376   8.2397   8.2435   8.2465   8.2837   8.3595   8.3647
     8.8866   8.8898   8.8906   8.8913   8.9207   8.9217   8.9235   8.9246
     8.9621   8.9649   8.9662   8.9669   9.1058   9.1096   9.1177   9.1181
     9.3073   9.3247   9.3379   9.3442   9.5170   9.5214   9.5353   9.5378
     9.5622   9.5634   9.5689   9.5727   9.9261   9.9377   9.9667

     the Fermi energy is     3.3209 ev

!    total energy              =  -12707.14344481 Ry
     Harris-Foulkes estimate   =  -12707.14344483 Ry
     estimated scf accuracy    <          8.9E-09 Ry

     The total energy is the sum of the following terms:

     one-electron contribution = -109279.29194314 Ry
     hartree contribution      =   56001.05634342 Ry
     xc contribution           =   -4447.77414108 Ry
     ewald contribution        =   45025.20963737 Ry
     Dispersion Correction     =      -2.98793101 Ry
     smearing contrib. (-TS)   =      -3.35541036 Ry

     convergence has been achieved in  45 iterations

     Writing output data file gc.save
 
     init_run     :     98.90s CPU    106.25s WALL (       1 calls)
     electrons    :  12191.09s CPU  13049.69s WALL (       1 calls)

     Called by init_run:
     wfcinit      :     96.73s CPU    103.73s WALL (       1 calls)
     potinit      :      0.35s CPU      0.37s WALL (       1 calls)

     Called by electrons:
     c_bands      :  11196.57s CPU  11955.99s WALL (      45 calls)
     sum_band     :    822.68s CPU    893.93s WALL (      45 calls)
     v_of_rho     :      3.00s CPU      3.60s WALL (      46 calls)
     newd         :      7.46s CPU     13.48s WALL (      46 calls)
     mix_rho      :    161.30s CPU    182.60s WALL (      45 calls)

     Called by c_bands:
     init_us_2    :     36.09s CPU     37.41s WALL (     546 calls)
     cegterg      :  11037.12s CPU  11785.78s WALL (     276 calls)

     Called by sum_band:
     sum_band:bec :      4.74s CPU      5.33s WALL (     270 calls)
     addusdens    :      7.88s CPU     13.40s WALL (      45 calls)

     Called by *egterg:
     h_psi        :   4063.54s CPU   4404.73s WALL (    1887 calls)
     s_psi        :   1021.44s CPU   1032.71s WALL (    1887 calls)
     g_psi        :     10.23s CPU     10.24s WALL (    1605 calls)
     cdiaghg      :   3113.00s CPU   3234.87s WALL (    1875 calls)

     Called by h_psi:
     add_vuspsi   :   1025.74s CPU   1039.45s WALL (    1887 calls)

     General routines
     calbec       :   1415.23s CPU   1426.55s WALL (    2157 calls)
     fft          :      3.33s CPU      3.89s WALL (     597 calls)
     ffts         :     94.74s CPU    107.28s WALL (   24964 calls)
     fftw         :   2280.61s CPU   2560.75s WALL ( 1304626 calls)
     davcio       :      0.18s CPU      3.44s WALL (       6 calls)
 
     Parallel routines
     fft_scatter  :   1451.42s CPU   1608.01s WALL ( 1330187 calls)
 
     PWSCF        :     3h24m CPU        3h39m WALL

 
   This run was terminated on:   4:37:10   8Sep2017            

=------------------------------------------------------------------------------=
   JOB DONE.
=------------------------------------------------------------------------------=
