
     Program PWSCF v.5.4.0 starts on  1May2017 at  8:48:22 

     This program is part of the open-source Quantum ESPRESSO suite
     for quantum simulation of materials; please cite
         "P. Giannozzi et al., J. Phys.:Condens. Matter 21 395502 (2009);
          URL http://www.quantum-espresso.org", 
     in publications or presentations arising from this work. More details at
     http://www.quantum-espresso.org/quote

     Parallel version (MPI & OpenMP), running on      56 processor cores
     Number of MPI processes:                56
     Threads/MPI process:                     1
     R & G space division:  proc/nbgrp/npool/nimage =      56
     Waiting for input...
     Reading input from standard input
Warning: card &IONS ignored
Warning: card / ignored

     Current dimensions of program PWSCF are:
     Max number of different atomic species (ntypx) = 10
     Max number of k-points (npk) =  40000
     Max angular momentum in pseudopotentials (lmaxx) =  3

     -------------------------------------
     Parameters for Dispersion Correction:
     -------------------------------------
       atom      VdW radius       C_6     

        Cu         2.952        374.666
        C_h        2.744         60.710
        C          2.744         60.710
        H          1.892          4.857

     Subspace diagonalization in iterative solution of the eigenvalue problem:
     one sub-group per band group will be used
     scalapack distributed-memory algorithm (size of sub-group:  5*  5 procs)

 
     Parallelization info
     --------------------
     sticks:   dense  smooth     PW     G-vecs:    dense   smooth      PW
     Min         204     204     54                36612    36612    4962
     Max         205     205     55                36617    36617    4968
     Sum       11433   11433   3039              2050409  2050409  278033
 


     bravais-lattice index     =            0
     lattice parameter (alat)  =      13.9425  a.u.
     unit-cell volume          =   21209.0878 (a.u.)^3
     number of atoms/cell      =          150
     number of atomic types    =            4
     number of electrons       =      1294.00
     number of Kohn-Sham states=          776
     kinetic-energy cutoff     =      80.0000  Ry
     charge density cutoff     =     320.0000  Ry
     convergence threshold     =      1.0E-08
     mixing beta               =       0.7000
     number of iterations used =            8  local-TF  mixing
     Exchange-correlation      =  SLA  PW   PBE  PBE ( 1  4  3  4 0 0)

     celldm(1)=  13.942539  celldm(2)=   0.000000  celldm(3)=   0.000000
     celldm(4)=   0.000000  celldm(5)=   0.000000  celldm(6)=   0.000000

     crystal axes: (cart. coord. in units of alat)
               a(1) = (   1.000000   0.000000   0.000000 )  
               a(2) = (   0.000000   2.309401   0.000000 )  
               a(3) = (   0.000000   0.000000   3.388418 )  

     reciprocal axes: (cart. coord. in units 2 pi/alat)
               b(1) = (  1.000000  0.000000  0.000000 )  
               b(2) = (  0.000000  0.433013  0.000000 )  
               b(3) = (  0.000000  0.000000  0.295123 )  


     PseudoPot. # 1 for Cu read from file:
     /home/549/hxw549/Short/pseudopotentials/Cu.pbe-n-van_ak.UPF
     MD5 check sum: 601f7c30f7467666bec936e0661ce3e1
     Pseudo is Ultrasoft + core correction, Zval = 11.0
     Generated by new atomic code, or converted to UPF format
     Using radial grid of  867 points,  6 beta functions with: 
                l(1) =   0
                l(2) =   0
                l(3) =   1
                l(4) =   1
                l(5) =   2
                l(6) =   2
     Q(r) pseudized with  8 coefficients,  rinner =    1.400   1.400   1.400
                                                       1.400   1.400

     PseudoPot. # 2 for C  read from file:
     /home/549/hxw549/Short/pseudopotentials/C.star1s-pbe-mt_gipaw.UPF
     MD5 check sum: ef0cb3dee31bd9e4ba2a832a2c716264
     Pseudo is Norm-conserving, Zval =  5.0
     Generated by new atomic code, or converted to UPF format
     Using radial grid of 1073 points,  1 beta functions with: 
                l(1) =   0

     PseudoPot. # 3 for C  read from file:
     /home/549/hxw549/Short/pseudopotentials/C.pbe-mt_gipaw.UPF
     MD5 check sum: 5ac2f21f2c440b14befe521540822c15
     Pseudo is Norm-conserving, Zval =  4.0
     Generated by new atomic code, or converted to UPF format
     Using radial grid of 1073 points,  1 beta functions with: 
                l(1) =   0

     PseudoPot. # 4 for H  read from file:
     /home/549/hxw549/Short/pseudopotentials/H.pbe-van_ak.UPF
     MD5 check sum: 077eb6d537518a38cb46c6de387227b7
     Pseudo is Ultrasoft, Zval =  1.0
     Generated by new atomic code, or converted to UPF format
     Using radial grid of  615 points,  1 beta functions with: 
                l(1) =   0
     Q(r) pseudized with  8 coefficients,  rinner =    0.800

     atomic species   valence    mass     pseudopotential
        Cu            11.00    63.54600     Cu( 1.00)
        C_h            5.00    12.01070     C ( 1.00)
        C              4.00    12.01070     C ( 1.00)
        H              1.00     1.00783     H ( 1.00)

     No symmetry found



   Cartesian axes

     site n.     atom                  positions (alat units)
         1           Cu  tau(   1) = (   0.0000919   0.0002316   0.9987459  )
         2           Cu  tau(   2) = (   0.2500608   0.2313422   0.9986560  )
         3           Cu  tau(   3) = (   0.5000559   0.0002569   0.9986982  )
         4           Cu  tau(   4) = (   0.7500949   0.2314102   0.9988092  )
         5           Cu  tau(   5) = (   0.0000733   0.4621721   0.9985440  )
         6           Cu  tau(   6) = (   0.2500962   0.6929017   0.9981624  )
         7           Cu  tau(   7) = (   0.5000988   0.4621718   0.9985475  )
         8           Cu  tau(   8) = (   0.7500930   0.6928823   0.9982088  )
         9           Cu  tau(   9) = (   0.0000822   0.9236183   0.9979416  )
        10           Cu  tau(  10) = (   0.2501215   1.1543049   0.9981078  )
        11           Cu  tau(  11) = (   0.5001082   0.9236142   0.9979840  )
        12           Cu  tau(  12) = (   0.7500653   1.1542869   0.9981949  )
        13           Cu  tau(  13) = (   0.0000921   1.3848839   0.9985403  )
        14           Cu  tau(  14) = (   0.2500884   1.6154746   0.9989221  )
        15           Cu  tau(  15) = (   0.5000855   1.3848573   0.9987145  )
        16           Cu  tau(  16) = (   0.7500809   1.6155229   0.9989338  )
        17           Cu  tau(  17) = (   0.0001056   1.8465206   0.9988634  )
        18           Cu  tau(  18) = (   0.2500826   2.0781047   0.9988097  )
        19           Cu  tau(  19) = (   0.5000543   1.8465227   0.9988342  )
        20           Cu  tau(  20) = (   0.7500690   2.0780250   0.9985623  )
        21           Cu  tau(  21) = (   0.0001558   0.2316251   1.2472335  )
        22           Cu  tau(  22) = (   0.2500763   0.0004221   1.2468628  )
        23           Cu  tau(  23) = (   0.5000595   0.2316031   1.2471440  )
        24           Cu  tau(  24) = (   0.7501210   0.0000719   1.2464898  )
        25           Cu  tau(  25) = (   0.0001786   0.6932610   1.2468641  )
        26           Cu  tau(  26) = (   0.2501143   0.4625386   1.2470684  )
        27           Cu  tau(  27) = (   0.5001345   0.6932158   1.2468571  )
        28           Cu  tau(  28) = (   0.7501458   0.4626033   1.2472386  )
        29           Cu  tau(  29) = (   0.0002022   1.1538536   1.2469961  )
        30           Cu  tau(  30) = (   0.2501511   0.9236315   1.2467472  )
        31           Cu  tau(  31) = (   0.5000991   1.1537473   1.2471984  )
        32           Cu  tau(  32) = (   0.7501581   0.9235895   1.2467964  )
        33           Cu  tau(  33) = (   0.0001614   1.6150823   1.2474850  )
        34           Cu  tau(  34) = (   0.2501328   1.3841450   1.2476041  )
        35           Cu  tau(  35) = (   0.5000748   1.6152235   1.2474914  )
        36           Cu  tau(  36) = (   0.7501317   1.3842908   1.2474566  )
        37           Cu  tau(  37) = (   0.0001775   2.0780482   1.2464335  )
        38           Cu  tau(  38) = (   0.2500819   1.8464294   1.2469514  )
        39           Cu  tau(  39) = (   0.5000260   2.0780571   1.2463402  )
        40           Cu  tau(  40) = (   0.7501350   1.8466074   1.2468146  )
        41           Cu  tau(  41) = (   0.0002946  -0.0001701   1.4956456  )
        42           Cu  tau(  42) = (   0.2501863   0.2321383   1.4969122  )
        43           Cu  tau(  43) = (   0.4999891  -0.0002208   1.4954507  )
        44           Cu  tau(  44) = (   0.7501747   0.2312501   1.4958839  )
        45           Cu  tau(  45) = (   0.0004356   0.4632209   1.4970349  )
        46           Cu  tau(  46) = (   0.2503312   0.6936162   1.4971319  )
        47           Cu  tau(  47) = (   0.5000865   0.4631679   1.4969599  )
        48           Cu  tau(  48) = (   0.7504028   0.6936701   1.4970478  )
        49           Cu  tau(  49) = (   0.0005039   0.9234888   1.4974851  )
        50           Cu  tau(  50) = (   0.2502472   1.1526190   1.4982066  )
        51           Cu  tau(  51) = (   0.5002313   0.9231018   1.4975484  )
        52           Cu  tau(  52) = (   0.7504336   1.1530786   1.4974338  )
        53           Cu  tau(  53) = (   0.0004108   1.3833185   1.4976842  )
        54           Cu  tau(  54) = (   0.2500898   1.6148558   1.4969539  )
        55           Cu  tau(  55) = (   0.5000969   1.3834757   1.4974071  )
        56           Cu  tau(  56) = (   0.7502866   1.6151345   1.4965213  )
        57           Cu  tau(  57) = (   0.0001917   1.8466826   1.4959292  )
        58           Cu  tau(  58) = (   0.2500956   2.0780177   1.4954864  )
        59           Cu  tau(  59) = (   0.5001167   1.8469305   1.4958586  )
        60           Cu  tau(  60) = (   0.7501829   2.0780930   1.4954862  )
        61           Cu  tau(  61) = (   0.0007775   0.2309508   1.7440249  )
        62           Cu  tau(  62) = (   0.2503161  -0.0008350   1.7446016  )
        63           Cu  tau(  63) = (   0.4999464   0.2304797   1.7441712  )
        64           Cu  tau(  64) = (   0.7501365  -0.0005288   1.7443952  )
        65           Cu  tau(  65) = (   0.0013623   0.6939929   1.7480172  )
        66           Cu  tau(  66) = (   0.2510771   0.4648501   1.7478613  )
        67           Cu  tau(  67) = (   0.5005687   0.6939015   1.7487506  )
        68           Cu  tau(  68) = (   0.7502018   0.4624007   1.7446871  )
        69           Cu  tau(  69) = (   0.0013105   1.1518301   1.7496610  )
        70           Cu  tau(  70) = (   0.2512460   0.9214887   1.7506302  )
        71           Cu  tau(  71) = (   0.5004369   1.1517942   1.7481557  )
        72           Cu  tau(  72) = (   0.7509203   0.9230797   1.7484028  )
        73           Cu  tau(  73) = (   0.0004936   1.6154487   1.7454767  )
        74           Cu  tau(  74) = (   0.2501476   1.3827323   1.7473588  )
        75           Cu  tau(  75) = (   0.5001925   1.6156317   1.7443592  )
        76           Cu  tau(  76) = (   0.7509625   1.3833964   1.7459575  )
        77           Cu  tau(  77) = (   0.0001031   2.0779212   1.7449489  )
        78           Cu  tau(  78) = (   0.2500076   1.8473287   1.7446935  )
        79           Cu  tau(  79) = (   0.5002818   2.0781908   1.7449505  )
        80           Cu  tau(  80) = (   0.7504487   1.8471757   1.7446367  )
        81           Cu  tau(  81) = (   0.0004240  -0.0001522   1.9900766  )
        82           Cu  tau(  82) = (   0.2505362   0.2304765   1.9891646  )
        83           Cu  tau(  83) = (   0.5003170  -0.0004802   1.9916035  )
        84           Cu  tau(  84) = (   0.7508297   0.2300475   1.9890208  )
        85           Cu  tau(  85) = (   0.0007134   0.4615681   1.9886491  )
        86           Cu  tau(  86) = (   0.2555377   0.6923694   2.0041176  )
        87           Cu  tau(  87) = (   0.5018602   0.4586886   1.9914437  )
        88           Cu  tau(  88) = (   0.7496439   0.6912560   1.9926309  )
        89           Cu  tau(  89) = (   0.0027475   0.9204858   1.9979469  )
        90           Cu  tau(  90) = (   0.2526709   1.1520246   1.9975839  )
        91           Cu  tau(  91) = (   0.5025490   0.9235215   2.0015700  )
        92           Cu  tau(  92) = (   0.7508204   1.1539531   1.9940355  )
        93           Cu  tau(  93) = (   0.0014989   1.3847037   1.9932512  )
        94           Cu  tau(  94) = (   0.2499708   1.6164600   1.9898000  )
        95           Cu  tau(  95) = (   0.5004943   1.3857039   1.9900093  )
        96           Cu  tau(  96) = (   0.7511816   1.6158142   1.9892455  )
        97           Cu  tau(  97) = (   0.0001801   1.8474409   1.9918528  )
        98           Cu  tau(  98) = (   0.2503839   2.0779032   1.9912589  )
        99           Cu  tau(  99) = (   0.5004988   1.8464844   1.9899715  )
       100           Cu  tau( 100) = (   0.7501677   2.0781460   1.9911230  )
       101           C   tau( 101) = (  -0.0003040   0.0972297   2.3847638  )
       102           C   tau( 102) = (  -0.0003765   0.2895199   2.3803426  )
       103           C   tau( 103) = (   0.1663539   0.0011273   2.3863152  )
       104           C   tau( 104) = (   0.1662550   0.3851894   2.3755594  )
       105           C   tau( 105) = (   0.3329376   0.0969758   2.3818213  )
       106           C   tau( 106) = (   0.3329334   0.2892900   2.3754856  )
       107           C   tau( 107) = (   0.4997646   0.0009528   2.3837108  )
       108           C   tau( 108) = (   0.4996309   0.3858570   2.3733910  )
       109           C   tau( 109) = (   0.6666229   0.0973194   2.3827700  )
       110           C   tau( 110) = (   0.6667266   0.2896695   2.3769746  )
       111           C   tau( 111) = (   0.8330509   0.0011811   2.3869992  )
       112           C   tau( 112) = (   0.8333458   0.3859084   2.3781081  )
       113           C   tau( 113) = (  -0.0003680   0.6746180   2.3800255  )
       114           C   tau( 114) = (  -0.0004064   0.8679568   2.3724861  )
       115           C   tau( 115) = (   0.1668760   0.5778132   2.3777557  )
       116           C   tau( 116) = (   0.1634612   0.9654252   2.3879310  )
       117           C   tau( 117) = (   0.3328709   0.6722646   2.3863051  )
       118           C   tau( 118) = (   0.3249077   0.8629165   2.4553160  )
       119           H   tau( 119) = (   0.2898117   0.8427006   2.6008827  )
       120           C   tau( 120) = (   0.4987120   0.5783926   2.3806943  )
       121           C   tau( 121) = (   0.5061247   0.9664464   2.4580165  )
       122           H   tau( 122) = (   0.5407479   0.9796419   2.6045574  )
       123           C   tau( 123) = (   0.6665974   0.6755722   2.3805660  )
       124           C   tau( 124) = (   0.6673444   0.8659745   2.3861427  )
       125           C   tau( 125) = (   0.8336502   0.5787306   2.3768762  )
       126           C   tau( 126) = (   0.8312723   0.9631555   2.3738225  )
       127           C   tau( 127) = (  -0.0019716   1.2521495   2.3750160  )
       128           C   tau( 128) = (  -0.0013290   1.4449106   2.3729733  )
       129           C   tau( 129) = (   0.1648442   1.1554723   2.3838475  )
       130           C   tau( 130) = (   0.1656843   1.5411912   2.3777721  )
       131           C_h tau( 131) = (   0.3330998   1.2527319   2.3892415  )
       132           C   tau( 132) = (   0.3324059   1.4451862   2.3817547  )
       133           C   tau( 133) = (   0.4984958   1.1595819   2.3974132  )
       134           C   tau( 134) = (   0.4987093   1.5415794   2.3828062  )
       135           C   tau( 135) = (   0.6639257   1.2531325   2.3818526  )
       136           C   tau( 136) = (   0.6649916   1.4456716   2.3776727  )
       137           C   tau( 137) = (   0.8315532   1.1563045   2.3783396  )
       138           C   tau( 138) = (   0.8319314   1.5413832   2.3751799  )
       139           C   tau( 139) = (  -0.0008312   1.8298647   2.3821881  )
       140           C   tau( 140) = (  -0.0005462   2.0221493   2.3876639  )
       141           C   tau( 141) = (   0.1659842   1.7335119   2.3822565  )
       142           C   tau( 142) = (   0.1661351   2.1182255   2.3880502  )
       143           C   tau( 143) = (   0.3325355   1.8297460   2.3874497  )
       144           C   tau( 144) = (   0.3328591   2.0220360   2.3885517  )
       145           C   tau( 145) = (   0.4990294   1.7338454   2.3860481  )
       146           C   tau( 146) = (   0.4995744   2.1180647   2.3887952  )
       147           C   tau( 147) = (   0.6657974   1.8297375   2.3866810  )
       148           C   tau( 148) = (   0.6660566   2.0220263   2.3886619  )
       149           C   tau( 149) = (   0.8322308   1.7336756   2.3810465  )
       150           C   tau( 150) = (   0.8329133   2.1182503   2.3883294  )

     number of k points=     6  gaussian smearing, width (Ry)=  0.1000
                       cart. coord. in units 2pi/alat
        k(    1) = (   0.0000000   0.0000000   0.0000000), wk =   0.2500000
        k(    2) = (   0.0000000  -0.2165064   0.0000000), wk =   0.2500000
        k(    3) = (   0.2500000   0.0000000   0.0000000), wk =   0.5000000
        k(    4) = (   0.2500000  -0.2165064   0.0000000), wk =   0.5000000
        k(    5) = (  -0.5000000   0.0000000   0.0000000), wk =   0.2500000
        k(    6) = (  -0.5000000  -0.2165064   0.0000000), wk =   0.2500000

     Dense  grid:  2050409 G-vectors     FFT dimensions: (  80, 192, 270)

     Largest allocated arrays     est. size (Mb)     dimensions
        Kohn-Sham Wavefunctions        54.52 Mb     (    4604,  776)
        NL pseudopotentials           129.97 Mb     (    4604, 1850)
        Each V/rho on FFT grid          1.17 Mb     (   76800)
        Each G-vector array             0.28 Mb     (   36616)
        G-vector shells                 0.14 Mb     (   17932)
     Largest temporary arrays     est. size (Mb)     dimensions
        Auxiliary wavefunctions       218.06 Mb     (    4604, 3104)
        Each subspace H/S matrix        5.87 Mb     (     620,  620)
        Each <psi_i|beta_j> matrix     21.91 Mb     (    1850,  776)
        Arrays for rho mixing           9.38 Mb     (   76800,    8)

     Initial potential from superposition of free atoms
     Check: negative starting charge=   -0.001838

     starting charge 1268.81749, renormalised to 1294.00000

     negative rho (up, down):  1.874E-03 0.000E+00
     Starting wfc are 1286 randomized atomic wfcs

     total cpu time spent up to now is      108.3 secs

     Self-consistent Calculation

     iteration #  1     ecut=    80.00 Ry     beta=0.70
     Davidson diagonalization with overlap
     c_bands:  1 eigenvalues not converged
     ethr =  1.00E-04,  avg # of iterations = 38.5

     negative rho (up, down):  2.416E+01 0.000E+00

     total cpu time spent up to now is     2123.7 secs

     total energy              =   -9792.68736637 Ry
     Harris-Foulkes estimate   =  -17284.25525648 Ry
     estimated scf accuracy    <  178547.06277562 Ry

     iteration #  2     ecut=    80.00 Ry     beta=0.70
     Davidson diagonalization with overlap
     ethr =  1.00E-02,  avg # of iterations = 11.0

     negative rho (up, down):  2.807E+01 0.000E+00

     total cpu time spent up to now is     3033.1 secs

     total energy              =  -12198.91377639 Ry
     Harris-Foulkes estimate   =  -13621.13518559 Ry
     estimated scf accuracy    <   23565.88011232 Ry

     iteration #  3     ecut=    80.00 Ry     beta=0.70
     Davidson diagonalization with overlap
     ethr =  1.00E-02,  avg # of iterations =  6.8

     negative rho (up, down):  2.887E+01 0.000E+00

     total cpu time spent up to now is     3566.2 secs

     total energy              =  -12416.66714310 Ry
     Harris-Foulkes estimate   =  -13363.85647944 Ry
     estimated scf accuracy    <    5935.39369698 Ry

     iteration #  4     ecut=    80.00 Ry     beta=0.70
     Davidson diagonalization with overlap
     ethr =  1.00E-02,  avg # of iterations =  5.3

     negative rho (up, down):  2.140E+01 0.000E+00

     total cpu time spent up to now is     4116.2 secs

     total energy              =  -12816.14291201 Ry
     Harris-Foulkes estimate   =  -13047.59312805 Ry
     estimated scf accuracy    <    1722.64073731 Ry

     iteration #  5     ecut=    80.00 Ry     beta=0.70
     Davidson diagonalization with overlap
     ethr =  1.00E-02,  avg # of iterations =  3.2

     negative rho (up, down):  1.668E+01 0.000E+00

     total cpu time spent up to now is     4384.7 secs

     total energy              =  -12819.95910587 Ry
     Harris-Foulkes estimate   =  -12929.30442103 Ry
     estimated scf accuracy    <    1217.17570328 Ry

     iteration #  6     ecut=    80.00 Ry     beta=0.70
     Davidson diagonalization with overlap
     ethr =  1.00E-02,  avg # of iterations =  3.0

     negative rho (up, down):  1.137E+01 0.000E+00

     total cpu time spent up to now is     4592.4 secs

     total energy              =  -12812.17286028 Ry
     Harris-Foulkes estimate   =  -12879.47418288 Ry
     estimated scf accuracy    <     503.31648792 Ry

     iteration #  7     ecut=    80.00 Ry     beta=0.70
     Davidson diagonalization with overlap
     ethr =  1.00E-02,  avg # of iterations =  2.0

     negative rho (up, down):  7.110E+00 0.000E+00

     total cpu time spent up to now is     4778.6 secs

     total energy              =  -12780.46881735 Ry
     Harris-Foulkes estimate   =  -12826.29030636 Ry
     estimated scf accuracy    <     361.41987364 Ry

     iteration #  8     ecut=    80.00 Ry     beta=0.70
     Davidson diagonalization with overlap
     ethr =  1.00E-02,  avg # of iterations =  2.0

     negative rho (up, down):  6.001E+00 0.000E+00

     total cpu time spent up to now is     4958.8 secs

     total energy              =  -12772.22259992 Ry
     Harris-Foulkes estimate   =  -12796.27597714 Ry
     estimated scf accuracy    <     547.49106673 Ry

     iteration #  9     ecut=    80.00 Ry     beta=0.70
     Davidson diagonalization with overlap
     ethr =  1.00E-02,  avg # of iterations =  1.5

     negative rho (up, down):  5.175E+00 0.000E+00

     total cpu time spent up to now is     5132.4 secs

     total energy              =  -12773.53977588 Ry
     Harris-Foulkes estimate   =  -12782.29913590 Ry
     estimated scf accuracy    <     143.43377344 Ry

     iteration # 10     ecut=    80.00 Ry     beta=0.70
     Davidson diagonalization with overlap
     ethr =  1.00E-02,  avg # of iterations =  1.0

     negative rho (up, down):  1.736E+00 0.000E+00

     total cpu time spent up to now is     5301.3 secs

     total energy              =  -12744.05355040 Ry
     Harris-Foulkes estimate   =  -12774.52637289 Ry
     estimated scf accuracy    <     121.25030693 Ry

     iteration # 11     ecut=    80.00 Ry     beta=0.70
     Davidson diagonalization with overlap
     ethr =  9.37E-03,  avg # of iterations =  1.8

     negative rho (up, down):  9.421E-01 0.000E+00

     total cpu time spent up to now is     5478.9 secs

     total energy              =  -12728.58293764 Ry
     Harris-Foulkes estimate   =  -12753.95347089 Ry
     estimated scf accuracy    <     263.25682513 Ry

     iteration # 12     ecut=    80.00 Ry     beta=0.70
     Davidson diagonalization with overlap
     ethr =  9.37E-03,  avg # of iterations =  2.3

     negative rho (up, down):  1.747E+00 0.000E+00

     total cpu time spent up to now is     5663.5 secs

     total energy              =  -12723.62230101 Ry
     Harris-Foulkes estimate   =  -12739.12811110 Ry
     estimated scf accuracy    <     265.78034920 Ry

     iteration # 13     ecut=    80.00 Ry     beta=0.70
     Davidson diagonalization with overlap
     ethr =  9.37E-03,  avg # of iterations =  1.5

     negative rho (up, down):  4.952E+00 0.000E+00

     total cpu time spent up to now is     5837.9 secs

     total energy              =  -12718.48700084 Ry
     Harris-Foulkes estimate   =  -12734.05191362 Ry
     estimated scf accuracy    <     251.07187820 Ry

     iteration # 14     ecut=    80.00 Ry     beta=0.70
     Davidson diagonalization with overlap
     ethr =  9.37E-03,  avg # of iterations =  1.3

     negative rho (up, down):  4.536E+00 0.000E+00

     total cpu time spent up to now is     6010.1 secs

     total energy              =  -12718.75961140 Ry
     Harris-Foulkes estimate   =  -12724.78053751 Ry
     estimated scf accuracy    <      56.46246657 Ry

     iteration # 15     ecut=    80.00 Ry     beta=0.70
     Davidson diagonalization with overlap
     ethr =  4.36E-03,  avg # of iterations =  3.2

     negative rho (up, down):  4.610E+00 0.000E+00

     total cpu time spent up to now is     6205.8 secs

     total energy              =  -12719.28053285 Ry
     Harris-Foulkes estimate   =  -12722.28980294 Ry
     estimated scf accuracy    <      41.12790077 Ry

     iteration # 16     ecut=    80.00 Ry     beta=0.70
     Davidson diagonalization with overlap
     ethr =  3.18E-03,  avg # of iterations =  2.3

     negative rho (up, down):  5.177E+00 0.000E+00

     total cpu time spent up to now is     6389.6 secs

     total energy              =  -12716.48486092 Ry
     Harris-Foulkes estimate   =  -12720.45562235 Ry
     estimated scf accuracy    <      25.86196133 Ry

     iteration # 17     ecut=    80.00 Ry     beta=0.70
     Davidson diagonalization with overlap
     ethr =  2.00E-03,  avg # of iterations =  2.7

     negative rho (up, down):  4.809E+00 0.000E+00

     total cpu time spent up to now is     6577.4 secs

     total energy              =  -12716.22599164 Ry
     Harris-Foulkes estimate   =  -12717.65190870 Ry
     estimated scf accuracy    <      18.48675837 Ry

     iteration # 18     ecut=    80.00 Ry     beta=0.70
     Davidson diagonalization with overlap
     ethr =  1.43E-03,  avg # of iterations =  3.8

     negative rho (up, down):  4.269E+00 0.000E+00

     total cpu time spent up to now is     6778.2 secs

     total energy              =  -12714.75434804 Ry
     Harris-Foulkes estimate   =  -12716.68451504 Ry
     estimated scf accuracy    <      13.00063382 Ry

     iteration # 19     ecut=    80.00 Ry     beta=0.70
     Davidson diagonalization with overlap
     ethr =  1.00E-03,  avg # of iterations =  7.8

     negative rho (up, down):  3.575E+00 0.000E+00

     total cpu time spent up to now is     7032.4 secs

     total energy              =  -12713.99727056 Ry
     Harris-Foulkes estimate   =  -12715.18613685 Ry
     estimated scf accuracy    <       8.29070982 Ry

     iteration # 20     ecut=    80.00 Ry     beta=0.70
     Davidson diagonalization with overlap
     ethr =  6.41E-04,  avg # of iterations =  2.3

     negative rho (up, down):  2.769E+00 0.000E+00

     total cpu time spent up to now is     7217.5 secs

     total energy              =  -12713.34259807 Ry
     Harris-Foulkes estimate   =  -12714.22767481 Ry
     estimated scf accuracy    <       7.23444541 Ry

     iteration # 21     ecut=    80.00 Ry     beta=0.70
     Davidson diagonalization with overlap
     ethr =  5.59E-04,  avg # of iterations =  1.0

     negative rho (up, down):  2.100E+00 0.000E+00

     total cpu time spent up to now is     7387.0 secs

     total energy              =  -12712.95428357 Ry
     Harris-Foulkes estimate   =  -12713.44872266 Ry
     estimated scf accuracy    <       6.43301896 Ry

     iteration # 22     ecut=    80.00 Ry     beta=0.70
     Davidson diagonalization with overlap
     ethr =  4.97E-04,  avg # of iterations =  3.5

     negative rho (up, down):  1.612E+00 0.000E+00

     total cpu time spent up to now is     7584.4 secs

     total energy              =  -12712.60595552 Ry
     Harris-Foulkes estimate   =  -12713.23215670 Ry
     estimated scf accuracy    <       6.71063881 Ry

     iteration # 23     ecut=    80.00 Ry     beta=0.70
     Davidson diagonalization with overlap
     ethr =  4.97E-04,  avg # of iterations =  1.0

     negative rho (up, down):  2.433E-01 0.000E+00

     total cpu time spent up to now is     7754.0 secs

     total energy              =  -12711.34634914 Ry
     Harris-Foulkes estimate   =  -12712.84172080 Ry
     estimated scf accuracy    <       5.09395170 Ry

     iteration # 24     ecut=    80.00 Ry     beta=0.70
     Davidson diagonalization with overlap
     ethr =  3.94E-04,  avg # of iterations = 11.0

     negative rho (up, down):  4.012E-02 0.000E+00

     total cpu time spent up to now is     8041.3 secs

     total energy              =  -12710.52826697 Ry
     Harris-Foulkes estimate   =  -12711.44219647 Ry
     estimated scf accuracy    <       5.19506264 Ry

     iteration # 25     ecut=    80.00 Ry     beta=0.70
     Davidson diagonalization with overlap
     ethr =  3.94E-04,  avg # of iterations =  1.0

     negative rho (up, down):  4.246E-04 0.000E+00

     total cpu time spent up to now is     8211.2 secs

     total energy              =  -12710.58197003 Ry
     Harris-Foulkes estimate   =  -12710.60970622 Ry
     estimated scf accuracy    <       3.74013139 Ry

     iteration # 26     ecut=    80.00 Ry     beta=0.70
     Davidson diagonalization with overlap
     ethr =  2.89E-04,  avg # of iterations =  5.0

     negative rho (up, down):  3.573E-02 0.000E+00

     total cpu time spent up to now is     8423.9 secs

     total energy              =  -12710.10934713 Ry
     Harris-Foulkes estimate   =  -12710.68519629 Ry
     estimated scf accuracy    <       2.72495052 Ry

     iteration # 27     ecut=    80.00 Ry     beta=0.70
     Davidson diagonalization with overlap
     ethr =  2.11E-04,  avg # of iterations =  2.3

     negative rho (up, down):  7.077E-02 0.000E+00

     total cpu time spent up to now is     8608.0 secs

     total energy              =  -12709.68319893 Ry
     Harris-Foulkes estimate   =  -12710.15600541 Ry
     estimated scf accuracy    <       2.31185664 Ry

     iteration # 28     ecut=    80.00 Ry     beta=0.70
     Davidson diagonalization with overlap
     ethr =  1.79E-04,  avg # of iterations =  8.0

     negative rho (up, down):  2.787E-01 0.000E+00

     total cpu time spent up to now is     8859.0 secs

     total energy              =  -12709.33516470 Ry
     Harris-Foulkes estimate   =  -12709.77487008 Ry
     estimated scf accuracy    <       1.92288849 Ry

     iteration # 29     ecut=    80.00 Ry     beta=0.70
     Davidson diagonalization with overlap
     ethr =  1.49E-04,  avg # of iterations =  8.0

     negative rho (up, down):  1.075E-01 0.000E+00

     total cpu time spent up to now is     9136.5 secs

     total energy              =  -12709.35620964 Ry
     Harris-Foulkes estimate   =  -12709.43268880 Ry
     estimated scf accuracy    <       0.57513643 Ry

     iteration # 30     ecut=    80.00 Ry     beta=0.70
     Davidson diagonalization with overlap
     ethr =  4.44E-05,  avg # of iterations =  7.7

     negative rho (up, down):  4.764E-02 0.000E+00

     total cpu time spent up to now is     9389.9 secs

     total energy              =  -12709.34676054 Ry
     Harris-Foulkes estimate   =  -12709.42122680 Ry
     estimated scf accuracy    <       0.43133830 Ry

     iteration # 31     ecut=    80.00 Ry     beta=0.70
     Davidson diagonalization with overlap
     ethr =  3.33E-05,  avg # of iterations =  9.8

     negative rho (up, down):  4.319E-02 0.000E+00

     total cpu time spent up to now is     9674.9 secs

     total energy              =  -12709.38103179 Ry
     Harris-Foulkes estimate   =  -12709.39345990 Ry
     estimated scf accuracy    <       0.12740459 Ry

     iteration # 32     ecut=    80.00 Ry     beta=0.70
     Davidson diagonalization with overlap
     ethr =  9.85E-06,  avg # of iterations =  8.0

     negative rho (up, down):  4.231E-02 0.000E+00

     total cpu time spent up to now is     9938.5 secs

     total energy              =  -12709.38522750 Ry
     Harris-Foulkes estimate   =  -12709.38917699 Ry
     estimated scf accuracy    <       0.02091554 Ry

     iteration # 33     ecut=    80.00 Ry     beta=0.70
     Davidson diagonalization with overlap
     ethr =  1.62E-06,  avg # of iterations = 10.5

     negative rho (up, down):  4.270E-02 0.000E+00

     total cpu time spent up to now is    10256.0 secs

     total energy              =  -12709.38683479 Ry
     Harris-Foulkes estimate   =  -12709.38871986 Ry
     estimated scf accuracy    <       0.01281711 Ry

     iteration # 34     ecut=    80.00 Ry     beta=0.70
     Davidson diagonalization with overlap
     ethr =  9.91E-07,  avg # of iterations =  3.2

     negative rho (up, down):  2.535E-02 0.000E+00

     total cpu time spent up to now is    10454.7 secs

     total energy              =  -12709.38725257 Ry
     Harris-Foulkes estimate   =  -12709.38789857 Ry
     estimated scf accuracy    <       0.00246902 Ry

     iteration # 35     ecut=    80.00 Ry     beta=0.70
     Davidson diagonalization with overlap
     ethr =  1.91E-07,  avg # of iterations =  9.8

     negative rho (up, down):  2.779E-02 0.000E+00

     total cpu time spent up to now is    10760.8 secs

     total energy              =  -12709.38762048 Ry
     Harris-Foulkes estimate   =  -12709.38759237 Ry
     estimated scf accuracy    <       0.00167071 Ry

     iteration # 36     ecut=    80.00 Ry     beta=0.70
     Davidson diagonalization with overlap
     c_bands:  1 eigenvalues not converged
     ethr =  1.29E-07,  avg # of iterations =  8.8

     negative rho (up, down):  1.904E-02 0.000E+00

     total cpu time spent up to now is    11036.0 secs

     total energy              =  -12709.38762595 Ry
     Harris-Foulkes estimate   =  -12709.38773865 Ry
     estimated scf accuracy    <       0.00018889 Ry

     iteration # 37     ecut=    80.00 Ry     beta=0.70
     Davidson diagonalization with overlap
     ethr =  1.46E-08,  avg # of iterations = 10.0

     negative rho (up, down):  9.710E-03 0.000E+00

     total cpu time spent up to now is    11328.8 secs

     total energy              =  -12709.38746136 Ry
     Harris-Foulkes estimate   =  -12709.38763553 Ry
     estimated scf accuracy    <       0.00009165 Ry

     iteration # 38     ecut=    80.00 Ry     beta=0.70
     Davidson diagonalization with overlap
     ethr =  7.08E-09,  avg # of iterations =  6.7

     negative rho (up, down):  4.192E-03 0.000E+00

     total cpu time spent up to now is    11575.3 secs

     total energy              =  -12709.38736617 Ry
     Harris-Foulkes estimate   =  -12709.38747262 Ry
     estimated scf accuracy    <       0.00006862 Ry

     iteration # 39     ecut=    80.00 Ry     beta=0.70
     Davidson diagonalization with overlap
     c_bands:  1 eigenvalues not converged
     ethr =  5.30E-09,  avg # of iterations =  9.7

     negative rho (up, down):  2.847E-03 0.000E+00

     total cpu time spent up to now is    11862.1 secs

     total energy              =  -12709.38735675 Ry
     Harris-Foulkes estimate   =  -12709.38737183 Ry
     estimated scf accuracy    <       0.00000904 Ry

     iteration # 40     ecut=    80.00 Ry     beta=0.70
     Davidson diagonalization with overlap
     ethr =  6.99E-10,  avg # of iterations =  5.5

     negative rho (up, down):  2.114E-03 0.000E+00

     total cpu time spent up to now is    12093.6 secs

     total energy              =  -12709.38735560 Ry
     Harris-Foulkes estimate   =  -12709.38735735 Ry
     estimated scf accuracy    <       0.00000262 Ry

     iteration # 41     ecut=    80.00 Ry     beta=0.70
     Davidson diagonalization with overlap
     ethr =  2.02E-10,  avg # of iterations =  3.8

     negative rho (up, down):  1.980E-03 0.000E+00

     total cpu time spent up to now is    12309.9 secs

     total energy              =  -12709.38735603 Ry
     Harris-Foulkes estimate   =  -12709.38735594 Ry
     estimated scf accuracy    <       0.00000132 Ry

     iteration # 42     ecut=    80.00 Ry     beta=0.70
     Davidson diagonalization with overlap
     ethr =  1.02E-10,  avg # of iterations =  2.2

     negative rho (up, down):  1.985E-03 0.000E+00

     total cpu time spent up to now is    12498.4 secs

     total energy              =  -12709.38735612 Ry
     Harris-Foulkes estimate   =  -12709.38735614 Ry
     estimated scf accuracy    <       0.00000037 Ry

     iteration # 43     ecut=    80.00 Ry     beta=0.70
     Davidson diagonalization with overlap
     ethr =  2.88E-11,  avg # of iterations =  2.5

     negative rho (up, down):  2.027E-03 0.000E+00

     total cpu time spent up to now is    12698.3 secs

     total energy              =  -12709.38735610 Ry
     Harris-Foulkes estimate   =  -12709.38735617 Ry
     estimated scf accuracy    <       0.00000019 Ry

     iteration # 44     ecut=    80.00 Ry     beta=0.70
     Davidson diagonalization with overlap
     ethr =  1.49E-11,  avg # of iterations =  2.0

     negative rho (up, down):  2.066E-03 0.000E+00

     total cpu time spent up to now is    12889.5 secs

     total energy              =  -12709.38735607 Ry
     Harris-Foulkes estimate   =  -12709.38735613 Ry
     estimated scf accuracy    <       0.00000006 Ry

     iteration # 45     ecut=    80.00 Ry     beta=0.70
     Davidson diagonalization with overlap
     ethr =  4.55E-12,  avg # of iterations =  2.0

     negative rho (up, down):  2.081E-03 0.000E+00

     total cpu time spent up to now is    13078.7 secs

     total energy              =  -12709.38735604 Ry
     Harris-Foulkes estimate   =  -12709.38735607 Ry
     estimated scf accuracy    <       0.00000002 Ry

     iteration # 46     ecut=    80.00 Ry     beta=0.70
     Davidson diagonalization with overlap
     ethr =  1.40E-12,  avg # of iterations =  2.3

     negative rho (up, down):  2.087E-03 0.000E+00

     total cpu time spent up to now is    13270.9 secs

     End of self-consistent calculation

          k = 0.0000 0.0000 0.0000 (256287 PWs)   bands (ev):

   -17.1624 -16.1735 -15.9996 -15.3590 -14.9619 -14.7000 -14.6114 -14.1992
   -14.1378 -14.0697 -14.0285 -13.3903 -13.2225 -13.0799 -13.0650 -13.0167
   -13.0009 -11.6369 -11.4438 -11.3956 -11.3440 -11.1427 -10.2777  -9.7138
    -9.6891  -9.6044  -9.4873  -8.9277  -8.7605  -8.6318  -8.5265  -8.0044
    -7.8446  -7.7113  -7.6243  -7.5344  -7.4869  -7.4608  -7.3436  -6.4097
    -6.3015  -6.1428  -6.0128  -5.9461  -5.9048  -5.8494  -5.7158  -5.6779
    -5.4369  -5.4148  -5.3351  -4.9288  -4.8516  -4.7947  -4.7169  -4.5617
    -4.5227  -4.4001  -4.2307  -4.1853  -3.9462  -3.9180  -3.9070  -3.8909
    -3.6879  -3.5900  -3.5033  -3.4607  -3.3873  -3.3400  -3.3349  -3.2993
    -3.2324  -3.1355  -3.0967  -3.0763  -3.0194  -2.9666  -2.9364  -2.9292
    -2.9238  -2.9178  -2.8851  -2.7910  -2.7611  -2.7022  -2.6726  -2.6639
    -2.6189  -2.5729  -2.5291  -2.5056  -2.4646  -2.3308  -2.2754  -2.2728
    -2.2281  -2.1610  -2.1199  -2.1190  -2.1159  -2.0905  -2.0794  -2.0790
    -2.0783  -2.0772  -2.0242  -1.9514  -1.9510  -1.9459  -1.9452  -1.9028
    -1.8725  -1.8660  -1.7677  -1.7046  -1.7000  -1.6687  -1.6658  -1.6642
    -1.6458  -1.6059  -1.6018  -1.5997  -1.5865  -1.5807  -1.5289  -1.5223
    -1.5046  -1.4939  -1.4919  -1.4879  -1.4778  -1.4737  -1.4562  -1.4429
    -1.4413  -1.4387  -1.4240  -1.3727  -1.3670  -1.3471  -1.3421  -1.3192
    -1.3108  -1.2800  -1.2475  -1.2265  -1.1916  -1.1913  -1.1845  -1.1774
    -1.1399  -1.1374  -1.1196  -1.1162  -1.1059  -1.0940  -1.0910  -1.0736
    -1.0495  -1.0246  -0.9803  -0.9768  -0.9716  -0.9697  -0.9601  -0.9521
    -0.9505  -0.9491  -0.9481  -0.9452  -0.9443  -0.9319  -0.9273  -0.9254
    -0.9022  -0.8938  -0.8798  -0.8657  -0.8606  -0.8566  -0.8478  -0.8463
    -0.8437  -0.8088  -0.7900  -0.7884  -0.7851  -0.7840  -0.7831  -0.7825
    -0.7814  -0.7792  -0.7766  -0.7766  -0.7746  -0.7745  -0.7713  -0.7691
    -0.7689  -0.7635  -0.7554  -0.7519  -0.7431  -0.7123  -0.6184  -0.6172
    -0.6106  -0.6104  -0.5978  -0.5893  -0.5866  -0.5697  -0.5692  -0.5502
    -0.5475  -0.5411  -0.5371  -0.5277  -0.5260  -0.5165  -0.4934  -0.4930
    -0.4874  -0.4874  -0.4819  -0.4818  -0.4715  -0.4703  -0.4213  -0.4197
    -0.3731  -0.3670  -0.3666  -0.3583  -0.3563  -0.3523  -0.3510  -0.3398
    -0.3382  -0.3340  -0.3321  -0.3314  -0.3308  -0.3282  -0.3272  -0.3193
    -0.3129  -0.3126  -0.3082  -0.3060  -0.2787  -0.2783  -0.2457  -0.2310
    -0.2275  -0.2205  -0.2192  -0.2191  -0.1947  -0.1946  -0.1938  -0.1902
    -0.1877  -0.1770  -0.1709  -0.1697  -0.1692  -0.1605  -0.1509  -0.1491
    -0.1458  -0.1451  -0.1424  -0.1421  -0.1392  -0.1389  -0.1375  -0.1279
    -0.1195  -0.1181  -0.1152  -0.1142  -0.0925  -0.0675  -0.0514  -0.0471
    -0.0467  -0.0460  -0.0451  -0.0069  -0.0027   0.0028   0.0037   0.0081
     0.0091   0.0098   0.0113   0.0129   0.0169   0.0264   0.0339   0.0590
     0.0600   0.0625   0.0670   0.0721   0.0753   0.0897   0.0910   0.0947
     0.0959   0.1037   0.1060   0.1147   0.1171   0.1181   0.1192   0.1244
     0.1261   0.1343   0.1348   0.1361   0.1365   0.1459   0.1472   0.1560
     0.1648   0.1750   0.1779   0.2075   0.2078   0.2281   0.2346   0.2549
     0.2605   0.2703   0.2891   0.3037   0.3040   0.3048   0.3171   0.3189
     0.3196   0.3399   0.3414   0.3440   0.3443   0.3468   0.3504   0.3543
     0.3561   0.4011   0.4118   0.4131   0.4143   0.4189   0.4230   0.4247
     0.4483   0.4513   0.4535   0.4556   0.4571   0.4658   0.4826   0.4875
     0.4909   0.5006   0.5022   0.5112   0.5136   0.5155   0.5375   0.5502
     0.5572   0.5642   0.5670   0.5698   0.5730   0.5735   0.5792   0.5920
     0.5969   0.6003   0.6040   0.6060   0.6062   0.6089   0.6107   0.6142
     0.6176   0.6213   0.6223   0.6270   0.6293   0.6340   0.6366   0.6386
     0.6693   0.6751   0.6771   0.6773   0.6957   0.7083   0.7164   0.7188
     0.7221   0.7250   0.7259   0.7271   0.7279   0.7305   0.7357   0.7418
     0.7457   0.7488   0.7502   0.7539   0.7587   0.7591   0.7612   0.7684
     0.7727   0.7864   0.7910   0.7941   0.7973   0.8041   0.8048   0.8131
     0.8144   0.8197   0.8201   0.8202   0.8252   0.8266   0.8303   0.8311
     0.8386   0.8535   0.8769   0.8781   0.8893   0.8917   0.8922   0.8935
     0.8966   0.8978   0.9172   0.9274   0.9295   0.9410   0.9479   0.9485
     0.9537   0.9612   0.9617   0.9702   0.9714   0.9728   0.9766   0.9814
     0.9910   1.0083   1.0108   1.0112   1.0118   1.0149   1.0165   1.0293
     1.0382   1.0469   1.0511   1.0569   1.0578   1.0648   1.0698   1.0783
     1.0829   1.0836   1.0845   1.0850   1.0874   1.0924   1.0949   1.0984
     1.0988   1.1007   1.1010   1.1150   1.1160   1.1214   1.1282   1.1335
     1.1350   1.1384   1.1448   1.1519   1.1689   1.1740   1.1760   1.1786
     1.1809   1.1846   1.1872   1.1890   1.1899   1.1911   1.1917   1.1924
     1.1948   1.2069   1.2076   1.2117   1.2287   1.2448   1.2544   1.2591
     1.2680   1.2699   1.2746   1.2762   1.2773   1.2793   1.2815   1.2934
     1.2950   1.3006   1.3067   1.3098   1.3112   1.3125   1.3141   1.3151
     1.3178   1.3268   1.3408   1.3431   1.3438   1.3445   1.3464   1.3488
     1.3493   1.3513   1.3565   1.3648   1.3656   1.3660   1.3713   1.3792
     1.3814   1.3818   1.3829   1.3838   1.3908   1.3937   1.3968   1.4039
     1.4155   1.4235   1.4246   1.4257   1.4282   1.4298   1.4333   1.4461
     1.4534   1.4582   1.4613   1.4625   1.4660   1.4754   1.4834   1.4855
     1.4902   1.4948   1.4956   1.4962   1.5022   1.5037   1.5054   1.5064
     1.5073   1.5090   1.5107   1.5197   1.5208   1.5218   1.5337   1.5365
     1.5377   1.5381   1.5412   1.5426   1.5508   1.5544   1.5659   1.5805
     1.5852   1.5924   1.6155   1.6277   1.6312   1.6351   1.6370   1.6505
     1.6525   1.6541   1.6636   1.6761   1.6785   1.6994   1.7046   1.7057
     1.7063   1.7148   1.7150   1.7166   1.7253   1.9666   2.0276   2.1657
     2.1823   2.2080   2.2399   2.2670   2.2764   2.2797   2.2803   2.2900
     2.2947   2.2982   2.3049   2.4297   2.4819   2.5065   2.5353   2.5457
     2.5485   2.5508   2.5578   2.6467   2.7521   2.7967   2.8023   2.8077
     2.9051   3.0479   3.2643   3.5294   3.5975   3.6094   3.8606   3.8899
     3.9061   3.9221   3.9325   3.9356   3.9888   3.9968   4.0355   4.0760
     4.0786   4.0814   4.0875   4.0890   4.0959   4.1014   4.2114   4.3270
     4.3351   4.3431   4.4041   4.5830   4.6304   4.8398   4.8878   4.9133
     5.3657   5.3690   5.4736   5.5100   5.5384   5.7426   5.7890   5.8061
     5.8195   5.9594   6.0052   6.1008   6.2651   6.4329   6.4578   6.4636
     6.4869   6.5472   6.5649   6.5725   6.5961   6.6269   6.7309   6.7613
     6.8220   6.8242   6.8280   6.8624   7.0057   7.0492   7.0862   7.1189
     7.1508   7.1698   7.1975   7.3846   7.4294   7.4337   7.6248   7.6502
     7.7444   7.7807   7.7821   7.7851   7.8052   7.8890   8.0527   8.1875
     8.2703   8.2958   8.3085   8.3258   8.4019   8.4103   8.4147   8.4227
     8.4490   8.4973   8.5029   8.5424   8.6101   8.6312   8.7373   8.7451
     8.7529   8.7681   8.8127   8.8226   8.9078   8.9150   8.9253   8.9269
     9.0279   9.0836   9.1506   9.1568   9.1921   9.1958   9.2001   9.2029
     9.2320   9.2723   9.3997   9.4075   9.4219   9.5943   9.5961   9.6102
     9.6453   9.6503   9.7468   9.7791   9.8108   9.9042  10.0243  10.1184

          k = 0.0000-0.2165 0.0000 (256176 PWs)   bands (ev):

   -17.1618 -16.2340 -15.8228 -15.5714 -15.0026 -14.6008 -14.2930 -14.2681
   -14.1789 -14.1365 -13.7750 -13.7006 -13.6445 -13.6012 -12.5575 -12.3411
   -12.2933 -12.2540 -12.0910 -12.0011 -10.6019 -10.5009 -10.4435 -10.3518
    -9.4254  -9.3751  -9.2725  -9.0219  -8.9267  -8.8914  -8.3534  -8.2360
    -8.1807  -8.0895  -7.4422  -7.2592  -6.9654  -6.9366  -6.8697  -6.8276
    -6.7780  -6.7010  -6.1633  -6.0260  -5.8185  -5.8140  -5.5956  -5.4422
    -5.2731  -5.1716  -5.0533  -4.9879  -4.8171  -4.7847  -4.7651  -4.7248
    -4.6315  -4.5922  -4.5216  -4.4073  -4.2376  -4.0900  -3.7955  -3.6946
    -3.6485  -3.5525  -3.3463  -3.3160  -3.2382  -3.2336  -3.2183  -3.2039
    -3.1523  -3.1349  -3.0401  -3.0086  -2.9851  -2.9640  -2.9477  -2.9206
    -2.9037  -2.8213  -2.7820  -2.7575  -2.7431  -2.6999  -2.6467  -2.5846
    -2.5392  -2.5090  -2.5070  -2.5048  -2.5031  -2.4910  -2.4481  -2.3807
    -2.3388  -2.2674  -2.2244  -2.1943  -2.1700  -2.1637  -2.1207  -2.0876
    -2.0775  -2.0750  -2.0606  -2.0069  -1.9137  -1.9136  -1.8986  -1.8882
    -1.8878  -1.8642  -1.8113  -1.7899  -1.7756  -1.7261  -1.6955  -1.6934
    -1.6784  -1.6765  -1.6681  -1.6679  -1.6526  -1.6460  -1.5891  -1.5819
    -1.5756  -1.5687  -1.5431  -1.5027  -1.4579  -1.4030  -1.3977  -1.3895
    -1.3880  -1.3204  -1.3140  -1.2989  -1.2978  -1.2600  -1.2452  -1.2419
    -1.2266  -1.2089  -1.2046  -1.2035  -1.2019  -1.1982  -1.1959  -1.1839
    -1.1626  -1.1558  -1.1552  -1.1496  -1.1479  -1.1449  -1.1334  -1.1091
    -1.0872  -1.0778  -1.0629  -1.0624  -1.0164  -1.0154  -0.9783  -0.9777
    -0.9750  -0.9742  -0.9449  -0.9359  -0.9264  -0.9173  -0.9141  -0.9126
    -0.9079  -0.9060  -0.9046  -0.8948  -0.8570  -0.8538  -0.8471  -0.8467
    -0.8390  -0.8375  -0.8304  -0.8219  -0.8218  -0.8135  -0.7598  -0.7539
    -0.7521  -0.7473  -0.7457  -0.7422  -0.7334  -0.7263  -0.7241  -0.7107
    -0.7055  -0.6997  -0.6830  -0.6815  -0.6749  -0.6728  -0.5872  -0.5870
    -0.5764  -0.5759  -0.5604  -0.5602  -0.5464  -0.5352  -0.5323  -0.5322
    -0.5284  -0.5282  -0.5231  -0.5068  -0.5029  -0.4717  -0.4712  -0.4688
    -0.4679  -0.4660  -0.4653  -0.4628  -0.4622  -0.4334  -0.4319  -0.4308
    -0.4162  -0.4116  -0.4116  -0.3793  -0.3787  -0.3752  -0.3743  -0.3726
    -0.3688  -0.3664  -0.3612  -0.3575  -0.3562  -0.3411  -0.2915  -0.2913
    -0.2784  -0.2781  -0.2575  -0.2527  -0.2452  -0.2326  -0.2314  -0.2266
    -0.2253  -0.2235  -0.2162  -0.2068  -0.2040  -0.2001  -0.1937  -0.1921
    -0.1911  -0.1837  -0.1797  -0.1775  -0.1723  -0.1721  -0.1716  -0.1701
    -0.1654  -0.1601  -0.1411  -0.1353  -0.1352  -0.1313  -0.1312  -0.0818
    -0.0774  -0.0708  -0.0696  -0.0675  -0.0651  -0.0609  -0.0591  -0.0558
    -0.0547  -0.0424  -0.0315  -0.0243  -0.0241  -0.0176  -0.0172  -0.0114
    -0.0084  -0.0068  -0.0046  -0.0035  -0.0022   0.0000   0.0303   0.0453
     0.0526   0.0549   0.0559   0.0562   0.0710   0.0754   0.0777   0.0790
     0.0846   0.0892   0.0976   0.0982   0.1004   0.1046   0.1079   0.1307
     0.1313   0.1409   0.1471   0.1472   0.1476   0.1495   0.1655   0.1692
     0.1825   0.1832   0.1901   0.1936   0.2018   0.2035   0.2057   0.2063
     0.2440   0.2466   0.2473   0.2601   0.2607   0.2663   0.2729   0.2743
     0.2752   0.2977   0.3003   0.3329   0.3376   0.3385   0.3404   0.3630
     0.3840   0.4009   0.4248   0.4480   0.4517   0.4548   0.4634   0.4651
     0.4788   0.4808   0.4827   0.4835   0.5013   0.5105   0.5169   0.5181
     0.5222   0.5238   0.5259   0.5267   0.5303   0.5345   0.5358   0.5454
     0.5483   0.5493   0.5511   0.5541   0.5573   0.5639   0.5680   0.5854
     0.5882   0.5974   0.5977   0.5994   0.6000   0.6075   0.6076   0.6152
     0.6241   0.6265   0.6277   0.6295   0.6299   0.6308   0.6322   0.6351
     0.6472   0.6489   0.6493   0.6527   0.6563   0.6604   0.6628   0.6648
     0.6675   0.6777   0.6821   0.7168   0.7172   0.7281   0.7284   0.7347
     0.7374   0.7388   0.7402   0.7420   0.7453   0.7483   0.7523   0.7534
     0.7536   0.7554   0.7653   0.7913   0.7945   0.7969   0.7972   0.8009
     0.8105   0.8136   0.8142   0.8150   0.8210   0.8323   0.8355   0.8452
     0.8459   0.8498   0.8513   0.8546   0.8625   0.9056   0.9059   0.9548
     0.9575   0.9594   0.9600   0.9650   0.9651   0.9722   0.9757   0.9800
     0.9817   0.9864   0.9874   0.9900   0.9923   0.9948   0.9975   1.0020
     1.0060   1.0119   1.0122   1.0134   1.0151   1.0202   1.0285   1.0337
     1.0366   1.0379   1.0382   1.0384   1.0414   1.0423   1.0438   1.0481
     1.0591   1.0608   1.0613   1.0616   1.0649   1.0653   1.0698   1.0817
     1.0831   1.0868   1.0933   1.0962   1.0994   1.1015   1.1042   1.1092
     1.1096   1.1104   1.1105   1.1115   1.1155   1.1525   1.1611   1.1821
     1.1883   1.1986   1.1998   1.2111   1.2143   1.2181   1.2210   1.2229
     1.2396   1.2417   1.2417   1.2525   1.2563   1.2597   1.2601   1.2631
     1.2655   1.2696   1.2710   1.2719   1.2727   1.2728   1.2738   1.2752
     1.2795   1.2811   1.2825   1.2899   1.2962   1.3007   1.3036   1.3046
     1.3069   1.3107   1.3127   1.3346   1.3388   1.3399   1.3429   1.3464
     1.3469   1.3486   1.3506   1.3634   1.3658   1.3699   1.3727   1.3814
     1.3824   1.3828   1.3839   1.3855   1.3885   1.3998   1.4015   1.4039
     1.4047   1.4194   1.4204   1.4229   1.4270   1.4421   1.4451   1.4484
     1.4507   1.4518   1.4531   1.4621   1.4652   1.4675   1.4677   1.4818
     1.4827   1.4944   1.4968   1.4976   1.4981   1.5158   1.5166   1.5173
     1.5197   1.5217   1.5220   1.5234   1.5236   1.5450   1.5488   1.5515
     1.5591   1.5600   1.5633   1.5733   1.5776   1.5888   1.5895   1.5902
     1.5939   1.5958   1.6065   1.6082   1.6180   1.6385   1.6589   1.6609
     1.6649   1.6812   1.7599   1.7685   1.7789   1.7936   1.7994   1.8004
     1.8212   1.8468   1.8586   1.8602   1.8628   1.8741   1.8818   1.8860
     1.8894   1.9230   1.9263   1.9325   2.0324   2.1458   2.4490   2.4851
     2.4978   2.4982   2.5486   2.5689   2.5732   2.6280   2.6371   2.6445
     2.6489   2.6572   2.6895   2.7792   2.7822   2.8326   2.8419   2.8549
     2.8588   2.9947   2.9956   3.2352   3.2412   3.2414   3.2548   3.3307
     3.5018   3.5791   3.7429   3.7478   3.8943   3.9381   4.1525   4.1636
     4.1737   4.2042   4.3745   4.4031   4.4096   4.4123   4.4946   4.5753
     4.5825   4.7351   4.7882   4.8480   4.8633   5.0370   5.1447   5.1674
     5.1752   5.3048   5.4204   5.4318   5.4350   5.4364   5.4740   5.5049
     5.7138   5.7365   5.7562   5.7643   6.2673   6.4032   6.4804   6.5132
     6.5233   6.5382   6.5509   6.6020   6.6261   6.7276   6.7420   6.7545
     6.8911   6.9064   7.0543   7.1006   7.1112   7.1168   7.1433   7.1668
     7.1782   7.2000   7.2142   7.2184   7.3145   7.3831   7.4211   7.4322
     7.4691   7.5750   7.5857   7.6391   7.6950   7.8204   8.0349   8.2110
     8.2162   8.2733   8.3289   8.4068   8.4294   8.4354   8.4476   8.4671
     8.4931   8.5105   8.5286   8.5494   8.5849   8.7657   8.7815   8.7853
     8.7933   8.8181   8.8318   8.8447   8.9864   9.0323   9.0618   9.0946
     9.1672   9.1886   9.2089   9.2443   9.2867   9.2969   9.4313   9.4437
     9.4580   9.4667   9.4709   9.4774   9.5297   9.5620   9.5703   9.5907
     9.6658   9.7429   9.7514   9.7931   9.8335   9.8596   9.8604   9.9608

          k = 0.2500 0.0000 0.0000 (256240 PWs)   bands (ev):

   -17.1086 -16.0662 -15.8767 -15.5929 -15.0757 -14.9092 -14.8662 -14.8224
   -14.0368 -13.8790 -13.6997 -13.1779 -13.0856 -13.0234 -12.9650 -12.2935
   -12.1465 -12.0765 -12.0192 -11.1815 -11.0905 -10.7318 -10.6123 -10.3182
   -10.1289  -9.8871  -9.8141  -9.4422  -9.1855  -9.1213  -8.6336  -7.9917
    -7.7974  -7.6722  -7.4904  -7.4518  -7.4071  -6.9634  -6.8699  -6.2633
    -6.2102  -6.0830  -5.9276  -5.7807  -5.7690  -5.5440  -5.2866  -5.2435
    -5.2177  -5.1002  -4.8791  -4.8309  -4.7447  -4.6327  -4.4455  -4.3957
    -4.3711  -4.3446  -4.2866  -4.2345  -4.0960  -4.0414  -3.9328  -3.9305
    -3.8864  -3.7889  -3.7728  -3.7681  -3.6978  -3.6643  -3.5401  -3.5134
    -3.4928  -3.4474  -3.3771  -3.3310  -3.3090  -3.2261  -3.1719  -3.1449
    -3.1028  -2.9656  -2.9295  -2.8908  -2.7757  -2.7349  -2.7260  -2.7233
    -2.5791  -2.5656  -2.5472  -2.4791  -2.4162  -2.3270  -2.2953  -2.2553
    -2.2215  -2.1839  -2.0310  -2.0264  -2.0236  -2.0090  -1.9994  -1.9753
    -1.9252  -1.8975  -1.8306  -1.8202  -1.7911  -1.7611  -1.7292  -1.7285
    -1.7214  -1.7205  -1.7018  -1.6950  -1.6918  -1.6723  -1.6483  -1.6391
    -1.6294  -1.6116  -1.5775  -1.5625  -1.5316  -1.5164  -1.5112  -1.5086
    -1.5059  -1.5054  -1.5021  -1.4583  -1.4497  -1.4314  -1.4291  -1.4230
    -1.4177  -1.4091  -1.3004  -1.2812  -1.2607  -1.2461  -1.2396  -1.2051
    -1.1985  -1.1759  -1.1725  -1.1704  -1.1653  -1.1612  -1.1440  -1.1363
    -1.1271  -1.1153  -1.1131  -1.1094  -1.1072  -1.0955  -1.0822  -1.0640
    -1.0613  -1.0582  -1.0518  -1.0422  -1.0395  -1.0384  -1.0253  -1.0047
    -0.9969  -0.9884  -0.9793  -0.9777  -0.9598  -0.9566  -0.9463  -0.9416
    -0.9402  -0.9372  -0.9302  -0.9227  -0.9196  -0.9111  -0.9096  -0.9078
    -0.9066  -0.9038  -0.9024  -0.8946  -0.8915  -0.8788  -0.8736  -0.8684
    -0.8354  -0.8325  -0.8288  -0.8234  -0.7827  -0.7790  -0.7433  -0.7430
    -0.7270  -0.7224  -0.7171  -0.6997  -0.6985  -0.6868  -0.6832  -0.6821
    -0.6759  -0.6725  -0.6684  -0.6520  -0.6440  -0.5502  -0.5339  -0.5303
    -0.5289  -0.5129  -0.4968  -0.4956  -0.4923  -0.4797  -0.4779  -0.4771
    -0.4763  -0.4575  -0.4570  -0.4556  -0.4544  -0.4511  -0.4366  -0.4187
    -0.4145  -0.4136  -0.4105  -0.4086  -0.3893  -0.3885  -0.3882  -0.3859
    -0.3715  -0.3302  -0.3277  -0.3271  -0.3251  -0.3204  -0.3156  -0.3085
    -0.3028  -0.2901  -0.2853  -0.2846  -0.2703  -0.2649  -0.2615  -0.2604
    -0.2538  -0.2231  -0.2228  -0.2195  -0.2175  -0.2106  -0.2087  -0.2006
    -0.1988  -0.1879  -0.1820  -0.1779  -0.1722  -0.1594  -0.1576  -0.1336
    -0.1273  -0.1263  -0.1253  -0.1218  -0.1114  -0.1100  -0.1087  -0.1077
    -0.0864  -0.0808  -0.0806  -0.0682  -0.0647  -0.0596  -0.0420  -0.0410
    -0.0395  -0.0361   0.0010   0.0060   0.0094   0.0113   0.0140   0.0269
     0.0322   0.0496   0.0508   0.0555   0.0583   0.0630   0.0647   0.0692
     0.0722   0.0737   0.0768   0.0792   0.0810   0.0833   0.0852   0.1024
     0.1050   0.1054   0.1096   0.1126   0.1171   0.1285   0.1304   0.1408
     0.1510   0.1544   0.1816   0.1833   0.1855   0.1877   0.1887   0.1919
     0.2059   0.2110   0.2121   0.2137   0.2146   0.2158   0.2455   0.2526
     0.2607   0.2945   0.3219   0.3239   0.3275   0.3319   0.3396   0.3419
     0.3432   0.3444   0.3494   0.3514   0.3563   0.3583   0.3604   0.3623
     0.3697   0.3731   0.3767   0.3791   0.3796   0.3871   0.3899   0.3931
     0.3992   0.4039   0.4073   0.4106   0.4204   0.4242   0.4397   0.4409
     0.4589   0.4769   0.4774   0.4914   0.4935   0.5054   0.5128   0.5134
     0.5153   0.5186   0.5325   0.5378   0.5463   0.5491   0.5541   0.5571
     0.5582   0.5617   0.5636   0.5671   0.5695   0.5864   0.5902   0.5977
     0.6056   0.6104   0.6138   0.6152   0.6169   0.6222   0.6230   0.6269
     0.6301   0.6486   0.6513   0.6516   0.6543   0.6627   0.6672   0.6694
     0.6706   0.6786   0.6806   0.6846   0.6881   0.6922   0.6978   0.7082
     0.7116   0.7275   0.7306   0.7339   0.7379   0.7407   0.7423   0.7477
     0.7557   0.7747   0.7769   0.7939   0.7983   0.8114   0.8122   0.8141
     0.8154   0.8192   0.8228   0.8368   0.8413   0.8463   0.8491   0.8507
     0.8585   0.8633   0.8731   0.8737   0.8849   0.8917   0.8949   0.8963
     0.9088   0.9177   0.9259   0.9280   0.9285   0.9311   0.9505   0.9519
     0.9596   0.9617   0.9641   0.9657   0.9664   0.9719   0.9746   0.9801
     0.9811   0.9936   1.0126   1.0193   1.0206   1.0263   1.0269   1.0394
     1.0409   1.0542   1.0604   1.0613   1.0633   1.0643   1.0695   1.0728
     1.0743   1.0855   1.0886   1.0889   1.0903   1.0905   1.0924   1.0928
     1.0951   1.0978   1.1009   1.1041   1.1055   1.1086   1.1159   1.1235
     1.1270   1.1322   1.1345   1.1402   1.1407   1.1461   1.1475   1.1589
     1.1616   1.1634   1.1712   1.1770   1.1778   1.1809   1.1829   1.1915
     1.1942   1.2049   1.2075   1.2094   1.2162   1.2210   1.2248   1.2264
     1.2298   1.2314   1.2445   1.2545   1.2593   1.2619   1.2645   1.2736
     1.2966   1.3054   1.3078   1.3125   1.3154   1.3175   1.3222   1.3237
     1.3252   1.3262   1.3325   1.3335   1.3419   1.3478   1.3500   1.3510
     1.3612   1.3676   1.3701   1.3712   1.3721   1.3757   1.3800   1.3822
     1.3846   1.3867   1.3891   1.3908   1.3923   1.3946   1.3963   1.4048
     1.4130   1.4187   1.4213   1.4232   1.4269   1.4294   1.4296   1.4318
     1.4353   1.4505   1.4516   1.4521   1.4707   1.4716   1.4788   1.4816
     1.4891   1.4918   1.4929   1.4943   1.4964   1.4987   1.4991   1.5037
     1.5048   1.5070   1.5112   1.5139   1.5179   1.5321   1.5343   1.5355
     1.5375   1.5391   1.5403   1.5415   1.5541   1.5543   1.5608   1.5647
     1.5713   1.5769   1.5789   1.5806   1.5863   1.5880   1.6037   1.6167
     1.6242   1.6296   1.6521   1.6736   1.6938   1.6959   1.6979   1.7161
     1.7331   1.7761   1.8275   1.8316   1.8343   1.8376   1.8493   1.8724
     1.9082   1.9319   2.1005   2.1118   2.1343   2.1507   2.1613   2.1633
     2.2095   2.2929   2.3391   2.3539   2.6302   2.6344   2.6391   2.6481
     3.0468   3.0473   3.0783   3.2625   3.2633   3.2883   3.2899   3.2947
     3.3671   3.4352   3.5467   3.6064   3.6493   3.6770   3.6980   3.7111
     3.7525   3.7788   3.7934   3.8012   3.8254   3.9353   3.9518   4.0188
     4.0459   4.0996   4.2396   4.2843   4.3018   4.3473   4.3738   4.5259
     4.6954   4.8255   4.8923   4.9097   5.0250   5.2567   5.2926   5.2955
     5.3054   5.3700   5.4430   5.5330   5.5493   5.5711   5.6068   5.6674
     5.6850   5.7039   5.7717   5.7865   5.8121   5.8219   5.8930   5.9118
     5.9883   6.0780   6.0823   6.0979   6.1247   6.3937   6.5874   6.7086
     6.7652   6.7796   6.8195   6.8249   6.9097   6.9669   7.0084   7.0877
     7.1119   7.1241   7.1286   7.1444   7.2825   7.3092   7.3586   7.3841
     7.4268   7.5631   7.6094   7.6281   7.6366   7.7274   7.8336   7.8572
     7.9040   7.9461   8.0376   8.0635   8.0756   8.0895   8.1449   8.1503
     8.3333   8.3517   8.3849   8.3870   8.4392   8.4782   8.4910   8.5055
     8.5355   8.7096   8.7198   8.9283   8.9894   9.0010   9.0114   9.0358
     9.1647   9.2134   9.2453   9.2533   9.2634   9.2778   9.2944   9.3169
     9.3397   9.3425   9.3674   9.4164   9.4670   9.4798   9.5031   9.5584
     9.5917   9.7057   9.7521   9.7730   9.7907   9.8089   9.8531   9.8767

          k = 0.2500-0.2165 0.0000 (256316 PWs)   bands (ev):

   -17.1082 -16.1101 -15.8017 -15.4577 -15.3751 -15.1241 -14.6367 -14.4765
   -14.1888 -14.0364 -13.6364 -13.2049 -13.1807 -13.0818 -12.6985 -12.5867
   -12.1026 -11.9326 -11.4529 -11.3670 -11.2215 -11.0585 -10.8984 -10.5661
    -9.8018  -9.7251  -9.3625  -9.2737  -9.0522  -8.9628  -8.6182  -8.5746
    -8.4409  -8.3490  -7.2049  -7.0250  -6.8117  -6.6971  -6.5442  -6.4008
    -6.3574  -6.2144  -6.0413  -5.9833  -5.6458  -5.6366  -5.4934  -5.3421
    -5.1685  -4.9920  -4.8319  -4.7564  -4.6284  -4.6081  -4.5700  -4.4711
    -4.4477  -4.3515  -4.2850  -4.2771  -4.2085  -4.1606  -4.0777  -4.0343
    -3.9305  -3.8349  -3.7304  -3.6564  -3.6221  -3.5323  -3.4870  -3.4371
    -3.3894  -3.3858  -3.2901  -3.2479  -3.2171  -3.1767  -3.1024  -3.0364
    -3.0070  -2.9292  -2.8608  -2.8542  -2.8405  -2.8355  -2.8222  -2.7640
    -2.6715  -2.6266  -2.5580  -2.5122  -2.3815  -2.2827  -2.2444  -2.2395
    -2.1662  -2.1136  -2.0957  -2.0955  -2.0918  -2.0572  -2.0405  -1.9384
    -1.9372  -1.9255  -1.9154  -1.8932  -1.8633  -1.7854  -1.7569  -1.7525
    -1.7404  -1.7392  -1.6920  -1.6792  -1.6762  -1.6534  -1.6477  -1.6396
    -1.6343  -1.6288  -1.6092  -1.6055  -1.6046  -1.6040  -1.5964  -1.5940
    -1.5910  -1.5131  -1.5050  -1.5029  -1.3982  -1.3965  -1.3527  -1.3032
    -1.2935  -1.2676  -1.2582  -1.2567  -1.2121  -1.2056  -1.2036  -1.1904
    -1.1901  -1.1790  -1.1772  -1.1752  -1.1650  -1.1583  -1.1524  -1.1492
    -1.1445  -1.1387  -1.1322  -1.1286  -1.1202  -1.1196  -1.1101  -1.1084
    -1.0855  -1.0620  -1.0588  -1.0546  -1.0490  -1.0474  -1.0409  -1.0403
    -1.0154  -1.0075  -0.9960  -0.9704  -0.9678  -0.9675  -0.9597  -0.9520
    -0.9475  -0.9304  -0.9236  -0.9230  -0.9070  -0.9005  -0.8904  -0.8889
    -0.8846  -0.8837  -0.8803  -0.8788  -0.8589  -0.8542  -0.8503  -0.8395
    -0.8259  -0.8142  -0.8006  -0.7904  -0.7894  -0.7892  -0.7108  -0.7093
    -0.7069  -0.7051  -0.6995  -0.6968  -0.6948  -0.6578  -0.6499  -0.6433
    -0.6411  -0.6390  -0.6336  -0.6323  -0.6242  -0.6205  -0.5830  -0.5820
    -0.5500  -0.5429  -0.5368  -0.5140  -0.4974  -0.4939  -0.4919  -0.4908
    -0.4843  -0.4636  -0.4616  -0.4547  -0.4438  -0.4365  -0.4302  -0.4296
    -0.4203  -0.4148  -0.4111  -0.3956  -0.3887  -0.3760  -0.3719  -0.3655
    -0.3549  -0.3440  -0.3374  -0.3365  -0.3234  -0.3223  -0.3173  -0.3094
    -0.2971  -0.2961  -0.2914  -0.2910  -0.2878  -0.2863  -0.2815  -0.2793
    -0.2656  -0.2597  -0.2555  -0.2457  -0.2448  -0.2270  -0.2211  -0.2068
    -0.1982  -0.1930  -0.1858  -0.1726  -0.1683  -0.1678  -0.1577  -0.1481
    -0.1461  -0.1441  -0.1378  -0.1286  -0.1116  -0.0846  -0.0830  -0.0753
    -0.0461  -0.0452  -0.0372  -0.0367  -0.0337  -0.0332  -0.0169  -0.0164
    -0.0129   0.0022   0.0030   0.0088   0.0157   0.0193   0.0217   0.0279
     0.0300   0.0329   0.0336   0.0425   0.0547   0.0599   0.0643   0.0668
     0.0684   0.0702   0.0723   0.0733   0.0747   0.0779   0.0815   0.0890
     0.1013   0.1019   0.1029   0.1034   0.1350   0.1368   0.1430   0.1455
     0.1482   0.1518   0.1648   0.1708   0.1763   0.1963   0.2014   0.2029
     0.2075   0.2160   0.2209   0.2225   0.2240   0.2302   0.2320   0.2380
     0.2443   0.2495   0.2547   0.2735   0.2795   0.3314   0.3377   0.3471
     0.3478   0.3496   0.3527   0.3550   0.3556   0.3581   0.3649   0.3675
     0.3696   0.3761   0.3816   0.3887   0.3897   0.3966   0.3985   0.4016
     0.4023   0.4100   0.4120   0.4302   0.4365   0.4422   0.4499   0.4525
     0.4615   0.4664   0.4754   0.4776   0.5059   0.5136   0.5193   0.5243
     0.5268   0.5283   0.5291   0.5384   0.5415   0.5443   0.5476   0.5501
     0.5507   0.5573   0.5586   0.5680   0.5821   0.5830   0.5915   0.5961
     0.6039   0.6068   0.6370   0.6380   0.6386   0.6403   0.6595   0.6697
     0.6726   0.6748   0.6758   0.6792   0.6816   0.6835   0.6858   0.6928
     0.6962   0.6973   0.7015   0.7064   0.7149   0.7204   0.7237   0.7275
     0.7333   0.7381   0.7405   0.7418   0.7430   0.7447   0.7537   0.7547
     0.7583   0.7603   0.7646   0.7730   0.7788   0.7815   0.7824   0.7871
     0.7876   0.7887   0.7902   0.7924   0.7978   0.8246   0.8288   0.8362
     0.8393   0.8491   0.8586   0.8681   0.8781   0.8938   0.8943   0.8960
     0.8967   0.9004   0.9010   0.9051   0.9219   0.9242   0.9249   0.9257
     0.9265   0.9274   0.9333   0.9391   0.9513   0.9538   0.9560   0.9632
     0.9664   0.9711   0.9771   0.9943   0.9993   0.9998   1.0136   1.0256
     1.0272   1.0292   1.0334   1.0351   1.0368   1.0386   1.0432   1.0489
     1.0617   1.0715   1.0729   1.0810   1.0889   1.0906   1.0947   1.1064
     1.1112   1.1133   1.1300   1.1326   1.1497   1.1509   1.1569   1.1579
     1.1600   1.1610   1.1623   1.1633   1.1639   1.1664   1.1712   1.1757
     1.1762   1.1803   1.1848   1.1898   1.1950   1.2056   1.2100   1.2262
     1.2334   1.2362   1.2394   1.2426   1.2457   1.2465   1.2490   1.2517
     1.2567   1.2578   1.2607   1.2615   1.2636   1.2694   1.2710   1.2733
     1.2758   1.2788   1.2861   1.2916   1.2935   1.2947   1.2955   1.2961
     1.2983   1.3089   1.3114   1.3154   1.3163   1.3383   1.3406   1.3479
     1.3487   1.3564   1.3605   1.3642   1.3680   1.3725   1.3808   1.3812
     1.3906   1.3947   1.3989   1.4015   1.4022   1.4043   1.4059   1.4130
     1.4171   1.4185   1.4198   1.4272   1.4303   1.4323   1.4415   1.4483
     1.4515   1.4527   1.4536   1.4546   1.4557   1.4622   1.4633   1.4659
     1.4729   1.4737   1.4795   1.4809   1.4855   1.4916   1.4949   1.5042
     1.5067   1.5080   1.5089   1.5129   1.5136   1.5143   1.5147   1.5194
     1.5239   1.5244   1.5341   1.5488   1.5489   1.5548   1.5613   1.5636
     1.5711   1.5765   1.5900   1.5944   1.5971   1.6015   1.6192   1.6211
     1.6275   1.6289   1.6480   1.6553   1.6709   1.7053   1.7370   1.7392
     1.7531   1.8083   1.8256   1.8324   1.8472   1.8502   1.8602   1.8621
     1.8657   1.8709   1.9172   1.9260   2.1744   2.1957   2.2121   2.2288
     2.2712   2.3613   2.3955   2.6531   2.6553   2.8269   2.8542   2.8603
     2.8634   2.8733   2.8766   2.9098   2.9149   3.0531   3.0541   3.1316
     3.1631   3.4298   3.6112   3.6205   3.6816   3.7029   3.7604   3.8131
     3.8971   3.9134   3.9166   3.9278   4.0195   4.0692   4.1143   4.1409
     4.2113   4.2344   4.2950   4.4324   4.4451   4.4719   4.6225   4.6290
     4.6678   4.7204   4.7492   4.7590   4.9273   5.0118   5.0230   5.1014
     5.1258   5.1468   5.2669   5.3646   5.3778   5.4717   5.5030   5.5253
     5.5278   5.5330   5.5530   5.7924   5.8314   5.8517   5.9571   5.9864
     6.0005   6.0459   6.2271   6.5476   6.6390   6.6747   6.6975   6.7359
     6.8222   6.8307   6.8820   6.9513   6.9583   7.1126   7.1431   7.1588
     7.1690   7.1840   7.1962   7.2672   7.2767   7.2959   7.3839   7.4006
     7.4149   7.4201   7.4490   7.5106   7.5142   7.6945   7.7237   7.7636
     7.8130   7.8653   7.9223   8.0248   8.0771   8.1800   8.2669   8.2769
     8.3174   8.3412   8.4193   8.5282   8.5988   8.6143   8.6451   8.6608
     8.6672   8.7071   8.7171   8.7400   8.7816   8.7898   8.9640   8.9971
     9.0174   9.0419   9.1001   9.1376   9.2049   9.2277   9.2542   9.2627
     9.2878   9.3015   9.3187   9.3339   9.3446   9.4101   9.4383   9.4504
     9.4864   9.5008   9.6267   9.6363   9.7782   9.8472   9.9785   9.9930

          k =-0.5000 0.0000 0.0000 (256496 PWs)   bands (ev):

   -17.0437 -15.9408 -15.6846 -15.5461 -15.5275 -15.4846 -14.7251 -14.5188
   -14.4432 -14.4192 -13.1618 -12.8020 -12.6979 -12.6432 -12.3798 -12.3383
   -11.8575 -11.8334 -11.7387 -11.7288 -11.1922 -11.1494 -10.9448 -10.6938
   -10.2610 -10.2098  -9.9680  -9.6851  -9.1360  -9.0787  -8.9102  -8.8736
    -7.8266  -7.6024  -7.4893  -7.4149  -7.2905  -7.2764  -6.1609  -6.1358
    -5.8183  -5.4529  -5.3877  -5.2397  -5.2171  -5.0866  -4.9177  -4.8194
    -4.7985  -4.7804  -4.7353  -4.7250  -4.7220  -4.6945  -4.6799  -4.6365
    -4.5806  -4.5276  -4.4828  -4.4124  -4.3594  -4.2660  -4.2213  -4.1454
    -4.0008  -3.9565  -3.9070  -3.8979  -3.7433  -3.6193  -3.6123  -3.5518
    -3.5025  -3.4798  -3.3618  -3.3503  -3.3490  -3.3468  -3.3224  -3.3085
    -3.2820  -3.2745  -3.1997  -3.1061  -2.8694  -2.7968  -2.7742  -2.7181
    -2.6780  -2.6734  -2.5712  -2.5468  -2.5272  -2.4728  -2.3904  -2.3732
    -2.2459  -2.2323  -2.2282  -2.2232  -1.9334  -1.8853  -1.8097  -1.8068
    -1.8057  -1.8054  -1.8047  -1.8006  -1.7925  -1.7203  -1.6920  -1.6729
    -1.6541  -1.6206  -1.5796  -1.5785  -1.5781  -1.5751  -1.5315  -1.5310
    -1.5269  -1.5254  -1.4635  -1.4348  -1.4229  -1.4165  -1.4154  -1.4148
    -1.3795  -1.3591  -1.3535  -1.3509  -1.3489  -1.3356  -1.3325  -1.3179
    -1.2877  -1.2851  -1.2819  -1.2803  -1.2773  -1.2707  -1.2692  -1.2649
    -1.2539  -1.2459  -1.2212  -1.2201  -1.2170  -1.2144  -1.1966  -1.1964
    -1.1949  -1.1926  -1.1327  -1.1316  -1.1142  -1.1116  -1.1097  -1.1075
    -1.0955  -1.0879  -1.0852  -1.0819  -1.0781  -1.0747  -1.0699  -1.0444
    -1.0362  -1.0354  -1.0350  -1.0329  -1.0144  -1.0112  -0.9889  -0.9842
    -0.9826  -0.9450  -0.9391  -0.9364  -0.9102  -0.9096  -0.9065  -0.9050
    -0.8884  -0.8816  -0.8786  -0.8755  -0.8752  -0.8744  -0.8647  -0.8609
    -0.8579  -0.8568  -0.8551  -0.8383  -0.8341  -0.8293  -0.7721  -0.7687
    -0.7676  -0.7663  -0.7241  -0.7221  -0.6844  -0.6409  -0.6402  -0.6391
    -0.6363  -0.6314  -0.6104  -0.6029  -0.6015  -0.6007  -0.5979  -0.5959
    -0.5912  -0.5736  -0.5634  -0.5614  -0.5547  -0.5544  -0.5520  -0.5393
    -0.5298  -0.5285  -0.5248  -0.5039  -0.4936  -0.4483  -0.4415  -0.4284
    -0.4082  -0.3939  -0.3859  -0.3850  -0.3813  -0.3639  -0.3601  -0.3430
    -0.3396  -0.3373  -0.3352  -0.3324  -0.3315  -0.3259  -0.2991  -0.2974
    -0.2965  -0.2955  -0.2925  -0.2605  -0.2595  -0.2569  -0.2566  -0.2466
    -0.2375  -0.2243  -0.2238  -0.2235  -0.2223  -0.2128  -0.2114  -0.1795
    -0.1791  -0.1774  -0.1760  -0.1709  -0.1668  -0.1567  -0.1462  -0.1348
    -0.1288  -0.1173  -0.0661  -0.0655  -0.0646  -0.0634  -0.0589  -0.0583
    -0.0559  -0.0532  -0.0208  -0.0188  -0.0171  -0.0113   0.0171   0.0191
     0.0364   0.0441   0.0462   0.0468   0.0472   0.0484   0.0491   0.0511
     0.0512   0.0519   0.0523   0.0545   0.0648   0.1020   0.1195   0.1254
     0.1267   0.1340   0.1376   0.1400   0.1415   0.1439   0.1461   0.1486
     0.1496   0.1535   0.1539   0.1567   0.1570   0.1592   0.1637   0.1648
     0.1725   0.1728   0.1866   0.1876   0.1889   0.1892   0.1894   0.1915
     0.1987   0.1991   0.1997   0.2003   0.2091   0.2136   0.2146   0.2240
     0.2249   0.2255   0.2262   0.2390   0.2456   0.2549   0.2573   0.2943
     0.3536   0.3555   0.3567   0.3591   0.3877   0.3889   0.3906   0.3913
     0.3997   0.4013   0.4045   0.4070   0.4087   0.4124   0.4129   0.4158
     0.4190   0.4193   0.4221   0.4241   0.4262   0.4298   0.4325   0.4355
     0.4364   0.4434   0.4458   0.4479   0.4582   0.4591   0.4697   0.4698
     0.4727   0.4758   0.4819   0.4959   0.5505   0.5568   0.5637   0.5646
     0.5717   0.5783   0.5860   0.5891   0.5918   0.5941   0.5957   0.5980
     0.5993   0.6003   0.6025   0.6048   0.6069   0.6097   0.6113   0.6126
     0.6149   0.6162   0.6182   0.6196   0.6265   0.6351   0.6462   0.6549
     0.6557   0.6615   0.6666   0.6764   0.6837   0.6900   0.6905   0.6914
     0.6994   0.7010   0.7024   0.7046   0.7058   0.7094   0.7133   0.7175
     0.7222   0.7230   0.7364   0.7375   0.7382   0.7397   0.7686   0.7751
     0.7758   0.7785   0.7822   0.7866   0.7932   0.7966   0.8047   0.8104
     0.8304   0.8317   0.8345   0.8351   0.8379   0.8388   0.8427   0.8660
     0.8833   0.9059   0.9080   0.9109   0.9112   0.9116   0.9128   0.9160
     0.9181   0.9213   0.9221   0.9254   0.9312   0.9338   0.9376   0.9538
     0.9557   0.9586   0.9603   0.9706   0.9739   0.9752   0.9766   0.9775
     0.9783   0.9797   0.9903   1.0165   1.0174   1.0182   1.0220   1.0270
     1.0796   1.0819   1.0830   1.0859   1.0869   1.1022   1.1136   1.1164
     1.1166   1.1183   1.1293   1.1332   1.1397   1.1463   1.1474   1.1509
     1.1547   1.1618   1.1734   1.1794   1.1857   1.1862   1.1879   1.1892
     1.1913   1.1943   1.1955   1.1956   1.2026   1.2052   1.2057   1.2062
     1.2065   1.2077   1.2081   1.2135   1.2349   1.2438   1.2468   1.2477
     1.2486   1.2501   1.2660   1.2770   1.2802   1.2830   1.2845   1.2877
     1.2947   1.2995   1.3021   1.3075   1.3112   1.3120   1.3125   1.3136
     1.3215   1.3222   1.3233   1.3264   1.3302   1.3340   1.3446   1.3521
     1.3677   1.3698   1.3748   1.3784   1.3844   1.3851   1.3857   1.3871
     1.3875   1.3880   1.3932   1.3962   1.3985   1.3998   1.4005   1.4019
     1.4023   1.4033   1.4059   1.4111   1.4114   1.4121   1.4126   1.4133
     1.4183   1.4198   1.4334   1.4365   1.4507   1.4556   1.4580   1.4595
     1.4608   1.4629   1.4634   1.4643   1.4683   1.4796   1.4845   1.4857
     1.4872   1.4986   1.4996   1.5044   1.5081   1.5180   1.5192   1.5197
     1.5212   1.5290   1.5380   1.5401   1.5420   1.5446   1.5466   1.5476
     1.5488   1.5493   1.5549   1.5619   1.5671   1.5709   1.5826   1.5831
     1.5839   1.5843   1.5853   1.5915   1.5971   1.5998   1.6420   1.6466
     1.6535   1.6749   1.6776   1.6798   1.6829   1.6937   2.0054   2.0967
     2.1036   2.1089   2.1238   2.2984   2.3227   2.3298   2.3405   2.3546
     2.3568   2.3627   2.3683   2.6593   2.6995   2.7017   2.7109   2.8909
     2.8998   2.9046   2.9083   3.2520   3.2566   3.2569   3.2581   3.4777
     3.5454   3.5971   3.8147   3.8374   3.8427   3.8777   3.9620   3.9968
     4.0006   4.0236   4.1117   4.1374   4.1455   4.1471   4.2610   4.2882
     4.4157   4.4354   4.4541   4.7598   4.8316   4.8402   4.8496   4.8724
     4.8947   4.8978   4.9033   4.9566   5.0353   5.0874   5.0883   5.1124
     5.1173   5.1232   5.1283   5.1470   5.1475   5.1685   5.1734   5.1891
     5.4628   5.4931   5.5515   5.6024   5.6695   5.7231   5.7745   5.7883
     5.8528   6.0512   6.0560   6.0784   6.0796   6.1027   6.1177   6.1281
     6.1470   6.2178   6.4118   6.4688   6.5206   6.5318   6.5488   6.5625
     7.1384   7.1610   7.1743   7.1850   7.2008   7.2066   7.4090   7.4692
     7.6473   7.6677   7.6726   7.6749   7.6768   7.6824   7.7096   7.7518
     7.8820   7.8870   7.9373   7.9521   7.9673   7.9700   8.0421   8.0987
     8.1254   8.1463   8.1757   8.1887   8.2314   8.2377   8.2765   8.4174
     8.5010   8.5818   8.6076   8.8219   8.8942   8.9021   8.9060   8.9108
     8.9928   8.9991   9.1135   9.1427   9.1454   9.1620   9.2506   9.3315
     9.3365   9.3946   9.4765   9.5000   9.5023   9.5117   9.5858   9.5961
     9.6059   9.6087   9.6199   9.6243   9.7234   9.7550   9.7981   9.8425

          k =-0.5000-0.2165 0.0000 (256328 PWs)   bands (ev):

   -17.0436 -15.9078 -15.7496 -15.7283 -15.3158 -15.1077 -15.0815 -15.0466
   -13.9814 -13.7461 -13.6407 -13.6107 -12.6171 -12.3728 -11.9426 -11.9343
   -11.8771 -11.6653 -11.6010 -11.5349 -11.4854 -11.4740 -11.3487 -11.3407
    -9.9961  -9.9438  -9.6909  -9.6617  -9.2182  -8.8102  -8.7145  -8.7001
    -8.2552  -8.1875  -7.9458  -7.9187  -6.5356  -6.2564  -6.2332  -5.9117
    -5.7532  -5.5455  -5.4394  -5.2797  -5.2255  -5.1841  -5.1174  -5.1122
    -5.1112  -5.0958  -5.0306  -4.9497  -4.8954  -4.6180  -4.4877  -4.4467
    -4.2848  -4.2644  -4.1982  -4.1534  -4.1343  -4.1280  -4.1201  -4.1092
    -4.0789  -4.0517  -3.9718  -3.8734  -3.8135  -3.7958  -3.7473  -3.7160
    -3.6506  -3.6226  -3.5628  -3.5456  -3.4978  -3.4364  -3.3902  -3.3499
    -3.1850  -3.0871  -3.0117  -2.9953  -2.6519  -2.5431  -2.5221  -2.5107
    -2.5063  -2.4997  -2.4964  -2.4784  -2.4684  -2.4451  -2.4357  -2.3836
    -2.2976  -2.2255  -2.0896  -2.0589  -2.0322  -2.0244  -2.0037  -1.9786
    -1.9661  -1.9557  -1.9393  -1.9307  -1.9083  -1.8382  -1.7343  -1.7313
    -1.7293  -1.7241  -1.6868  -1.6573  -1.5347  -1.5188  -1.4518  -1.4372
    -1.4221  -1.4212  -1.4205  -1.4199  -1.4174  -1.3859  -1.3821  -1.3818
    -1.3631  -1.3628  -1.3602  -1.3601  -1.3170  -1.3145  -1.3143  -1.3128
    -1.3122  -1.3117  -1.3078  -1.3051  -1.2960  -1.2867  -1.2863  -1.2848
    -1.2841  -1.2419  -1.2359  -1.2350  -1.2289  -1.2116  -1.1764  -1.1655
    -1.1577  -1.1493  -1.1198  -1.1187  -1.1178  -1.1173  -1.1069  -1.1022
    -1.0996  -1.0960  -1.0789  -1.0541  -1.0493  -1.0484  -1.0481  -1.0443
    -1.0438  -1.0435  -1.0420  -1.0364  -1.0233  -1.0110  -0.9903  -0.9893
    -0.9884  -0.9829  -0.9809  -0.9768  -0.9722  -0.9715  -0.9673  -0.9653
    -0.9642  -0.9634  -0.9625  -0.9594  -0.9046  -0.8149  -0.8126  -0.8118
    -0.8064  -0.7817  -0.7807  -0.7801  -0.7792  -0.7685  -0.7140  -0.7020
    -0.7008  -0.6987  -0.6957  -0.6916  -0.6911  -0.6900  -0.6889  -0.6883
    -0.6834  -0.6343  -0.6314  -0.6283  -0.6266  -0.6219  -0.6197  -0.6186
    -0.6179  -0.6035  -0.5989  -0.5941  -0.5856  -0.5700  -0.5553  -0.5080
    -0.5035  -0.5013  -0.4992  -0.4945  -0.4917  -0.4680  -0.4289  -0.4283
    -0.4273  -0.4242  -0.4096  -0.3779  -0.3766  -0.3762  -0.3718  -0.3583
    -0.3580  -0.3559  -0.3544  -0.3323  -0.3274  -0.3257  -0.3190  -0.3186
    -0.3162  -0.3157  -0.2931  -0.2819  -0.2801  -0.2633  -0.2405  -0.2051
    -0.2043  -0.1998  -0.1984  -0.1858  -0.1853  -0.1841  -0.1837  -0.1688
    -0.1688  -0.1680  -0.1641  -0.0881  -0.0862  -0.0860  -0.0844  -0.0835
    -0.0819  -0.0801  -0.0793  -0.0783  -0.0762  -0.0751  -0.0709  -0.0413
    -0.0410  -0.0408  -0.0396  -0.0299  -0.0297  -0.0290  -0.0282  -0.0243
    -0.0238  -0.0211  -0.0204   0.0432   0.0435   0.0457   0.0465   0.0670
     0.0685   0.0712   0.0750   0.1017   0.1089   0.1212   0.1246   0.1299
     0.1387   0.1394   0.1491   0.1508   0.1522   0.1523   0.1566   0.1596
     0.1597   0.1630   0.1637   0.1641   0.1663   0.1707   0.1720   0.1735
     0.1759   0.1776   0.1777   0.1790   0.1795   0.1873   0.1935   0.1949
     0.1960   0.1971   0.2217   0.2221   0.2224   0.2227   0.2302   0.2320
     0.2346   0.2358   0.2767   0.2814   0.2825   0.2829   0.2872   0.3115
     0.3139   0.3165   0.3180   0.3307   0.3721   0.3844   0.3906   0.3931
     0.3951   0.3974   0.3993   0.4072   0.4131   0.4134   0.4151   0.4177
     0.4234   0.4265   0.4293   0.4301   0.4340   0.4369   0.4374   0.4384
     0.4415   0.4439   0.4464   0.4473   0.4509   0.4510   0.4558   0.4683
     0.5109   0.5160   0.5191   0.5226   0.5250   0.5267   0.5291   0.5304
     0.5397   0.5399   0.5402   0.5416   0.5657   0.5718   0.5783   0.5784
     0.5791   0.5825   0.5902   0.5912   0.6053   0.6202   0.6209   0.6240
     0.6257   0.6296   0.6347   0.6353   0.6367   0.6380   0.6392   0.6400
     0.6453   0.6459   0.6465   0.6507   0.6581   0.6590   0.6626   0.6642
     0.6657   0.6711   0.6802   0.6823   0.7239   0.7332   0.7387   0.7472
     0.7501   0.7519   0.7538   0.7543   0.7568   0.7586   0.7593   0.7628
     0.7652   0.7669   0.7762   0.7794   0.7979   0.7990   0.7998   0.7999
     0.8005   0.8018   0.8028   0.8087   0.8232   0.8423   0.8529   0.8531
     0.8542   0.8805   0.8820   0.8835   0.8840   0.8863   0.8916   0.9004
     0.9179   0.9181   0.9184   0.9226   0.9417   0.9440   0.9460   0.9478
     0.9943   0.9956   0.9969   0.9984   1.0141   1.0272   1.0284   1.0304
     1.0331   1.0542   1.0715   1.0789   1.0820   1.0844   1.0883   1.0959
     1.1009   1.1035   1.1091   1.1100   1.1114   1.1138   1.1144   1.1149
     1.1154   1.1162   1.1181   1.1186   1.1204   1.1241   1.1294   1.1398
     1.1420   1.1432   1.1486   1.1498   1.1519   1.1526   1.1536   1.1545
     1.1583   1.1652   1.1673   1.1694   1.1841   1.1900   1.1936   1.1951
     1.1969   1.1988   1.2012   1.2043   1.2127   1.2141   1.2159   1.2167
     1.2477   1.2524   1.2600   1.2623   1.2650   1.2650   1.2685   1.2702
     1.2880   1.2904   1.2921   1.2926   1.2941   1.3045   1.3075   1.3107
     1.3135   1.3163   1.3262   1.3308   1.3375   1.3396   1.3412   1.3424
     1.3475   1.3500   1.3505   1.3521   1.3555   1.3570   1.3576   1.3589
     1.3965   1.4160   1.4183   1.4217   1.4228   1.4238   1.4244   1.4246
     1.4255   1.4258   1.4306   1.4333   1.4375   1.4383   1.4420   1.4440
     1.4476   1.4505   1.4534   1.4544   1.4555   1.4573   1.4589   1.4631
     1.4641   1.4650   1.4658   1.4669   1.4675   1.4745   1.4769   1.4778
     1.4848   1.4858   1.4876   1.4879   1.5184   1.5195   1.5200   1.5203
     1.5304   1.5329   1.5346   1.5355   1.5393   1.5452   1.5482   1.5533
     1.5639   1.5701   1.5714   1.5723   1.5970   1.6160   1.6253   1.6267
     1.6416   1.6422   1.6443   1.6448   1.6664   1.6691   1.6730   1.6760
     1.6796   1.6819   1.6842   1.6848   1.6875   1.6879   1.6891   1.6910
     1.8974   1.9031   1.9065   1.9067   2.0806   2.3914   2.4240   2.4260
     2.4336   2.6274   2.6300   2.6312   2.6422   2.8389   2.8629   2.8732
     2.8761   3.1208   3.1602   3.1757   3.1823   3.5029   3.5228   3.5239
     3.5244   3.6050   3.7073   3.7140   3.7178   3.7646   3.9863   3.9992
     4.0007   4.0046   4.2009   4.2948   4.2975   4.3021   4.3335   4.4101
     4.4248   4.4377   4.4666   4.5985   4.6330   4.6444   4.6487   4.6607
     4.6669   4.7440   4.7926   4.8914   4.9395   4.9662   5.0527   5.1018
     5.1400   5.2230   5.2361   5.2441   5.2663   5.2795   5.3045   5.3361
     5.3522   5.4210   5.4366   5.4476   5.4737   5.5094   5.7477   5.7877
     5.8199   5.8231   5.8255   5.8269   5.9377   5.9742   5.9841   5.9918
     6.6256   6.8203   6.8356   6.8743   6.8843   7.0178   7.1816   7.2014
     7.2048   7.2089   7.2273   7.2340   7.2558   7.2612   7.3421   7.3665
     7.3768   7.4091   7.4329   7.4406   7.4449   7.4484   7.5782   7.6698
     7.7097   7.7180   7.7706   7.8962   7.9428   7.9866   8.0618   8.0660
     8.0810   8.1097   8.2725   8.2932   8.3014   8.3058   8.3284   8.3311
     8.8288   8.8836   8.9361   8.9557   8.9628   8.9641   8.9730   8.9796
     8.9931   9.0352   9.0390   9.0410   9.0473   9.0613   9.1016   9.1263
     9.1402   9.1460   9.1561   9.2273   9.2811   9.5183   9.5998   9.6115
     9.6318   9.6470   9.6645   9.6731   9.6767   9.7771   9.8446   9.9337

     the Fermi energy is     3.3924 ev

!    total energy              =  -12709.38735602 Ry
     Harris-Foulkes estimate   =  -12709.38735604 Ry
     estimated scf accuracy    <          4.1E-09 Ry

     The total energy is the sum of the following terms:

     one-electron contribution = -109366.23138038 Ry
     hartree contribution      =   56048.61365930 Ry
     xc contribution           =   -4449.27465068 Ry
     ewald contribution        =   45063.87825935 Ry
     Dispersion Correction     =      -3.00346385 Ry
     smearing contrib. (-TS)   =      -3.36977975 Ry

     convergence has been achieved in  46 iterations

     Writing output data file gc.save
 
     init_run     :    101.38s CPU    108.10s WALL (       1 calls)
     electrons    :  12321.04s CPU  13162.86s WALL (       1 calls)

     Called by init_run:
     wfcinit      :     98.73s CPU    105.11s WALL (       1 calls)
     potinit      :      0.70s CPU      0.70s WALL (       1 calls)

     Called by electrons:
     c_bands      :  11283.35s CPU  12025.30s WALL (      46 calls)
     sum_band     :    859.54s CPU    931.15s WALL (      46 calls)
     v_of_rho     :      2.97s CPU      3.74s WALL (      47 calls)
     newd         :      8.68s CPU     14.49s WALL (      47 calls)
     mix_rho      :    166.45s CPU    188.11s WALL (      46 calls)

     Called by c_bands:
     init_us_2    :     38.51s CPU     39.19s WALL (     558 calls)
     cegterg      :  11112.16s CPU  11847.89s WALL (     282 calls)

     Called by sum_band:
     sum_band:bec :      4.90s CPU      5.46s WALL (     276 calls)
     addusdens    :      8.52s CPU     14.11s WALL (      46 calls)

     Called by *egterg:
     h_psi        :   4164.42s CPU   4500.40s WALL (    1781 calls)
     s_psi        :   1007.01s CPU   1018.60s WALL (    1781 calls)
     g_psi        :     10.51s CPU     10.52s WALL (    1493 calls)
     cdiaghg      :   3016.07s CPU   3129.77s WALL (    1769 calls)

     Called by h_psi:
     add_vuspsi   :   1012.85s CPU   1025.74s WALL (    1781 calls)

     General routines
     calbec       :   1450.98s CPU   1460.67s WALL (    2057 calls)
     fft          :      3.93s CPU      4.51s WALL (     610 calls)
     ffts         :     96.59s CPU    109.37s WALL (   25575 calls)
     fftw         :   2392.66s CPU   2661.35s WALL ( 1322892 calls)
     davcio       :      0.29s CPU      3.99s WALL (       6 calls)
 
     Parallel routines
     fft_scatter  :   1543.44s CPU   1691.96s WALL ( 1349077 calls)
 
     PWSCF        :     3h27m CPU        3h41m WALL

 
   This run was terminated on:  12:29:42   1May2017            

=------------------------------------------------------------------------------=
   JOB DONE.
=------------------------------------------------------------------------------=
