
     Program PWSCF v.5.4.0 starts on 20Apr2017 at 13:59:55 

     This program is part of the open-source Quantum ESPRESSO suite
     for quantum simulation of materials; please cite
         "P. Giannozzi et al., J. Phys.:Condens. Matter 21 395502 (2009);
          URL http://www.quantum-espresso.org", 
     in publications or presentations arising from this work. More details at
     http://www.quantum-espresso.org/quote

     Parallel version (MPI & OpenMP), running on      56 processor cores
     Number of MPI processes:                56
     Threads/MPI process:                     1
     R & G space division:  proc/nbgrp/npool/nimage =      56
     Waiting for input...
     Reading input from standard input
Warning: card &IONS ignored
Warning: card / ignored

     Current dimensions of program PWSCF are:
     Max number of different atomic species (ntypx) = 10
     Max number of k-points (npk) =  40000
     Max angular momentum in pseudopotentials (lmaxx) =  3

     -------------------------------------
     Parameters for Dispersion Correction:
     -------------------------------------
       atom      VdW radius       C_6     

        Cu         2.952        374.666
        C_h        2.744         60.710
        C          2.744         60.710

     Subspace diagonalization in iterative solution of the eigenvalue problem:
     one sub-group per band group will be used
     scalapack distributed-memory algorithm (size of sub-group:  5*  5 procs)

 
     Parallelization info
     --------------------
     sticks:   dense  smooth     PW     G-vecs:    dense   smooth      PW
     Min         204     204     54                36612    36612    4962
     Max         205     205     55                36617    36617    4968
     Sum       11433   11433   3039              2050409  2050409  278033
 


     bravais-lattice index     =            0
     lattice parameter (alat)  =      13.9425  a.u.
     unit-cell volume          =   21209.0878 (a.u.)^3
     number of atoms/cell      =          156
     number of atomic types    =            3
     number of electrons       =      1380.00
     number of Kohn-Sham states=          828
     kinetic-energy cutoff     =      80.0000  Ry
     charge density cutoff     =     320.0000  Ry
     convergence threshold     =      1.0E-08
     mixing beta               =       0.7000
     number of iterations used =            8  local-TF  mixing
     Exchange-correlation      =  SLA  PW   PBX  PBC ( 1  4  3  4 0 0)

     celldm(1)=  13.942539  celldm(2)=   0.000000  celldm(3)=   0.000000
     celldm(4)=   0.000000  celldm(5)=   0.000000  celldm(6)=   0.000000

     crystal axes: (cart. coord. in units of alat)
               a(1) = (   1.000000   0.000000   0.000000 )  
               a(2) = (   0.000000   2.309401   0.000000 )  
               a(3) = (   0.000000   0.000000   3.388418 )  

     reciprocal axes: (cart. coord. in units 2 pi/alat)
               b(1) = (  1.000000  0.000000  0.000000 )  
               b(2) = (  0.000000  0.433013  0.000000 )  
               b(3) = (  0.000000  0.000000  0.295123 )  


     PseudoPot. # 1 for Cu read from file:
     /home/549/hxw549/Short/pseudopotentials/Cu.pbe-n-van_ak.UPF
     MD5 check sum: 601f7c30f7467666bec936e0661ce3e1
     Pseudo is Ultrasoft + core correction, Zval = 11.0
     Generated by new atomic code, or converted to UPF format
     Using radial grid of  867 points,  6 beta functions with: 
                l(1) =   0
                l(2) =   0
                l(3) =   1
                l(4) =   1
                l(5) =   2
                l(6) =   2
     Q(r) pseudized with  8 coefficients,  rinner =    1.400   1.400   1.400
                                                       1.400   1.400

     PseudoPot. # 2 for C  read from file:
     /home/549/hxw549/Short/pseudopotentials/C.star1s-pbe-mt_gipaw.UPF
     MD5 check sum: ef0cb3dee31bd9e4ba2a832a2c716264
     Pseudo is Norm-conserving, Zval =  5.0
     Generated by new atomic code, or converted to UPF format
     Using radial grid of 1073 points,  1 beta functions with: 
                l(1) =   0

     PseudoPot. # 3 for C  read from file:
     /home/549/hxw549/Short/pseudopotentials/C.pbe-mt_gipaw.UPF
     MD5 check sum: 5ac2f21f2c440b14befe521540822c15
     Pseudo is Norm-conserving, Zval =  4.0
     Generated by new atomic code, or converted to UPF format
     Using radial grid of 1073 points,  1 beta functions with: 
                l(1) =   0

     atomic species   valence    mass     pseudopotential
        Cu            11.00    63.54600     Cu( 1.00)
        C_h            5.00    12.01070     C ( 1.00)
        C              4.00    12.01070     C ( 1.00)

     No symmetry found



   Cartesian axes

     site n.     atom                  positions (alat units)
         1           Cu  tau(   1) = (  -0.0000549   0.0038944   0.8895039  )
         2           Cu  tau(   2) = (   0.2498561   0.2364069   0.8931545  )
         3           Cu  tau(   3) = (   0.4999834   0.0040272   0.8891076  )
         4           Cu  tau(   4) = (   0.7500655   0.2365774   0.8930538  )
         5           Cu  tau(   5) = (  -0.0000562   0.4680485   0.8986857  )
         6           Cu  tau(   6) = (   0.2499204   0.6979601   0.9023997  )
         7           Cu  tau(   7) = (   0.4999770   0.4680600   0.8986438  )
         8           Cu  tau(   8) = (   0.7499919   0.6979170   0.9024188  )
         9           Cu  tau(   9) = (  -0.0000103   0.9272203   0.9035556  )
        10           Cu  tau(  10) = (   0.2499589   1.1564729   0.9037066  )
        11           Cu  tau(  11) = (   0.4999145   0.9271629   0.9034395  )
        12           Cu  tau(  12) = (   0.7499463   1.1564243   0.9036188  )
        13           Cu  tau(  13) = (  -0.0001139   1.3860246   0.9027183  )
        14           Cu  tau(  14) = (   0.2498801   1.6163418   0.8986746  )
        15           Cu  tau(  15) = (   0.5000280   1.3859803   0.9024834  )
        16           Cu  tau(  16) = (   0.7500312   1.6160597   0.8985479  )
        17           Cu  tau(  17) = (   0.0000423   1.8478793   0.8927838  )
        18           Cu  tau(  18) = (   0.2500275   2.0802463   0.8891797  )
        19           Cu  tau(  19) = (   0.4998824   1.8476458   0.8930400  )
        20           Cu  tau(  20) = (   0.7499023   2.0802466   0.8892023  )
        21           Cu  tau(  21) = (  -0.0000006   0.2314407   1.1418707  )
        22           Cu  tau(  22) = (   0.2498892   0.0016921   1.1383038  )
        23           Cu  tau(  23) = (   0.4999305   0.2313254   1.1417344  )
        24           Cu  tau(  24) = (   0.7500314   0.0017233   1.1384329  )
        25           Cu  tau(  25) = (  -0.0000709   0.6957747   1.1517252  )
        26           Cu  tau(  26) = (   0.2500244   0.4632860   1.1474081  )
        27           Cu  tau(  27) = (   0.4999876   0.6957836   1.1516684  )
        28           Cu  tau(  28) = (   0.7498984   0.4632432   1.1473117  )
        29           Cu  tau(  29) = (  -0.0000630   1.1568679   1.1543012  )
        30           Cu  tau(  30) = (   0.2499277   0.9268448   1.1543638  )
        31           Cu  tau(  31) = (   0.4999724   1.1568693   1.1541867  )
        32           Cu  tau(  32) = (   0.7500027   0.9269784   1.1543223  )
        33           Cu  tau(  33) = (  -0.0000082   1.6210599   1.1470060  )
        34           Cu  tau(  34) = (   0.2498596   1.3881448   1.1514236  )
        35           Cu  tau(  35) = (   0.4999174   1.6209561   1.1473344  )
        36           Cu  tau(  36) = (   0.7500490   1.3882920   1.1514093  )
        37           Cu  tau(  37) = (  -0.0001368   2.0821940   1.1384383  )
        38           Cu  tau(  38) = (   0.2500917   1.8528039   1.1417247  )
        39           Cu  tau(  39) = (   0.5000439   2.0824138   1.1382179  )
        40           Cu  tau(  40) = (   0.7498259   1.8528944   1.1417626  )
        41           Cu  tau(  41) = (  -0.0001378   0.0006883   1.3919862  )
        42           Cu  tau(  42) = (   0.2499845   0.2287190   1.3929011  )
        43           Cu  tau(  43) = (   0.5000483   0.0010692   1.3920855  )
        44           Cu  tau(  44) = (   0.7499379   0.2286829   1.3928022  )
        45           Cu  tau(  45) = (   0.0000062   0.4584630   1.3955340  )
        46           Cu  tau(  46) = (   0.2499963   0.6914661   1.3999671  )
        47           Cu  tau(  47) = (   0.4999185   0.4580848   1.3951344  )
        48           Cu  tau(  48) = (   0.7499533   0.6912121   1.4000695  )
        49           Cu  tau(  49) = (  -0.0000360   0.9252124   1.4043059  )
        50           Cu  tau(  50) = (   0.2499282   1.1590389   1.4037961  )
        51           Cu  tau(  51) = (   0.4999469   0.9251753   1.4044409  )
        52           Cu  tau(  52) = (   0.7500253   1.1590458   1.4042624  )
        53           Cu  tau(  53) = (  -0.0000739   1.3928481   1.3993409  )
        54           Cu  tau(  54) = (   0.2500691   1.6257625   1.3946926  )
        55           Cu  tau(  55) = (   0.4999884   1.3926344   1.3994945  )
        56           Cu  tau(  56) = (   0.7498314   1.6259215   1.3947318  )
        57           Cu  tau(  57) = (  -0.0000489   1.8554057   1.3928460  )
        58           Cu  tau(  58) = (   0.2499235   2.0832681   1.3919605  )
        59           Cu  tau(  59) = (   0.4999390   1.8556516   1.3922941  )
        60           Cu  tau(  60) = (   0.7499778   2.0829845   1.3920999  )
        61           Cu  tau(  61) = (  -0.0000594   0.2275935   1.6471819  )
        62           Cu  tau(  62) = (   0.2501001   0.0001540   1.6468201  )
        63           Cu  tau(  63) = (   0.4999427   0.2275226   1.6475724  )
        64           Cu  tau(  64) = (   0.7498079   0.0002051   1.6469932  )
        65           Cu  tau(  65) = (   0.0000357   0.6849101   1.6488244  )
        66           Cu  tau(  66) = (   0.2501027   0.4550203   1.6471545  )
        67           Cu  tau(  67) = (   0.4999170   0.6842384   1.6480417  )
        68           Cu  tau(  68) = (   0.7498109   0.4548594   1.6471270  )
        69           Cu  tau(  69) = (  -0.0000527   1.1637303   1.6506847  )
        70           Cu  tau(  70) = (   0.2501509   0.9216146   1.6509466  )
        71           Cu  tau(  71) = (   0.5000517   1.1629157   1.6515761  )
        72           Cu  tau(  72) = (   0.7497688   0.9213551   1.6514686  )
        73           Cu  tau(  73) = (  -0.0001140   1.6285458   1.6471528  )
        74           Cu  tau(  74) = (   0.2500948   1.3996204   1.6478345  )
        75           Cu  tau(  75) = (   0.5000089   1.6292832   1.6462570  )
        76           Cu  tau(  76) = (   0.7498648   1.4001992   1.6480762  )
        77           Cu  tau(  77) = (  -0.0001698   2.0839327   1.6471420  )
        78           Cu  tau(  78) = (   0.2497414   1.8566981   1.6467677  )
        79           Cu  tau(  79) = (   0.5001041   2.0836196   1.6465065  )
        80           Cu  tau(  80) = (   0.7501418   1.8567086   1.6473694  )
        81           Cu  tau(  81) = (   0.0000606   0.0005566   1.9026502  )
        82           Cu  tau(  82) = (   0.2503732   0.2248242   1.9015096  )
        83           Cu  tau(  83) = (   0.4998202  -0.0005144   1.9024713  )
        84           Cu  tau(  84) = (   0.7495713   0.2246990   1.9014783  )
        85           Cu  tau(  85) = (   0.0000338   0.4467760   1.9043256  )
        86           Cu  tau(  86) = (   0.2493514   0.6728710   1.9029509  )
        87           Cu  tau(  87) = (   0.4998802   0.4455824   1.9021670  )
        88           Cu  tau(  88) = (   0.7505658   0.6721677   1.9028605  )
        89           Cu  tau(  89) = (   0.0006263   0.9184138   1.8867044  )
        90           Cu  tau(  90) = (   0.2497779   1.1671666   1.8871488  )
        91           Cu  tau(  91) = (   0.4991665   0.9167096   1.8870412  )
        92           Cu  tau(  92) = (   0.7501328   1.1676623   1.8863851  )
        93           Cu  tau(  93) = (   0.0000031   1.4129974   1.9041958  )
        94           Cu  tau(  94) = (   0.2501514   1.6381240   1.9026581  )
        95           Cu  tau(  95) = (   0.4998962   1.4122563   1.9006415  )
        96           Cu  tau(  96) = (   0.7497848   1.6384651   1.9031469  )
        97           Cu  tau(  97) = (  -0.0000327   1.8590214   1.9016926  )
        98           Cu  tau(  98) = (   0.2493588   2.0836751   1.9022804  )
        99           Cu  tau(  99) = (   0.4999181   1.8599112   1.9009201  )
       100           Cu  tau( 100) = (   0.7504827   2.0840516   1.9026399  )
       101           Cu  tau( 101) = (   0.2536675   1.3944837   2.1357621  )
       102           Cu  tau( 102) = (   0.7464037   1.3942318   2.1363374  )
       103           Cu  tau( 103) = (  -0.0004629   1.1583394   2.1209052  )
       104           Cu  tau( 104) = (   0.2505084   0.9288428   2.1206185  )
       105           Cu  tau( 105) = (   0.5002771   1.1562048   2.1193217  )
       106           Cu  tau( 106) = (   0.7495267   0.9280549   2.1199382  )
       107           Cu  tau( 107) = (  -0.0000193   0.6948418   2.1354509  )
       108           Cu  tau( 108) = (   0.4998810   0.6882222   2.1355829  )
       109           C   tau( 109) = (   0.0000991   0.0901428   2.4031502  )
       110           C   tau( 110) = (   0.0000930   0.2823830   2.4180114  )
       111           C   tau( 111) = (   0.1666773  -0.0064510   2.3996578  )
       112           C   tau( 112) = (   0.1668787   0.3782408   2.4277671  )
       113           C_h tau( 113) = (   0.3333089   0.0900211   2.4026227  )
       114           C   tau( 114) = (   0.3334028   0.2822316   2.4161361  )
       115           C   tau( 115) = (   0.5000830  -0.0063283   2.3982863  )
       116           C   tau( 116) = (   0.5000767   0.3780919   2.4227795  )
       117           C   tau( 117) = (   0.6669041   0.0900346   2.4025061  )
       118           C   tau( 118) = (   0.6667952   0.2822435   2.4160878  )
       119           C   tau( 119) = (   0.8334865  -0.0064471   2.3995724  )
       120           C   tau( 120) = (   0.8332736   0.3782539   2.4277003  )
       121           C   tau( 121) = (   0.0000735   0.6670179   2.4604097  )
       122           C   tau( 122) = (   0.0001050   0.8588633   2.4907114  )
       123           C   tau( 123) = (   0.1672571   0.5698504   2.4498428  )
       124           C   tau( 124) = (   0.1665971   0.9552497   2.4963875  )
       125           C   tau( 125) = (   0.3330385   0.6665151   2.4637668  )
       126           C   tau( 126) = (   0.3335343   0.8585536   2.4894103  )
       127           C   tau( 127) = (   0.5001160   0.5707969   2.4446470  )
       128           C   tau( 128) = (   0.5000868   0.9548012   2.4981070  )
       129           C   tau( 129) = (   0.6671111   0.6664905   2.4640110  )
       130           C   tau( 130) = (   0.6666802   0.8585370   2.4895177  )
       131           C   tau( 131) = (   0.8329626   0.5698624   2.4498385  )
       132           C   tau( 132) = (   0.8335464   0.9552517   2.4962856  )
       133           C   tau( 133) = (   0.0000911   1.2451825   2.4876213  )
       134           C   tau( 134) = (   0.0001131   1.4371710   2.4617966  )
       135           C   tau( 135) = (   0.1670675   1.1488169   2.4970265  )
       136           C   tau( 136) = (   0.1662741   1.5330753   2.4437487  )
       137           C   tau( 137) = (   0.3332653   1.2449196   2.4879988  )
       138           C   tau( 138) = (   0.3337767   1.4368407   2.4576005  )
       139           C   tau( 139) = (   0.5001230   1.1482862   2.4940804  )
       140           C   tau( 140) = (   0.5000809   1.5342903   2.4464359  )
       141           C   tau( 141) = (   0.6669118   1.2449151   2.4881715  )
       142           C   tau( 142) = (   0.6664409   1.4368275   2.4575860  )
       143           C   tau( 143) = (   0.8331701   1.1488111   2.4971678  )
       144           C   tau( 144) = (   0.8339073   1.5330595   2.4436703  )
       145           C   tau( 145) = (   0.0001003   1.8211673   2.4126494  )
       146           C   tau( 146) = (   0.0000762   2.0135533   2.4010454  )
       147           C   tau( 147) = (   0.1666886   1.7253778   2.4216854  )
       148           C   tau( 148) = (   0.1666494   2.1103073   2.3983956  )
       149           C   tau( 149) = (   0.3333114   1.8216121   2.4144844  )
       150           C   tau( 150) = (   0.3333631   2.0140026   2.4017749  )
       151           C   tau( 151) = (   0.5000809   1.7256607   2.4249251  )
       152           C   tau( 152) = (   0.5001229   2.1104737   2.3992384  )
       153           C   tau( 153) = (   0.6668851   1.8216063   2.4144419  )
       154           C   tau( 154) = (   0.6667882   2.0139890   2.4016302  )
       155           C   tau( 155) = (   0.8334653   1.7253669   2.4216510  )
       156           C   tau( 156) = (   0.8335837   2.1103089   2.3982893  )

     number of k points=     6  gaussian smearing, width (Ry)=  0.1000
                       cart. coord. in units 2pi/alat
        k(    1) = (   0.0000000   0.0000000   0.0000000), wk =   0.2500000
        k(    2) = (   0.0000000  -0.2165064   0.0000000), wk =   0.2500000
        k(    3) = (   0.2500000   0.0000000   0.0000000), wk =   0.5000000
        k(    4) = (   0.2500000  -0.2165064   0.0000000), wk =   0.5000000
        k(    5) = (  -0.5000000   0.0000000   0.0000000), wk =   0.2500000
        k(    6) = (  -0.5000000  -0.2165064   0.0000000), wk =   0.2500000

     Dense  grid:  2050409 G-vectors     FFT dimensions: (  80, 192, 270)

     Largest allocated arrays     est. size (Mb)     dimensions
        Kohn-Sham Wavefunctions        58.17 Mb     (    4604,  828)
        NL pseudopotentials           139.94 Mb     (    4604, 1992)
        Each V/rho on FFT grid          1.17 Mb     (   76800)
        Each G-vector array             0.28 Mb     (   36616)
        G-vector shells                 0.14 Mb     (   17932)
     Largest temporary arrays     est. size (Mb)     dimensions
        Auxiliary wavefunctions       232.67 Mb     (    4604, 3312)
        Each subspace H/S matrix        6.69 Mb     (     662,  662)
        Each <psi_i|beta_j> matrix     25.17 Mb     (    1992,  828)
        Arrays for rho mixing           9.38 Mb     (   76800,    8)

     Initial potential from superposition of free atoms
     Check: negative starting charge=   -0.001552

     starting charge 1354.72292, renormalised to 1380.00000

     negative rho (up, down):  1.581E-03 0.000E+00
     Starting wfc are 1356 randomized atomic wfcs

     total cpu time spent up to now is      116.2 secs

     Self-consistent Calculation

     iteration #  1     ecut=    80.00 Ry     beta=0.70
     Davidson diagonalization with overlap
     c_bands:  3 eigenvalues not converged
     c_bands:  5 eigenvalues not converged
     c_bands:  3 eigenvalues not converged
     c_bands:  4 eigenvalues not converged
     c_bands:  5 eigenvalues not converged
     ethr =  1.00E-04,  avg # of iterations = 41.8

     negative rho (up, down):  2.536E+01 0.000E+00

     total cpu time spent up to now is     2523.2 secs

     total energy              =  -10736.70111472 Ry
     Harris-Foulkes estimate   =  -19010.93287356 Ry
     estimated scf accuracy    <  214229.39510683 Ry

     iteration #  2     ecut=    80.00 Ry     beta=0.70
     Davidson diagonalization with overlap
     ethr =  1.00E-02,  avg # of iterations = 14.2

     negative rho (up, down):  3.105E+01 0.000E+00

     total cpu time spent up to now is     3641.3 secs

     total energy              =  -13081.86782963 Ry
     Harris-Foulkes estimate   =  -14668.03524562 Ry
     estimated scf accuracy    <   24727.63472482 Ry

     iteration #  3     ecut=    80.00 Ry     beta=0.70
     Davidson diagonalization with overlap
     ethr =  1.00E-02,  avg # of iterations =  6.3

     negative rho (up, down):  3.296E+01 0.000E+00

     total cpu time spent up to now is     4212.2 secs

     total energy              =  -13412.95686321 Ry
     Harris-Foulkes estimate   =  -14422.61779557 Ry
     estimated scf accuracy    <    8398.74769250 Ry

     iteration #  4     ecut=    80.00 Ry     beta=0.70
     Davidson diagonalization with overlap
     ethr =  1.00E-02,  avg # of iterations =  4.7

     negative rho (up, down):  2.606E+01 0.000E+00

     total cpu time spent up to now is     4755.3 secs

     total energy              =  -13710.70929768 Ry
     Harris-Foulkes estimate   =  -14104.44956124 Ry
     estimated scf accuracy    <    3051.65739378 Ry

     iteration #  5     ecut=    80.00 Ry     beta=0.70
     Davidson diagonalization with overlap
     ethr =  1.00E-02,  avg # of iterations =  4.2

     negative rho (up, down):  1.687E+01 0.000E+00

     total cpu time spent up to now is     5121.3 secs

     total energy              =  -13813.46253388 Ry
     Harris-Foulkes estimate   =  -13963.87437786 Ry
     estimated scf accuracy    <    1142.62804779 Ry

     iteration #  6     ecut=    80.00 Ry     beta=0.70
     Davidson diagonalization with overlap
     ethr =  1.00E-02,  avg # of iterations =  2.8

     negative rho (up, down):  1.063E+01 0.000E+00

     total cpu time spent up to now is     5354.3 secs

     total energy              =  -13790.82468927 Ry
     Harris-Foulkes estimate   =  -13852.11613784 Ry
     estimated scf accuracy    <     449.79256845 Ry

     iteration #  7     ecut=    80.00 Ry     beta=0.70
     Davidson diagonalization with overlap
     ethr =  1.00E-02,  avg # of iterations =  2.0

     negative rho (up, down):  7.922E+00 0.000E+00

     total cpu time spent up to now is     5553.1 secs

     total energy              =  -13776.88343876 Ry
     Harris-Foulkes estimate   =  -13803.04813321 Ry
     estimated scf accuracy    <     289.35976657 Ry

     iteration #  8     ecut=    80.00 Ry     beta=0.70
     Davidson diagonalization with overlap
     ethr =  1.00E-02,  avg # of iterations =  1.8

     negative rho (up, down):  6.123E+00 0.000E+00

     total cpu time spent up to now is     5745.6 secs

     total energy              =  -13762.25319657 Ry
     Harris-Foulkes estimate   =  -13781.45634068 Ry
     estimated scf accuracy    <     218.40160769 Ry

     iteration #  9     ecut=    80.00 Ry     beta=0.70
     Davidson diagonalization with overlap
     ethr =  1.00E-02,  avg # of iterations =  1.0

     negative rho (up, down):  3.313E+00 0.000E+00

     total cpu time spent up to now is     5927.8 secs

     total energy              =  -13739.28478769 Ry
     Harris-Foulkes estimate   =  -13764.34010099 Ry
     estimated scf accuracy    <     166.84748769 Ry

     iteration # 10     ecut=    80.00 Ry     beta=0.70
     Davidson diagonalization with overlap
     ethr =  1.00E-02,  avg # of iterations =  1.0

     negative rho (up, down):  3.046E+00 0.000E+00

     total cpu time spent up to now is     6111.1 secs

     total energy              =  -13697.73471383 Ry
     Harris-Foulkes estimate   =  -13740.28881885 Ry
     estimated scf accuracy    <     123.78311845 Ry

     iteration # 11     ecut=    80.00 Ry     beta=0.70
     Davidson diagonalization with overlap
     ethr =  8.97E-03,  avg # of iterations =  2.3

     negative rho (up, down):  4.655E+00 0.000E+00

     total cpu time spent up to now is     6311.3 secs

     total energy              =  -13690.02540444 Ry
     Harris-Foulkes estimate   =  -13702.20137441 Ry
     estimated scf accuracy    <      55.39362815 Ry

     iteration # 12     ecut=    80.00 Ry     beta=0.70
     Davidson diagonalization with overlap
     ethr =  4.01E-03,  avg # of iterations =  4.3

     negative rho (up, down):  6.186E+00 0.000E+00

     total cpu time spent up to now is     6542.9 secs

     total energy              =  -13686.87571066 Ry
     Harris-Foulkes estimate   =  -13695.30105996 Ry
     estimated scf accuracy    <      46.91035835 Ry

     iteration # 13     ecut=    80.00 Ry     beta=0.70
     Davidson diagonalization with overlap
     ethr =  3.40E-03,  avg # of iterations =  2.5

     negative rho (up, down):  6.926E+00 0.000E+00

     total cpu time spent up to now is     6745.2 secs

     total energy              =  -13686.92481026 Ry
     Harris-Foulkes estimate   =  -13690.81345214 Ry
     estimated scf accuracy    <      23.93128606 Ry

     iteration # 14     ecut=    80.00 Ry     beta=0.70
     Davidson diagonalization with overlap
     ethr =  1.73E-03,  avg # of iterations =  2.5

     negative rho (up, down):  6.070E+00 0.000E+00

     total cpu time spent up to now is     6947.3 secs

     total energy              =  -13686.56598885 Ry
     Harris-Foulkes estimate   =  -13688.32298216 Ry
     estimated scf accuracy    <      14.64680752 Ry

     iteration # 15     ecut=    80.00 Ry     beta=0.70
     Davidson diagonalization with overlap
     ethr =  1.06E-03,  avg # of iterations =  6.3

     negative rho (up, down):  5.242E+00 0.000E+00

     total cpu time spent up to now is     7207.9 secs

     total energy              =  -13685.67204793 Ry
     Harris-Foulkes estimate   =  -13687.01352999 Ry
     estimated scf accuracy    <      12.09140855 Ry

     iteration # 16     ecut=    80.00 Ry     beta=0.70
     Davidson diagonalization with overlap
     ethr =  8.76E-04,  avg # of iterations =  3.5

     negative rho (up, down):  4.499E+00 0.000E+00

     total cpu time spent up to now is     7423.4 secs

     total energy              =  -13685.37669146 Ry
     Harris-Foulkes estimate   =  -13686.14080789 Ry
     estimated scf accuracy    <      11.13794478 Ry

     iteration # 17     ecut=    80.00 Ry     beta=0.70
     Davidson diagonalization with overlap
     ethr =  8.07E-04,  avg # of iterations =  1.0

     negative rho (up, down):  1.210E+00 0.000E+00

     total cpu time spent up to now is     7606.2 secs

     total energy              =  -13682.65890809 Ry
     Harris-Foulkes estimate   =  -13685.48877992 Ry
     estimated scf accuracy    <       8.57135105 Ry

     iteration # 18     ecut=    80.00 Ry     beta=0.70
     Davidson diagonalization with overlap
     ethr =  6.21E-04,  avg # of iterations =  3.8

     negative rho (up, down):  1.629E+00 0.000E+00

     total cpu time spent up to now is     7827.1 secs

     total energy              =  -13682.64223598 Ry
     Harris-Foulkes estimate   =  -13682.92118178 Ry
     estimated scf accuracy    <       8.97385696 Ry

     iteration # 19     ecut=    80.00 Ry     beta=0.70
     Davidson diagonalization with overlap
     ethr =  6.21E-04,  avg # of iterations =  1.3

     negative rho (up, down):  1.766E-01 0.000E+00

     total cpu time spent up to now is     8014.4 secs

     total energy              =  -13680.73323854 Ry
     Harris-Foulkes estimate   =  -13682.89718333 Ry
     estimated scf accuracy    <       7.07726271 Ry

     iteration # 20     ecut=    80.00 Ry     beta=0.70
     Davidson diagonalization with overlap
     ethr =  5.13E-04,  avg # of iterations =  6.3

     negative rho (up, down):  1.562E-01 0.000E+00

     total cpu time spent up to now is     8271.8 secs

     total energy              =  -13680.10664108 Ry
     Harris-Foulkes estimate   =  -13680.86322159 Ry
     estimated scf accuracy    <       5.04456629 Ry

     iteration # 21     ecut=    80.00 Ry     beta=0.70
     Davidson diagonalization with overlap
     ethr =  3.66E-04,  avg # of iterations =  1.5

     negative rho (up, down):  9.041E-01 0.000E+00

     total cpu time spent up to now is     8460.7 secs

     total energy              =  -13679.57335724 Ry
     Harris-Foulkes estimate   =  -13680.30429397 Ry
     estimated scf accuracy    <       4.09451765 Ry

     iteration # 22     ecut=    80.00 Ry     beta=0.70
     Davidson diagonalization with overlap
     ethr =  2.97E-04,  avg # of iterations =  7.8

     negative rho (up, down):  8.273E-01 0.000E+00

     total cpu time spent up to now is     8737.1 secs

     total energy              =  -13679.41486467 Ry
     Harris-Foulkes estimate   =  -13679.65817748 Ry
     estimated scf accuracy    <       2.10357280 Ry

     iteration # 23     ecut=    80.00 Ry     beta=0.70
     Davidson diagonalization with overlap
     ethr =  1.52E-04,  avg # of iterations =  8.8

     negative rho (up, down):  4.986E-01 0.000E+00

     total cpu time spent up to now is     9032.1 secs

     total energy              =  -13679.21455373 Ry
     Harris-Foulkes estimate   =  -13679.47917192 Ry
     estimated scf accuracy    <       1.60508619 Ry

     iteration # 24     ecut=    80.00 Ry     beta=0.70
     Davidson diagonalization with overlap
     ethr =  1.16E-04,  avg # of iterations =  8.2

     negative rho (up, down):  4.082E-01 0.000E+00

     total cpu time spent up to now is     9324.8 secs

     total energy              =  -13679.25650645 Ry
     Harris-Foulkes estimate   =  -13679.34960597 Ry
     estimated scf accuracy    <       0.68501312 Ry

     iteration # 25     ecut=    80.00 Ry     beta=0.70
     Davidson diagonalization with overlap
     ethr =  4.96E-05,  avg # of iterations =  8.3

     negative rho (up, down):  2.779E-01 0.000E+00

     total cpu time spent up to now is     9623.0 secs

     total energy              =  -13679.28508959 Ry
     Harris-Foulkes estimate   =  -13679.30558513 Ry
     estimated scf accuracy    <       0.10348817 Ry

     iteration # 26     ecut=    80.00 Ry     beta=0.70
     Davidson diagonalization with overlap
     c_bands:  1 eigenvalues not converged
     c_bands:  2 eigenvalues not converged
     ethr =  7.50E-06,  avg # of iterations = 15.7

     negative rho (up, down):  1.832E-01 0.000E+00

     total cpu time spent up to now is    10036.4 secs

     total energy              =  -13679.28936954 Ry
     Harris-Foulkes estimate   =  -13679.29571146 Ry
     estimated scf accuracy    <       0.04429069 Ry

     iteration # 27     ecut=    80.00 Ry     beta=0.70
     Davidson diagonalization with overlap
     c_bands:  1 eigenvalues not converged
     c_bands:  2 eigenvalues not converged
     ethr =  3.21E-06,  avg # of iterations = 16.2

     negative rho (up, down):  9.847E-02 0.000E+00

     total cpu time spent up to now is    10454.4 secs

     total energy              =  -13679.28884744 Ry
     Harris-Foulkes estimate   =  -13679.29159311 Ry
     estimated scf accuracy    <       0.01693977 Ry

     iteration # 28     ecut=    80.00 Ry     beta=0.70
     Davidson diagonalization with overlap
     ethr =  1.23E-06,  avg # of iterations = 13.0

     negative rho (up, down):  6.584E-02 0.000E+00

     total cpu time spent up to now is    10848.4 secs

     total energy              =  -13679.28839681 Ry
     Harris-Foulkes estimate   =  -13679.29005154 Ry
     estimated scf accuracy    <       0.00522921 Ry

     iteration # 29     ecut=    80.00 Ry     beta=0.70
     Davidson diagonalization with overlap
     ethr =  3.79E-07,  avg # of iterations =  8.3

     negative rho (up, down):  4.393E-02 0.000E+00

     total cpu time spent up to now is    11151.6 secs

     total energy              =  -13679.28824550 Ry
     Harris-Foulkes estimate   =  -13679.28892971 Ry
     estimated scf accuracy    <       0.00269152 Ry

     iteration # 30     ecut=    80.00 Ry     beta=0.70
     Davidson diagonalization with overlap
     c_bands:  1 eigenvalues not converged
     ethr =  1.95E-07,  avg # of iterations = 10.7

     negative rho (up, down):  1.558E-02 0.000E+00

     total cpu time spent up to now is    11485.1 secs

     total energy              =  -13679.28796781 Ry
     Harris-Foulkes estimate   =  -13679.28842604 Ry
     estimated scf accuracy    <       0.00082997 Ry

     iteration # 31     ecut=    80.00 Ry     beta=0.70
     Davidson diagonalization with overlap
     c_bands:  1 eigenvalues not converged
     ethr =  6.01E-08,  avg # of iterations = 12.3

     negative rho (up, down):  1.409E-02 0.000E+00

     total cpu time spent up to now is    11857.6 secs

     total energy              =  -13679.28809537 Ry
     Harris-Foulkes estimate   =  -13679.28802609 Ry
     estimated scf accuracy    <       0.00036408 Ry

     iteration # 32     ecut=    80.00 Ry     beta=0.70
     Davidson diagonalization with overlap
     ethr =  2.64E-08,  avg # of iterations =  7.7

     negative rho (up, down):  1.215E-02 0.000E+00

     total cpu time spent up to now is    12152.7 secs

     total energy              =  -13679.28808385 Ry
     Harris-Foulkes estimate   =  -13679.28811773 Ry
     estimated scf accuracy    <       0.00012796 Ry

     iteration # 33     ecut=    80.00 Ry     beta=0.70
     Davidson diagonalization with overlap
     ethr =  9.27E-09,  avg # of iterations =  8.2

     negative rho (up, down):  5.536E-03 0.000E+00

     total cpu time spent up to now is    12444.7 secs

     total energy              =  -13679.28796276 Ry
     Harris-Foulkes estimate   =  -13679.28809206 Ry
     estimated scf accuracy    <       0.00005876 Ry

     iteration # 34     ecut=    80.00 Ry     beta=0.70
     Davidson diagonalization with overlap
     c_bands:  1 eigenvalues not converged
     ethr =  4.26E-09,  avg # of iterations = 10.5

     negative rho (up, down):  4.436E-03 0.000E+00

     total cpu time spent up to now is    12781.8 secs

     total energy              =  -13679.28794492 Ry
     Harris-Foulkes estimate   =  -13679.28796795 Ry
     estimated scf accuracy    <       0.00002759 Ry

     iteration # 35     ecut=    80.00 Ry     beta=0.70
     Davidson diagonalization with overlap
     c_bands:  1 eigenvalues not converged
     ethr =  2.00E-09,  avg # of iterations =  7.2

     negative rho (up, down):  2.047E-03 0.000E+00

     total cpu time spent up to now is    13057.8 secs

     total energy              =  -13679.28791834 Ry
     Harris-Foulkes estimate   =  -13679.28794928 Ry
     estimated scf accuracy    <       0.00001849 Ry

     iteration # 36     ecut=    80.00 Ry     beta=0.70
     Davidson diagonalization with overlap
     ethr =  1.34E-09,  avg # of iterations =  8.8

     negative rho (up, down):  1.796E-03 0.000E+00

     total cpu time spent up to now is    13353.9 secs

     total energy              =  -13679.28791920 Ry
     Harris-Foulkes estimate   =  -13679.28791980 Ry
     estimated scf accuracy    <       0.00000135 Ry

     iteration # 37     ecut=    80.00 Ry     beta=0.70
     Davidson diagonalization with overlap
     ethr =  9.80E-11,  avg # of iterations =  3.0

     negative rho (up, down):  1.680E-03 0.000E+00

     total cpu time spent up to now is    13593.5 secs

     total energy              =  -13679.28791952 Ry
     Harris-Foulkes estimate   =  -13679.28791942 Ry
     estimated scf accuracy    <       0.00000038 Ry

     iteration # 38     ecut=    80.00 Ry     beta=0.70
     Davidson diagonalization with overlap
     ethr =  2.72E-11,  avg # of iterations =  3.0

     negative rho (up, down):  1.720E-03 0.000E+00

     total cpu time spent up to now is    13812.0 secs

     total energy              =  -13679.28791954 Ry
     Harris-Foulkes estimate   =  -13679.28791956 Ry
     estimated scf accuracy    <       0.00000012 Ry

     iteration # 39     ecut=    80.00 Ry     beta=0.70
     Davidson diagonalization with overlap
     ethr =  8.76E-12,  avg # of iterations =  2.2

     negative rho (up, down):  1.717E-03 0.000E+00

     total cpu time spent up to now is    14038.3 secs

     total energy              =  -13679.28791956 Ry
     Harris-Foulkes estimate   =  -13679.28791956 Ry
     estimated scf accuracy    <       0.00000007 Ry

     iteration # 40     ecut=    80.00 Ry     beta=0.70
     Davidson diagonalization with overlap
     ethr =  5.06E-12,  avg # of iterations =  2.0

     negative rho (up, down):  1.714E-03 0.000E+00

     total cpu time spent up to now is    14244.8 secs

     total energy              =  -13679.28791956 Ry
     Harris-Foulkes estimate   =  -13679.28791957 Ry
     estimated scf accuracy    <       0.00000001 Ry

     iteration # 41     ecut=    80.00 Ry     beta=0.70
     Davidson diagonalization with overlap
     ethr =  1.07E-12,  avg # of iterations =  2.3

     negative rho (up, down):  1.711E-03 0.000E+00

     total cpu time spent up to now is    14447.1 secs

     End of self-consistent calculation

          k = 0.0000 0.0000 0.0000 (256287 PWs)   bands (ev):

   -16.5441 -15.7173 -15.4595 -14.7826 -14.4292 -14.1039 -13.9864 -13.7333
   -13.6407 -13.5044 -13.4964 -12.8553 -12.7436 -12.5464 -12.5081 -12.4771
   -12.4579 -11.0813 -10.9404 -10.8801 -10.7926 -10.6466  -9.7237  -9.1718
    -9.1258  -9.0087  -8.9315  -8.3741  -8.1831  -8.0482  -7.9774  -7.4556
    -7.3123  -7.1734  -7.0382  -6.9694  -6.9573  -6.9224  -6.8917  -5.7619
    -5.7524  -5.5155  -5.4402  -5.3964  -5.3607  -5.2968  -5.2729  -5.2619
    -4.8967  -4.8486  -4.6200  -4.3120  -4.2878  -4.2239  -4.1554  -4.0940
    -3.9790  -3.8870  -3.7846  -3.6916  -3.3956  -3.3533  -3.3513  -3.2807
    -3.0016  -2.9893  -2.9839  -2.9347  -2.8487  -2.8308  -2.8139  -2.7820
    -2.7806  -2.6313  -2.5587  -2.5034  -2.4478  -2.4147  -2.4104  -2.3714
    -2.3706  -2.3671  -2.3393  -2.3287  -2.3057  -2.2615  -2.2057  -2.1820
    -2.1561  -2.1329  -1.9614  -1.8919  -1.8615  -1.7652  -1.7524  -1.7377
    -1.7009  -1.6795  -1.6161  -1.5870  -1.5723  -1.5672  -1.5204  -1.5154
    -1.5152  -1.5054  -1.5044  -1.4556  -1.4339  -1.4151  -1.4137  -1.3920
    -1.3785  -1.3784  -1.3658  -1.2395  -1.2282  -1.2264  -1.1602  -1.1509
    -1.1459  -1.1433  -1.1262  -1.0995  -1.0982  -1.0767  -1.0262  -1.0252
    -1.0217  -1.0200  -1.0002  -0.9675  -0.9463  -0.9445  -0.9425  -0.9207
    -0.9179  -0.9030  -0.8976  -0.8889  -0.8604  -0.8503  -0.8373  -0.8196
    -0.7924  -0.7877  -0.7454  -0.7270  -0.6997  -0.6737  -0.6723  -0.6572
    -0.6335  -0.6260  -0.6230  -0.6103  -0.5870  -0.5849  -0.5679  -0.5614
    -0.5596  -0.5541  -0.5444  -0.5267  -0.5080  -0.4960  -0.4810  -0.4703
    -0.4487  -0.4456  -0.4449  -0.4370  -0.4339  -0.4323  -0.4212  -0.4180
    -0.4145  -0.4116  -0.4013  -0.3824  -0.3716  -0.3670  -0.3563  -0.3473
    -0.3400  -0.3374  -0.3249  -0.3166  -0.3157  -0.3134  -0.3119  -0.3056
    -0.3044  -0.2702  -0.2684  -0.2670  -0.2565  -0.2548  -0.2411  -0.2403
    -0.2319  -0.2210  -0.2185  -0.2154  -0.2153  -0.2088  -0.2071  -0.2057
    -0.1973  -0.1799  -0.1359  -0.1329  -0.1234  -0.1062  -0.0991  -0.0846
    -0.0718  -0.0564  -0.0516  -0.0506  -0.0424  -0.0408  -0.0353  -0.0235
    -0.0118  -0.0102   0.0055   0.0057   0.0069   0.0156   0.0242   0.0367
     0.0375   0.0387   0.0540   0.0545   0.0547   0.0919   0.0938   0.0988
     0.1238   0.1401   0.1498   0.1505   0.1554   0.1564   0.1776   0.1786
     0.1844   0.1889   0.2089   0.2091   0.2096   0.2199   0.2205   0.2223
     0.2227   0.2250   0.2287   0.2430   0.2534   0.2578   0.2635   0.2688
     0.2690   0.2739   0.2741   0.2919   0.2944   0.3053   0.3056   0.3128
     0.3287   0.3289   0.3405   0.3415   0.3419   0.3457   0.3469   0.3584
     0.3598   0.3687   0.3706   0.3777   0.3813   0.3819   0.3872   0.3873
     0.3999   0.4001   0.4200   0.4228   0.4261   0.4284   0.4322   0.4329
     0.4349   0.4353   0.4408   0.4418   0.4696   0.4704   0.4752   0.4764
     0.4793   0.5002   0.5003   0.5151   0.5229   0.5274   0.5281   0.5315
     0.5357   0.5519   0.5530   0.5567   0.5640   0.5645   0.5667   0.5677
     0.5722   0.5959   0.5964   0.6013   0.6040   0.6055   0.6117   0.6220
     0.6253   0.6263   0.6335   0.6337   0.6511   0.6545   0.6551   0.6592
     0.6605   0.6610   0.6630   0.6701   0.6810   0.6831   0.6877   0.6887
     0.6916   0.6928   0.6954   0.7060   0.7304   0.7327   0.7488   0.7632
     0.7648   0.7741   0.7816   0.7885   0.7894   0.7906   0.7950   0.8122
     0.8134   0.8283   0.8392   0.8439   0.8526   0.8530   0.8546   0.8646
     0.8656   0.8779   0.8862   0.9035   0.9094   0.9101   0.9118   0.9184
     0.9193   0.9340   0.9436   0.9454   0.9584   0.9600   0.9645   0.9652
     0.9739   0.9754   1.0044   1.0115   1.0161   1.0192   1.0246   1.0264
     1.0276   1.0324   1.0333   1.0478   1.0487   1.0508   1.0517   1.0587
     1.0797   1.0814   1.0857   1.0863   1.0886   1.0979   1.1053   1.1102
     1.1542   1.1543   1.1587   1.1639   1.1683   1.1711   1.1738   1.1751
     1.1775   1.1813   1.1850   1.1912   1.1960   1.1982   1.2015   1.2045
     1.2092   1.2142   1.2148   1.2167   1.2264   1.2326   1.2403   1.2411
     1.2461   1.2483   1.2565   1.2592   1.2607   1.2637   1.2749   1.2759
     1.2820   1.2901   1.2937   1.2966   1.2968   1.2980   1.2998   1.3004
     1.3016   1.3089   1.3288   1.3349   1.3359   1.3409   1.3423   1.3438
     1.3451   1.3470   1.3566   1.3594   1.3599   1.3706   1.3709   1.3715
     1.3735   1.3843   1.3891   1.3908   1.3922   1.3975   1.3999   1.4065
     1.4124   1.4160   1.4259   1.4369   1.4465   1.4496   1.4585   1.4620
     1.4668   1.4758   1.4802   1.4827   1.4882   1.4906   1.4951   1.4985
     1.5021   1.5037   1.5046   1.5144   1.5220   1.5237   1.5329   1.5396
     1.5438   1.5458   1.5511   1.5519   1.5592   1.5622   1.5646   1.5668
     1.5725   1.5789   1.5808   1.5823   1.5941   1.5977   1.5986   1.6103
     1.6104   1.6122   1.6218   1.6239   1.6285   1.6294   1.6397   1.6455
     1.6492   1.6510   1.6543   1.6648   1.6655   1.6726   1.6762   1.6827
     1.6886   1.6913   1.6945   1.6961   1.6983   1.6997   1.7009   1.7041
     1.7073   1.7179   1.7183   1.7225   1.7310   1.7335   1.7340   1.7360
     1.7367   1.7397   1.7446   1.7499   1.7563   1.7594   1.7609   1.7635
     1.7641   1.7684   1.7740   1.7868   1.7910   1.8017   1.8069   1.8103
     1.8121   1.8122   1.8221   1.8225   1.8350   1.8406   1.8473   1.8481
     1.8532   1.8549   1.8567   1.8605   1.8662   1.8723   1.8727   1.8834
     1.8879   1.8892   1.8900   1.8939   1.8963   1.8982   1.9026   1.9089
     1.9119   1.9165   1.9169   1.9233   1.9252   1.9285   1.9298   1.9340
     1.9394   1.9562   1.9581   1.9605   1.9609   1.9625   1.9651   1.9683
     1.9710   1.9717   1.9749   1.9821   1.9909   1.9947   2.0025   2.0033
     2.0048   2.0063   2.0080   2.0090   2.0123   2.0151   2.0189   2.0203
     2.0204   2.0210   2.0253   2.0269   2.0280   2.0390   2.0410   2.0432
     2.0441   2.0515   2.0519   2.0522   2.0548   2.0664   2.0679   2.0800
     2.0817   2.0825   2.0838   2.0856   2.0971   2.1002   2.1010   2.1203
     2.1246   2.1290   2.1497   2.1508   2.1524   2.1689   2.1716   2.1786
     2.1790   2.2029   2.2045   2.2051   2.2337   2.2366   2.2436   2.2451
     2.2473   2.2490   2.2549   2.2677   2.3180   2.4199   2.4945   2.5666
     2.5988   2.6575   2.6756   2.6768   2.7599   2.7608   2.7818   2.7898
     2.8171   2.8178   2.8300   2.8301   2.9003   2.9018   2.9355   2.9502
     2.9521   3.0030   3.0044   3.1580   3.1790   3.2419   3.2429   3.3156
     3.4102   3.5312   3.5475   3.5735   3.6362   3.8132   3.8175   3.9792
     4.0462   4.0489   4.0848   4.2163   4.2227   4.3009   4.3013   4.4734
     4.5024   4.5154   4.5190   4.5517   4.5541   4.5935   4.6169   4.6178
     4.6210   4.6226   4.9090   5.0173   5.0322   5.0534   5.0931   5.2126
     5.3522   5.3769   5.4477   5.4653   5.5564   5.5654   5.6659   5.6738
     5.8042   5.9149   6.0993   6.1207   6.3199   6.3561   6.3697   6.4787
     6.5217   6.7740   6.8057   6.8097   6.8542   6.8749   7.0387   7.0577
     7.0956   7.1635   7.2426   7.2690   7.2853   7.3681   7.4051   7.4129
     7.4192   7.4201   7.4287   7.4639   7.5391   7.7026   7.7064   7.7300
     7.8623   7.9462   7.9547   8.0039   8.0477   8.1208   8.1549   8.2996
     8.3055   8.3122   8.3148   8.5786   8.5885   8.5907   8.6392   8.6761
     8.7051   8.7165   8.7204   8.8039   8.8264   8.8304   8.8844   8.9176
     8.9401   9.0058   9.0718   9.1066   9.1505   9.1511   9.1600   9.1996
     9.2039   9.3022   9.3083   9.3119   9.3143   9.3551   9.3559   9.3653
     9.3827   9.5295   9.5650   9.7156   9.7184   9.7720   9.8008   9.8197
     9.8286   9.8324   9.9274  10.0401  10.0511  10.0955  10.0998  10.3887
    10.4308  10.4873  10.5216  10.5309  10.5371  10.5574  10.5876  10.5981
    10.6269  10.6360  10.6395  10.6540

          k = 0.0000-0.2165 0.0000 (256176 PWs)   bands (ev):

   -16.5432 -15.7618 -15.3062 -15.0224 -14.3727 -13.9572 -13.8102 -13.7794
   -13.6429 -13.6290 -13.2459 -13.1917 -13.0760 -13.0472 -12.0131 -11.8395
   -11.7785 -11.6983 -11.5450 -11.5062 -10.0412  -9.9780  -9.9173  -9.8058
    -8.8461  -8.7787  -8.6844  -8.4822  -8.4055  -8.3635  -7.8153  -7.6911
    -7.5711  -7.5352  -6.8689  -6.7248  -6.4081  -6.3990  -6.3216  -6.2642
    -6.2343  -6.2270  -5.6318  -5.5165  -5.2819  -5.2414  -4.9018  -4.7915
    -4.6764  -4.6137  -4.5769  -4.3725  -4.3572  -4.2174  -4.1877  -4.1532
    -4.1385  -4.0937  -4.0578  -4.0416  -3.6752  -3.3591  -3.2161  -3.1050
    -3.0943  -3.0698  -2.9055  -2.6974  -2.6967  -2.6610  -2.6606  -2.6479
    -2.6259  -2.5673  -2.5364  -2.4775  -2.4070  -2.3984  -2.3892  -2.3838
    -2.3386  -2.2879  -2.2732  -2.2422  -2.2262  -2.2170  -2.1819  -2.0835
    -1.9949  -1.9767  -1.9548  -1.9471  -1.9447  -1.9416  -1.9380  -1.8841
    -1.8560  -1.8411  -1.8343  -1.7254  -1.7124  -1.6442  -1.6057  -1.5652
    -1.5554  -1.5521  -1.5185  -1.5156  -1.4872  -1.3859  -1.3586  -1.3492
    -1.3440  -1.3296  -1.3294  -1.2670  -1.2169  -1.2111  -1.1629  -1.1582
    -1.1435  -1.1407  -1.1225  -1.1203  -1.0975  -1.0956  -1.0867  -1.0838
    -1.0459  -1.0360  -1.0178  -1.0172  -1.0120  -0.9617  -0.9463  -0.9389
    -0.9167  -0.9143  -0.8912  -0.8636  -0.8602  -0.7993  -0.7802  -0.7506
    -0.7478  -0.7403  -0.7044  -0.6951  -0.6941  -0.6865  -0.6836  -0.6791
    -0.6628  -0.6551  -0.6415  -0.6411  -0.6383  -0.6365  -0.6281  -0.6216
    -0.6110  -0.5986  -0.5967  -0.5728  -0.5244  -0.5221  -0.5067  -0.5023
    -0.4774  -0.4608  -0.4576  -0.4390  -0.4366  -0.4284  -0.4208  -0.4197
    -0.4157  -0.4012  -0.3930  -0.3732  -0.3602  -0.3595  -0.3531  -0.3452
    -0.3412  -0.3369  -0.3319  -0.3102  -0.3088  -0.3034  -0.3001  -0.2887
    -0.2848  -0.2512  -0.2504  -0.2501  -0.2377  -0.2297  -0.2245  -0.2223
    -0.2130  -0.1991  -0.1921  -0.1783  -0.1609  -0.1589  -0.1586  -0.1218
    -0.0996  -0.0769  -0.0709  -0.0698  -0.0476  -0.0439  -0.0400  -0.0394
    -0.0341  -0.0192  -0.0125  -0.0111  -0.0108  -0.0024  -0.0010   0.0081
     0.0181   0.0199   0.0261   0.0289   0.0327   0.0370   0.0401   0.0443
     0.0501   0.0630   0.0720   0.0756   0.0821   0.0918   0.0942   0.1108
     0.1152   0.1355   0.1365   0.1382   0.1394   0.1422   0.1511   0.1522
     0.1644   0.1692   0.1863   0.2104   0.2117   0.2193   0.2195   0.2349
     0.2382   0.2447   0.2494   0.2601   0.2605   0.2736   0.2749   0.2784
     0.2808   0.2881   0.2932   0.3002   0.3065   0.3069   0.3130   0.3240
     0.3296   0.3308   0.3315   0.3325   0.3357   0.3386   0.3400   0.3471
     0.3588   0.3684   0.3704   0.3746   0.3802   0.3812   0.3823   0.3961
     0.3976   0.4014   0.4073   0.4140   0.4181   0.4207   0.4243   0.4267
     0.4310   0.4351   0.4375   0.4520   0.4579   0.4608   0.4733   0.4876
     0.4888   0.4950   0.4983   0.5025   0.5067   0.5152   0.5177   0.5285
     0.5336   0.5350   0.5391   0.5400   0.5425   0.5473   0.5519   0.5710
     0.5737   0.5853   0.5860   0.5926   0.5950   0.6000   0.6023   0.6072
     0.6095   0.6207   0.6285   0.6313   0.6464   0.6496   0.6499   0.6530
     0.6646   0.6697   0.6751   0.6812   0.6861   0.6942   0.6945   0.7046
     0.7055   0.7087   0.7102   0.7214   0.7223   0.7241   0.7299   0.7359
     0.7361   0.7439   0.7477   0.7604   0.7614   0.7640   0.7662   0.7681
     0.7845   0.7886   0.7947   0.8142   0.8266   0.8297   0.8440   0.8588
     0.8608   0.8655   0.8659   0.8782   0.8948   0.9014   0.9029   0.9045
     0.9122   0.9184   0.9277   0.9331   0.9409   0.9447   0.9639   0.9655
     0.9656   0.9827   0.9879   1.0018   1.0037   1.0041   1.0221   1.0340
     1.0360   1.0363   1.0489   1.0494   1.0585   1.0665   1.0668   1.0817
     1.0823   1.0996   1.1007   1.1042   1.1076   1.1159   1.1166   1.1323
     1.1404   1.1419   1.1459   1.1468   1.1504   1.1513   1.1611   1.1618
     1.1657   1.1707   1.1765   1.1825   1.1832   1.1872   1.1880   1.1889
     1.1944   1.2015   1.2047   1.2230   1.2244   1.2300   1.2311   1.2320
     1.2333   1.2412   1.2458   1.2464   1.2505   1.2572   1.2576   1.2681
     1.2710   1.2821   1.2826   1.2830   1.2861   1.2909   1.3025   1.3032
     1.3051   1.3059   1.3070   1.3084   1.3154   1.3189   1.3281   1.3300
     1.3363   1.3381   1.3405   1.3411   1.3422   1.3507   1.3531   1.3685
     1.3686   1.3690   1.3746   1.3867   1.3998   1.4135   1.4141   1.4192
     1.4200   1.4234   1.4303   1.4306   1.4459   1.4707   1.4728   1.4931
     1.4972   1.5017   1.5069   1.5080   1.5083   1.5097   1.5207   1.5215
     1.5229   1.5261   1.5270   1.5300   1.5370   1.5396   1.5403   1.5447
     1.5479   1.5494   1.5585   1.5750   1.5756   1.5765   1.5780   1.5867
     1.5871   1.5902   1.5904   1.5940   1.5987   1.5992   1.5996   1.6005
     1.6012   1.6062   1.6173   1.6180   1.6193   1.6211   1.6215   1.6270
     1.6284   1.6317   1.6326   1.6338   1.6434   1.6545   1.6559   1.6576
     1.6647   1.6698   1.6835   1.6841   1.6873   1.6913   1.6931   1.6964
     1.7039   1.7084   1.7098   1.7172   1.7231   1.7328   1.7414   1.7419
     1.7428   1.7444   1.7543   1.7662   1.7759   1.7775   1.7865   1.7877
     1.7905   1.7934   1.7948   1.8030   1.8042   1.8048   1.8131   1.8142
     1.8145   1.8187   1.8211   1.8228   1.8236   1.8337   1.8353   1.8374
     1.8382   1.8439   1.8454   1.8598   1.8610   1.8665   1.8723   1.8756
     1.8786   1.8813   1.8883   1.8896   1.8899   1.8911   1.8971   1.8998
     1.9002   1.9110   1.9131   1.9203   1.9207   1.9301   1.9307   1.9331
     1.9336   1.9406   1.9417   1.9424   1.9495   1.9497   1.9579   1.9613
     1.9694   1.9696   1.9783   1.9815   1.9859   1.9886   1.9952   2.0043
     2.0058   2.0077   2.0094   2.0115   2.0125   2.0145   2.0196   2.0227
     2.0353   2.0355   2.0423   2.0438   2.0511   2.0527   2.0589   2.0591
     2.0634   2.0650   2.0659   2.0662   2.0847   2.0867   2.0889   2.0904
     2.0957   2.1053   2.1133   2.1191   2.1269   2.1329   2.1351   2.1381
     2.1386   2.1392   2.1404   2.1482   2.1512   2.1559   2.1571   2.1638
     2.1877   2.2166   2.2419   2.2555   2.2600   2.3307   2.3543   2.3565
     2.3581   2.3674   2.3834   2.3880   2.4037   2.4066   2.4338   2.4485
     2.4641   2.4675   2.4788   2.5906   2.6156   2.6416   2.7053   2.7119
     2.7578   2.8313   2.8857   2.8937   2.9954   2.9975   3.0208   3.0456
     3.0463   3.0997   3.1763   3.1877   3.1889   3.2770   3.2797   3.2800
     3.3194   3.5247   3.5248   3.5616   3.5918   3.5950   3.7816   3.7816
     3.8099   3.8156   4.0731   4.0891   4.1494   4.1784   4.2342   4.2774
     4.3166   4.4745   4.4944   4.5212   4.5703   4.5899   4.6252   4.6683
     4.6707   4.8051   4.9919   5.0256   5.1720   5.1736   5.4311   5.4796
     5.6150   5.6234   5.6645   5.6962   5.7585   5.7906   5.8844   5.8867
     5.9190   5.9902   5.9921   6.0404   6.1268   6.1568   6.2574   6.3376
     6.3396   6.3707   6.5333   6.5455   6.6148   6.7040   6.8356   6.9740
     7.0504   7.0513   7.2079   7.2102   7.2213   7.3261   7.5204   7.5304
     7.5534   7.6005   7.6258   7.6290   7.6762   7.7395   7.7436   7.7609
     7.7648   7.7845   7.8462   8.0258   8.0288   8.0636   8.1337   8.1784
     8.2092   8.2634   8.2818   8.3021   8.4953   8.5604   8.5975   8.5983
     8.7772   8.7858   8.8673   8.8829   8.9196   8.9321   8.9396   8.9935
     9.0043   9.0518   9.0528   9.0607   9.0907   9.1318   9.1325   9.2411
     9.3124   9.3137   9.3236   9.4364   9.4980   9.5135   9.5406   9.5768
     9.6575   9.7206   9.7302   9.7462   9.7469   9.7644   9.8948   9.8964
     9.9343   9.9389   9.9421   9.9447   9.9517  10.0549  10.1177  10.1190
    10.2953  10.3041  10.3302  10.4069  10.4723  10.4781  10.4885  10.4966
    10.5567  10.5730  10.6643  10.6881

          k = 0.2500 0.0000 0.0000 (256240 PWs)   bands (ev):

   -16.4933 -15.6033 -15.3364 -14.9589 -14.6071 -14.3795 -14.3277 -14.2790
   -13.4924 -13.3377 -13.0673 -12.6908 -12.5866 -12.4933 -12.4187 -11.7381
   -11.6418 -11.5409 -11.4633 -10.6607 -10.4741 -10.1897 -10.1141  -9.8002
    -9.5994  -9.3236  -9.2767  -8.8759  -8.6565  -8.5549  -8.1390  -7.4059
    -7.1993  -7.1100  -6.9750  -6.9390  -6.8447  -6.4673  -6.3278  -5.7482
    -5.6354  -5.4668  -5.3569  -5.2893  -5.2160  -4.8692  -4.7231  -4.7100
    -4.6755  -4.4564  -4.3180  -4.1736  -4.0540  -4.0012  -3.9571  -3.8780
    -3.8469  -3.8395  -3.7677  -3.6634  -3.5503  -3.5385  -3.4097  -3.3636
    -3.3370  -3.2347  -3.2061  -3.2044  -3.1797  -3.0555  -3.0132  -2.9922
    -2.9058  -2.8950  -2.8728  -2.8647  -2.8341  -2.7815  -2.6639  -2.6429
    -2.5583  -2.5044  -2.4489  -2.4104  -2.3161  -2.2808  -2.2178  -2.1895
    -2.1621  -2.1603  -2.0238  -1.8847  -1.8175  -1.7839  -1.7801  -1.7445
    -1.6866  -1.5719  -1.5594  -1.5124  -1.4854  -1.4769  -1.4693  -1.4550
    -1.4533  -1.4366  -1.3961  -1.3769  -1.3189  -1.3110  -1.2377  -1.2230
    -1.2085  -1.1968  -1.1654  -1.1638  -1.1587  -1.1580  -1.1451  -1.1418
    -1.1243  -1.0893  -1.0678  -1.0363  -1.0350  -1.0327  -0.9854  -0.9586
    -0.9560  -0.9539  -0.9365  -0.9260  -0.9181  -0.9107  -0.8965  -0.8922
    -0.8840  -0.8725  -0.8705  -0.8283  -0.8224  -0.7788  -0.7582  -0.7369
    -0.7267  -0.6924  -0.6858  -0.6780  -0.6601  -0.6445  -0.6289  -0.6237
    -0.6178  -0.6127  -0.6071  -0.6013  -0.5896  -0.5806  -0.5696  -0.5622
    -0.5588  -0.5574  -0.5392  -0.5352  -0.5172  -0.5151  -0.5124  -0.5029
    -0.4986  -0.4930  -0.4877  -0.4759  -0.4709  -0.4651  -0.4590  -0.4400
    -0.4366  -0.4266  -0.4175  -0.4107  -0.4075  -0.4011  -0.3998  -0.3959
    -0.3949  -0.3844  -0.3825  -0.3676  -0.3640  -0.3601  -0.3563  -0.3554
    -0.3541  -0.3480  -0.3427  -0.3346  -0.3230  -0.3024  -0.2811  -0.2748
    -0.2713  -0.2623  -0.2559  -0.2402  -0.2323  -0.2166  -0.1838  -0.1824
    -0.1729  -0.1658  -0.1614  -0.1545  -0.1536  -0.1382  -0.1235  -0.1159
    -0.1148  -0.1057  -0.1004  -0.0852  -0.0598  -0.0125  -0.0059  -0.0009
     0.0059   0.0260   0.0306   0.0325   0.0392   0.0428   0.0565   0.0638
     0.0699   0.0762   0.0765   0.0854   0.0894   0.1038   0.1093   0.1132
     0.1191   0.1224   0.1260   0.1302   0.1471   0.1518   0.1543   0.1555
     0.1714   0.1762   0.1895   0.2006   0.2113   0.2200   0.2223   0.2242
     0.2271   0.2331   0.2346   0.2374   0.2454   0.2510   0.2533   0.2551
     0.2647   0.2816   0.2827   0.2915   0.2950   0.3010   0.3077   0.3114
     0.3173   0.3210   0.3300   0.3350   0.3372   0.3394   0.3431   0.3496
     0.3505   0.3682   0.3741   0.3841   0.3893   0.3909   0.4000   0.4150
     0.4164   0.4245   0.4270   0.4279   0.4385   0.4428   0.4487   0.4514
     0.4598   0.4614   0.4689   0.4762   0.4886   0.4921   0.4951   0.5034
     0.5072   0.5104   0.5181   0.5251   0.5264   0.5337   0.5403   0.5440
     0.5552   0.5625   0.5689   0.5692   0.5734   0.5834   0.5973   0.6014
     0.6036   0.6115   0.6137   0.6147   0.6179   0.6210   0.6236   0.6290
     0.6361   0.6401   0.6409   0.6435   0.6558   0.6638   0.6670   0.6719
     0.6765   0.6780   0.6846   0.6905   0.6922   0.6945   0.6961   0.7024
     0.7106   0.7206   0.7261   0.7362   0.7522   0.7556   0.7584   0.7653
     0.7697   0.7719   0.7755   0.7925   0.8035   0.8063   0.8090   0.8176
     0.8303   0.8357   0.8451   0.8573   0.8707   0.8758   0.8785   0.8835
     0.8855   0.8918   0.8965   0.9036   0.9130   0.9150   0.9172   0.9229
     0.9256   0.9325   0.9344   0.9356   0.9404   0.9424   0.9473   0.9516
     0.9550   0.9640   0.9680   0.9688   0.9717   0.9737   0.9796   0.9839
     0.9910   1.0023   1.0105   1.0190   1.0283   1.0311   1.0489   1.0507
     1.0580   1.0612   1.0680   1.0688   1.0736   1.0759   1.0789   1.0823
     1.0908   1.1003   1.1131   1.1153   1.1162   1.1251   1.1311   1.1354
     1.1369   1.1436   1.1470   1.1564   1.1603   1.1708   1.1716   1.1774
     1.1816   1.1847   1.1961   1.1984   1.2003   1.2083   1.2104   1.2149
     1.2160   1.2270   1.2302   1.2332   1.2384   1.2416   1.2438   1.2514
     1.2542   1.2573   1.2616   1.2684   1.2709   1.2723   1.2799   1.2809
     1.2915   1.2977   1.2983   1.3027   1.3055   1.3233   1.3257   1.3299
     1.3363   1.3495   1.3541   1.3553   1.3565   1.3682   1.3707   1.3778
     1.3784   1.3890   1.3920   1.3957   1.3990   1.4026   1.4144   1.4194
     1.4226   1.4276   1.4289   1.4336   1.4450   1.4503   1.4598   1.4652
     1.4657   1.4673   1.4731   1.4759   1.4771   1.4845   1.4945   1.4975
     1.4998   1.5009   1.5061   1.5118   1.5143   1.5201   1.5264   1.5316
     1.5329   1.5373   1.5380   1.5445   1.5567   1.5673   1.5691   1.5743
     1.5857   1.5896   1.5926   1.5963   1.6030   1.6036   1.6050   1.6106
     1.6198   1.6205   1.6224   1.6285   1.6314   1.6338   1.6410   1.6432
     1.6435   1.6515   1.6547   1.6560   1.6588   1.6608   1.6623   1.6670
     1.6717   1.6762   1.6773   1.6788   1.6800   1.6819   1.6870   1.6943
     1.7015   1.7045   1.7074   1.7125   1.7170   1.7191   1.7211   1.7253
     1.7328   1.7342   1.7375   1.7407   1.7459   1.7530   1.7618   1.7638
     1.7695   1.7739   1.7801   1.7839   1.7917   1.7989   1.8030   1.8081
     1.8098   1.8138   1.8177   1.8240   1.8274   1.8314   1.8327   1.8343
     1.8409   1.8467   1.8517   1.8597   1.8616   1.8687   1.8715   1.8734
     1.8801   1.8830   1.8853   1.8868   1.8873   1.8916   1.8936   1.8948
     1.9037   1.9065   1.9096   1.9128   1.9143   1.9175   1.9260   1.9276
     1.9294   1.9327   1.9393   1.9405   1.9440   1.9517   1.9657   1.9758
     1.9764   1.9794   1.9822   1.9857   1.9867   1.9891   1.9913   1.9974
     1.9997   2.0038   2.0058   2.0113   2.0177   2.0237   2.0251   2.0258
     2.0284   2.0302   2.0372   2.0392   2.0396   2.0434   2.0455   2.0496
     2.0533   2.0571   2.0591   2.0627   2.0667   2.0685   2.0715   2.0768
     2.0802   2.0838   2.0854   2.0878   2.0931   2.0972   2.1038   2.1080
     2.1111   2.1159   2.1185   2.1211   2.1371   2.1405   2.1423   2.1509
     2.1625   2.1746   2.1788   2.1860   2.1996   2.2090   2.2170   2.2264
     2.2329   2.2463   2.2525   2.3365   2.3430   2.3546   2.3877   2.4005
     2.4132   2.4464   2.4565   2.4722   2.5304   2.5872   2.6130   2.6399
     2.6424   2.6889   2.7160   2.9944   3.0571   3.0746   3.0870   3.1220
     3.2011   3.3497   3.4975   3.5262   3.5851   3.5860   3.6273   3.7146
     3.7479   3.7815   3.8288   3.8333   3.8636   4.0112   4.0777   4.0822
     4.1689   4.2134   4.2451   4.2515   4.2713   4.2877   4.2927   4.2957
     4.3238   4.3807   4.5776   4.7051   4.7803   4.8082   4.8950   4.9143
     4.9674   4.9815   5.1076   5.1273   5.1784   5.2009   5.2210   5.3801
     5.4142   5.5462   5.5938   5.6690   5.6851   5.7297   5.7708   5.8027
     5.8155   5.8551   5.9159   5.9809   5.9994   6.1098   6.1844   6.1935
     6.2328   6.3495   6.4324   6.5369   6.5469   6.5639   6.5740   6.5995
     6.8148   6.8929   6.9667   7.0281   7.1549   7.2135   7.2509   7.3026
     7.3373   7.3470   7.3651   7.3988   7.4193   7.4593   7.4864   7.5244
     7.5373   7.5572   7.6383   7.6598   7.7717   7.8921   7.9097   7.9299
     8.0520   8.1046   8.1379   8.1913   8.2562   8.3346   8.3944   8.4061
     8.4735   8.4887   8.5291   8.6129   8.6285   8.6560   8.7423   8.7568
     8.8587   8.9713   8.9826   8.9925   9.0349   9.0472   9.1150   9.1475
     9.2477   9.3312   9.3768   9.4012   9.4314   9.4546   9.4723   9.4817
     9.5417   9.5467   9.5784   9.6192   9.6599   9.7504   9.7741   9.7845
     9.8546   9.8758   9.9475   9.9703   9.9834  10.0556  10.0795  10.0824
    10.1931  10.2388  10.2904  10.3191  10.3280  10.3749  10.3831  10.4258
    10.5411  10.5522  10.5598  10.6554

          k = 0.2500-0.2165 0.0000 (256316 PWs)   bands (ev):

   -16.4927 -15.6384 -15.2400 -14.9114 -14.7771 -14.6389 -14.1318 -13.9250
   -13.6442 -13.4988 -13.0174 -12.7163 -12.6423 -12.5448 -12.1918 -12.0174
   -11.5431 -11.4746 -10.8882 -10.8027 -10.6688 -10.5780 -10.2878 -10.0610
    -9.2522  -9.1071  -8.8157  -8.7660  -8.5661  -8.4627  -8.0704  -8.0201
    -7.8777  -7.8112  -6.6116  -6.4173  -6.2135  -6.0901  -6.0358  -5.9059
    -5.8531  -5.7311  -5.5176  -5.4607  -5.1033  -5.0631  -4.8049  -4.6562
    -4.5035  -4.4540  -4.3430  -4.2416  -4.0590  -4.0269  -3.9815  -3.9549
    -3.9314  -3.8319  -3.7420  -3.7039  -3.6292  -3.5806  -3.5548  -3.4854
    -3.2162  -3.2077  -3.1740  -3.1210  -3.0900  -3.0336  -2.9569  -2.8704
    -2.8380  -2.8247  -2.7990  -2.7653  -2.7598  -2.7315  -2.6809  -2.5887
    -2.4795  -2.4673  -2.4459  -2.3995  -2.3465  -2.2761  -2.2740  -2.1717
    -2.1117  -2.1044  -2.0805  -1.9072  -1.8955  -1.8752  -1.7555  -1.7001
    -1.6969  -1.6791  -1.5747  -1.5425  -1.5339  -1.5278  -1.5173  -1.5090
    -1.4733  -1.4260  -1.3954  -1.3927  -1.3729  -1.3344  -1.3125  -1.2949
    -1.2563  -1.2316  -1.1747  -1.1728  -1.1697  -1.1300  -1.1204  -1.0835
    -1.0776  -1.0759  -1.0691  -1.0651  -1.0634  -1.0530  -1.0496  -1.0426
    -0.9837  -0.9760  -0.9605  -0.9453  -0.9422  -0.9266  -0.9017  -0.8750
    -0.8642  -0.8423  -0.8229  -0.7713  -0.7654  -0.7355  -0.7302  -0.7058
    -0.7030  -0.6884  -0.6578  -0.6577  -0.6563  -0.6458  -0.6342  -0.6274
    -0.6195  -0.6083  -0.6076  -0.6050  -0.5995  -0.5808  -0.5763  -0.5756
    -0.5750  -0.5703  -0.5666  -0.5507  -0.5335  -0.5274  -0.4968  -0.4927
    -0.4918  -0.4888  -0.4863  -0.4797  -0.4521  -0.4463  -0.4430  -0.4374
    -0.4291  -0.4277  -0.4206  -0.4178  -0.4110  -0.4057  -0.3933  -0.3847
    -0.3807  -0.3661  -0.3654  -0.3558  -0.3496  -0.3480  -0.3460  -0.3437
    -0.3420  -0.3301  -0.3225  -0.2990  -0.2855  -0.2812  -0.2685  -0.2617
    -0.2487  -0.2420  -0.2371  -0.2333  -0.2198  -0.2098  -0.1976  -0.1865
    -0.1744  -0.1621  -0.1489  -0.1452  -0.1396  -0.1187  -0.1172  -0.1104
    -0.0910  -0.0822  -0.0686  -0.0674  -0.0533  -0.0520  -0.0397  -0.0273
     0.0060   0.0099   0.0183   0.0279   0.0455   0.0468   0.0470   0.0523
     0.0529   0.0603   0.0612   0.0678   0.0757   0.0792   0.0885   0.0938
     0.1084   0.1216   0.1223   0.1286   0.1429   0.1461   0.1581   0.1646
     0.1693   0.1697   0.1708   0.1816   0.1954   0.1982   0.2072   0.2177
     0.2200   0.2257   0.2352   0.2398   0.2415   0.2456   0.2534   0.2599
     0.2613   0.2643   0.2724   0.2727   0.2747   0.2865   0.2905   0.2941
     0.3002   0.3092   0.3164   0.3308   0.3431   0.3441   0.3501   0.3621
     0.3640   0.3710   0.3800   0.3825   0.3879   0.3968   0.4008   0.4072
     0.4102   0.4144   0.4302   0.4326   0.4388   0.4453   0.4535   0.4670
     0.4697   0.4813   0.4870   0.5011   0.5035   0.5047   0.5080   0.5111
     0.5188   0.5227   0.5239   0.5380   0.5415   0.5452   0.5490   0.5553
     0.5587   0.5597   0.5671   0.5709   0.5734   0.5799   0.5924   0.5938
     0.5951   0.6036   0.6074   0.6118   0.6129   0.6189   0.6218   0.6406
     0.6427   0.6471   0.6501   0.6514   0.6531   0.6567   0.6695   0.6722
     0.6875   0.7026   0.7033   0.7060   0.7086   0.7110   0.7133   0.7174
     0.7290   0.7353   0.7467   0.7515   0.7577   0.7607   0.7675   0.7734
     0.7749   0.7792   0.7803   0.7866   0.7933   0.7982   0.8021   0.8042
     0.8086   0.8175   0.8191   0.8225   0.8314   0.8372   0.8437   0.8626
     0.8734   0.8823   0.8920   0.8969   0.8978   0.9083   0.9160   0.9210
     0.9226   0.9300   0.9322   0.9381   0.9397   0.9410   0.9457   0.9551
     0.9622   0.9661   0.9706   0.9733   0.9751   0.9798   0.9956   1.0000
     1.0019   1.0054   1.0098   1.0169   1.0199   1.0252   1.0362   1.0425
     1.0473   1.0483   1.0533   1.0563   1.0645   1.0705   1.0935   1.1081
     1.1112   1.1182   1.1218   1.1249   1.1258   1.1269   1.1305   1.1363
     1.1431   1.1558   1.1639   1.1667   1.1714   1.1745   1.1928   1.1964
     1.1976   1.2009   1.2085   1.2120   1.2129   1.2140   1.2172   1.2224
     1.2257   1.2336   1.2371   1.2440   1.2516   1.2538   1.2578   1.2636
     1.2728   1.2742   1.2758   1.2823   1.2835   1.2939   1.2953   1.3013
     1.3054   1.3077   1.3132   1.3156   1.3193   1.3208   1.3222   1.3284
     1.3335   1.3414   1.3521   1.3546   1.3559   1.3586   1.3602   1.3622
     1.3636   1.3711   1.3747   1.3771   1.3809   1.3901   1.3929   1.4048
     1.4079   1.4111   1.4195   1.4237   1.4342   1.4382   1.4440   1.4463
     1.4522   1.4581   1.4596   1.4654   1.4666   1.4700   1.4826   1.4877
     1.4905   1.4981   1.5008   1.5019   1.5029   1.5055   1.5064   1.5157
     1.5304   1.5316   1.5330   1.5391   1.5414   1.5433   1.5498   1.5531
     1.5636   1.5716   1.5776   1.5790   1.5844   1.5872   1.5886   1.5935
     1.6042   1.6072   1.6079   1.6163   1.6206   1.6312   1.6419   1.6483
     1.6546   1.6588   1.6676   1.6707   1.6772   1.6806   1.6835   1.6902
     1.6969   1.6986   1.7028   1.7049   1.7068   1.7092   1.7127   1.7145
     1.7163   1.7197   1.7204   1.7261   1.7331   1.7357   1.7377   1.7418
     1.7539   1.7620   1.7649   1.7680   1.7736   1.7758   1.7789   1.7808
     1.7816   1.7833   1.7865   1.7877   1.7919   1.7939   1.7947   1.7984
     1.8042   1.8108   1.8132   1.8158   1.8189   1.8198   1.8224   1.8257
     1.8272   1.8347   1.8385   1.8513   1.8543   1.8569   1.8608   1.8683
     1.8702   1.8726   1.8749   1.8797   1.8832   1.8855   1.8949   1.9008
     1.9048   1.9088   1.9141   1.9214   1.9223   1.9239   1.9284   1.9341
     1.9410   1.9438   1.9470   1.9495   1.9558   1.9614   1.9650   1.9680
     1.9700   1.9749   1.9775   1.9799   1.9820   1.9845   1.9890   1.9914
     1.9940   1.9969   1.9977   2.0091   2.0110   2.0132   2.0170   2.0258
     2.0274   2.0346   2.0366   2.0378   2.0390   2.0439   2.0444   2.0470
     2.0530   2.0575   2.0591   2.0629   2.0639   2.0658   2.0739   2.0796
     2.0837   2.0860   2.0878   2.0885   2.0943   2.0964   2.0976   2.0994
     2.1095   2.1123   2.1157   2.1197   2.1254   2.1322   2.1390   2.1501
     2.1529   2.1536   2.1593   2.1635   2.1690   2.1876   2.1987   2.2146
     2.2449   2.2640   2.3018   2.3086   2.3217   2.3375   2.3391   2.3434
     2.3613   2.3650   2.3708   2.4290   2.7132   2.7200   2.7400   2.7493
     2.7819   2.8392   2.8576   2.8692   2.9743   3.0913   3.1687   3.1748
     3.1862   3.2320   3.2937   3.3831   3.3933   3.4352   3.4722   3.5043
     3.5325   3.6877   3.7753   3.7764   3.7904   3.9917   4.2037   4.2243
     4.2558   4.3257   4.3936   4.4269   4.4313   4.4550   4.4763   4.5936
     4.6553   4.6854   4.7527   4.7531   4.7854   4.8649   4.8983   4.9130
     4.9371   4.9514   5.0403   5.0972   5.1264   5.1616   5.1858   5.2083
     5.2484   5.2652   5.3440   5.3796   5.5308   5.5710   5.5876   5.7967
     5.8086   5.8400   5.9135   5.9932   6.0470   6.0536   6.1389   6.1848
     6.3274   6.3329   6.4152   6.4322   6.5158   6.6257   6.6325   6.6655
     6.8290   6.8708   7.0198   7.0396   7.0561   7.1004   7.1568   7.3309
     7.3651   7.4017   7.4399   7.4969   7.5899   7.6097   7.6802   7.7021
     7.7150   7.7313   7.7506   7.7717   7.7882   7.8656   7.9301   7.9716
     7.9911   8.0288   8.1035   8.1050   8.3184   8.3821   8.4415   8.5155
     8.5328   8.6003   8.6088   8.6413   8.6997   8.7656   8.8024   8.8156
     8.8442   8.8824   8.9002   8.9486   9.0050   9.0927   9.1026   9.1099
     9.1653   9.1795   9.2477   9.2841   9.3183   9.3324   9.3375   9.3564
     9.4404   9.5129   9.5965   9.6291   9.6331   9.6654   9.6895   9.7278
     9.7627   9.8151   9.8437   9.8684   9.9241   9.9524  10.0329  10.0709
    10.1015  10.1089  10.1268  10.2300  10.2338  10.3028  10.3489  10.4242
    10.4587  10.5007  10.5289  10.5496

          k =-0.5000 0.0000 0.0000 (256496 PWs)   bands (ev):

   -16.4330 -15.3536 -15.2298 -15.0126 -14.9944 -14.9327 -14.2089 -14.0074
   -13.8982 -13.8638 -12.5759 -12.3276 -12.1520 -12.1047 -11.7571 -11.7135
   -11.3866 -11.3347 -11.1803 -11.1685 -10.6474 -10.6073 -10.4343 -10.1975
    -9.6966  -9.6719  -9.4533  -9.1290  -8.5649  -8.5398  -8.3726  -8.3647
    -7.2367  -7.0839  -7.0474  -6.8405  -6.7853  -6.7610  -5.6081  -5.5988
    -5.1866  -4.6887  -4.6844  -4.6537  -4.5533  -4.4137  -4.2889  -4.2229
    -4.2174  -4.1853  -4.1751  -4.1681  -4.1641  -4.1233  -4.1047  -4.0873
    -4.0729  -3.9581  -3.9333  -3.9257  -3.8538  -3.8147  -3.7939  -3.5707
    -3.5547  -3.3964  -3.3819  -3.2931  -3.2242  -3.1322  -3.1182  -3.0948
    -3.0480  -3.0106  -2.8503  -2.8154  -2.7979  -2.7851  -2.7835  -2.7818
    -2.7807  -2.7765  -2.4180  -2.4090  -2.3577  -2.3384  -2.2706  -2.2505
    -2.2146  -2.1729  -2.1446  -2.1010  -2.0524  -1.9541  -1.9119  -1.8939
    -1.8914  -1.8808  -1.8772  -1.8480  -1.3319  -1.3258  -1.3222  -1.3190
    -1.2786  -1.2529  -1.2500  -1.2462  -1.2441  -1.2406  -1.2389  -1.2173
    -1.1925  -1.1901  -1.1015  -1.0341  -1.0335  -1.0313  -1.0299  -0.9814
    -0.9801  -0.9780  -0.9748  -0.9627  -0.9619  -0.9593  -0.9440  -0.9131
    -0.9106  -0.8839  -0.8658  -0.8654  -0.8413  -0.8384  -0.8268  -0.8247
    -0.8067  -0.8049  -0.7636  -0.7602  -0.7386  -0.7350  -0.7268  -0.7255
    -0.7063  -0.7016  -0.6919  -0.6886  -0.6758  -0.6752  -0.6695  -0.6680
    -0.6598  -0.6568  -0.6530  -0.6506  -0.5930  -0.5910  -0.5844  -0.5779
    -0.5763  -0.5681  -0.5604  -0.5546  -0.5535  -0.5370  -0.5355  -0.5291
    -0.5286  -0.5215  -0.5054  -0.4896  -0.4882  -0.4819  -0.4808  -0.4704
    -0.4663  -0.4592  -0.4531  -0.4516  -0.4372  -0.4253  -0.4172  -0.4129
    -0.3878  -0.3861  -0.3796  -0.3632  -0.3568  -0.3510  -0.3495  -0.3487
    -0.3475  -0.3396  -0.3388  -0.3224  -0.3194  -0.3168  -0.3156  -0.2955
    -0.2926  -0.2871  -0.2849  -0.2812  -0.2802  -0.2702  -0.2675  -0.2215
    -0.2107  -0.1501  -0.1467  -0.1208  -0.1124  -0.1035  -0.1021  -0.0793
    -0.0772  -0.0717  -0.0620  -0.0609  -0.0441  -0.0432  -0.0380  -0.0327
    -0.0308  -0.0234  -0.0029   0.0012   0.0025   0.0089   0.0116   0.0169
     0.0237   0.0304   0.0422   0.0441   0.0502   0.0591   0.0701   0.1028
     0.1038   0.1116   0.1231   0.1255   0.1367   0.1441   0.1557   0.1577
     0.1588   0.1601   0.1860   0.1886   0.1961   0.1973   0.2112   0.2135
     0.2425   0.2444   0.2462   0.2469   0.2651   0.2664   0.2751   0.2777
     0.2860   0.2913   0.2928   0.3085   0.3129   0.3151   0.3224   0.3233
     0.3355   0.3450   0.3508   0.3527   0.3637   0.3653   0.3658   0.3687
     0.3754   0.3759   0.3804   0.4035   0.4115   0.4137   0.4282   0.4371
     0.4390   0.4505   0.4547   0.4645   0.4724   0.4758   0.4773   0.4783
     0.4915   0.4961   0.5047   0.5093   0.5126   0.5348   0.5397   0.5503
     0.5509   0.5513   0.5576   0.5684   0.5733   0.5758   0.5812   0.5819
     0.5831   0.5863   0.5982   0.5990   0.6015   0.6035   0.6078   0.6100
     0.6167   0.6283   0.6414   0.6418   0.6466   0.6495   0.6519   0.6675
     0.6790   0.6930   0.6942   0.6962   0.7067   0.7086   0.7096   0.7107
     0.7109   0.7114   0.7160   0.7174   0.7218   0.7262   0.7265   0.7314
     0.7403   0.7444   0.7446   0.7465   0.7475   0.7540   0.7543   0.7565
     0.7595   0.7637   0.7675   0.7740   0.7774   0.7813   0.7823   0.7868
     0.8074   0.8140   0.8225   0.8272   0.8374   0.8432   0.8480   0.8721
     0.8826   0.8915   0.8975   0.9013   0.9054   0.9140   0.9161   0.9196
     0.9224   0.9358   0.9465   0.9506   0.9577   0.9600   0.9658   0.9683
     0.9720   0.9731   0.9749   0.9786   0.9811   0.9814   0.9912   1.0012
     1.0031   1.0035   1.0052   1.0078   1.0095   1.0102   1.0236   1.0242
     1.0282   1.0321   1.0368   1.0387   1.0400   1.0663   1.0695   1.0721
     1.0862   1.0870   1.1014   1.1044   1.1066   1.1069   1.1156   1.1188
     1.1235   1.1316   1.1321   1.1358   1.1377   1.1542   1.1562   1.1582
     1.1614   1.1662   1.1694   1.1751   1.1781   1.1820   1.1840   1.1880
     1.1902   1.1918   1.1926   1.2179   1.2237   1.2241   1.2245   1.2304
     1.2313   1.2369   1.2385   1.2444   1.2447   1.2537   1.2570   1.2598
     1.2607   1.2718   1.2721   1.2757   1.2764   1.2835   1.2933   1.2964
     1.3013   1.3020   1.3048   1.3069   1.3176   1.3255   1.3476   1.3517
     1.3551   1.3577   1.3615   1.3621   1.3684   1.3710   1.3781   1.3799
     1.3820   1.3839   1.3976   1.3985   1.4025   1.4075   1.4130   1.4294
     1.4335   1.4347   1.4454   1.4479   1.4499   1.4506   1.4507   1.4586
     1.4666   1.4713   1.4718   1.4770   1.4814   1.4831   1.4844   1.4913
     1.5028   1.5070   1.5096   1.5100   1.5122   1.5144   1.5361   1.5376
     1.5407   1.5560   1.5608   1.5648   1.5699   1.5731   1.5858   1.5913
     1.6043   1.6057   1.6083   1.6143   1.6213   1.6237   1.6358   1.6494
     1.6496   1.6584   1.6652   1.6719   1.6739   1.6762   1.6799   1.6822
     1.6948   1.6949   1.6996   1.7002   1.7012   1.7059   1.7178   1.7186
     1.7219   1.7269   1.7337   1.7342   1.7404   1.7418   1.7428   1.7434
     1.7494   1.7532   1.7624   1.7650   1.7659   1.7687   1.7817   1.7838
     1.7862   1.7878   1.7902   1.7952   1.7967   1.7980   1.8038   1.8121
     1.8183   1.8204   1.8231   1.8239   1.8266   1.8273   1.8323   1.8358
     1.8364   1.8405   1.8414   1.8434   1.8509   1.8533   1.8544   1.8602
     1.8736   1.8799   1.8859   1.8884   1.8956   1.9001   1.9019   1.9042
     1.9051   1.9068   1.9114   1.9117   1.9192   1.9227   1.9257   1.9294
     1.9298   1.9330   1.9340   1.9372   1.9376   1.9380   1.9400   1.9425
     1.9436   1.9531   1.9558   1.9612   1.9663   1.9710   1.9732   1.9791
     1.9837   1.9857   1.9860   1.9892   1.9900   1.9972   2.0068   2.0086
     2.0104   2.0115   2.0121   2.0246   2.0277   2.0282   2.0295   2.0317
     2.0321   2.0351   2.0435   2.0438   2.0479   2.0528   2.0560   2.0572
     2.0583   2.0589   2.0705   2.0803   2.0810   2.0820   2.0902   2.0910
     2.1013   2.1035   2.1055   2.1088   2.1197   2.1198   2.1201   2.1204
     2.1292   2.1294   2.1395   2.1526   2.1617   2.1738   2.1745   2.1749
     2.1831   2.1893   2.2157   2.2164   2.2241   2.2280   2.3600   2.3611
     2.3978   2.3998   2.5500   2.5508   2.8150   2.8200   2.8602   2.8653
     2.8712   2.8740   2.8910   2.8934   2.9159   2.9174   3.3290   3.3310
     3.3709   3.3721   3.6689   3.6728   3.6939   3.7000   3.7510   3.7567
     3.7835   3.7847   3.9155   3.9183   3.9497   3.9547   4.3837   4.3963
     4.4098   4.4127   4.5270   4.5385   4.5673   4.6013   4.6134   4.6287
     4.6801   4.7327   4.7495   5.0200   5.0294   5.0814   5.2433   5.2732
     5.2838   5.2853   5.3084   5.3200   5.3975   5.4654   5.4682   5.4736
     5.4779   5.5308   5.5514   5.6188   5.6247   5.6302   5.6363   5.6731
     5.6932   5.7265   5.7333   5.7722   5.7852   5.7885   5.8642   5.9007
     5.9379   5.9397   6.2609   6.3105   6.3541   6.3629   6.3818   6.4058
     6.4793   6.4911   6.5251   6.5315   6.6050   6.6122   6.6424   6.6550
     6.8150   7.0213   7.0550   7.0820   7.1151   7.1322   7.2464   7.2561
     7.6999   7.7201   7.7301   7.7392   7.8222   7.8287   7.8815   7.8924
     8.1230   8.1287   8.1928   8.1982   8.2322   8.2361   8.2660   8.2723
     8.4208   8.4234   8.4761   8.4788   8.5139   8.5160   8.6421   8.6928
     8.7136   8.7314   8.8502   8.8574   8.8785   8.8856   9.1439   9.1550
     9.2305   9.2470   9.2695   9.2757   9.3337   9.3387   9.4522   9.4599
     9.4757   9.4790   9.5298   9.6298   9.6557   9.6766   9.6799   9.7698
     9.7836   9.8443   9.8769   9.9447   9.9685   9.9697   9.9746   9.9759
     9.9962  10.0144  10.1656  10.1710  10.1848  10.1860  10.2727  10.2810
    10.3260  10.3376  10.4132  10.4412

          k =-0.5000-0.2165 0.0000 (256328 PWs)   bands (ev):

   -16.4328 -15.2988 -15.2754 -15.2113 -14.8146 -14.5809 -14.5658 -14.4624
   -13.4626 -13.2288 -13.1098 -13.0520 -11.9748 -11.7216 -11.4594 -11.4329
   -11.3243 -11.2009 -11.0698 -11.0244 -10.9411 -10.9184 -10.8187 -10.7883
    -9.3900  -9.3714  -9.2037  -9.1563  -8.6320  -8.3235  -8.1933  -8.1699
    -7.6538  -7.6340  -7.4738  -7.4621  -5.9554  -5.6468  -5.5448  -5.3689
    -5.2420  -5.0096  -4.7640  -4.7302  -4.7065  -4.5807  -4.5758  -4.5407
    -4.5363  -4.5298  -4.4477  -4.4166  -4.1040  -3.9793  -3.9486  -3.8950
    -3.7420  -3.6311  -3.6216  -3.5986  -3.5887  -3.5588  -3.5544  -3.5247
    -3.5136  -3.4940  -3.4887  -3.4522  -3.3499  -3.2692  -3.1875  -3.1678
    -3.1406  -3.1080  -3.0956  -3.0615  -3.0386  -2.8551  -2.7978  -2.7815
    -2.6823  -2.6072  -2.5556  -2.4880  -2.3504  -2.3465  -2.0720  -2.0695
    -2.0308  -1.9878  -1.9466  -1.9442  -1.9425  -1.9414  -1.8409  -1.7888
    -1.6855  -1.6638  -1.6392  -1.6249  -1.5779  -1.5171  -1.5135  -1.4687
    -1.4648  -1.4572  -1.4524  -1.4512  -1.4043  -1.2190  -1.2148  -1.1846
    -1.1827  -1.1747  -1.1727  -1.1570  -1.1353  -1.1114  -1.0353  -0.9985
    -0.9898  -0.9611  -0.9604  -0.9250  -0.8628  -0.8612  -0.8566  -0.8552
    -0.8192  -0.8160  -0.8132  -0.8109  -0.8107  -0.8101  -0.8075  -0.8018
    -0.7988  -0.7984  -0.7712  -0.7686  -0.7648  -0.7642  -0.7544  -0.7447
    -0.7436  -0.7429  -0.7410  -0.7326  -0.7318  -0.7291  -0.7284  -0.6898
    -0.6864  -0.6226  -0.6210  -0.6147  -0.6082  -0.5897  -0.5833  -0.5760
    -0.5743  -0.5640  -0.5629  -0.5385  -0.5383  -0.5302  -0.5290  -0.5169
    -0.5112  -0.5108  -0.5082  -0.5065  -0.4966  -0.4955  -0.4910  -0.4892
    -0.4867  -0.4806  -0.4791  -0.4713  -0.4530  -0.4485  -0.4473  -0.4425
    -0.4274  -0.4266  -0.4233  -0.4223  -0.4051  -0.4035  -0.4025  -0.4023
    -0.3689  -0.3583  -0.3561  -0.3549  -0.3072  -0.3054  -0.3035  -0.3001
    -0.2463  -0.2451  -0.2214  -0.2206  -0.1977  -0.1973  -0.1892  -0.1879
    -0.1476  -0.1467  -0.1345  -0.1336  -0.1328  -0.1321  -0.1203  -0.1200
    -0.1154  -0.1102  -0.0854  -0.0848  -0.0746  -0.0711  -0.0653  -0.0639
    -0.0526  -0.0520  -0.0467  -0.0452   0.0269   0.0346   0.0356   0.0412
     0.0532   0.0544   0.0745   0.0777   0.0813   0.0821   0.0893   0.0908
     0.0997   0.1175   0.1269   0.1310   0.1326   0.1338   0.1644   0.1728
     0.1731   0.1796   0.1820   0.1824   0.1843   0.1844   0.2067   0.2187
     0.2233   0.2293   0.2371   0.2445   0.2496   0.2506   0.2633   0.2984
     0.3015   0.3232   0.3268   0.3285   0.3501   0.3512   0.3540   0.3551
     0.3559   0.3581   0.3594   0.3658   0.3697   0.3706   0.3760   0.3782
     0.3860   0.3902   0.3984   0.4350   0.4414   0.4448   0.4452   0.4463
     0.4494   0.4538   0.4559   0.4829   0.4877   0.4912   0.4938   0.4974
     0.4987   0.4991   0.4992   0.4999   0.5024   0.5068   0.5093   0.5094
     0.5306   0.5343   0.5420   0.5508   0.5554   0.5575   0.5665   0.5767
     0.5813   0.5997   0.6135   0.6157   0.6161   0.6388   0.6418   0.6454
     0.6496   0.6513   0.6518   0.6525   0.6600   0.6618   0.6746   0.6778
     0.6780   0.6879   0.6922   0.6936   0.6950   0.7075   0.7089   0.7093
     0.7110   0.7112   0.7139   0.7190   0.7235   0.7261   0.7268   0.7280
     0.7304   0.7441   0.7480   0.7517   0.7544   0.7551   0.7580   0.7588
     0.7606   0.7668   0.7679   0.7833   0.8031   0.8187   0.8199   0.8208
     0.8271   0.8326   0.8343   0.8353   0.8401   0.8555   0.8625   0.8640
     0.8648   0.8664   0.8792   0.8831   0.8882   0.8962   0.8970   0.9115
     0.9198   0.9216   0.9340   0.9523   0.9563   0.9624   0.9638   0.9712
     0.9736   0.9757   0.9867   0.9892   1.0005   1.0041   1.0051   1.0087
     1.0097   1.0104   1.0196   1.0235   1.0268   1.0275   1.0327   1.0368
     1.0383   1.0444   1.0480   1.0503   1.0506   1.0641   1.0677   1.0700
     1.0738   1.0814   1.0865   1.0916   1.0956   1.0963   1.0986   1.1064
     1.1128   1.1195   1.1208   1.1226   1.1267   1.1315   1.1483   1.1508
     1.1542   1.1547   1.1635   1.1767   1.1785   1.1805   1.1840   1.1877
     1.1893   1.1908   1.2023   1.2177   1.2179   1.2193   1.2202   1.2333
     1.2338   1.2365   1.2370   1.2403   1.2452   1.2473   1.2485   1.2509
     1.2675   1.2708   1.2771   1.2865   1.2872   1.2896   1.2961   1.2973
     1.3016   1.3056   1.3130   1.3183   1.3201   1.3239   1.3277   1.3371
     1.3403   1.3413   1.3468   1.3481   1.3519   1.3530   1.3696   1.3739
     1.3824   1.3845   1.3877   1.3918   1.3925   1.3944   1.3989   1.4006
     1.4022   1.4035   1.4165   1.4193   1.4284   1.4299   1.4359   1.4416
     1.4637   1.4657   1.4742   1.4752   1.4868   1.4875   1.4960   1.5098
     1.5208   1.5265   1.5374   1.5434   1.5636   1.5649   1.5744   1.5803
     1.5842   1.5854   1.5878   1.5895   1.6099   1.6153   1.6177   1.6295
     1.6312   1.6335   1.6338   1.6350   1.6368   1.6373   1.6425   1.6455
     1.6470   1.6479   1.6518   1.6525   1.6552   1.6564   1.6599   1.6606
     1.6614   1.6622   1.6673   1.6753   1.6832   1.6913   1.6990   1.7005
     1.7029   1.7087   1.7139   1.7146   1.7175   1.7230   1.7262   1.7274
     1.7380   1.7395   1.7455   1.7471   1.7490   1.7507   1.7513   1.7517
     1.7549   1.7595   1.7641   1.7782   1.7905   1.7916   1.7918   1.7941
     1.8113   1.8126   1.8153   1.8187   1.8303   1.8323   1.8335   1.8342
     1.8356   1.8426   1.8517   1.8553   1.8674   1.8689   1.8734   1.8755
     1.8817   1.8903   1.8912   1.8914   1.8943   1.9004   1.9018   1.9022
     1.9052   1.9174   1.9195   1.9223   1.9350   1.9367   1.9379   1.9404
     1.9466   1.9482   1.9517   1.9535   1.9538   1.9542   1.9581   1.9585
     1.9643   1.9649   1.9659   1.9707   1.9708   1.9752   1.9806   1.9834
     1.9842   1.9844   1.9875   1.9914   1.9936   1.9948   2.0023   2.0035
     2.0090   2.0158   2.0172   2.0181   2.0210   2.0251   2.0293   2.0361
     2.0365   2.0372   2.0409   2.0457   2.0463   2.0506   2.0603   2.0609
     2.0630   2.0677   2.0782   2.0798   2.0871   2.0900   2.1040   2.1055
     2.1083   2.1099   2.1177   2.1198   2.1200   2.1204   2.1349   2.1351
     2.1402   2.1422   2.1442   2.1533   2.1856   2.1864   2.1865   2.1880
     2.1921   2.1932   2.2123   2.2164   2.2278   2.2318   2.2342   2.2523
     2.4007   2.4033   2.4067   2.4117   2.4598   2.4619   2.7200   2.7213
     3.0063   3.0106   3.0414   3.0423   3.1356   3.1409   3.1565   3.1570
     3.3558   3.3599   3.3971   3.4026   3.8682   3.8743   4.0233   4.0346
     4.0460   4.0473   4.0556   4.0638   4.1876   4.1882   4.2757   4.2789
     4.4547   4.4594   4.5341   4.5350   4.5362   4.5432   4.6143   4.6187
     4.7375   4.8203   4.8276   4.8290   4.8341   5.0259   5.0737   5.0860
     5.1368   5.1680   5.2298   5.2485   5.2529   5.3234   5.3379   5.3758
     5.4168   5.4483   5.4939   5.5660   5.5757   5.6173   5.6321   5.6411
     5.6767   5.6828   5.7143   5.7400   5.7570   5.8172   5.9687   6.0424
     6.0590   6.1108   6.1234   6.1472   6.1740   6.1868   6.2349   6.2709
     6.3967   6.4066   6.4143   6.4263   6.8066   6.8151   6.8367   6.8408
     7.1917   7.2002   7.2807   7.2836   7.5044   7.5097   7.5111   7.5317
     7.5924   7.6018   7.7249   7.7350   7.7392   7.7418   7.9484   7.9493
     7.9514   7.9523   8.0912   8.1346   8.1424   8.2007   8.2124   8.3873
     8.4052   8.4845   8.4908   8.5430   8.6163   8.6245   8.6346   8.6421
     8.6845   8.6853   8.8372   8.8700   8.9747   8.9892   9.0016   9.0105
     9.2357   9.2460   9.3184   9.3236   9.4210   9.4231   9.4246   9.4254
     9.5095   9.5133   9.5265   9.5299   9.5950   9.6008   9.6085   9.6096
     9.6128   9.6241   9.6630   9.6731   9.7090   9.7253   9.9664   9.9820
    10.0468  10.0639  10.2737  10.2781  10.2866  10.2940  10.3574  10.3674
    10.5095  10.5263  10.5318  10.5378

     the Fermi energy is     3.9284 ev

!    total energy              =  -13679.28791955 Ry
     Harris-Foulkes estimate   =  -13679.28791956 Ry
     estimated scf accuracy    <          5.3E-09 Ry

     The total energy is the sum of the following terms:

     one-electron contribution = -106325.05902936 Ry
     hartree contribution      =   54658.20071412 Ry
     xc contribution           =   -4789.49193698 Ry
     ewald contribution        =   42783.77371497 Ry
     Dispersion Correction     =      -3.10053462 Ry
     smearing contrib. (-TS)   =      -3.61084768 Ry

     convergence has been achieved in  41 iterations

     Writing output data file gc.save
 
     init_run     :    108.20s CPU    115.84s WALL (       1 calls)
     electrons    :  13456.95s CPU  14331.16s WALL (       1 calls)

     Called by init_run:
     wfcinit      :    105.94s CPU    113.19s WALL (       1 calls)
     potinit      :      0.34s CPU      0.37s WALL (       1 calls)

     Called by electrons:
     c_bands      :  12479.09s CPU  13258.80s WALL (      41 calls)
     sum_band     :    825.21s CPU    895.67s WALL (      41 calls)
     v_of_rho     :      2.73s CPU      3.33s WALL (      42 calls)
     newd         :      8.24s CPU     13.35s WALL (      42 calls)
     mix_rho      :    141.57s CPU    159.92s WALL (      41 calls)

     Called by c_bands:
     init_us_2    :     37.14s CPU     37.55s WALL (     498 calls)
     cegterg      :  12314.97s CPU  13088.35s WALL (     253 calls)

     Called by sum_band:
     sum_band:bec :      5.01s CPU      5.72s WALL (     246 calls)
     addusdens    :      8.04s CPU     12.93s WALL (      41 calls)

     Called by *egterg:
     h_psi        :   4256.79s CPU   4594.75s WALL (    1936 calls)
     s_psi        :   1059.32s CPU   1072.18s WALL (    1936 calls)
     g_psi        :     10.79s CPU     10.79s WALL (    1677 calls)
     cdiaghg      :   3927.58s CPU   4073.11s WALL (    1923 calls)

     Called by h_psi:
     add_vuspsi   :   1067.76s CPU   1081.76s WALL (    1936 calls)

     General routines
     calbec       :   1482.06s CPU   1493.17s WALL (    2182 calls)
     fft          :      3.51s CPU      4.00s WALL (     545 calls)
     ffts         :     82.83s CPU     93.55s WALL (   21792 calls)
     fftw         :   2370.99s CPU   2638.46s WALL ( 1311328 calls)
     davcio       :      0.25s CPU      3.18s WALL (       6 calls)
 
     Parallel routines
     fft_scatter  :   1522.62s CPU   1676.31s WALL ( 1333665 calls)
 
     PWSCF        :     3h46m CPU        4h 0m WALL

 
   This run was terminated on:  18: 0:50  20Apr2017            

=------------------------------------------------------------------------------=
   JOB DONE.
=------------------------------------------------------------------------------=
