mpirun: INFO: switching to OpenMPI runtime version 1.10.2

     Program PWSCF v.5.4.0 starts on 30Jan2018 at 12:26:35 

     This program is part of the open-source Quantum ESPRESSO suite
     for quantum simulation of materials; please cite
         "P. Giannozzi et al., J. Phys.:Condens. Matter 21 395502 (2009);
          URL http://www.quantum-espresso.org", 
     in publications or presentations arising from this work. More details at
     http://www.quantum-espresso.org/quote

     Parallel version (MPI & OpenMP), running on      28 processor cores
     Number of MPI processes:                28
     Threads/MPI process:                     1
     R & G space division:  proc/nbgrp/npool/nimage =      28
     Waiting for input...
     Reading input from standard input
Warning: card &IONS ignored
Warning: card / ignored

     Current dimensions of program PWSCF are:
     Max number of different atomic species (ntypx) = 10
     Max number of k-points (npk) =  40000
     Max angular momentum in pseudopotentials (lmaxx) =  3

     -------------------------------------
     Parameters for Dispersion Correction:
     -------------------------------------
       atom      VdW radius       C_6     

        Cu         2.952        374.666
        C_h        2.744         60.710
        C          2.744         60.710

     Subspace diagonalization in iterative solution of the eigenvalue problem:
     one sub-group per band group will be used
     scalapack distributed-memory algorithm (size of sub-group:  3*  3 procs)

 
     Parallelization info
     --------------------
     sticks:   dense  smooth     PW     G-vecs:    dense   smooth      PW
     Min         408     408    108                73226    73226    9928
     Max         410     410    109                73231    73231    9931
     Sum       11433   11433   3039              2050409  2050409  278033
 


     bravais-lattice index     =            0
     lattice parameter (alat)  =      13.9425  a.u.
     unit-cell volume          =   21209.0878 (a.u.)^3
     number of atoms/cell      =          148
     number of atomic types    =            3
     number of electrons       =      1293.00
     number of Kohn-Sham states=          776
     kinetic-energy cutoff     =      80.0000  Ry
     charge density cutoff     =     320.0000  Ry
     convergence threshold     =      1.0E-08
     mixing beta               =       0.7000
     number of iterations used =            8  local-TF  mixing
     Exchange-correlation      =  SLA  PW   PBX  PBC ( 1  4  3  4 0 0)

     celldm(1)=  13.942539  celldm(2)=   0.000000  celldm(3)=   0.000000
     celldm(4)=   0.000000  celldm(5)=   0.000000  celldm(6)=   0.000000

     crystal axes: (cart. coord. in units of alat)
               a(1) = (   1.000000   0.000000   0.000000 )  
               a(2) = (   0.000000   2.309401   0.000000 )  
               a(3) = (   0.000000   0.000000   3.388418 )  

     reciprocal axes: (cart. coord. in units 2 pi/alat)
               b(1) = (  1.000000  0.000000  0.000000 )  
               b(2) = (  0.000000  0.433013  0.000000 )  
               b(3) = (  0.000000  0.000000  0.295123 )  


     PseudoPot. # 1 for Cu read from file:
     /home/549/hxw549/Short/pseudopotentials/Cu.pbe-n-van_ak.UPF
     MD5 check sum: 601f7c30f7467666bec936e0661ce3e1
     Pseudo is Ultrasoft + core correction, Zval = 11.0
     Generated by new atomic code, or converted to UPF format
     Using radial grid of  867 points,  6 beta functions with: 
                l(1) =   0
                l(2) =   0
                l(3) =   1
                l(4) =   1
                l(5) =   2
                l(6) =   2
     Q(r) pseudized with  8 coefficients,  rinner =    1.400   1.400   1.400
                                                       1.400   1.400

     PseudoPot. # 2 for C  read from file:
     /home/549/hxw549/Short/pseudopotentials/C.star1s-pbe-mt_gipaw.UPF
     MD5 check sum: ef0cb3dee31bd9e4ba2a832a2c716264
     Pseudo is Norm-conserving, Zval =  5.0
     Generated by new atomic code, or converted to UPF format
     Using radial grid of 1073 points,  1 beta functions with: 
                l(1) =   0

     PseudoPot. # 3 for C  read from file:
     /home/549/hxw549/Short/pseudopotentials/C.pbe-mt_gipaw.UPF
     MD5 check sum: 5ac2f21f2c440b14befe521540822c15
     Pseudo is Norm-conserving, Zval =  4.0
     Generated by new atomic code, or converted to UPF format
     Using radial grid of 1073 points,  1 beta functions with: 
                l(1) =   0

     atomic species   valence    mass     pseudopotential
        Cu            11.00    63.54600     Cu( 1.00)
        C_h            5.00    12.01070     C ( 1.00)
        C              4.00    12.01070     C ( 1.00)

     No symmetry found



   Cartesian axes

     site n.     atom                  positions (alat units)
         1           Cu  tau(   1) = (   0.0000000   0.0000567   0.9971194  )
         2           Cu  tau(   2) = (   0.2499927   0.2309760   0.9972946  )
         3           Cu  tau(   3) = (   0.5000000   0.0000313   0.9971490  )
         4           Cu  tau(   4) = (   0.7500073   0.2309760   0.9972946  )
         5           Cu  tau(   5) = (   0.0000000   0.4618437   0.9973425  )
         6           Cu  tau(   6) = (   0.2499840   0.6927701   0.9971914  )
         7           Cu  tau(   7) = (   0.5000000   0.4618722   0.9973119  )
         8           Cu  tau(   8) = (   0.7500160   0.6927701   0.9971914  )
         9           Cu  tau(   9) = (   0.0000000   0.9237521   0.9970621  )
        10           Cu  tau(  10) = (   0.2500157   1.1547420   0.9971373  )
        11           Cu  tau(  11) = (   0.5000000   0.9237453   0.9970727  )
        12           Cu  tau(  12) = (   0.7499843   1.1547420   0.9971373  )
        13           Cu  tau(  13) = (   0.0000000   1.3856555   0.9972830  )
        14           Cu  tau(  14) = (   0.2500029   1.6165618   0.9973242  )
        15           Cu  tau(  15) = (   0.5000000   1.3857014   0.9973005  )
        16           Cu  tau(  16) = (   0.7499971   1.6165618   0.9973242  )
        17           Cu  tau(  17) = (   0.0000000   1.8474941   0.9971969  )
        18           Cu  tau(  18) = (   0.2500043   2.0784518   0.9970745  )
        19           Cu  tau(  19) = (   0.5000000   1.8474499   0.9971773  )
        20           Cu  tau(  20) = (   0.7499957   2.0784518   0.9970745  )
        21           Cu  tau(  21) = (   0.0000000   0.2308065   1.2457643  )
        22           Cu  tau(  22) = (   0.2499892  -0.0001010   1.2455764  )
        23           Cu  tau(  23) = (   0.5000000   0.2308938   1.2456746  )
        24           Cu  tau(  24) = (   0.7500108  -0.0001010   1.2455764  )
        25           Cu  tau(  25) = (   0.0000000   0.6929786   1.2456406  )
        26           Cu  tau(  26) = (   0.2499874   0.4619293   1.2457459  )
        27           Cu  tau(  27) = (   0.5000000   0.6929012   1.2456074  )
        28           Cu  tau(  28) = (   0.7500126   0.4619293   1.2457459  )
        29           Cu  tau(  29) = (   0.0000000   1.1546142   1.2455676  )
        30           Cu  tau(  30) = (   0.2499981   0.9237849   1.2455149  )
        31           Cu  tau(  31) = (   0.5000000   1.1545763   1.2455800  )
        32           Cu  tau(  32) = (   0.7500019   0.9237849   1.2455149  )
        33           Cu  tau(  33) = (   0.0000000   1.6166029   1.2456910  )
        34           Cu  tau(  34) = (   0.2500161   1.3855492   1.2457134  )
        35           Cu  tau(  35) = (   0.5000000   1.6166555   1.2458019  )
        36           Cu  tau(  36) = (   0.7499839   1.3855492   1.2457134  )
        37           Cu  tau(  37) = (   0.0000000   2.0784993   1.2455162  )
        38           Cu  tau(  38) = (   0.2500161   1.8476387   1.2456210  )
        39           Cu  tau(  39) = (   0.5000000   2.0784755   1.2455152  )
        40           Cu  tau(  40) = (   0.7499839   1.8476387   1.2456210  )
        41           Cu  tau(  41) = (   0.0000000  -0.0003182   1.4954305  )
        42           Cu  tau(  42) = (   0.2500224   0.2307186   1.4951678  )
        43           Cu  tau(  43) = (   0.5000000  -0.0002059   1.4952775  )
        44           Cu  tau(  44) = (   0.7499776   0.2307186   1.4951678  )
        45           Cu  tau(  45) = (   0.0000000   0.4620254   1.4950571  )
        46           Cu  tau(  46) = (   0.2500339   0.6931225   1.4952807  )
        47           Cu  tau(  47) = (   0.5000000   0.4619896   1.4952144  )
        48           Cu  tau(  48) = (   0.7499661   0.6931225   1.4952807  )
        49           Cu  tau(  49) = (   0.0000000   0.9238798   1.4954544  )
        50           Cu  tau(  50) = (   0.2499708   1.1544329   1.4953374  )
        51           Cu  tau(  51) = (   0.5000000   0.9237633   1.4954072  )
        52           Cu  tau(  52) = (   0.7500292   1.1544329   1.4953374  )
        53           Cu  tau(  53) = (   0.0000000   1.3854453   1.4952066  )
        54           Cu  tau(  54) = (   0.2499861   1.6167017   1.4951298  )
        55           Cu  tau(  55) = (   0.5000000   1.3853760   1.4951346  )
        56           Cu  tau(  56) = (   0.7500139   1.6167017   1.4951298  )
        57           Cu  tau(  57) = (   0.0000000   1.8477718   1.4952308  )
        58           Cu  tau(  58) = (   0.2499930   2.0785254   1.4954090  )
        59           Cu  tau(  59) = (   0.5000000   1.8478762   1.4953503  )
        60           Cu  tau(  60) = (   0.7500070   2.0785254   1.4954090  )
        61           Cu  tau(  61) = (   0.0000000   0.2310733   1.7440777  )
        62           Cu  tau(  62) = (   0.2501089  -0.0001294   1.7450479  )
        63           Cu  tau(  63) = (   0.5000000   0.2306045   1.7445985  )
        64           Cu  tau(  64) = (   0.7498911  -0.0001294   1.7450479  )
        65           Cu  tau(  65) = (   0.0000000   0.6927994   1.7446059  )
        66           Cu  tau(  66) = (   0.2502918   0.4619532   1.7441197  )
        67           Cu  tau(  67) = (   0.5000000   0.6931011   1.7451318  )
        68           Cu  tau(  68) = (   0.7497082   0.4619532   1.7441197  )
        69           Cu  tau(  69) = (   0.0000000   1.1545789   1.7453503  )
        70           Cu  tau(  70) = (   0.2500220   0.9237908   1.7453835  )
        71           Cu  tau(  71) = (   0.5000000   1.1545999   1.7449118  )
        72           Cu  tau(  72) = (   0.7499780   0.9237908   1.7453835  )
        73           Cu  tau(  73) = (   0.0000000   1.6167791   1.7444075  )
        74           Cu  tau(  74) = (   0.2497438   1.3855115   1.7442733  )
        75           Cu  tau(  75) = (   0.5000000   1.6164906   1.7439233  )
        76           Cu  tau(  76) = (   0.7502562   1.3855115   1.7442733  )
        77           Cu  tau(  77) = (   0.0000000   2.0782721   1.7455014  )
        78           Cu  tau(  78) = (   0.2498426   1.8476765   1.7447807  )
        79           Cu  tau(  79) = (   0.5000000   2.0787016   1.7454002  )
        80           Cu  tau(  80) = (   0.7501574   1.8476765   1.7447807  )
        81           Cu  tau(  81) = (   0.0000000   0.0010732   1.9906710  )
        82           Cu  tau(  82) = (   0.2503054   0.2314650   1.9904877  )
        83           Cu  tau(  83) = (   0.5000000   0.0001335   1.9924670  )
        84           Cu  tau(  84) = (   0.7496946   0.2314650   1.9904877  )
        85           Cu  tau(  85) = (   0.0000000   0.4618379   1.9901778  )
        86           Cu  tau(  86) = (   0.2508441   0.6921348   1.9910282  )
        87           Cu  tau(  87) = (   0.5000000   0.4613052   1.9913358  )
        88           Cu  tau(  88) = (   0.7491559   0.6921348   1.9910282  )
        89           Cu  tau(  89) = (   0.0000000   0.9224699   1.9915918  )
        90           Cu  tau(  90) = (   0.2491275   1.1552920   1.9912642  )
        91           Cu  tau(  91) = (   0.5000000   0.9247757   1.9920574  )
        92           Cu  tau(  92) = (   0.7508725   1.1552920   1.9912642  )
        93           Cu  tau(  93) = (   0.0000000   1.3865904   1.9916296  )
        94           Cu  tau(  94) = (   0.2499532   1.6162906   1.9903050  )
        95           Cu  tau(  95) = (   0.5000000   1.3858063   1.9901800  )
        96           Cu  tau(  96) = (   0.7500468   1.6162906   1.9903050  )
        97           Cu  tau(  97) = (   0.0000000   1.8468318   1.9923212  )
        98           Cu  tau(  98) = (   0.2497561   2.0783183   1.9915134  )
        99           Cu  tau(  99) = (   0.5000000   1.8467805   1.9903847  )
       100           Cu  tau( 100) = (   0.7502439   2.0783183   1.9915134  )
       101           C   tau( 101) = (   0.0000000   0.0962962   2.4368284  )
       102           C   tau( 102) = (   0.0000000   0.2886925   2.4379804  )
       103           C   tau( 103) = (   0.1666323   0.0000435   2.3878725  )
       104           C   tau( 104) = (   0.1664900   0.3848966   2.3886722  )
       105           C   tau( 105) = (   0.3331238   0.0962174   2.4339279  )
       106           C   tau( 106) = (   0.3331280   0.2886629   2.4336026  )
       107           C   tau( 107) = (   0.5000000  -0.0000818   2.3845247  )
       108           C   tau( 108) = (   0.5000000   0.3849277   2.3842266  )
       109           C   tau( 109) = (   0.6668762   0.0962174   2.4339279  )
       110           C   tau( 110) = (   0.6668720   0.2886629   2.4336026  )
       111           C   tau( 111) = (   0.8333677   0.0000435   2.3878725  )
       112           C   tau( 112) = (   0.8335100   0.3848966   2.3886722  )
       113           C   tau( 113) = (   0.0000000   0.6735163   2.3413021  )
       114           C   tau( 114) = (   0.0000000   0.8659398   2.4349851  )
       115           C   tau( 115) = (   0.1664759   0.5773226   2.3205108  )
       116           C   tau( 116) = (   0.1667428   0.9622141   2.4548005  )
       117           C_h tau( 117) = (   0.3332094   0.6735984   2.3379001  )
       118           C   tau( 118) = (   0.3332031   0.8660537   2.4345514  )
       119           C   tau( 119) = (   0.5000000   0.5773685   2.3170817  )
       120           C_h tau( 120) = (   0.5000000   0.9623380   2.4538518  )
       121           C   tau( 121) = (   0.6667906   0.6735984   2.3379001  )
       122           C   tau( 122) = (   0.6667969   0.8660537   2.4345514  )
       123           C   tau( 123) = (   0.8335241   0.5773226   2.3205108  )
       124           C   tau( 124) = (   0.8332572   0.9622141   2.4548005  )
       125           C   tau( 125) = (   0.0000000   1.2508867   2.3373580  )
       126           C   tau( 126) = (   0.0000000   1.4433300   2.3361517  )
       127           C   tau( 127) = (   0.1667360   1.1546708   2.3859885  )
       128           C   tau( 128) = (   0.1668939   1.5396104   2.3857175  )
       129           C   tau( 129) = (   0.3335095   1.2509657   2.3399603  )
       130           C   tau( 130) = (   0.3334866   1.4433958   2.3407464  )
       131           C   tau( 131) = (   0.5000000   1.1547731   2.3885095  )
       132           C   tau( 132) = (   0.5000000   1.5396099   2.3901495  )
       133           C   tau( 133) = (   0.6664905   1.2509657   2.3399603  )
       134           C   tau( 134) = (   0.6665134   1.4433958   2.3407464  )
       135           C   tau( 135) = (   0.8332640   1.1546708   2.3859885  )
       136           C   tau( 136) = (   0.8331061   1.5396104   2.3857175  )
       137           C   tau( 137) = (   0.0000000   1.8283510   2.4320981  )
       138           C   tau( 138) = (   0.0000000   2.0207949   2.3383880  )
       139           C   tau( 139) = (   0.1668959   1.7320513   2.4536349  )
       140           C   tau( 140) = (   0.1666186   2.1169980   2.3187623  )
       141           C   tau( 141) = (   0.3334155   1.8282368   2.4361507  )
       142           C   tau( 142) = (   0.3334352   2.0206763   2.3390522  )
       143           C   tau( 143) = (   0.5000000   1.7319961   2.4573080  )
       144           C   tau( 144) = (   0.5000000   2.1168754   2.3192503  )
       145           C   tau( 145) = (   0.6665845   1.8282368   2.4361507  )
       146           C   tau( 146) = (   0.6665648   2.0206763   2.3390522  )
       147           C   tau( 147) = (   0.8331041   1.7320513   2.4536349  )
       148           C   tau( 148) = (   0.8333814   2.1169980   2.3187623  )

     number of k points=     6  gaussian smearing, width (Ry)=  0.1000
                       cart. coord. in units 2pi/alat
        k(    1) = (   0.0000000   0.0000000   0.0000000), wk =   0.2500000
        k(    2) = (   0.0000000  -0.2165064   0.0000000), wk =   0.2500000
        k(    3) = (   0.2500000   0.0000000   0.0000000), wk =   0.5000000
        k(    4) = (   0.2500000  -0.2165064   0.0000000), wk =   0.5000000
        k(    5) = (  -0.5000000   0.0000000   0.0000000), wk =   0.2500000
        k(    6) = (  -0.5000000  -0.2165064   0.0000000), wk =   0.2500000

     Dense  grid:  2050409 G-vectors     FFT dimensions: (  80, 192, 270)

     Largest allocated arrays     est. size (Mb)     dimensions
        Kohn-Sham Wavefunctions       108.59 Mb     (    9171,  776)
        NL pseudopotentials           258.61 Mb     (    9171, 1848)
        Each V/rho on FFT grid          2.34 Mb     (  153600)
        Each G-vector array             0.56 Mb     (   73230)
        G-vector shells                 0.27 Mb     (   35784)
     Largest temporary arrays     est. size (Mb)     dimensions
        Auxiliary wavefunctions       434.37 Mb     (    9171, 3104)
        Each subspace H/S matrix       16.31 Mb     (    1034, 1034)
        Each <psi_i|beta_j> matrix     21.88 Mb     (    1848,  776)
        Arrays for rho mixing          18.75 Mb     (  153600,    8)

     Initial potential from superposition of free atoms
     Check: negative starting charge=   -0.001798

     starting charge 1266.81751, renormalised to 1293.00000

     negative rho (up, down):  1.836E-03 0.000E+00
     Starting wfc are 1284 randomized atomic wfcs

     total cpu time spent up to now is      201.6 secs

     Self-consistent Calculation

     iteration #  1     ecut=    80.00 Ry     beta=0.70
     Davidson diagonalization with overlap
     c_bands:  2 eigenvalues not converged
     c_bands:  5 eigenvalues not converged
     c_bands:  3 eigenvalues not converged
     c_bands:  2 eigenvalues not converged
     c_bands:  1 eigenvalues not converged
     ethr =  1.00E-04,  avg # of iterations = 40.0

     negative rho (up, down):  2.761E+01 0.000E+00

     total cpu time spent up to now is     4349.7 secs

     total energy              =   -9652.16498636 Ry
     Harris-Foulkes estimate   =  -17579.09065243 Ry
     estimated scf accuracy    <  183116.50782280 Ry

     iteration #  2     ecut=    80.00 Ry     beta=0.70
     Davidson diagonalization with overlap
     ethr =  1.00E-02,  avg # of iterations = 13.5

     negative rho (up, down):  3.151E+01 0.000E+00

     total cpu time spent up to now is     6240.1 secs

     total energy              =  -11602.86941402 Ry
     Harris-Foulkes estimate   =  -13772.58679956 Ry
     estimated scf accuracy    <   39751.86698778 Ry

     iteration #  3     ecut=    80.00 Ry     beta=0.70
     Davidson diagonalization with overlap
     ethr =  1.00E-02,  avg # of iterations = 10.3

     negative rho (up, down):  3.061E+01 0.000E+00

     total cpu time spent up to now is     7465.9 secs

     total energy              =  -12500.58264634 Ry
     Harris-Foulkes estimate   =  -13640.23138181 Ry
     estimated scf accuracy    <    4864.75407001 Ry

     iteration #  4     ecut=    80.00 Ry     beta=0.70
     Davidson diagonalization with overlap
     ethr =  1.00E-02,  avg # of iterations =  5.0

     negative rho (up, down):  1.954E+01 0.000E+00

     total cpu time spent up to now is     8542.3 secs

     total energy              =  -12830.94553141 Ry
     Harris-Foulkes estimate   =  -13094.35534282 Ry
     estimated scf accuracy    <     896.94987307 Ry

     iteration #  5     ecut=    80.00 Ry     beta=0.70
     Davidson diagonalization with overlap
     ethr =  1.00E-02,  avg # of iterations =  2.0

     negative rho (up, down):  1.245E+01 0.000E+00

     total cpu time spent up to now is     9032.8 secs

     total energy              =  -12821.29885078 Ry
     Harris-Foulkes estimate   =  -12891.01541986 Ry
     estimated scf accuracy    <     662.06323628 Ry

     iteration #  6     ecut=    80.00 Ry     beta=0.70
     Davidson diagonalization with overlap
     ethr =  1.00E-02,  avg # of iterations =  2.0

     negative rho (up, down):  1.083E+01 0.000E+00

     total cpu time spent up to now is     9406.7 secs

     total energy              =  -12812.01982990 Ry
     Harris-Foulkes estimate   =  -12856.42235770 Ry
     estimated scf accuracy    <    1341.45101859 Ry

     iteration #  7     ecut=    80.00 Ry     beta=0.70
     Davidson diagonalization with overlap
     ethr =  1.00E-02,  avg # of iterations =  1.3

     negative rho (up, down):  9.762E+00 0.000E+00

     total cpu time spent up to now is     9731.4 secs

     total energy              =  -12812.30312449 Ry
     Harris-Foulkes estimate   =  -12830.86920867 Ry
     estimated scf accuracy    <     496.20905955 Ry

     iteration #  8     ecut=    80.00 Ry     beta=0.70
     Davidson diagonalization with overlap
     ethr =  1.00E-02,  avg # of iterations =  1.0

     negative rho (up, down):  7.231E+00 0.000E+00

     total cpu time spent up to now is    10049.3 secs

     total energy              =  -12793.99047288 Ry
     Harris-Foulkes estimate   =  -12821.13094957 Ry
     estimated scf accuracy    <     284.75124236 Ry

     iteration #  9     ecut=    80.00 Ry     beta=0.70
     Davidson diagonalization with overlap
     ethr =  1.00E-02,  avg # of iterations =  1.0

     negative rho (up, down):  5.477E+00 0.000E+00

     total cpu time spent up to now is    10369.3 secs

     total energy              =  -12777.14759293 Ry
     Harris-Foulkes estimate   =  -12797.05749290 Ry
     estimated scf accuracy    <     237.02777300 Ry

     iteration # 10     ecut=    80.00 Ry     beta=0.70
     Davidson diagonalization with overlap
     ethr =  1.00E-02,  avg # of iterations =  1.0

     negative rho (up, down):  7.923E-01 0.000E+00

     total cpu time spent up to now is    10687.8 secs

     total energy              =  -12734.56212612 Ry
     Harris-Foulkes estimate   =  -12780.18935619 Ry
     estimated scf accuracy    <     156.25851553 Ry

     iteration # 11     ecut=    80.00 Ry     beta=0.70
     Davidson diagonalization with overlap
     ethr =  1.00E-02,  avg # of iterations =  2.2

     negative rho (up, down):  2.287E+00 0.000E+00

     total cpu time spent up to now is    11034.2 secs

     total energy              =  -12722.29957744 Ry
     Harris-Foulkes estimate   =  -12743.28233393 Ry
     estimated scf accuracy    <     171.34776985 Ry

     iteration # 12     ecut=    80.00 Ry     beta=0.70
     Davidson diagonalization with overlap
     ethr =  1.00E-02,  avg # of iterations =  2.0

     negative rho (up, down):  5.955E-01 0.000E+00

     total cpu time spent up to now is    11376.6 secs

     total energy              =  -12725.14366584 Ry
     Harris-Foulkes estimate   =  -12734.19392283 Ry
     estimated scf accuracy    <      93.68054938 Ry

     iteration # 13     ecut=    80.00 Ry     beta=0.70
     Davidson diagonalization with overlap
     ethr =  7.25E-03,  avg # of iterations =  2.0

     negative rho (up, down):  2.912E+00 0.000E+00

     total cpu time spent up to now is    11717.2 secs

     total energy              =  -12723.09531267 Ry
     Harris-Foulkes estimate   =  -12731.43991889 Ry
     estimated scf accuracy    <      40.45821289 Ry

     iteration # 14     ecut=    80.00 Ry     beta=0.70
     Davidson diagonalization with overlap
     ethr =  3.13E-03,  avg # of iterations =  2.5

     negative rho (up, down):  3.902E+00 0.000E+00

     total cpu time spent up to now is    12065.5 secs

     total energy              =  -12720.92113857 Ry
     Harris-Foulkes estimate   =  -12724.29863995 Ry
     estimated scf accuracy    <      23.14251975 Ry

     iteration # 15     ecut=    80.00 Ry     beta=0.70
     Davidson diagonalization with overlap
     ethr =  1.79E-03,  avg # of iterations =  4.0

     negative rho (up, down):  4.364E+00 0.000E+00

     total cpu time spent up to now is    12449.0 secs

     total energy              =  -12719.85174442 Ry
     Harris-Foulkes estimate   =  -12721.88992079 Ry
     estimated scf accuracy    <      20.54005060 Ry

     iteration # 16     ecut=    80.00 Ry     beta=0.70
     Davidson diagonalization with overlap
     ethr =  1.59E-03,  avg # of iterations =  2.7

     negative rho (up, down):  3.702E+00 0.000E+00

     total cpu time spent up to now is    12801.3 secs

     total energy              =  -12719.38147460 Ry
     Harris-Foulkes estimate   =  -12720.51148985 Ry
     estimated scf accuracy    <      10.33447975 Ry

     iteration # 17     ecut=    80.00 Ry     beta=0.70
     Davidson diagonalization with overlap
     ethr =  7.99E-04,  avg # of iterations =  3.3

     negative rho (up, down):  2.547E+00 0.000E+00

     total cpu time spent up to now is    13170.1 secs

     total energy              =  -12718.22981245 Ry
     Harris-Foulkes estimate   =  -12719.62420881 Ry
     estimated scf accuracy    <       7.58744531 Ry

     iteration # 18     ecut=    80.00 Ry     beta=0.70
     Davidson diagonalization with overlap
     ethr =  5.87E-04,  avg # of iterations =  8.3

     negative rho (up, down):  2.344E+00 0.000E+00

     total cpu time spent up to now is    13649.7 secs

     total energy              =  -12718.02968283 Ry
     Harris-Foulkes estimate   =  -12718.41861400 Ry
     estimated scf accuracy    <       8.16370705 Ry

     iteration # 19     ecut=    80.00 Ry     beta=0.70
     Davidson diagonalization with overlap
     ethr =  5.87E-04,  avg # of iterations =  1.2

     negative rho (up, down):  1.470E+00 0.000E+00

     total cpu time spent up to now is    13977.0 secs

     total energy              =  -12717.40141069 Ry
     Harris-Foulkes estimate   =  -12718.20356289 Ry
     estimated scf accuracy    <       5.89231041 Ry

     iteration # 20     ecut=    80.00 Ry     beta=0.70
     Davidson diagonalization with overlap
     ethr =  4.56E-04,  avg # of iterations =  1.0

     negative rho (up, down):  1.592E+00 0.000E+00

     total cpu time spent up to now is    14298.1 secs

     total energy              =  -12717.33915302 Ry
     Harris-Foulkes estimate   =  -12717.53329285 Ry
     estimated scf accuracy    <       7.29635928 Ry

     iteration # 21     ecut=    80.00 Ry     beta=0.70
     Davidson diagonalization with overlap
     ethr =  4.56E-04,  avg # of iterations =  1.0

     negative rho (up, down):  7.398E-01 0.000E+00

     total cpu time spent up to now is    14616.9 secs

     total energy              =  -12715.46219376 Ry
     Harris-Foulkes estimate   =  -12717.45616304 Ry
     estimated scf accuracy    <       6.03520922 Ry

     iteration # 22     ecut=    80.00 Ry     beta=0.70
     Davidson diagonalization with overlap
     ethr =  4.56E-04,  avg # of iterations =  3.0

     negative rho (up, down):  7.814E-02 0.000E+00

     total cpu time spent up to now is    14977.3 secs

     total energy              =  -12714.57545218 Ry
     Harris-Foulkes estimate   =  -12715.53714510 Ry
     estimated scf accuracy    <       4.67602538 Ry

     iteration # 23     ecut=    80.00 Ry     beta=0.70
     Davidson diagonalization with overlap
     ethr =  3.62E-04,  avg # of iterations =  3.8

     negative rho (up, down):  9.956E-01 0.000E+00

     total cpu time spent up to now is    15360.2 secs

     total energy              =  -12713.93932937 Ry
     Harris-Foulkes estimate   =  -12715.02205407 Ry
     estimated scf accuracy    <       7.64122941 Ry

     iteration # 24     ecut=    80.00 Ry     beta=0.70
     Davidson diagonalization with overlap
     ethr =  3.62E-04,  avg # of iterations =  6.2

     negative rho (up, down):  7.580E-01 0.000E+00

     total cpu time spent up to now is    15835.5 secs

     total energy              =  -12714.13306066 Ry
     Harris-Foulkes estimate   =  -12714.47446294 Ry
     estimated scf accuracy    <       2.22286731 Ry

     iteration # 25     ecut=    80.00 Ry     beta=0.70
     Davidson diagonalization with overlap
     ethr =  1.72E-04,  avg # of iterations =  7.2

     negative rho (up, down):  9.432E-01 0.000E+00

     total cpu time spent up to now is    16282.4 secs

     total energy              =  -12714.14602255 Ry
     Harris-Foulkes estimate   =  -12714.28849095 Ry
     estimated scf accuracy    <       0.92282381 Ry

     iteration # 26     ecut=    80.00 Ry     beta=0.70
     Davidson diagonalization with overlap
     ethr =  7.14E-05,  avg # of iterations =  7.0

     negative rho (up, down):  6.321E-01 0.000E+00

     total cpu time spent up to now is    16749.3 secs

     total energy              =  -12714.09984755 Ry
     Harris-Foulkes estimate   =  -12714.19625828 Ry
     estimated scf accuracy    <       0.45827972 Ry

     iteration # 27     ecut=    80.00 Ry     beta=0.70
     Davidson diagonalization with overlap
     ethr =  3.54E-05,  avg # of iterations = 11.3

     negative rho (up, down):  3.705E-01 0.000E+00

     total cpu time spent up to now is    17302.8 secs

     total energy              =  -12714.03006484 Ry
     Harris-Foulkes estimate   =  -12714.11745553 Ry
     estimated scf accuracy    <       0.30593400 Ry

     iteration # 28     ecut=    80.00 Ry     beta=0.70
     Davidson diagonalization with overlap
     ethr =  2.37E-05,  avg # of iterations =  7.3

     negative rho (up, down):  3.553E-01 0.000E+00

     total cpu time spent up to now is    17817.2 secs

     total energy              =  -12714.04300266 Ry
     Harris-Foulkes estimate   =  -12714.05122953 Ry
     estimated scf accuracy    <       0.11427080 Ry

     iteration # 29     ecut=    80.00 Ry     beta=0.70
     Davidson diagonalization with overlap
     ethr =  8.84E-06,  avg # of iterations =  2.8

     negative rho (up, down):  1.707E-01 0.000E+00

     total cpu time spent up to now is    18176.7 secs

     total energy              =  -12714.03914703 Ry
     Harris-Foulkes estimate   =  -12714.04825877 Ry
     estimated scf accuracy    <       0.03200957 Ry

     iteration # 30     ecut=    80.00 Ry     beta=0.70
     Davidson diagonalization with overlap
     c_bands:  2 eigenvalues not converged
     ethr =  2.48E-06,  avg # of iterations = 13.3

     negative rho (up, down):  7.746E-02 0.000E+00

     total cpu time spent up to now is    18844.9 secs

     total energy              =  -12714.04054538 Ry
     Harris-Foulkes estimate   =  -12714.04217438 Ry
     estimated scf accuracy    <       0.02151249 Ry

     iteration # 31     ecut=    80.00 Ry     beta=0.70
     Davidson diagonalization with overlap
     ethr =  1.66E-06,  avg # of iterations = 15.8

     negative rho (up, down):  4.064E-02 0.000E+00

     total cpu time spent up to now is    19567.9 secs

     total energy              =  -12714.04119256 Ry
     Harris-Foulkes estimate   =  -12714.04196879 Ry
     estimated scf accuracy    <       0.00608229 Ry

     iteration # 32     ecut=    80.00 Ry     beta=0.70
     Davidson diagonalization with overlap
     c_bands:  1 eigenvalues not converged
     c_bands:  1 eigenvalues not converged
     ethr =  4.70E-07,  avg # of iterations = 12.8

     negative rho (up, down):  1.740E-02 0.000E+00

     total cpu time spent up to now is    20189.2 secs

     total energy              =  -12714.04120819 Ry
     Harris-Foulkes estimate   =  -12714.04170385 Ry
     estimated scf accuracy    <       0.00131875 Ry

     iteration # 33     ecut=    80.00 Ry     beta=0.70
     Davidson diagonalization with overlap
     c_bands:  1 eigenvalues not converged
     ethr =  1.02E-07,  avg # of iterations = 13.8

     negative rho (up, down):  1.166E-02 0.000E+00

     total cpu time spent up to now is    20875.0 secs

     total energy              =  -12714.04126047 Ry
     Harris-Foulkes estimate   =  -12714.04143239 Ry
     estimated scf accuracy    <       0.00086284 Ry

     iteration # 34     ecut=    80.00 Ry     beta=0.70
     Davidson diagonalization with overlap
     c_bands:  1 eigenvalues not converged
     c_bands:  1 eigenvalues not converged
     ethr =  6.67E-08,  avg # of iterations = 11.0

     negative rho (up, down):  3.055E-03 0.000E+00

     total cpu time spent up to now is    21425.1 secs

     total energy              =  -12714.04134351 Ry
     Harris-Foulkes estimate   =  -12714.04133840 Ry
     estimated scf accuracy    <       0.00020812 Ry

     iteration # 35     ecut=    80.00 Ry     beta=0.70
     Davidson diagonalization with overlap
     ethr =  1.61E-08,  avg # of iterations = 11.3

     negative rho (up, down):  2.769E-03 0.000E+00

     total cpu time spent up to now is    22028.2 secs

     total energy              =  -12714.04144973 Ry
     Harris-Foulkes estimate   =  -12714.04136013 Ry
     estimated scf accuracy    <       0.00010224 Ry

     iteration # 36     ecut=    80.00 Ry     beta=0.70
     Davidson diagonalization with overlap
     ethr =  7.91E-09,  avg # of iterations =  6.8

     negative rho (up, down):  1.266E-03 0.000E+00

     total cpu time spent up to now is    22514.1 secs

     total energy              =  -12714.04144430 Ry
     Harris-Foulkes estimate   =  -12714.04146109 Ry
     estimated scf accuracy    <       0.00005087 Ry

     iteration # 37     ecut=    80.00 Ry     beta=0.70
     Davidson diagonalization with overlap
     ethr =  3.93E-09,  avg # of iterations =  4.8

     negative rho (up, down):  1.600E-03 0.000E+00

     total cpu time spent up to now is    22933.3 secs

     total energy              =  -12714.04147729 Ry
     Harris-Foulkes estimate   =  -12714.04144913 Ry
     estimated scf accuracy    <       0.00002503 Ry

     iteration # 38     ecut=    80.00 Ry     beta=0.70
     Davidson diagonalization with overlap
     ethr =  1.94E-09,  avg # of iterations =  7.2

     negative rho (up, down):  2.252E-03 0.000E+00

     total cpu time spent up to now is    23401.9 secs

     total energy              =  -12714.04149073 Ry
     Harris-Foulkes estimate   =  -12714.04147854 Ry
     estimated scf accuracy    <       0.00000717 Ry

     iteration # 39     ecut=    80.00 Ry     beta=0.70
     Davidson diagonalization with overlap
     ethr =  5.55E-10,  avg # of iterations =  6.7

     negative rho (up, down):  2.193E-03 0.000E+00

     total cpu time spent up to now is    23873.5 secs

     total energy              =  -12714.04149176 Ry
     Harris-Foulkes estimate   =  -12714.04149138 Ry
     estimated scf accuracy    <       0.00000244 Ry

     iteration # 40     ecut=    80.00 Ry     beta=0.70
     Davidson diagonalization with overlap
     ethr =  1.89E-10,  avg # of iterations =  3.0

     negative rho (up, down):  2.103E-03 0.000E+00

     total cpu time spent up to now is    24253.1 secs

     total energy              =  -12714.04149144 Ry
     Harris-Foulkes estimate   =  -12714.04149192 Ry
     estimated scf accuracy    <       0.00000089 Ry

     iteration # 41     ecut=    80.00 Ry     beta=0.70
     Davidson diagonalization with overlap
     ethr =  6.88E-11,  avg # of iterations =  2.0

     negative rho (up, down):  1.961E-03 0.000E+00

     total cpu time spent up to now is    24610.1 secs

     total energy              =  -12714.04149143 Ry
     Harris-Foulkes estimate   =  -12714.04149151 Ry
     estimated scf accuracy    <       0.00000049 Ry

     iteration # 42     ecut=    80.00 Ry     beta=0.70
     Davidson diagonalization with overlap
     ethr =  3.77E-11,  avg # of iterations =  3.0

     negative rho (up, down):  2.009E-03 0.000E+00

     total cpu time spent up to now is    24999.8 secs

     total energy              =  -12714.04149139 Ry
     Harris-Foulkes estimate   =  -12714.04149149 Ry
     estimated scf accuracy    <       0.00000017 Ry

     iteration # 43     ecut=    80.00 Ry     beta=0.70
     Davidson diagonalization with overlap
     ethr =  1.28E-11,  avg # of iterations =  2.8

     negative rho (up, down):  2.003E-03 0.000E+00

     total cpu time spent up to now is    25397.8 secs

     total energy              =  -12714.04149144 Ry
     Harris-Foulkes estimate   =  -12714.04149142 Ry
     estimated scf accuracy    <       0.00000008 Ry

     iteration # 44     ecut=    80.00 Ry     beta=0.70
     Davidson diagonalization with overlap
     ethr =  5.85E-12,  avg # of iterations =  2.8

     negative rho (up, down):  2.003E-03 0.000E+00

     total cpu time spent up to now is    25770.5 secs

     total energy              =  -12714.04149147 Ry
     Harris-Foulkes estimate   =  -12714.04149145 Ry
     estimated scf accuracy    <       0.00000002 Ry

     iteration # 45     ecut=    80.00 Ry     beta=0.70
     Davidson diagonalization with overlap
     ethr =  1.64E-12,  avg # of iterations =  2.3

     negative rho (up, down):  2.026E-03 0.000E+00

     total cpu time spent up to now is    26125.9 secs

     End of self-consistent calculation

          k = 0.0000 0.0000 0.0000 (256287 PWs)   bands (ev):

   -16.9416 -16.0465 -15.7306 -15.2512 -14.8491 -14.3349 -14.3044 -13.9167
   -13.8015 -13.7131 -13.6763 -13.4814 -12.9042 -12.8384 -12.8031 -12.7114
   -12.5085 -11.7740 -11.6286 -11.3558 -10.7921 -10.6861  -9.7825  -9.7108
    -9.6792  -9.1558  -9.0822  -8.5421  -8.4335  -8.3257  -8.2083  -7.9046
    -7.7148  -7.5065  -7.4360  -7.3388  -7.2058  -6.9233  -6.8407  -6.5101
    -6.3010  -6.0983  -5.9692  -5.8788  -5.7370  -5.6565  -5.5713  -5.5653
    -5.3826  -5.2342  -5.2059  -5.1446  -5.0562  -4.8842  -4.6956  -4.5899
    -4.5472  -4.4568  -4.2081  -4.0827  -4.0623  -3.9904  -3.8963  -3.7857
    -3.7582  -3.6447  -3.5596  -3.4837  -3.4752  -3.3392  -3.2814  -3.2467
    -3.1671  -3.1487  -3.0865  -3.0845  -3.0829  -3.0805  -3.0479  -2.9792
    -2.9384  -2.8458  -2.7869  -2.7446  -2.7034  -2.6891  -2.6353  -2.5772
    -2.5038  -2.4574  -2.4328  -2.4140  -2.4112  -2.3920  -2.3297  -2.2974
    -2.2639  -2.2631  -2.2287  -2.2285  -2.2282  -2.2275  -2.1317  -2.1027
    -2.0993  -2.0986  -2.0969  -2.0669  -1.9928  -1.9617  -1.9413  -1.9266
    -1.8785  -1.8565  -1.8506  -1.8360  -1.8224  -1.8068  -1.8027  -1.8007
    -1.7805  -1.7469  -1.7368  -1.7327  -1.7260  -1.6675  -1.6460  -1.6411
    -1.6320  -1.6211  -1.6050  -1.6015  -1.5933  -1.5914  -1.5791  -1.5699
    -1.5389  -1.5330  -1.4909  -1.4858  -1.4828  -1.4411  -1.4305  -1.4155
    -1.4053  -1.3932  -1.3865  -1.3766  -1.3388  -1.3386  -1.3282  -1.2895
    -1.2890  -1.2693  -1.2674  -1.2417  -1.2399  -1.1670  -1.1369  -1.1329
    -1.1317  -1.1292  -1.1290  -1.1250  -1.1086  -1.1026  -1.0953  -1.0941
    -1.0916  -1.0894  -1.0873  -1.0862  -1.0801  -1.0778  -1.0720  -1.0329
    -1.0173  -1.0156  -1.0132  -1.0080  -0.9996  -0.9979  -0.9445  -0.9410
    -0.9379  -0.9371  -0.9339  -0.9326  -0.9311  -0.9289  -0.9284  -0.9272
    -0.9261  -0.9256  -0.9254  -0.9197  -0.9194  -0.9148  -0.9054  -0.9028
    -0.8730  -0.8499  -0.7700  -0.7695  -0.7630  -0.7597  -0.7410  -0.7386
    -0.7250  -0.7233  -0.7065  -0.7015  -0.6983  -0.6805  -0.6771  -0.6742
    -0.6622  -0.6484  -0.6416  -0.6397  -0.6376  -0.6371  -0.6348  -0.6297
    -0.6264  -0.6244  -0.5846  -0.5750  -0.5734  -0.5562  -0.5194  -0.5169
    -0.5140  -0.5081  -0.5079  -0.5031  -0.4875  -0.4864  -0.4829  -0.4823
    -0.4811  -0.4805  -0.4801  -0.4794  -0.4702  -0.4640  -0.4639  -0.4525
    -0.4329  -0.4298  -0.4164  -0.4012  -0.3854  -0.3837  -0.3810  -0.3784
    -0.3696  -0.3692  -0.3437  -0.3417  -0.3417  -0.3405  -0.3404  -0.3360
    -0.3206  -0.3197  -0.3013  -0.2999  -0.2991  -0.2966  -0.2957  -0.2952
    -0.2937  -0.2844  -0.2841  -0.2830  -0.2712  -0.2710  -0.2694  -0.2660
    -0.2608  -0.2549  -0.2483  -0.2070  -0.2053  -0.2007  -0.2000  -0.1962
    -0.1748  -0.1655  -0.1630  -0.1622  -0.1572  -0.1532  -0.1438  -0.1394
    -0.1390  -0.1383  -0.1083  -0.0924  -0.0901  -0.0890  -0.0769  -0.0658
    -0.0615  -0.0578  -0.0557  -0.0540  -0.0501  -0.0464  -0.0444  -0.0388
    -0.0333  -0.0316  -0.0300  -0.0276  -0.0248  -0.0233  -0.0172  -0.0145
    -0.0089  -0.0020   0.0077   0.0080   0.0124   0.0228   0.0376   0.0531
     0.0567   0.0790   0.0963   0.1031   0.1112   0.1199   0.1273   0.1476
     0.1549   0.1592   0.1594   0.1596   0.1618   0.1632   0.1744   0.1759
     0.1814   0.1859   0.1956   0.1968   0.2240   0.2443   0.2484   0.2593
     0.2617   0.2635   0.2639   0.2668   0.2891   0.2948   0.2963   0.2979
     0.3013   0.3024   0.3334   0.3348   0.3398   0.3414   0.3527   0.3584
     0.3679   0.3716   0.3756   0.3904   0.3964   0.4096   0.4119   0.4131
     0.4147   0.4164   0.4183   0.4198   0.4217   0.4242   0.4244   0.4407
     0.4433   0.4463   0.4521   0.4554   0.4580   0.4605   0.4651   0.4671
     0.4683   0.4716   0.4771   0.4803   0.4855   0.4877   0.5037   0.5119
     0.5209   0.5254   0.5273   0.5279   0.5310   0.5508   0.5567   0.5658
     0.5686   0.5720   0.5733   0.5736   0.5763   0.5850   0.5895   0.5928
     0.5951   0.5983   0.6079   0.6105   0.6113   0.6191   0.6292   0.6339
     0.6436   0.6492   0.6524   0.6560   0.6610   0.6644   0.6661   0.6677
     0.6717   0.6717   0.6717   0.6727   0.6824   0.6910   0.6982   0.7215
     0.7248   0.7312   0.7342   0.7398   0.7414   0.7440   0.7533   0.7709
     0.7732   0.7912   0.7984   0.7991   0.8038   0.8056   0.8071   0.8117
     0.8168   0.8190   0.8214   0.8256   0.8312   0.8371   0.8385   0.8522
     0.8548   0.8564   0.8585   0.8609   0.8634   0.8746   0.8827   0.8915
     0.8986   0.9054   0.9065   0.9075   0.9148   0.9173   0.9197   0.9210
     0.9242   0.9298   0.9337   0.9381   0.9427   0.9454   0.9481   0.9501
     0.9582   0.9651   0.9666   0.9702   0.9764   0.9803   0.9885   0.9964
     0.9990   1.0043   1.0061   1.0108   1.0159   1.0211   1.0258   1.0270
     1.0347   1.0354   1.0384   1.0433   1.0516   1.0537   1.0565   1.0571
     1.0606   1.0640   1.0682   1.0889   1.1029   1.1077   1.1122   1.1149
     1.1224   1.1249   1.1270   1.1279   1.1430   1.1530   1.1556   1.1575
     1.1600   1.1623   1.1637   1.1680   1.1755   1.1781   1.1796   1.1850
     1.1864   1.1902   1.1926   1.1935   1.1969   1.1977   1.1980   1.2047
     1.2069   1.2106   1.2151   1.2161   1.2190   1.2217   1.2290   1.2306
     1.2326   1.2337   1.2348   1.2357   1.2383   1.2592   1.2654   1.2700
     1.2723   1.2787   1.2815   1.2825   1.2864   1.2982   1.3062   1.3072
     1.3098   1.3219   1.3256   1.3284   1.3350   1.3353   1.3365   1.3410
     1.3421   1.3431   1.3491   1.3544   1.3548   1.3553   1.3566   1.3593
     1.3613   1.3670   1.3707   1.3709   1.3756   1.3810   1.3827   1.3870
     1.3882   1.3975   1.3982   1.4108   1.4173   1.4220   1.4435   1.4721
     1.4745   1.4775   1.4870   1.4948   1.4973   1.5033   1.5291   1.5447
     1.5482   1.5510   1.5549   1.5566   1.5649   1.5655   1.5667   1.5697
     1.5976   1.6455   1.6730   1.7176   1.7938   1.8790   1.9899   2.0142
     2.0940   2.1146   2.1232   2.1293   2.1322   2.1331   2.1441   2.1552
     2.1758   2.2250   2.2582   2.3201   2.3503   2.3674   2.3888   2.3949
     2.4020   2.4107   2.5790   2.6285   2.6444   2.6803   2.7191   2.7822
     2.8766   2.9688   3.2554   3.3162   3.3774   3.5761   3.6579   3.6941
     3.7085   3.7167   3.7277   3.7335   3.8734   3.8902   3.9016   3.9048
     3.9114   3.9133   4.0219   4.0414   4.0816   4.1649   4.2163   4.2596
     4.3042   4.3249   4.3751   4.3933   4.4829   4.5695   4.5972   4.6660
     4.6879   5.1596   5.1938   5.2064   5.3799   5.4762   5.5858   5.6102
     5.6547   5.6774   5.8124   5.8640   5.8945   5.9085   6.0056   6.2103
     6.3207   6.3558   6.3769   6.3933   6.4774   6.4788   6.4967   6.5171
     6.5221   6.6453   6.6840   6.6898   6.7062   6.7076   6.8932   6.9265
     6.9711   6.9952   7.0397   7.1188   7.1885   7.2280   7.2404   7.2727
     7.2905   7.2999   7.5870   7.6247   7.6323   7.6672   7.7068   7.7415
     7.7699   7.7771   7.9594   8.0417   8.1847   8.2224   8.2477   8.2515
     8.2649   8.2954   8.3048   8.3501   8.3593   8.3793   8.4282   8.4679
     8.4974   8.5612   8.6029   8.6265   8.6387   8.6623   8.7495   8.7720
     8.7907   8.8068   8.8197   8.8266   8.8887   8.9142   8.9681   9.1079
     9.1275   9.1629   9.2232   9.2366   9.2792   9.2929   9.3134   9.4558
     9.4839   9.4862   9.4927   9.7237   9.7483   9.7566   9.8053   9.9339

          k = 0.0000-0.2165 0.0000 (256176 PWs)   bands (ev):

   -16.9412 -16.0739 -15.5702 -15.4721 -14.7114 -14.4747 -14.0981 -13.8986
   -13.8909 -13.8318 -13.4571 -13.3869 -13.3256 -13.2411 -12.4811 -12.2551
   -12.0863 -11.9906 -11.8869 -11.8375 -10.3238 -10.2747 -10.2664 -10.1154
    -9.2536  -9.0491  -8.9351  -8.7612  -8.5704  -8.5200  -8.0661  -7.9253
    -7.8522  -7.7698  -7.1959  -6.9986  -6.9801  -6.8746  -6.5412  -6.4908
    -6.4144  -6.3027  -6.2984  -6.2303  -5.9622  -5.9501  -5.4541  -5.1180
    -5.0979  -5.0360  -5.0077  -4.9506  -4.9206  -4.9040  -4.8809  -4.7147
    -4.5935  -4.5611  -4.4801  -4.3962  -4.1781  -4.0903  -3.8744  -3.7916
    -3.5813  -3.4491  -3.3845  -3.3822  -3.3788  -3.3744  -3.2646  -3.2132
    -3.1842  -3.1238  -3.1045  -3.0979  -3.0673  -3.0369  -3.0060  -2.9483
    -2.8664  -2.7496  -2.7018  -2.6605  -2.6540  -2.6498  -2.6475  -2.6454
    -2.6364  -2.5821  -2.5742  -2.5552  -2.5392  -2.4167  -2.3220  -2.2997
    -2.2938  -2.2553  -2.2382  -2.2251  -2.2080  -2.2053  -2.1995  -2.1649
    -2.1189  -2.0791  -2.0663  -2.0624  -2.0383  -2.0357  -2.0273  -1.9501
    -1.9191  -1.9034  -1.8439  -1.8380  -1.8276  -1.8236  -1.8230  -1.8199
    -1.8181  -1.8166  -1.7978  -1.7966  -1.7544  -1.7532  -1.7232  -1.7226
    -1.6091  -1.5667  -1.5555  -1.5224  -1.4962  -1.4891  -1.4653  -1.4476
    -1.4470  -1.4409  -1.3945  -1.3942  -1.3814  -1.3692  -1.3542  -1.3531
    -1.3504  -1.3500  -1.3498  -1.3466  -1.3414  -1.3227  -1.3070  -1.3065
    -1.2995  -1.2991  -1.2967  -1.2923  -1.2728  -1.2296  -1.2072  -1.1897
    -1.1701  -1.1673  -1.1651  -1.1621  -1.1289  -1.1276  -1.1262  -1.1241
    -1.1014  -1.0923  -1.0647  -1.0639  -1.0596  -1.0593  -1.0593  -1.0569
    -1.0339  -1.0082  -1.0074  -0.9989  -0.9966  -0.9947  -0.9933  -0.9891
    -0.9748  -0.9722  -0.9645  -0.9645  -0.9236  -0.9106  -0.9104  -0.9036
    -0.9023  -0.8959  -0.8854  -0.8742  -0.8713  -0.8649  -0.8505  -0.8435
    -0.8406  -0.8393  -0.8311  -0.8073  -0.7454  -0.7342  -0.7335  -0.7313
    -0.7308  -0.7100  -0.7096  -0.7037  -0.6867  -0.6835  -0.6809  -0.6780
    -0.6775  -0.6734  -0.6621  -0.6611  -0.6271  -0.6265  -0.6250  -0.6233
    -0.6209  -0.6205  -0.6179  -0.6124  -0.5935  -0.5819  -0.5633  -0.5609
    -0.5608  -0.5429  -0.5360  -0.5348  -0.5270  -0.5227  -0.5185  -0.5149
    -0.5131  -0.5121  -0.5013  -0.4674  -0.4373  -0.4368  -0.4354  -0.4351
    -0.4172  -0.4012  -0.3868  -0.3831  -0.3816  -0.3804  -0.3764  -0.3693
    -0.3650  -0.3499  -0.3479  -0.3471  -0.3347  -0.3329  -0.3316  -0.3292
    -0.3268  -0.3231  -0.3221  -0.3220  -0.3196  -0.3115  -0.2947  -0.2839
    -0.2828  -0.2821  -0.2809  -0.2662  -0.2538  -0.2246  -0.2184  -0.2170
    -0.2123  -0.2084  -0.2047  -0.2033  -0.1941  -0.1874  -0.1851  -0.1778
    -0.1770  -0.1700  -0.1699  -0.1629  -0.1625  -0.1591  -0.1557  -0.1537
    -0.1531  -0.1396  -0.1082  -0.1064  -0.1042  -0.1018  -0.0878  -0.0873
    -0.0721  -0.0682  -0.0676  -0.0645  -0.0615  -0.0556  -0.0543  -0.0517
    -0.0343  -0.0254  -0.0199  -0.0133  -0.0044  -0.0029  -0.0002   0.0010
     0.0071   0.0168   0.0289   0.0305   0.0340   0.0376   0.0427   0.0447
     0.0531   0.0541   0.0622   0.0762   0.0935   0.0977   0.1011   0.1084
     0.1148   0.1160   0.1244   0.1249   0.1446   0.1484   0.1750   0.1820
     0.1873   0.1994   0.2056   0.2060   0.2215   0.2219   0.2412   0.2919
     0.2939   0.3001   0.3036   0.3043   0.3107   0.3184   0.3191   0.3202
     0.3253   0.3286   0.3485   0.3514   0.3638   0.3663   0.3697   0.3703
     0.3738   0.3779   0.3801   0.3840   0.3865   0.3881   0.3896   0.3958
     0.4000   0.4059   0.4157   0.4234   0.4322   0.4397   0.4401   0.4425
     0.4430   0.4446   0.4473   0.4590   0.4591   0.4603   0.4617   0.4702
     0.4748   0.4777   0.4898   0.4932   0.4991   0.4994   0.5011   0.5019
     0.5027   0.5038   0.5039   0.5057   0.5142   0.5189   0.5251   0.5331
     0.5613   0.5645   0.5718   0.5774   0.5799   0.5820   0.5844   0.5863
     0.5901   0.5920   0.5936   0.5972   0.6060   0.6130   0.6169   0.6254
     0.6315   0.6343   0.6425   0.6478   0.6520   0.6583   0.6606   0.6626
     0.6652   0.6703   0.6744   0.6773   0.6857   0.6943   0.7000   0.7012
     0.7117   0.7168   0.7478   0.7514   0.7576   0.7771   0.7870   0.7960
     0.7976   0.8093   0.8130   0.8147   0.8164   0.8227   0.8259   0.8292
     0.8301   0.8312   0.8344   0.8375   0.8387   0.8403   0.8413   0.8433
     0.8630   0.8663   0.8686   0.8719   0.8757   0.8789   0.8848   0.8855
     0.8858   0.8893   0.8896   0.8896   0.8986   0.8995   0.9112   0.9118
     0.9122   0.9125   0.9134   0.9252   0.9318   0.9319   0.9338   0.9406
     0.9453   0.9492   0.9535   0.9547   0.9559   0.9567   0.9575   0.9590
     0.9595   0.9598   0.9713   0.9923   1.0105   1.0196   1.0446   1.0502
     1.0504   1.0506   1.0526   1.0670   1.0704   1.0742   1.0774   1.0784
     1.0929   1.0954   1.0973   1.1005   1.1033   1.1082   1.1120   1.1142
     1.1195   1.1216   1.1223   1.1248   1.1300   1.1329   1.1345   1.1388
     1.1440   1.1451   1.1490   1.1491   1.1530   1.1552   1.1614   1.1675
     1.1702   1.1712   1.1720   1.1850   1.1871   1.1944   1.1967   1.1975
     1.2016   1.2100   1.2128   1.2214   1.2249   1.2263   1.2295   1.2341
     1.2345   1.2363   1.2418   1.2435   1.2466   1.2474   1.2497   1.2589
     1.2650   1.2660   1.2682   1.2718   1.2995   1.3010   1.3024   1.3033
     1.3082   1.3127   1.3134   1.3161   1.3185   1.3225   1.3302   1.3332
     1.3421   1.3459   1.3499   1.3643   1.3663   1.3671   1.3683   1.3687
     1.3698   1.3716   1.3724   1.3855   1.3967   1.3998   1.4004   1.4146
     1.4156   1.4198   1.4220   1.4385   1.4435   1.4456   1.4485   1.4490
     1.4520   1.4522   1.4640   1.4640   1.5010   1.5173   1.5263   1.5335
     1.5875   1.6360   1.6538   1.6589   1.6620   1.6651   1.6885   1.6902
     1.6917   1.7146   1.7228   1.7354   1.7356   1.7423   1.7560   1.7757
     1.7757   1.8512   1.9640   2.0600   2.0764   2.1101   2.3540   2.4010
     2.4086   2.4230   2.4346   2.4588   2.4809   2.4966   2.5058   2.5245
     2.5287   2.5438   2.6174   2.6277   2.6294   2.6365   2.7200   2.7779
     2.8440   2.8440   3.0548   3.0758   3.0932   3.0932   3.2307   3.3576
     3.4686   3.4871   3.5015   3.5535   3.5879   3.6173   3.9652   4.0929
     4.1055   4.1209   4.1243   4.1536   4.3022   4.3464   4.3727   4.4280
     4.4450   4.4733   4.6939   4.7834   4.9120   4.9377   4.9753   5.0100
     5.0189   5.0979   5.1219   5.1903   5.2845   5.2915   5.2958   5.3250
     5.3392   5.3499   5.5269   5.5387   5.7864   6.0270   6.0432   6.1904
     6.2473   6.2944   6.3804   6.4291   6.4692   6.4847   6.5240   6.5550
     6.5856   6.6150   6.6766   6.8068   6.9367   6.9466   6.9597   6.9756
     6.9961   7.0418   7.0628   7.0779   7.0910   7.1035   7.1594   7.1771
     7.2581   7.3006   7.3545   7.4143   7.4458   7.5031   7.5328   7.6194
     7.6375   7.8271   7.8595   7.9071   8.0492   8.1063   8.2647   8.2755
     8.3046   8.3732   8.4247   8.4383   8.4489   8.4956   8.5058   8.5339
     8.5663   8.6151   8.6370   8.6872   8.7005   8.7110   8.7371   8.7390
     8.8099   8.9476   9.0421   9.0532   9.1357   9.1812   9.2301   9.2884
     9.3040   9.3069   9.3209   9.3462   9.3804   9.3956   9.4135   9.4538
     9.4628   9.5061   9.6448   9.6931   9.7093   9.7142   9.7595   9.7964

          k = 0.2500 0.0000 0.0000 (256240 PWs)   bands (ev):

   -16.8916 -15.9898 -15.6256 -15.3039 -14.9682 -14.6668 -14.5450 -14.4554
   -13.8743 -13.6056 -13.3920 -13.2234 -12.7583 -12.6185 -12.4397 -12.4236
   -11.9051 -11.7150 -11.5273 -11.3165 -10.7863 -10.6904 -10.4622  -9.9548
    -9.7976  -9.5574  -9.4136  -8.9931  -8.7962  -8.7369  -8.6944  -7.9381
    -7.8537  -7.5640  -7.3796  -7.1398  -6.9305  -6.6348  -6.4892  -6.2449
    -6.0754  -5.9187  -5.7692  -5.6775  -5.6161  -5.4052  -5.3928  -5.3072
    -5.2428  -5.0678  -4.9843  -4.8937  -4.6945  -4.5775  -4.5402  -4.4056
    -4.3667  -4.3171  -4.1889  -4.1352  -4.0747  -4.0600  -3.9448  -3.9269
    -3.9029  -3.8310  -3.7818  -3.7088  -3.6538  -3.6314  -3.5798  -3.4252
    -3.3593  -3.2577  -3.2390  -3.1438  -3.1423  -3.0860  -3.0672  -3.0357
    -2.9712  -2.9441  -2.9018  -2.8898  -2.8754  -2.8491  -2.7503  -2.6950
    -2.6621  -2.6123  -2.5377  -2.4785  -2.4437  -2.3978  -2.3845  -2.3465
    -2.1880  -2.1730  -2.1701  -2.1602  -2.1534  -2.1172  -2.0642  -1.9983
    -1.9644  -1.9376  -1.9353  -1.9013  -1.8849  -1.8805  -1.8797  -1.8785
    -1.8707  -1.8700  -1.8518  -1.8354  -1.8159  -1.7678  -1.7357  -1.7239
    -1.7230  -1.6826  -1.6650  -1.6587  -1.6584  -1.6577  -1.6467  -1.6392
    -1.6231  -1.5931  -1.5824  -1.5805  -1.5750  -1.5682  -1.5492  -1.4779
    -1.4647  -1.4501  -1.4239  -1.4168  -1.3909  -1.3850  -1.3558  -1.3482
    -1.3271  -1.3205  -1.3191  -1.3156  -1.2860  -1.2751  -1.2702  -1.2628
    -1.2614  -1.2589  -1.2562  -1.2483  -1.2171  -1.2135  -1.2117  -1.2051
    -1.1974  -1.1891  -1.1870  -1.1848  -1.1712  -1.1524  -1.1370  -1.1301
    -1.1194  -1.1152  -1.1117  -1.0969  -1.0940  -1.0900  -1.0886  -1.0810
    -1.0776  -1.0660  -1.0619  -1.0576  -1.0571  -1.0561  -1.0552  -1.0548
    -1.0520  -1.0458  -1.0274  -0.9931  -0.9900  -0.9849  -0.9801  -0.9593
    -0.9383  -0.9335  -0.9315  -0.8929  -0.8918  -0.8750  -0.8687  -0.8658
    -0.8559  -0.8496  -0.8443  -0.8388  -0.8352  -0.8299  -0.8293  -0.8239
    -0.8211  -0.8035  -0.6867  -0.6825  -0.6771  -0.6706  -0.6546  -0.6510
    -0.6483  -0.6362  -0.6309  -0.6275  -0.6263  -0.6248  -0.6236  -0.6079
    -0.6071  -0.5883  -0.5843  -0.5710  -0.5686  -0.5649  -0.5626  -0.5553
    -0.5438  -0.5387  -0.5384  -0.5380  -0.4942  -0.4855  -0.4803  -0.4782
    -0.4778  -0.4737  -0.4713  -0.4692  -0.4602  -0.4418  -0.4389  -0.4305
    -0.4149  -0.4123  -0.4107  -0.3986  -0.3843  -0.3728  -0.3721  -0.3713
    -0.3702  -0.3623  -0.3557  -0.3442  -0.3401  -0.3367  -0.3285  -0.3263
    -0.3173  -0.3095  -0.3003  -0.2914  -0.2841  -0.2817  -0.2737  -0.2638
    -0.2632  -0.2623  -0.2560  -0.2390  -0.2299  -0.2291  -0.2167  -0.2150
    -0.1968  -0.1959  -0.1937  -0.1914  -0.1783  -0.1627  -0.1474  -0.1458
    -0.1425  -0.1383  -0.1319  -0.1301  -0.1273  -0.1186  -0.1072  -0.1034
    -0.0998  -0.0896  -0.0888  -0.0847  -0.0829  -0.0804  -0.0790  -0.0776
    -0.0761  -0.0750  -0.0730  -0.0707  -0.0663  -0.0501  -0.0455  -0.0436
    -0.0378  -0.0319  -0.0217  -0.0193  -0.0042  -0.0010   0.0185   0.0219
     0.0264   0.0302   0.0341   0.0351   0.0395   0.0562   0.0581   0.0602
     0.0618   0.0649   0.0659   0.0971   0.1066   0.1268   0.1435   0.1637
     0.1668   0.1683   0.1735   0.1766   0.1838   0.1865   0.1922   0.1940
     0.1972   0.2027   0.2043   0.2056   0.2078   0.2103   0.2137   0.2260
     0.2280   0.2311   0.2370   0.2446   0.2475   0.2497   0.2560   0.2583
     0.2597   0.2716   0.2795   0.2903   0.2981   0.3174   0.3260   0.3274
     0.3322   0.3386   0.3557   0.3612   0.3637   0.3656   0.3706   0.3796
     0.3838   0.3964   0.3974   0.4000   0.4011   0.4034   0.4046   0.4079
     0.4136   0.4174   0.4191   0.4301   0.4323   0.4393   0.4458   0.4549
     0.4599   0.4613   0.4665   0.4683   0.4698   0.4753   0.4803   0.4873
     0.4947   0.4957   0.5001   0.5115   0.5146   0.5191   0.5204   0.5272
     0.5290   0.5329   0.5357   0.5534   0.5559   0.5674   0.5762   0.5784
     0.5828   0.5837   0.5872   0.5961   0.6135   0.6180   0.6198   0.6244
     0.6294   0.6374   0.6443   0.6509   0.6564   0.6617   0.6639   0.6666
     0.6716   0.6832   0.6895   0.6930   0.6955   0.7048   0.7090   0.7141
     0.7193   0.7283   0.7372   0.7396   0.7399   0.7470   0.7582   0.7658
     0.7748   0.7769   0.7847   0.7891   0.7991   0.8010   0.8053   0.8080
     0.8100   0.8168   0.8187   0.8206   0.8244   0.8255   0.8279   0.8401
     0.8570   0.8666   0.8680   0.8704   0.8819   0.8871   0.8887   0.8914
     0.9021   0.9086   0.9098   0.9123   0.9148   0.9229   0.9237   0.9283
     0.9293   0.9322   0.9356   0.9386   0.9398   0.9410   0.9432   0.9466
     0.9514   0.9543   0.9565   0.9642   0.9699   0.9775   0.9814   0.9828
     0.9856   0.9866   0.9908   0.9920   0.9940   0.9970   1.0014   1.0079
     1.0094   1.0240   1.0265   1.0283   1.0295   1.0358   1.0402   1.0431
     1.0549   1.0572   1.0603   1.0657   1.0713   1.0751   1.0870   1.0975
     1.1008   1.1054   1.1083   1.1124   1.1152   1.1166   1.1283   1.1433
     1.1586   1.1609   1.1629   1.1674   1.1711   1.1729   1.1744   1.1813
     1.1839   1.1919   1.1969   1.1997   1.2029   1.2034   1.2100   1.2130
     1.2172   1.2183   1.2191   1.2211   1.2219   1.2248   1.2268   1.2275
     1.2301   1.2322   1.2346   1.2469   1.2567   1.2618   1.2692   1.2755
     1.2758   1.2799   1.2840   1.2861   1.2887   1.2954   1.2974   1.3043
     1.3093   1.3115   1.3130   1.3201   1.3295   1.3342   1.3370   1.3417
     1.3428   1.3437   1.3447   1.3451   1.3490   1.3503   1.3555   1.3561
     1.3571   1.3647   1.3681   1.3715   1.3802   1.3835   1.3888   1.3919
     1.3968   1.4033   1.4039   1.4065   1.4086   1.4178   1.4201   1.4312
     1.4328   1.4365   1.4374   1.4470   1.4542   1.4673   1.4759   1.4999
     1.5167   1.5348   1.5414   1.5451   1.5490   1.5771   1.6018   1.6393
     1.6556   1.6777   1.6788   1.6857   1.7200   1.7594   1.7756   1.7942
     1.9457   1.9488   1.9855   1.9970   2.0065   2.0250   2.0410   2.1663
     2.1731   2.2108   2.4347   2.4771   2.4815   2.4842   2.5035   2.8955
     2.8962   2.9855   3.0250   3.1061   3.1111   3.1407   3.1413   3.1825
     3.3271   3.3784   3.4031   3.4375   3.4814   3.5137   3.5218   3.5549
     3.5968   3.6034   3.6531   3.6994   3.7291   3.7818   3.8034   3.8333
     3.8583   3.8645   3.9825   4.1124   4.1848   4.1906   4.3250   4.3835
     4.4959   4.6475   4.6778   4.7254   4.7669   4.8256   4.9384   5.0010
     5.0558   5.2108   5.2298   5.2954   5.3643   5.3716   5.3966   5.4195
     5.4342   5.4609   5.4877   5.6096   5.6568   5.6713   5.7016   5.7759
     5.8936   5.9231   5.9328   5.9429   6.0218   6.0582   6.1645   6.2013
     6.2650   6.3736   6.5176   6.6373   6.6487   6.7046   6.7311   6.7734
     6.8952   6.9037   6.9303   6.9769   6.9815   7.0099   7.0882   7.2154
     7.2532   7.3321   7.3607   7.4312   7.4945   7.5564   7.6530   7.7110
     7.7832   7.8553   7.8868   7.9050   7.9202   7.9527   7.9925   8.0036
     8.0627   8.1117   8.2163   8.2559   8.2857   8.3104   8.3567   8.3984
     8.4338   8.4748   8.5522   8.5728   8.6053   8.6469   8.7315   8.8078
     8.8916   8.9118   8.9252   8.9482   8.9888   9.0144   9.0539   9.1073
     9.1316   9.1743   9.1969   9.2431   9.2995   9.3573   9.3887   9.4137
     9.4420   9.4917   9.5318   9.5683   9.6156   9.6272   9.6510   9.6948

          k = 0.2500-0.2165 0.0000 (256316 PWs)   bands (ev):

   -16.8913 -16.0064 -15.5391 -15.3787 -14.9898 -14.7828 -14.4573 -14.2598
   -13.9638 -13.7762 -13.3299 -13.0544 -12.8440 -12.8078 -12.3875 -12.2798
   -11.9358 -11.8032 -11.3061 -11.0704 -11.0133 -10.9042 -10.6278 -10.0154
    -9.6469  -9.3755  -9.1548  -9.0836  -8.9027  -8.6662  -8.4700  -8.2743
    -8.0897  -8.0228  -7.0023  -6.8245  -6.6983  -6.4866  -6.4106  -6.2773
    -6.1232  -6.0072  -5.9635  -5.8024  -5.7833  -5.7701  -5.4391  -5.1032
    -4.9738  -4.8939  -4.8668  -4.7860  -4.7652  -4.7403  -4.5596  -4.4469
    -4.4228  -4.3925  -4.3383  -4.2666  -4.0876  -4.0197  -3.9343  -3.8965
    -3.7995  -3.7288  -3.6811  -3.6240  -3.5964  -3.5566  -3.5272  -3.4943
    -3.4408  -3.2607  -3.2110  -3.1474  -3.1074  -3.0486  -2.9938  -2.9903
    -2.9805  -2.9779  -2.9587  -2.9535  -2.8716  -2.8186  -2.7865  -2.7783
    -2.7449  -2.6438  -2.4688  -2.3926  -2.3918  -2.3726  -2.3257  -2.2549
    -2.2454  -2.2449  -2.2391  -2.1805  -2.1645  -2.1150  -2.0894  -2.0864
    -2.0473  -2.0262  -2.0144  -1.9858  -1.8903  -1.8899  -1.8485  -1.8265
    -1.8091  -1.7995  -1.7929  -1.7913  -1.7868  -1.7855  -1.7716  -1.7675
    -1.7571  -1.7548  -1.7529  -1.7472  -1.7418  -1.7379  -1.7292  -1.6597
    -1.6581  -1.5531  -1.5446  -1.5166  -1.4817  -1.4706  -1.4285  -1.4084
    -1.4070  -1.3945  -1.3800  -1.3565  -1.3556  -1.3426  -1.3413  -1.3331
    -1.3255  -1.3241  -1.3164  -1.3083  -1.3034  -1.2917  -1.2909  -1.2901
    -1.2855  -1.2806  -1.2664  -1.2656  -1.2640  -1.2458  -1.2214  -1.2098
    -1.2067  -1.2016  -1.1990  -1.1927  -1.1903  -1.1690  -1.1522  -1.1393
    -1.1185  -1.1179  -1.1168  -1.1118  -1.1005  -1.0935  -1.0873  -1.0753
    -1.0734  -1.0709  -1.0664  -1.0449  -1.0413  -1.0403  -1.0381  -1.0361
    -1.0236  -1.0138  -1.0103  -1.0060  -1.0039  -0.9977  -0.9464  -0.9462
    -0.9415  -0.9395  -0.8820  -0.8624  -0.8609  -0.8579  -0.8522  -0.8514
    -0.8499  -0.8353  -0.8047  -0.7935  -0.7933  -0.7845  -0.7811  -0.7776
    -0.7766  -0.7700  -0.7598  -0.7360  -0.7279  -0.7083  -0.6917  -0.6666
    -0.6495  -0.6477  -0.6452  -0.6396  -0.6332  -0.6187  -0.6186  -0.6067
    -0.6003  -0.5926  -0.5845  -0.5798  -0.5700  -0.5683  -0.5580  -0.5349
    -0.5277  -0.5234  -0.5231  -0.5126  -0.4958  -0.4954  -0.4881  -0.4851
    -0.4792  -0.4778  -0.4601  -0.4504  -0.4476  -0.4435  -0.4423  -0.4394
    -0.4374  -0.4348  -0.4294  -0.4238  -0.4148  -0.4148  -0.3989  -0.3970
    -0.3878  -0.3694  -0.3616  -0.3558  -0.3389  -0.3319  -0.3281  -0.3226
    -0.3185  -0.3168  -0.3072  -0.3050  -0.3039  -0.2989  -0.2888  -0.2863
    -0.2702  -0.2516  -0.2318  -0.2313  -0.2016  -0.1942  -0.1892  -0.1886
    -0.1870  -0.1856  -0.1806  -0.1718  -0.1648  -0.1577  -0.1489  -0.1441
    -0.1405  -0.1365  -0.1342  -0.1289  -0.1272  -0.1269  -0.1252  -0.1220
    -0.1196  -0.1133  -0.0978  -0.0954  -0.0847  -0.0829  -0.0813  -0.0806
    -0.0770  -0.0740  -0.0697  -0.0663  -0.0652  -0.0616  -0.0554  -0.0508
    -0.0490  -0.0482  -0.0304  -0.0218  -0.0197  -0.0123  -0.0046   0.0006
     0.0185   0.0277   0.0447   0.0478   0.0543   0.0616   0.0638   0.0669
     0.0716   0.0755   0.0766   0.0781   0.0857   0.0859   0.0960   0.1038
     0.1246   0.1325   0.1778   0.1860   0.1943   0.1980   0.2000   0.2006
     0.2024   0.2025   0.2047   0.2081   0.2107   0.2162   0.2285   0.2373
     0.2381   0.2385   0.2411   0.2512   0.2548   0.2562   0.2588   0.2642
     0.2701   0.2781   0.2804   0.2851   0.2894   0.2913   0.3004   0.3061
     0.3215   0.3236   0.3362   0.3619   0.3674   0.3751   0.3763   0.3777
     0.3852   0.3882   0.3913   0.3938   0.3960   0.4001   0.4020   0.4047
     0.4108   0.4221   0.4245   0.4391   0.4450   0.4516   0.4540   0.4768
     0.4818   0.4845   0.4889   0.4991   0.5042   0.5128   0.5183   0.5205
     0.5227   0.5298   0.5328   0.5348   0.5373   0.5446   0.5481   0.5553
     0.5594   0.5653   0.5700   0.5711   0.5731   0.5791   0.5859   0.5900
     0.5915   0.5928   0.5945   0.5966   0.6066   0.6069   0.6114   0.6154
     0.6174   0.6196   0.6259   0.6281   0.6312   0.6333   0.6362   0.6381
     0.6416   0.6468   0.6702   0.6742   0.6767   0.6891   0.6908   0.7047
     0.7151   0.7265   0.7297   0.7359   0.7382   0.7424   0.7460   0.7471
     0.7487   0.7635   0.7664   0.7690   0.7731   0.7767   0.7774   0.7819
     0.7866   0.7987   0.8006   0.8050   0.8094   0.8099   0.8154   0.8194
     0.8247   0.8353   0.8405   0.8454   0.8525   0.8544   0.8640   0.8746
     0.8839   0.8854   0.8859   0.8907   0.8946   0.8978   0.9152   0.9226
     0.9275   0.9292   0.9323   0.9443   0.9508   0.9534   0.9661   0.9755
     0.9842   0.9866   0.9912   1.0024   1.0043   1.0087   1.0098   1.0104
     1.0115   1.0120   1.0129   1.0170   1.0191   1.0218   1.0249   1.0314
     1.0350   1.0393   1.0435   1.0536   1.0583   1.0669   1.0717   1.0786
     1.0832   1.0892   1.0928   1.0950   1.0989   1.1014   1.1035   1.1063
     1.1103   1.1114   1.1145   1.1158   1.1200   1.1232   1.1261   1.1294
     1.1347   1.1388   1.1404   1.1430   1.1470   1.1504   1.1640   1.1658
     1.1673   1.1796   1.1841   1.1886   1.1933   1.1977   1.1980   1.2040
     1.2104   1.2112   1.2178   1.2308   1.2316   1.2375   1.2433   1.2468
     1.2482   1.2511   1.2528   1.2545   1.2567   1.2638   1.2675   1.2693
     1.2716   1.2735   1.2798   1.2882   1.2885   1.2934   1.2997   1.3011
     1.3018   1.3060   1.3114   1.3121   1.3137   1.3147   1.3161   1.3174
     1.3270   1.3367   1.3438   1.3528   1.3537   1.3548   1.3553   1.3593
     1.3610   1.3631   1.3649   1.3688   1.3712   1.3742   1.3810   1.3908
     1.3977   1.3981   1.4040   1.4087   1.4091   1.4183   1.4211   1.4308
     1.4375   1.4417   1.4431   1.4501   1.4678   1.4685   1.4799   1.4925
     1.5019   1.5283   1.5381   1.5570   1.5732   1.5764   1.5988   1.6371
     1.6728   1.6754   1.6774   1.6889   1.7120   1.7301   1.7450   1.8757
     1.9540   1.9713   1.9952   2.0246   2.0463   2.0574   2.0851   2.1027
     2.2442   2.2553   2.4999   2.5047   2.6194   2.6533   2.6875   2.7020
     2.7205   2.7300   2.7417   2.8423   2.8704   2.9050   3.0520   3.1236
     3.2188   3.2877   3.4238   3.4586   3.5372   3.6366   3.6839   3.6990
     3.7155   3.7757   3.8149   3.8317   3.8580   3.9110   3.9454   3.9955
     4.0256   4.0638   4.0776   4.1492   4.2226   4.2433   4.2853   4.3243
     4.3556   4.3851   4.4646   4.4953   4.6258   4.6385   4.8402   5.0390
     5.1048   5.1338   5.1885   5.2573   5.3252   5.3522   5.3712   5.3820
     5.4243   5.4323   5.4596   5.4660   5.6027   5.6585   5.7220   5.7518
     5.8491   5.8565   5.9187   5.9827   6.0745   6.0900   6.1852   6.2268
     6.4920   6.5185   6.6623   6.7199   6.7448   6.7592   6.8803   6.9502
     7.0191   7.0513   7.0645   7.1112   7.1361   7.1726   7.1986   7.2234
     7.2365   7.2755   7.3414   7.3644   7.3925   7.4036   7.4572   7.5671
     7.5885   7.6241   7.6586   7.7041   7.9196   7.9950   8.0601   8.0852
     8.1320   8.1437   8.1796   8.2308   8.2789   8.3265   8.4316   8.5025
     8.5950   8.6003   8.6228   8.6317   8.6418   8.7079   8.7285   8.7671
     8.7945   8.8186   8.8632   8.9215   8.9784   9.0218   9.0311   9.0444
     9.0668   9.1274   9.1791   9.1876   9.2388   9.2537   9.2751   9.3126
     9.3477   9.3558   9.4109   9.4413   9.4549   9.5093   9.5700   9.5885

          k =-0.5000 0.0000 0.0000 (256496 PWs)   bands (ev):

   -16.8321 -15.9474 -15.4552 -15.2422 -15.1928 -15.0785 -14.7090 -14.2939
   -14.1118 -14.0792 -13.2730 -12.8485 -12.3091 -12.0984 -12.0321 -11.9235
   -11.6062 -11.5144 -11.3552 -11.3372 -11.1299 -10.9200 -10.7829 -10.7041
   -10.2431  -9.8919  -9.4395  -9.2250  -9.1570  -8.9540  -8.4301  -8.2103
    -7.8467  -7.5949  -7.5068  -7.4115  -7.3726  -6.9410  -6.0830  -5.6744
    -5.6555  -5.3924  -5.3870  -5.2052  -5.1474  -5.0638  -4.9345  -4.8957
    -4.8814  -4.8735  -4.8416  -4.7694  -4.7305  -4.5180  -4.4392  -4.4193
    -4.3713  -4.3242  -4.2804  -4.2115  -4.1930  -4.0791  -4.0071  -3.9754
    -3.9543  -3.9373  -3.8917  -3.7736  -3.7443  -3.6167  -3.5094  -3.5026
    -3.4988  -3.4841  -3.4736  -3.4099  -3.3916  -3.3510  -3.3070  -3.2770
    -3.1994  -3.1659  -3.1408  -3.0415  -3.0122  -2.8250  -2.7447  -2.7416
    -2.7237  -2.6948  -2.6495  -2.6377  -2.4274  -2.3946  -2.3571  -2.3457
    -2.3163  -2.2982  -2.1087  -2.0073  -1.9654  -1.9563  -1.9554  -1.9547
    -1.9544  -1.9526  -1.9521  -1.9274  -1.8808  -1.8061  -1.7818  -1.7313
    -1.7284  -1.7264  -1.7262  -1.7146  -1.6829  -1.6804  -1.6796  -1.6789
    -1.6526  -1.5760  -1.5729  -1.5657  -1.5651  -1.5483  -1.5030  -1.5017
    -1.5001  -1.4966  -1.4823  -1.4797  -1.4712  -1.4533  -1.4354  -1.4353
    -1.4323  -1.4306  -1.4226  -1.4216  -1.4076  -1.4056  -1.3978  -1.3905
    -1.3707  -1.3702  -1.3675  -1.3650  -1.3509  -1.3464  -1.3460  -1.3448
    -1.3253  -1.3147  -1.2820  -1.2819  -1.2605  -1.2604  -1.2592  -1.2584
    -1.2303  -1.2198  -1.2124  -1.2116  -1.2091  -1.2008  -1.1880  -1.1858
    -1.1856  -1.1849  -1.1799  -1.1640  -1.1640  -1.1503  -1.1336  -1.1335
    -1.0911  -1.0909  -1.0592  -1.0589  -1.0576  -1.0575  -1.0369  -1.0293
    -1.0211  -1.0130  -1.0088  -1.0076  -1.0061  -1.0039  -1.0025  -0.9968
    -0.9962  -0.9922  -0.9874  -0.9864  -0.9277  -0.9271  -0.9262  -0.9258
    -0.8759  -0.8757  -0.7928  -0.7902  -0.7872  -0.7863  -0.7566  -0.7554
    -0.7552  -0.7545  -0.7524  -0.7515  -0.7433  -0.7392  -0.7276  -0.7216
    -0.7072  -0.7067  -0.7025  -0.7018  -0.7006  -0.6995  -0.6567  -0.6547
    -0.6538  -0.6518  -0.5922  -0.5872  -0.5773  -0.5669  -0.5413  -0.5408
    -0.5296  -0.5172  -0.5155  -0.5142  -0.5015  -0.4897  -0.4865  -0.4850
    -0.4803  -0.4642  -0.4547  -0.4464  -0.4454  -0.4442  -0.4433  -0.4146
    -0.4139  -0.4131  -0.4123  -0.3972  -0.3940  -0.3883  -0.3787  -0.3761
    -0.3746  -0.3745  -0.3704  -0.3641  -0.3639  -0.3295  -0.3294  -0.3285
    -0.3283  -0.3097  -0.3080  -0.2902  -0.2888  -0.2290  -0.2198  -0.2176
    -0.2152  -0.2106  -0.2091  -0.2071  -0.2054  -0.1823  -0.1738  -0.1734
    -0.1717  -0.1714  -0.1429  -0.1420  -0.1326  -0.1148  -0.1049  -0.1046
    -0.1034  -0.1031  -0.1009  -0.1009  -0.1001  -0.0987  -0.0981  -0.0968
    -0.0937  -0.0875  -0.0510  -0.0346  -0.0236  -0.0216  -0.0157  -0.0130
    -0.0120  -0.0113  -0.0111  -0.0074  -0.0061  -0.0040  -0.0032   0.0011
     0.0032   0.0113   0.0139   0.0187   0.0245   0.0245   0.0330   0.0393
     0.0394   0.0395   0.0396   0.0464   0.0471   0.0476   0.0477   0.0506
     0.0559   0.0588   0.0638   0.0727   0.0732   0.0736   0.0754   0.0886
     0.0924   0.0981   0.1746   0.1862   0.1950   0.1954   0.1967   0.2005
     0.2055   0.2187   0.2300   0.2334   0.2400   0.2412   0.2424   0.2452
     0.2524   0.2537   0.2544   0.2604   0.2621   0.2650   0.2654   0.2681
     0.2684   0.2701   0.2738   0.2753   0.2788   0.2833   0.2896   0.2901
     0.2973   0.3112   0.3113   0.3147   0.3150   0.3299   0.3409   0.3459
     0.3491   0.3827   0.3879   0.4030   0.4124   0.4129   0.4159   0.4275
     0.4320   0.4371   0.4439   0.4445   0.4455   0.4471   0.4485   0.4507
     0.4534   0.4535   0.4568   0.4582   0.4598   0.4599   0.4682   0.4729
     0.4752   0.4820   0.4884   0.5056   0.5092   0.5154   0.5250   0.5312
     0.5345   0.5417   0.5466   0.5487   0.5496   0.5511   0.5518   0.5527
     0.5531   0.5540   0.5576   0.5671   0.5687   0.5750   0.5755   0.5807
     0.5849   0.5884   0.5980   0.6139   0.6204   0.6231   0.6266   0.6276
     0.6280   0.6294   0.6385   0.6389   0.6482   0.6526   0.6681   0.6727
     0.6734   0.6750   0.6880   0.6883   0.7101   0.7120   0.7432   0.7495
     0.7520   0.7610   0.7617   0.7618   0.7631   0.7652   0.7673   0.7744
     0.7864   0.7873   0.7897   0.7997   0.8039   0.8041   0.8051   0.8053
     0.8108   0.8146   0.8180   0.8196   0.8201   0.8287   0.8290   0.8361
     0.8504   0.8559   0.8658   0.8688   0.8873   0.8950   0.9266   0.9272
     0.9326   0.9337   0.9502   0.9561   0.9563   0.9582   0.9645   0.9713
     0.9794   0.9826   0.9965   1.0000   1.0045   1.0055   1.0106   1.0149
     1.0197   1.0251   1.0287   1.0319   1.0362   1.0368   1.0389   1.0394
     1.0441   1.0456   1.0463   1.0508   1.0515   1.0525   1.0541   1.0568
     1.0572   1.0714   1.0815   1.0838   1.0984   1.0985   1.1116   1.1132
     1.1195   1.1198   1.1254   1.1284   1.1331   1.1341   1.1434   1.1453
     1.1482   1.1508   1.1610   1.1616   1.1621   1.1628   1.1698   1.1727
     1.1773   1.1789   1.1839   1.1985   1.2076   1.2097   1.2222   1.2301
     1.2328   1.2342   1.2366   1.2380   1.2382   1.2409   1.2442   1.2452
     1.2467   1.2474   1.2510   1.2512   1.2531   1.2538   1.2550   1.2571
     1.2577   1.2593   1.2607   1.2621   1.2638   1.2668   1.2788   1.2801
     1.2835   1.2840   1.2947   1.2954   1.2997   1.3005   1.3027   1.3079
     1.3184   1.3216   1.3231   1.3322   1.3350   1.3355   1.3363   1.3400
     1.3461   1.3481   1.3628   1.3650   1.3718   1.3727   1.3772   1.3797
     1.3807   1.3887   1.3908   1.3919   1.3928   1.4004   1.4065   1.4102
     1.4243   1.4245   1.4342   1.4343   1.4348   1.4352   1.4353   1.4355
     1.4477   1.4565   1.4646   1.4825   1.5024   1.5061   1.5226   1.5229
     1.5291   1.5293   1.5476   1.5674   1.7836   1.9109   1.9493   1.9537
     1.9568   1.9637   2.1666   2.1683   2.1946   2.1992   2.2099   2.2137
     2.2837   2.3011   2.5116   2.5431   2.7040   2.7469   2.7495   2.7518
     2.7645   2.8057   3.0960   3.1019   3.1054   3.1091   3.2591   3.3547
     3.3904   3.5318   3.5943   3.6086   3.6835   3.7130   3.7972   3.8202
     3.8410   3.8499   3.9076   3.9722   3.9764   3.9887   4.0429   4.0905
     4.1706   4.2821   4.2955   4.4100   4.5322   4.5655   4.7110   4.7285
     4.7382   4.7522   4.7685   4.7832   4.8719   4.8822   4.8832   4.8954
     4.9171   4.9336   4.9550   4.9576   4.9643   4.9698   5.0290   5.0424
     5.0515   5.0737   5.0896   5.0944   5.3774   5.4068   5.4366   5.4882
     5.5054   5.5240   5.8297   5.8527   5.8935   5.9013   5.9092   5.9153
     6.1064   6.1707   6.2643   6.4081   6.4283   6.5638   6.6383   6.6553
     6.6638   6.7744   6.7806   6.8300   7.0793   7.0844   7.1619   7.2263
     7.2653   7.2674   7.5244   7.5347   7.5418   7.5461   7.5592   7.6684
     7.7030   7.7202   7.7239   7.7637   7.8000   7.8360   7.8544   7.8627
     7.8868   7.9029   7.9343   7.9597   8.2107   8.2517   8.2776   8.3255
     8.3491   8.4127   8.5320   8.5941   8.7290   8.7963   8.8160   8.8557
     8.8679   8.8771   8.8791   8.8904   8.9783   8.9870   8.9991   9.0080
     9.0822   9.1326   9.1599   9.1743   9.2038   9.2538   9.2636   9.2867
     9.3480   9.3617   9.4854   9.4932   9.4997   9.5000   9.5042   9.5271

          k =-0.5000-0.2165 0.0000 (256328 PWs)   bands (ev):

   -16.8320 -15.9493 -15.4466 -15.3329 -15.0946 -14.9783 -14.7661 -14.6049
   -14.0310 -13.5212 -13.4447 -13.3200 -12.1992 -12.0795 -11.7706 -11.6543
   -11.6114 -11.4830 -11.4228 -11.3525 -11.2240 -11.1768 -10.9190 -10.8430
   -10.1255  -9.6065  -9.5505  -9.3647  -9.0194  -8.5598  -8.3670  -8.3024
    -8.0400  -7.9293  -7.8468  -7.7344  -6.5905  -6.4156  -6.0393  -5.9886
    -5.8616  -5.4535  -5.2867  -5.2588  -5.2580  -5.2526  -5.2277  -5.0290
    -4.8357  -4.8025  -4.6092  -4.5867  -4.3906  -4.3649  -4.3360  -4.3189
    -4.3117  -4.2888  -4.2662  -4.2643  -4.2544  -4.2498  -4.1233  -4.0248
    -3.9847  -3.9702  -3.9045  -3.7838  -3.7599  -3.7168  -3.6883  -3.6402
    -3.5755  -3.5305  -3.4385  -3.4249  -3.3971  -3.3702  -3.3456  -3.3388
    -3.1298  -3.0459  -3.0009  -2.8276  -2.7467  -2.6557  -2.6555  -2.6510
    -2.6510  -2.6019  -2.5833  -2.5755  -2.5567  -2.5430  -2.4941  -2.3776
    -2.3237  -2.1971  -2.1790  -2.1567  -2.1490  -2.1067  -2.0893  -2.0757
    -2.0308  -1.9965  -1.9932  -1.9491  -1.8811  -1.8809  -1.8800  -1.8784
    -1.6801  -1.6743  -1.6700  -1.6671  -1.6232  -1.5982  -1.5715  -1.5711
    -1.5695  -1.5694  -1.5345  -1.5307  -1.5130  -1.5118  -1.5110  -1.5108
    -1.5050  -1.4913  -1.4652  -1.4649  -1.4636  -1.4633  -1.4603  -1.4598
    -1.4584  -1.4572  -1.4359  -1.4358  -1.4354  -1.4354  -1.4147  -1.3918
    -1.3913  -1.3866  -1.3821  -1.3694  -1.3296  -1.3208  -1.2867  -1.2775
    -1.2685  -1.2683  -1.2679  -1.2679  -1.2605  -1.2536  -1.2454  -1.2440
    -1.2395  -1.2251  -1.2239  -1.2226  -1.2020  -1.2001  -1.1951  -1.1928
    -1.1916  -1.1910  -1.1894  -1.1867  -1.1351  -1.1349  -1.1347  -1.1344
    -1.1181  -1.1179  -1.1178  -1.1177  -1.1169  -1.1165  -1.1164  -1.1161
    -1.0513  -0.9701  -0.9691  -0.9675  -0.9670  -0.9347  -0.9320  -0.9291
    -0.9288  -0.9210  -0.9154  -0.8935  -0.8634  -0.8578  -0.8533  -0.8509
    -0.8508  -0.8503  -0.8489  -0.8404  -0.8389  -0.7893  -0.7833  -0.7812
    -0.7788  -0.7699  -0.7644  -0.7641  -0.7629  -0.7579  -0.7559  -0.7508
    -0.7486  -0.7211  -0.7019  -0.6948  -0.6655  -0.6543  -0.6488  -0.6404
    -0.6391  -0.6361  -0.6088  -0.5841  -0.5826  -0.5762  -0.5758  -0.5372
    -0.5352  -0.5324  -0.5298  -0.5135  -0.5132  -0.5122  -0.5117  -0.5072
    -0.4971  -0.4871  -0.4802  -0.4740  -0.4713  -0.4703  -0.4698  -0.4668
    -0.4484  -0.4377  -0.4081  -0.4063  -0.3534  -0.3533  -0.3530  -0.3528
    -0.3375  -0.3373  -0.3367  -0.3366  -0.3257  -0.3243  -0.3161  -0.3149
    -0.2904  -0.2509  -0.2412  -0.2399  -0.2371  -0.2349  -0.2331  -0.2326
    -0.2304  -0.2269  -0.2158  -0.2081  -0.1896  -0.1896  -0.1891  -0.1887
    -0.1839  -0.1804  -0.1781  -0.1777  -0.1748  -0.1744  -0.1743  -0.1742
    -0.1628  -0.1345  -0.1293  -0.1134  -0.1052  -0.0981  -0.0903  -0.0858
    -0.0816  -0.0791  -0.0734  -0.0533  -0.0410  -0.0389  -0.0380  -0.0130
    -0.0079  -0.0015   0.0007   0.0009   0.0018   0.0021   0.0097   0.0111
     0.0113   0.0141   0.0172   0.0191   0.0195   0.0237   0.0289   0.0293
     0.0296   0.0300   0.0325   0.0375   0.0427   0.0443   0.0496   0.0613
     0.0696   0.0697   0.0731   0.0732   0.0773   0.0781   0.0800   0.0824
     0.1045   0.1311   0.1325   0.1328   0.1337   0.1453   0.1639   0.1661
     0.1677   0.1737   0.2139   0.2209   0.2244   0.2413   0.2426   0.2439
     0.2447   0.2655   0.2667   0.2673   0.2695   0.2710   0.2803   0.2807
     0.2826   0.2829   0.2850   0.2859   0.2860   0.2865   0.2918   0.2955
     0.3035   0.3261   0.3605   0.3621   0.3623   0.3645   0.3673   0.3688
     0.3849   0.3880   0.3898   0.3901   0.3913   0.3944   0.3990   0.3996
     0.4040   0.4194   0.4216   0.4248   0.4255   0.4277   0.4303   0.4315
     0.4404   0.4638   0.4668   0.4676   0.4693   0.4817   0.4832   0.4853
     0.4860   0.4869   0.4922   0.4931   0.4940   0.4952   0.4976   0.4998
     0.5012   0.5029   0.5071   0.5124   0.5188   0.5340   0.5385   0.5436
     0.5511   0.5637   0.5787   0.5836   0.5853   0.5884   0.5976   0.6006
     0.6016   0.6055   0.6058   0.6076   0.6140   0.6152   0.6376   0.6392
     0.6410   0.6458   0.6465   0.6479   0.6504   0.6512   0.6579   0.6600
     0.6910   0.6940   0.7037   0.7058   0.7138   0.7217   0.7260   0.7307
     0.7313   0.7350   0.7367   0.7645   0.7650   0.7655   0.7666   0.7732
     0.7810   0.7854   0.8042   0.8125   0.8362   0.8374   0.8405   0.8444
     0.8448   0.8528   0.8643   0.8654   0.8677   0.8681   0.8715   0.8739
     0.9057   0.9160   0.9288   0.9299   0.9311   0.9325   0.9403   0.9443
     0.9451   0.9494   0.9562   0.9566   0.9599   0.9615   0.9618   0.9633
     0.9641   0.9653   0.9664   0.9664   0.9719   0.9775   0.9882   0.9907
     0.9933   0.9960   1.0072   1.0111   1.0143   1.0209   1.0221   1.0244
     1.0355   1.0378   1.0435   1.0503   1.0539   1.0559   1.0576   1.0587
     1.0611   1.0643   1.0676   1.0714   1.0767   1.0862   1.0977   1.1043
     1.1085   1.1102   1.1105   1.1203   1.1242   1.1255   1.1283   1.1312
     1.1385   1.1432   1.1442   1.1492   1.1716   1.1752   1.1779   1.1812
     1.1814   1.1826   1.1978   1.1998   1.2022   1.2025   1.2054   1.2055
     1.2059   1.2090   1.2138   1.2147   1.2157   1.2201   1.2556   1.2571
     1.2630   1.2648   1.2660   1.2679   1.2690   1.2695   1.2708   1.2719
     1.2725   1.2798   1.2854   1.2883   1.2971   1.2985   1.3009   1.3028
     1.3050   1.3060   1.3077   1.3088   1.3108   1.3123   1.3149   1.3156
     1.3230   1.3233   1.3248   1.3290   1.3295   1.3314   1.3427   1.3468
     1.3481   1.3538   1.3580   1.3589   1.3695   1.3709   1.3771   1.3797
     1.3904   1.3926   1.4085   1.4100   1.4286   1.4296   1.4337   1.4359
     1.4376   1.4466   1.4541   1.4754   1.4832   1.4877   1.4916   1.4926
     1.4955   1.4973   1.5115   1.5161   1.5171   1.5243   1.5250   1.5299
     1.5391   1.5416   1.5646   1.5794   1.6010   1.6682   1.7184   1.7436
     1.7444   1.7588   1.7695   1.7763   2.3406   2.3986   2.4172   2.4268
     2.4712   2.4726   2.4936   2.4949   2.6532   2.6799   2.7385   2.7568
     2.8786   2.9136   3.0440   3.1070   3.3510   3.3668   3.3749   3.3753
     3.4490   3.4565   3.5533   3.5651   3.6097   3.7243   3.8413   3.8418
     3.8459   3.8613   4.0560   4.0830   4.1095   4.1170   4.1354   4.1659
     4.1874   4.2404   4.2803   4.3130   4.3461   4.3785   4.4271   4.4373
     4.4665   4.4882   4.5380   4.5529   4.6208   4.6324   4.6847   4.7169
     4.7403   4.8332   4.9588   5.0155   5.0851   5.0933   5.1374   5.1552
     5.1732   5.1886   5.2430   5.2790   5.4156   5.4755   5.5381   5.5613
     5.6182   5.6447   5.6782   5.7019   5.9362   6.0114   6.0411   6.0598
     6.1256   6.2444   6.3162   6.3985   6.6945   6.7048   6.7080   6.7099
     6.9577   6.9612   7.0090   7.0612   7.0670   7.1049   7.1102   7.1241
     7.2407   7.2809   7.2825   7.2960   7.3073   7.3096   7.3384   7.5049
     7.5175   7.5636   7.6955   7.7568   7.7705   7.8522   7.8715   7.9460
     8.0856   8.1167   8.1333   8.1491   8.2150   8.3045   8.4039   8.4479
     8.4778   8.5267   8.5896   8.6132   8.7112   8.7571   8.8270   8.8512
     8.8550   8.8620   8.8694   8.8766   8.8971   8.9042   8.9105   8.9261
     8.9330   9.0375   9.1102   9.1158   9.1214   9.1229   9.2145   9.2207
     9.2603   9.2872   9.4705   9.4919   9.5327   9.5727   9.6483   9.6641

     the Fermi energy is     3.2436 ev

!    total energy              =  -12714.04149144 Ry
     Harris-Foulkes estimate   =  -12714.04149147 Ry
     estimated scf accuracy    <          5.6E-09 Ry

     The total energy is the sum of the following terms:

     one-electron contribution = -109242.13201531 Ry
     hartree contribution      =   55980.39418257 Ry
     xc contribution           =   -4446.58910003 Ry
     ewald contribution        =   45000.76713938 Ry
     Dispersion Correction     =      -2.97802109 Ry
     smearing contrib. (-TS)   =      -3.50367695 Ry

     convergence has been achieved in  45 iterations

     Writing output data file gc.save
 
     init_run     :    186.82s CPU    200.65s WALL (       1 calls)
     electrons    :  24350.94s CPU  25924.54s WALL (       1 calls)

     Called by init_run:
     wfcinit      :    184.53s CPU    196.80s WALL (       1 calls)
     potinit      :      0.63s CPU      0.80s WALL (       1 calls)

     Called by electrons:
     c_bands      :  22222.14s CPU  23621.48s WALL (      45 calls)
     sum_band     :   1722.09s CPU   1836.52s WALL (      45 calls)
     v_of_rho     :      5.40s CPU      6.77s WALL (      46 calls)
     newd         :     14.21s CPU     26.34s WALL (      46 calls)
     mix_rho      :    387.04s CPU    433.57s WALL (      45 calls)

     Called by c_bands:
     init_us_2    :     81.49s CPU     83.01s WALL (     546 calls)
     cegterg      :  21887.15s CPU  23273.55s WALL (     276 calls)

     Called by sum_band:
     sum_band:bec :      4.88s CPU      5.44s WALL (     270 calls)
     addusdens    :     20.58s CPU     31.15s WALL (      45 calls)

     Called by *egterg:
     h_psi        :   7900.33s CPU   8500.25s WALL (    1936 calls)
     s_psi        :   1989.63s CPU   2002.32s WALL (    1936 calls)
     g_psi        :     21.34s CPU     21.49s WALL (    1654 calls)
     cdiaghg      :   6413.52s CPU   6741.48s WALL (    1924 calls)

     Called by h_psi:
     add_vuspsi   :   1994.25s CPU   2008.67s WALL (    1936 calls)

     General routines
     calbec       :   2691.54s CPU   2712.18s WALL (    2206 calls)
     fft          :      4.38s CPU      5.36s WALL (     597 calls)
     ffts         :    163.99s CPU    196.61s WALL (   25518 calls)
     fftw         :   3855.39s CPU   4388.44s WALL ( 1320716 calls)
     davcio       :      0.21s CPU      6.60s WALL (       6 calls)
 
     Parallel routines
     fft_scatter  :   1919.46s CPU   2217.06s WALL ( 1346831 calls)
 
     PWSCF        :     6h49m CPU        7h15m WALL

 
   This run was terminated on:  19:42:14  30Jan2018            

=------------------------------------------------------------------------------=
   JOB DONE.
=------------------------------------------------------------------------------=
