
     Program PWSCF v.5.4.0 starts on 26Mar2017 at 13:55: 9 

     This program is part of the open-source Quantum ESPRESSO suite
     for quantum simulation of materials; please cite
         "P. Giannozzi et al., J. Phys.:Condens. Matter 21 395502 (2009);
          URL http://www.quantum-espresso.org", 
     in publications or presentations arising from this work. More details at
     http://www.quantum-espresso.org/quote

     Parallel version (MPI & OpenMP), running on      56 processor cores
     Number of MPI processes:                56
     Threads/MPI process:                     1
     R & G space division:  proc/nbgrp/npool/nimage =      56
     Waiting for input...
     Reading input from standard input
Warning: card &IONS ignored
Warning: card / ignored

     Current dimensions of program PWSCF are:
     Max number of different atomic species (ntypx) = 10
     Max number of k-points (npk) =  40000
     Max angular momentum in pseudopotentials (lmaxx) =  3

     -------------------------------------
     Parameters for Dispersion Correction:
     -------------------------------------
       atom      VdW radius       C_6     

        Cu         2.952        374.666
        C_h        2.744         60.710
        C          2.744         60.710

     Subspace diagonalization in iterative solution of the eigenvalue problem:
     one sub-group per band group will be used
     scalapack distributed-memory algorithm (size of sub-group:  5*  5 procs)

 
     Parallelization info
     --------------------
     sticks:   dense  smooth     PW     G-vecs:    dense   smooth      PW
     Min         204     204     54                36612    36612    4962
     Max         205     205     55                36617    36617    4968
     Sum       11433   11433   3039              2050409  2050409  278033
 


     bravais-lattice index     =            0
     lattice parameter (alat)  =      13.9425  a.u.
     unit-cell volume          =   21209.0878 (a.u.)^3
     number of atoms/cell      =          148
     number of atomic types    =            3
     number of electrons       =      1292.00
     number of Kohn-Sham states=          775
     kinetic-energy cutoff     =      80.0000  Ry
     charge density cutoff     =     320.0000  Ry
     convergence threshold     =      1.0E-08
     mixing beta               =       0.7000
     number of iterations used =            8  local-TF  mixing
     Exchange-correlation      =  SLA  PW   PBX  PBC ( 1  4  3  4 0 0)

     celldm(1)=  13.942539  celldm(2)=   0.000000  celldm(3)=   0.000000
     celldm(4)=   0.000000  celldm(5)=   0.000000  celldm(6)=   0.000000

     crystal axes: (cart. coord. in units of alat)
               a(1) = (   1.000000   0.000000   0.000000 )  
               a(2) = (   0.000000   2.309401   0.000000 )  
               a(3) = (   0.000000   0.000000   3.388418 )  

     reciprocal axes: (cart. coord. in units 2 pi/alat)
               b(1) = (  1.000000  0.000000  0.000000 )  
               b(2) = (  0.000000  0.433013  0.000000 )  
               b(3) = (  0.000000  0.000000  0.295123 )  


     PseudoPot. # 1 for Cu read from file:
     /home/549/hxw549/Short/pseudopotentials/Cu.pbe-n-van_ak.UPF
     MD5 check sum: 601f7c30f7467666bec936e0661ce3e1
     Pseudo is Ultrasoft + core correction, Zval = 11.0
     Generated by new atomic code, or converted to UPF format
     Using radial grid of  867 points,  6 beta functions with: 
                l(1) =   0
                l(2) =   0
                l(3) =   1
                l(4) =   1
                l(5) =   2
                l(6) =   2
     Q(r) pseudized with  8 coefficients,  rinner =    1.400   1.400   1.400
                                                       1.400   1.400

     PseudoPot. # 2 for C  read from file:
     /home/549/hxw549/Short/pseudopotentials/C.star1s-pbe-mt_gipaw.UPF
     MD5 check sum: ef0cb3dee31bd9e4ba2a832a2c716264
     Pseudo is Norm-conserving, Zval =  5.0
     Generated by new atomic code, or converted to UPF format
     Using radial grid of 1073 points,  1 beta functions with: 
                l(1) =   0

     PseudoPot. # 3 for C  read from file:
     /home/549/hxw549/Short/pseudopotentials/C.pbe-mt_gipaw.UPF
     MD5 check sum: 5ac2f21f2c440b14befe521540822c15
     Pseudo is Norm-conserving, Zval =  4.0
     Generated by new atomic code, or converted to UPF format
     Using radial grid of 1073 points,  1 beta functions with: 
                l(1) =   0

     atomic species   valence    mass     pseudopotential
        Cu            11.00    63.54600     Cu( 1.00)
        C_h            5.00    12.01070     C ( 1.00)
        C              4.00    12.01070     C ( 1.00)

      2 Sym. Ops. (no inversion) found



   Cartesian axes

     site n.     atom                  positions (alat units)
         1           Cu  tau(   1) = (   0.0000000   0.0000567   0.9971194  )
         2           Cu  tau(   2) = (   0.2499927   0.2309760   0.9972946  )
         3           Cu  tau(   3) = (   0.5000000   0.0000313   0.9971490  )
         4           Cu  tau(   4) = (   0.7500073   0.2309760   0.9972946  )
         5           Cu  tau(   5) = (   0.0000000   0.4618437   0.9973425  )
         6           Cu  tau(   6) = (   0.2499840   0.6927701   0.9971914  )
         7           Cu  tau(   7) = (   0.5000000   0.4618722   0.9973119  )
         8           Cu  tau(   8) = (   0.7500160   0.6927701   0.9971914  )
         9           Cu  tau(   9) = (   0.0000000   0.9237521   0.9970621  )
        10           Cu  tau(  10) = (   0.2500157   1.1547420   0.9971373  )
        11           Cu  tau(  11) = (   0.5000000   0.9237453   0.9970727  )
        12           Cu  tau(  12) = (   0.7499843   1.1547420   0.9971373  )
        13           Cu  tau(  13) = (   0.0000000   1.3856555   0.9972830  )
        14           Cu  tau(  14) = (   0.2500029   1.6165618   0.9973242  )
        15           Cu  tau(  15) = (   0.5000000   1.3857014   0.9973005  )
        16           Cu  tau(  16) = (   0.7499971   1.6165618   0.9973242  )
        17           Cu  tau(  17) = (   0.0000000   1.8474941   0.9971969  )
        18           Cu  tau(  18) = (   0.2500043   2.0784518   0.9970745  )
        19           Cu  tau(  19) = (   0.5000000   1.8474499   0.9971773  )
        20           Cu  tau(  20) = (   0.7499957   2.0784518   0.9970745  )
        21           Cu  tau(  21) = (   0.0000000   0.2308065   1.2457643  )
        22           Cu  tau(  22) = (   0.2499892  -0.0001010   1.2455764  )
        23           Cu  tau(  23) = (   0.5000000   0.2308938   1.2456746  )
        24           Cu  tau(  24) = (   0.7500108  -0.0001010   1.2455764  )
        25           Cu  tau(  25) = (   0.0000000   0.6929786   1.2456406  )
        26           Cu  tau(  26) = (   0.2499874   0.4619293   1.2457459  )
        27           Cu  tau(  27) = (   0.5000000   0.6929012   1.2456074  )
        28           Cu  tau(  28) = (   0.7500126   0.4619293   1.2457459  )
        29           Cu  tau(  29) = (   0.0000000   1.1546142   1.2455676  )
        30           Cu  tau(  30) = (   0.2499981   0.9237849   1.2455149  )
        31           Cu  tau(  31) = (   0.5000000   1.1545763   1.2455800  )
        32           Cu  tau(  32) = (   0.7500019   0.9237849   1.2455149  )
        33           Cu  tau(  33) = (   0.0000000   1.6166029   1.2456910  )
        34           Cu  tau(  34) = (   0.2500161   1.3855492   1.2457134  )
        35           Cu  tau(  35) = (   0.5000000   1.6166555   1.2458019  )
        36           Cu  tau(  36) = (   0.7499839   1.3855492   1.2457134  )
        37           Cu  tau(  37) = (   0.0000000   2.0784993   1.2455162  )
        38           Cu  tau(  38) = (   0.2500161   1.8476387   1.2456210  )
        39           Cu  tau(  39) = (   0.5000000   2.0784755   1.2455152  )
        40           Cu  tau(  40) = (   0.7499839   1.8476387   1.2456210  )
        41           Cu  tau(  41) = (   0.0000000  -0.0003182   1.4954305  )
        42           Cu  tau(  42) = (   0.2500224   0.2307186   1.4951678  )
        43           Cu  tau(  43) = (   0.5000000  -0.0002059   1.4952775  )
        44           Cu  tau(  44) = (   0.7499776   0.2307186   1.4951678  )
        45           Cu  tau(  45) = (   0.0000000   0.4620254   1.4950571  )
        46           Cu  tau(  46) = (   0.2500339   0.6931225   1.4952807  )
        47           Cu  tau(  47) = (   0.5000000   0.4619896   1.4952144  )
        48           Cu  tau(  48) = (   0.7499661   0.6931225   1.4952807  )
        49           Cu  tau(  49) = (   0.0000000   0.9238798   1.4954544  )
        50           Cu  tau(  50) = (   0.2499708   1.1544329   1.4953374  )
        51           Cu  tau(  51) = (   0.5000000   0.9237633   1.4954072  )
        52           Cu  tau(  52) = (   0.7500292   1.1544329   1.4953374  )
        53           Cu  tau(  53) = (   0.0000000   1.3854453   1.4952066  )
        54           Cu  tau(  54) = (   0.2499861   1.6167017   1.4951298  )
        55           Cu  tau(  55) = (   0.5000000   1.3853760   1.4951346  )
        56           Cu  tau(  56) = (   0.7500139   1.6167017   1.4951298  )
        57           Cu  tau(  57) = (   0.0000000   1.8477718   1.4952308  )
        58           Cu  tau(  58) = (   0.2499930   2.0785254   1.4954090  )
        59           Cu  tau(  59) = (   0.5000000   1.8478762   1.4953503  )
        60           Cu  tau(  60) = (   0.7500070   2.0785254   1.4954090  )
        61           Cu  tau(  61) = (   0.0000000   0.2310733   1.7440777  )
        62           Cu  tau(  62) = (   0.2501089  -0.0001294   1.7450479  )
        63           Cu  tau(  63) = (   0.5000000   0.2306045   1.7445985  )
        64           Cu  tau(  64) = (   0.7498911  -0.0001294   1.7450479  )
        65           Cu  tau(  65) = (   0.0000000   0.6927994   1.7446059  )
        66           Cu  tau(  66) = (   0.2502918   0.4619532   1.7441197  )
        67           Cu  tau(  67) = (   0.5000000   0.6931011   1.7451318  )
        68           Cu  tau(  68) = (   0.7497082   0.4619532   1.7441197  )
        69           Cu  tau(  69) = (   0.0000000   1.1545789   1.7453503  )
        70           Cu  tau(  70) = (   0.2500220   0.9237908   1.7453835  )
        71           Cu  tau(  71) = (   0.5000000   1.1545999   1.7449118  )
        72           Cu  tau(  72) = (   0.7499780   0.9237908   1.7453835  )
        73           Cu  tau(  73) = (   0.0000000   1.6167791   1.7444075  )
        74           Cu  tau(  74) = (   0.2497438   1.3855115   1.7442733  )
        75           Cu  tau(  75) = (   0.5000000   1.6164906   1.7439233  )
        76           Cu  tau(  76) = (   0.7502562   1.3855115   1.7442733  )
        77           Cu  tau(  77) = (   0.0000000   2.0782721   1.7455014  )
        78           Cu  tau(  78) = (   0.2498426   1.8476765   1.7447807  )
        79           Cu  tau(  79) = (   0.5000000   2.0787016   1.7454002  )
        80           Cu  tau(  80) = (   0.7501574   1.8476765   1.7447807  )
        81           Cu  tau(  81) = (   0.0000000   0.0010732   1.9906710  )
        82           Cu  tau(  82) = (   0.2503054   0.2314650   1.9904877  )
        83           Cu  tau(  83) = (   0.5000000   0.0001335   1.9924670  )
        84           Cu  tau(  84) = (   0.7496946   0.2314650   1.9904877  )
        85           Cu  tau(  85) = (   0.0000000   0.4618379   1.9901778  )
        86           Cu  tau(  86) = (   0.2508441   0.6921348   1.9910282  )
        87           Cu  tau(  87) = (   0.5000000   0.4613052   1.9913358  )
        88           Cu  tau(  88) = (   0.7491559   0.6921348   1.9910282  )
        89           Cu  tau(  89) = (   0.0000000   0.9224699   1.9915918  )
        90           Cu  tau(  90) = (   0.2491275   1.1552920   1.9912642  )
        91           Cu  tau(  91) = (   0.5000000   0.9247757   1.9920574  )
        92           Cu  tau(  92) = (   0.7508725   1.1552920   1.9912642  )
        93           Cu  tau(  93) = (   0.0000000   1.3865904   1.9916296  )
        94           Cu  tau(  94) = (   0.2499532   1.6162906   1.9903050  )
        95           Cu  tau(  95) = (   0.5000000   1.3858063   1.9901800  )
        96           Cu  tau(  96) = (   0.7500468   1.6162906   1.9903050  )
        97           Cu  tau(  97) = (   0.0000000   1.8468318   1.9923212  )
        98           Cu  tau(  98) = (   0.2497561   2.0783183   1.9915134  )
        99           Cu  tau(  99) = (   0.5000000   1.8467805   1.9903847  )
       100           Cu  tau( 100) = (   0.7502439   2.0783183   1.9915134  )
       101           C   tau( 101) = (   0.0000000   0.0962962   2.3888871  )
       102           C   tau( 102) = (   0.0000000   0.2886925   2.3900713  )
       103           C   tau( 103) = (   0.1666323   0.0000435   2.3878440  )
       104           C   tau( 104) = (   0.1664900   0.3848966   2.3886743  )
       105           C   tau( 105) = (   0.3331238   0.0962174   2.3860158  )
       106           C   tau( 106) = (   0.3331280   0.2886629   2.3856823  )
       107           C   tau( 107) = (   0.5000000  -0.0000818   2.3845687  )
       108           C   tau( 108) = (   0.5000000   0.3849277   2.3842391  )
       109           C   tau( 109) = (   0.6668762   0.0962174   2.3860158  )
       110           C   tau( 110) = (   0.6668720   0.2886629   2.3856823  )
       111           C   tau( 111) = (   0.8333677   0.0000435   2.3878440  )
       112           C   tau( 112) = (   0.8335100   0.3848966   2.3886743  )
       113           C   tau( 113) = (   0.0000000   0.6735163   2.3892509  )
       114           C   tau( 114) = (   0.0000000   0.8659398   2.3870960  )
       115           C   tau( 115) = (   0.1664759   0.5773226   2.3882842  )
       116           C   tau( 116) = (   0.1667428   0.9622141   2.3870264  )
       117           C   tau( 117) = (   0.3332094   0.6735984   2.3858047  )
       118           C   tau( 118) = (   0.3332031   0.8660537   2.3866148  )
       119           C   tau( 119) = (   0.5000000   0.5773685   2.3848465  )
       120           C   tau( 120) = (   0.5000000   0.9623380   2.3860825  )
       121           C   tau( 121) = (   0.6667906   0.6735984   2.3858047  )
       122           C   tau( 122) = (   0.6667969   0.8660537   2.3866148  )
       123           C   tau( 123) = (   0.8335241   0.5773226   2.3882842  )
       124           C   tau( 124) = (   0.8332572   0.9622141   2.3870264  )
       125           C   tau( 125) = (   0.0000000   1.2508867   2.3852683  )
       126           C   tau( 126) = (   0.0000000   1.4433300   2.3840871  )
       127           C   tau( 127) = (   0.1667360   1.1546708   2.3859697  )
       128           C   tau( 128) = (   0.1668939   1.5396104   2.3857176  )
       129           C   tau( 129) = (   0.3335095   1.2509657   2.3878953  )
       130           C   tau( 130) = (   0.3334866   1.4433958   2.3886602  )
       131           C_h tau( 131) = (   0.5000000   1.1547731   2.3885512  )
       132           C   tau( 132) = (   0.5000000   1.5396099   2.3901428  )
       133           C   tau( 133) = (   0.6664905   1.2509657   2.3878953  )
       134           C   tau( 134) = (   0.6665134   1.4433958   2.3886602  )
       135           C   tau( 135) = (   0.8332640   1.1546708   2.3859697  )
       136           C   tau( 136) = (   0.8331061   1.5396104   2.3857176  )
       137           C   tau( 137) = (   0.0000000   1.8283510   2.3842019  )
       138           C   tau( 138) = (   0.0000000   2.0207949   2.3863399  )
       139           C   tau( 139) = (   0.1668959   1.7320513   2.3858703  )
       140           C   tau( 140) = (   0.1666186   2.1169980   2.3865340  )
       141           C   tau( 141) = (   0.3334155   1.8282368   2.3882160  )
       142           C   tau( 142) = (   0.3334352   2.0206763   2.3869561  )
       143           C   tau( 143) = (   0.5000000   1.7319961   2.3895398  )
       144           C   tau( 144) = (   0.5000000   2.1168754   2.3870198  )
       145           C   tau( 145) = (   0.6665845   1.8282368   2.3882160  )
       146           C   tau( 146) = (   0.6665648   2.0206763   2.3869561  )
       147           C   tau( 147) = (   0.8331041   1.7320513   2.3858703  )
       148           C   tau( 148) = (   0.8333814   2.1169980   2.3865340  )

     number of k points=     6  gaussian smearing, width (Ry)=  0.1000
                       cart. coord. in units 2pi/alat
        k(    1) = (   0.0000000   0.0000000   0.0000000), wk =   0.2500000
        k(    2) = (   0.0000000  -0.2165064   0.0000000), wk =   0.2500000
        k(    3) = (   0.2500000   0.0000000   0.0000000), wk =   0.5000000
        k(    4) = (   0.2500000  -0.2165064   0.0000000), wk =   0.5000000
        k(    5) = (  -0.5000000   0.0000000   0.0000000), wk =   0.2500000
        k(    6) = (  -0.5000000  -0.2165064   0.0000000), wk =   0.2500000

     Dense  grid:  2050409 G-vectors     FFT dimensions: (  80, 192, 270)

     Largest allocated arrays     est. size (Mb)     dimensions
        Kohn-Sham Wavefunctions        54.44 Mb     (    4604,  775)
        NL pseudopotentials           129.82 Mb     (    4604, 1848)
        Each V/rho on FFT grid          1.17 Mb     (   76800)
        Each G-vector array             0.28 Mb     (   36616)
        G-vector shells                 0.14 Mb     (   17932)
     Largest temporary arrays     est. size (Mb)     dimensions
        Auxiliary wavefunctions       217.78 Mb     (    4604, 3100)
        Each subspace H/S matrix        5.87 Mb     (     620,  620)
        Each <psi_i|beta_j> matrix     21.85 Mb     (    1848,  775)
        Arrays for rho mixing           9.38 Mb     (   76800,    8)

     Initial potential from superposition of free atoms
     Check: negative starting charge=   -0.001843

     starting charge 1266.81751, renormalised to 1292.00000

     negative rho (up, down):  1.879E-03 0.000E+00
     Starting wfc are 1284 randomized atomic wfcs

     total cpu time spent up to now is      106.0 secs

     Self-consistent Calculation

     iteration #  1     ecut=    80.00 Ry     beta=0.70
     Davidson diagonalization with overlap
     c_bands:  2 eigenvalues not converged
     c_bands:  2 eigenvalues not converged
     c_bands:  2 eigenvalues not converged
     ethr =  1.00E-04,  avg # of iterations = 37.7

     negative rho (up, down):  2.726E+01 0.000E+00

     total cpu time spent up to now is     2089.1 secs

     total energy              =   -9470.50544926 Ry
     Harris-Foulkes estimate   =  -17311.23680136 Ry
     estimated scf accuracy    <  180173.78724781 Ry

     iteration #  2     ecut=    80.00 Ry     beta=0.70
     Davidson diagonalization with overlap
     ethr =  1.00E-02,  avg # of iterations = 12.5

     negative rho (up, down):  3.153E+01 0.000E+00

     total cpu time spent up to now is     3000.8 secs

     total energy              =  -12211.04319541 Ry
     Harris-Foulkes estimate   =  -13665.82817989 Ry
     estimated scf accuracy    <   23983.46691263 Ry

     iteration #  3     ecut=    80.00 Ry     beta=0.70
     Davidson diagonalization with overlap
     ethr =  1.00E-02,  avg # of iterations =  7.3

     negative rho (up, down):  3.206E+01 0.000E+00

     total cpu time spent up to now is     3530.2 secs

     total energy              =  -12460.98091382 Ry
     Harris-Foulkes estimate   =  -13404.02366930 Ry
     estimated scf accuracy    <    5850.79780806 Ry

     iteration #  4     ecut=    80.00 Ry     beta=0.70
     Davidson diagonalization with overlap
     ethr =  1.00E-02,  avg # of iterations =  5.7

     negative rho (up, down):  2.385E+01 0.000E+00

     total cpu time spent up to now is     4035.5 secs

     total energy              =  -12848.97891213 Ry
     Harris-Foulkes estimate   =  -13085.78761805 Ry
     estimated scf accuracy    <    1766.62186458 Ry

     iteration #  5     ecut=    80.00 Ry     beta=0.70
     Davidson diagonalization with overlap
     ethr =  1.00E-02,  avg # of iterations =  3.3

     negative rho (up, down):  1.864E+01 0.000E+00

     total cpu time spent up to now is     4305.3 secs

     total energy              =  -12845.63148438 Ry
     Harris-Foulkes estimate   =  -12961.91630937 Ry
     estimated scf accuracy    <    1277.11665562 Ry

     iteration #  6     ecut=    80.00 Ry     beta=0.70
     Davidson diagonalization with overlap
     ethr =  1.00E-02,  avg # of iterations =  3.0

     negative rho (up, down):  1.298E+01 0.000E+00

     total cpu time spent up to now is     4511.2 secs

     total energy              =  -12834.15585246 Ry
     Harris-Foulkes estimate   =  -12909.22240553 Ry
     estimated scf accuracy    <     584.66053115 Ry

     iteration #  7     ecut=    80.00 Ry     beta=0.70
     Davidson diagonalization with overlap
     ethr =  1.00E-02,  avg # of iterations =  2.0

     negative rho (up, down):  9.212E+00 0.000E+00

     total cpu time spent up to now is     4695.4 secs

     total energy              =  -12806.56808646 Ry
     Harris-Foulkes estimate   =  -12853.76282441 Ry
     estimated scf accuracy    <     455.00608643 Ry

     iteration #  8     ecut=    80.00 Ry     beta=0.70
     Davidson diagonalization with overlap
     ethr =  1.00E-02,  avg # of iterations =  2.2

     negative rho (up, down):  7.318E+00 0.000E+00

     total cpu time spent up to now is     4876.6 secs

     total energy              =  -12788.66714517 Ry
     Harris-Foulkes estimate   =  -12824.71492106 Ry
     estimated scf accuracy    <     525.49656815 Ry

     iteration #  9     ecut=    80.00 Ry     beta=0.70
     Davidson diagonalization with overlap
     ethr =  1.00E-02,  avg # of iterations =  2.2

     negative rho (up, down):  5.573E+00 0.000E+00

     total cpu time spent up to now is     5055.7 secs

     total energy              =  -12781.35433306 Ry
     Harris-Foulkes estimate   =  -12801.28392195 Ry
     estimated scf accuracy    <     195.10111470 Ry

     iteration # 10     ecut=    80.00 Ry     beta=0.70
     Davidson diagonalization with overlap
     ethr =  1.00E-02,  avg # of iterations =  1.2

     negative rho (up, down):  1.239E+00 0.000E+00

     total cpu time spent up to now is     5222.4 secs

     total energy              =  -12737.64265710 Ry
     Harris-Foulkes estimate   =  -12783.09233505 Ry
     estimated scf accuracy    <     153.15701086 Ry

     iteration # 11     ecut=    80.00 Ry     beta=0.70
     Davidson diagonalization with overlap
     ethr =  1.00E-02,  avg # of iterations =  3.2

     negative rho (up, down):  8.580E-01 0.000E+00

     total cpu time spent up to now is     5414.7 secs

     total energy              =  -12728.97253935 Ry
     Harris-Foulkes estimate   =  -12749.68103100 Ry
     estimated scf accuracy    <     459.28564960 Ry

     iteration # 12     ecut=    80.00 Ry     beta=0.70
     Davidson diagonalization with overlap
     ethr =  1.00E-02,  avg # of iterations =  1.3

     negative rho (up, down):  4.753E-01 0.000E+00

     total cpu time spent up to now is     5584.7 secs

     total energy              =  -12728.02681231 Ry
     Harris-Foulkes estimate   =  -12743.12871475 Ry
     estimated scf accuracy    <     329.26928724 Ry

     iteration # 13     ecut=    80.00 Ry     beta=0.70
     Davidson diagonalization with overlap
     ethr =  1.00E-02,  avg # of iterations =  1.0

     negative rho (up, down):  2.263E+00 0.000E+00

     total cpu time spent up to now is     5749.8 secs

     total energy              =  -12716.99866623 Ry
     Harris-Foulkes estimate   =  -12737.77544214 Ry
     estimated scf accuracy    <     165.43084663 Ry

     iteration # 14     ecut=    80.00 Ry     beta=0.70
     Davidson diagonalization with overlap
     ethr =  1.00E-02,  avg # of iterations =  2.0

     negative rho (up, down):  4.450E+00 0.000E+00

     total cpu time spent up to now is     5927.7 secs

     total energy              =  -12718.84205876 Ry
     Harris-Foulkes estimate   =  -12726.39455875 Ry
     estimated scf accuracy    <      57.87008315 Ry

     iteration # 15     ecut=    80.00 Ry     beta=0.70
     Davidson diagonalization with overlap
     ethr =  4.48E-03,  avg # of iterations =  2.0

     negative rho (up, down):  5.022E+00 0.000E+00

     total cpu time spent up to now is     6105.1 secs

     total energy              =  -12717.18249612 Ry
     Harris-Foulkes estimate   =  -12720.88611533 Ry
     estimated scf accuracy    <      40.91645489 Ry

     iteration # 16     ecut=    80.00 Ry     beta=0.70
     Davidson diagonalization with overlap
     ethr =  3.17E-03,  avg # of iterations =  1.8

     negative rho (up, down):  5.379E+00 0.000E+00

     total cpu time spent up to now is     6280.8 secs

     total energy              =  -12715.32538201 Ry
     Harris-Foulkes estimate   =  -12718.11742905 Ry
     estimated scf accuracy    <      21.81557175 Ry

     iteration # 17     ecut=    80.00 Ry     beta=0.70
     Davidson diagonalization with overlap
     ethr =  1.69E-03,  avg # of iterations =  6.3

     negative rho (up, down):  4.946E+00 0.000E+00

     total cpu time spent up to now is     6510.2 secs

     total energy              =  -12714.38476547 Ry
     Harris-Foulkes estimate   =  -12716.03903428 Ry
     estimated scf accuracy    <      15.32642997 Ry

     iteration # 18     ecut=    80.00 Ry     beta=0.70
     Davidson diagonalization with overlap
     ethr =  1.19E-03,  avg # of iterations =  1.7

     negative rho (up, down):  4.576E+00 0.000E+00

     total cpu time spent up to now is     6684.0 secs

     total energy              =  -12713.25307944 Ry
     Harris-Foulkes estimate   =  -12714.75346566 Ry
     estimated scf accuracy    <      10.44518239 Ry

     iteration # 19     ecut=    80.00 Ry     beta=0.70
     Davidson diagonalization with overlap
     ethr =  8.08E-04,  avg # of iterations =  5.8

     negative rho (up, down):  3.596E+00 0.000E+00

     total cpu time spent up to now is     6907.5 secs

     total energy              =  -12712.36512474 Ry
     Harris-Foulkes estimate   =  -12713.51113602 Ry
     estimated scf accuracy    <       8.70191175 Ry

     iteration # 20     ecut=    80.00 Ry     beta=0.70
     Davidson diagonalization with overlap
     ethr =  6.74E-04,  avg # of iterations =  4.3

     negative rho (up, down):  2.024E+00 0.000E+00

     total cpu time spent up to now is     7115.6 secs

     total energy              =  -12711.32198340 Ry
     Harris-Foulkes estimate   =  -12712.54425297 Ry
     estimated scf accuracy    <       9.49432469 Ry

     iteration # 21     ecut=    80.00 Ry     beta=0.70
     Davidson diagonalization with overlap
     ethr =  6.74E-04,  avg # of iterations =  3.5

     negative rho (up, down):  6.759E-01 0.000E+00

     total cpu time spent up to now is     7308.6 secs

     total energy              =  -12710.13544420 Ry
     Harris-Foulkes estimate   =  -12711.62744981 Ry
     estimated scf accuracy    <       8.29229544 Ry

     iteration # 22     ecut=    80.00 Ry     beta=0.70
     Davidson diagonalization with overlap
     ethr =  6.42E-04,  avg # of iterations =  4.7

     negative rho (up, down):  3.281E-01 0.000E+00

     total cpu time spent up to now is     7516.2 secs

     total energy              =  -12709.18374515 Ry
     Harris-Foulkes estimate   =  -12710.57409851 Ry
     estimated scf accuracy    <       7.26963888 Ry

     iteration # 23     ecut=    80.00 Ry     beta=0.70
     Davidson diagonalization with overlap
     ethr =  5.63E-04,  avg # of iterations =  2.2

     negative rho (up, down):  1.846E-01 0.000E+00

     total cpu time spent up to now is     7696.0 secs

     total energy              =  -12708.15139194 Ry
     Harris-Foulkes estimate   =  -12709.37733647 Ry
     estimated scf accuracy    <       5.42576538 Ry

     iteration # 24     ecut=    80.00 Ry     beta=0.70
     Davidson diagonalization with overlap
     ethr =  4.20E-04,  avg # of iterations =  2.2

     negative rho (up, down):  5.826E-01 0.000E+00

     total cpu time spent up to now is     7880.0 secs

     total energy              =  -12707.53080795 Ry
     Harris-Foulkes estimate   =  -12708.90643801 Ry
     estimated scf accuracy    <       9.73475606 Ry

     iteration # 25     ecut=    80.00 Ry     beta=0.70
     Davidson diagonalization with overlap
     ethr =  4.20E-04,  avg # of iterations =  6.3

     negative rho (up, down):  6.298E-01 0.000E+00

     total cpu time spent up to now is     8110.9 secs

     total energy              =  -12707.35445828 Ry
     Harris-Foulkes estimate   =  -12708.00035836 Ry
     estimated scf accuracy    <       7.56468478 Ry

     iteration # 26     ecut=    80.00 Ry     beta=0.70
     Davidson diagonalization with overlap
     ethr =  4.20E-04,  avg # of iterations =  3.2

     negative rho (up, down):  5.772E-01 0.000E+00

     total cpu time spent up to now is     8301.0 secs

     total energy              =  -12707.52610877 Ry
     Harris-Foulkes estimate   =  -12707.79027372 Ry
     estimated scf accuracy    <       1.89488464 Ry

     iteration # 27     ecut=    80.00 Ry     beta=0.70
     Davidson diagonalization with overlap
     ethr =  1.47E-04,  avg # of iterations =  4.0

     negative rho (up, down):  5.870E-01 0.000E+00

     total cpu time spent up to now is     8500.7 secs

     total energy              =  -12707.30165603 Ry
     Harris-Foulkes estimate   =  -12707.57684784 Ry
     estimated scf accuracy    <       1.17928844 Ry

     iteration # 28     ecut=    80.00 Ry     beta=0.70
     Davidson diagonalization with overlap
     ethr =  9.13E-05,  avg # of iterations =  7.0

     negative rho (up, down):  6.573E-01 0.000E+00

     total cpu time spent up to now is     8741.9 secs

     total energy              =  -12707.14304997 Ry
     Harris-Foulkes estimate   =  -12707.35198189 Ry
     estimated scf accuracy    <       1.14373154 Ry

     iteration # 29     ecut=    80.00 Ry     beta=0.70
     Davidson diagonalization with overlap
     ethr =  8.85E-05,  avg # of iterations =  9.3

     negative rho (up, down):  3.572E-01 0.000E+00

     total cpu time spent up to now is     9025.5 secs

     total energy              =  -12707.14114135 Ry
     Harris-Foulkes estimate   =  -12707.19173997 Ry
     estimated scf accuracy    <       0.38869770 Ry

     iteration # 30     ecut=    80.00 Ry     beta=0.70
     Davidson diagonalization with overlap
     ethr =  3.01E-05,  avg # of iterations =  6.0

     negative rho (up, down):  1.238E-01 0.000E+00

     total cpu time spent up to now is     9253.5 secs

     total energy              =  -12707.13893874 Ry
     Harris-Foulkes estimate   =  -12707.17322101 Ry
     estimated scf accuracy    <       0.29184012 Ry

     iteration # 31     ecut=    80.00 Ry     beta=0.70
     Davidson diagonalization with overlap
     ethr =  2.26E-05,  avg # of iterations =  7.2

     negative rho (up, down):  3.326E-03 0.000E+00

     total cpu time spent up to now is     9499.2 secs

     total energy              =  -12707.14361949 Ry
     Harris-Foulkes estimate   =  -12707.15559311 Ry
     estimated scf accuracy    <       0.14390845 Ry

     iteration # 32     ecut=    80.00 Ry     beta=0.70
     Davidson diagonalization with overlap
     ethr =  1.11E-05,  avg # of iterations =  9.3

     negative rho (up, down):  9.945E-02 0.000E+00

     total cpu time spent up to now is     9773.6 secs

     total energy              =  -12707.14270550 Ry
     Harris-Foulkes estimate   =  -12707.15172702 Ry
     estimated scf accuracy    <       0.05599904 Ry

     iteration # 33     ecut=    80.00 Ry     beta=0.70
     Davidson diagonalization with overlap
     ethr =  4.33E-06,  avg # of iterations =  8.5

     negative rho (up, down):  1.934E-02 0.000E+00

     total cpu time spent up to now is    10045.1 secs

     total energy              =  -12707.14481518 Ry
     Harris-Foulkes estimate   =  -12707.14874401 Ry
     estimated scf accuracy    <       0.02529637 Ry

     iteration # 34     ecut=    80.00 Ry     beta=0.70
     Davidson diagonalization with overlap
     ethr =  1.96E-06,  avg # of iterations =  9.0

     negative rho (up, down):  7.108E-03 0.000E+00

     total cpu time spent up to now is    10320.9 secs

     total energy              =  -12707.14617849 Ry
     Harris-Foulkes estimate   =  -12707.14711555 Ry
     estimated scf accuracy    <       0.01181525 Ry

     iteration # 35     ecut=    80.00 Ry     beta=0.70
     Davidson diagonalization with overlap
     ethr =  9.14E-07,  avg # of iterations =  6.8

     negative rho (up, down):  3.767E-03 0.000E+00

     total cpu time spent up to now is    10566.2 secs

     total energy              =  -12707.14697723 Ry
     Harris-Foulkes estimate   =  -12707.14697246 Ry
     estimated scf accuracy    <       0.00232094 Ry

     iteration # 36     ecut=    80.00 Ry     beta=0.70
     Davidson diagonalization with overlap
     ethr =  1.80E-07,  avg # of iterations =  6.7

     negative rho (up, down):  5.706E-03 0.000E+00

     total cpu time spent up to now is    10817.8 secs

     total energy              =  -12707.14751635 Ry
     Harris-Foulkes estimate   =  -12707.14735934 Ry
     estimated scf accuracy    <       0.00155092 Ry

     iteration # 37     ecut=    80.00 Ry     beta=0.70
     Davidson diagonalization with overlap
     c_bands:  1 eigenvalues not converged
     ethr =  1.20E-07,  avg # of iterations =  8.8

     negative rho (up, down):  4.211E-03 0.000E+00

     total cpu time spent up to now is    11091.6 secs

     total energy              =  -12707.14764668 Ry
     Harris-Foulkes estimate   =  -12707.14764303 Ry
     estimated scf accuracy    <       0.00009111 Ry

     iteration # 38     ecut=    80.00 Ry     beta=0.70
     Davidson diagonalization with overlap
     c_bands:  1 eigenvalues not converged
     ethr =  7.05E-09,  avg # of iterations =  6.3

     negative rho (up, down):  2.253E-03 0.000E+00

     total cpu time spent up to now is    11340.9 secs

     total energy              =  -12707.14767503 Ry
     Harris-Foulkes estimate   =  -12707.14765505 Ry
     estimated scf accuracy    <       0.00003576 Ry

     iteration # 39     ecut=    80.00 Ry     beta=0.70
     Davidson diagonalization with overlap
     ethr =  2.77E-09,  avg # of iterations =  6.7

     negative rho (up, down):  2.770E-03 0.000E+00

     total cpu time spent up to now is    11587.6 secs

     total energy              =  -12707.14768346 Ry
     Harris-Foulkes estimate   =  -12707.14767900 Ry
     estimated scf accuracy    <       0.00001648 Ry

     iteration # 40     ecut=    80.00 Ry     beta=0.70
     Davidson diagonalization with overlap
     ethr =  1.28E-09,  avg # of iterations =  3.3

     negative rho (up, down):  2.422E-03 0.000E+00

     total cpu time spent up to now is    11785.5 secs

     total energy              =  -12707.14768365 Ry
     Harris-Foulkes estimate   =  -12707.14768475 Ry
     estimated scf accuracy    <       0.00000202 Ry

     iteration # 41     ecut=    80.00 Ry     beta=0.70
     Davidson diagonalization with overlap
     ethr =  1.57E-10,  avg # of iterations =  3.0

     negative rho (up, down):  2.270E-03 0.000E+00

     total cpu time spent up to now is    11996.1 secs

     total energy              =  -12707.14768359 Ry
     Harris-Foulkes estimate   =  -12707.14768385 Ry
     estimated scf accuracy    <       0.00000129 Ry

     iteration # 42     ecut=    80.00 Ry     beta=0.70
     Davidson diagonalization with overlap
     ethr =  9.97E-11,  avg # of iterations =  2.7

     negative rho (up, down):  2.159E-03 0.000E+00

     total cpu time spent up to now is    12186.7 secs

     total energy              =  -12707.14768346 Ry
     Harris-Foulkes estimate   =  -12707.14768370 Ry
     estimated scf accuracy    <       0.00000079 Ry

     iteration # 43     ecut=    80.00 Ry     beta=0.70
     Davidson diagonalization with overlap
     ethr =  6.10E-11,  avg # of iterations =  3.5

     negative rho (up, down):  2.133E-03 0.000E+00

     total cpu time spent up to now is    12395.0 secs

     total energy              =  -12707.14768353 Ry
     Harris-Foulkes estimate   =  -12707.14768354 Ry
     estimated scf accuracy    <       0.00000012 Ry

     iteration # 44     ecut=    80.00 Ry     beta=0.70
     Davidson diagonalization with overlap
     ethr =  9.67E-12,  avg # of iterations =  2.7

     negative rho (up, down):  2.125E-03 0.000E+00

     total cpu time spent up to now is    12602.0 secs

     total energy              =  -12707.14768356 Ry
     Harris-Foulkes estimate   =  -12707.14768355 Ry
     estimated scf accuracy    <       0.00000003 Ry

     iteration # 45     ecut=    80.00 Ry     beta=0.70
     Davidson diagonalization with overlap
     ethr =  2.69E-12,  avg # of iterations =  2.8

     negative rho (up, down):  2.123E-03 0.000E+00

     total cpu time spent up to now is    12801.6 secs

     total energy              =  -12707.14768356 Ry
     Harris-Foulkes estimate   =  -12707.14768356 Ry
     estimated scf accuracy    <       0.00000001 Ry

     iteration # 46     ecut=    80.00 Ry     beta=0.70
     Davidson diagonalization with overlap
     ethr =  9.21E-13,  avg # of iterations =  3.0

     negative rho (up, down):  2.115E-03 0.000E+00

     total cpu time spent up to now is    13000.8 secs

     End of self-consistent calculation

          k = 0.0000 0.0000 0.0000 (256287 PWs)   bands (ev):

   -17.2744 -16.2338 -16.0883 -15.4287 -15.0438 -14.7923 -14.6905 -14.2529
   -14.1982 -14.1389 -14.1260 -13.4615 -13.3253 -13.1594 -13.1215 -13.0852
   -13.0824 -11.6722 -11.5293 -11.4852 -11.3907 -11.2065 -10.3530  -9.7680
    -9.7617  -9.6260  -9.5238  -8.9856  -8.8023  -8.6719  -8.6008  -8.0485
    -7.9016  -7.7680  -7.6315  -7.5794  -7.5727  -7.5426  -7.5230  -6.3532
    -6.3513  -6.1277  -6.0208  -6.0206  -5.9507  -5.8902  -5.8604  -5.8439
    -5.4969  -5.4841  -5.2942  -4.8867  -4.8389  -4.7988  -4.6367  -4.6211
    -4.5828  -4.4260  -4.2553  -4.1471  -3.9889  -3.9875  -3.9703  -3.9506
    -3.6187  -3.5512  -3.5268  -3.5175  -3.4222  -3.4180  -3.4073  -3.3992
    -3.2769  -3.1867  -3.1224  -3.0592  -3.0159  -3.0084  -3.0065  -3.0056
    -2.9918  -2.8583  -2.8358  -2.7996  -2.7823  -2.7419  -2.7415  -2.7387
    -2.7175  -2.7150  -2.5326  -2.4328  -2.3770  -2.3767  -2.3388  -2.3360
    -2.1938  -2.1918  -2.1814  -2.1779  -2.1518  -2.1516  -2.1515  -2.1515
    -2.1122  -2.0785  -2.0782  -2.0360  -2.0209  -2.0208  -2.0207  -2.0202
    -1.9603  -1.8414  -1.7767  -1.7391  -1.7388  -1.7386  -1.7374  -1.7021
    -1.6927  -1.6714  -1.6582  -1.6564  -1.6091  -1.5992  -1.5873  -1.5752
    -1.5635  -1.5623  -1.5574  -1.5532  -1.5398  -1.5344  -1.5342  -1.5153
    -1.5138  -1.4515  -1.4411  -1.4203  -1.4158  -1.3857  -1.3849  -1.3759
    -1.3710  -1.3526  -1.2994  -1.2987  -1.2637  -1.2619  -1.2499  -1.2114
    -1.2111  -1.1915  -1.1894  -1.1797  -1.1668  -1.1639  -1.1272  -1.1209
    -1.1094  -1.1081  -1.0493  -1.0469  -1.0344  -1.0298  -1.0262  -1.0247
    -1.0244  -1.0216  -1.0204  -1.0155  -1.0152  -0.9982  -0.9979  -0.9800
    -0.9514  -0.9405  -0.9404  -0.9340  -0.9228  -0.9186  -0.9176  -0.9169
    -0.9017  -0.8588  -0.8573  -0.8572  -0.8559  -0.8553  -0.8541  -0.8537
    -0.8526  -0.8523  -0.8509  -0.8480  -0.8479  -0.8477  -0.8454  -0.8424
    -0.8410  -0.8305  -0.8294  -0.8257  -0.8226  -0.7854  -0.6894  -0.6894
    -0.6864  -0.6829  -0.6828  -0.6600  -0.6581  -0.6411  -0.6411  -0.6196
    -0.6193  -0.6051  -0.6039  -0.6027  -0.6023  -0.5874  -0.5640  -0.5637
    -0.5615  -0.5611  -0.5534  -0.5527  -0.5419  -0.5416  -0.4918  -0.4917
    -0.4379  -0.4377  -0.4272  -0.4257  -0.4255  -0.4243  -0.4103  -0.4102
    -0.4045  -0.4042  -0.4041  -0.4040  -0.3995  -0.3995  -0.3848  -0.3848
    -0.3779  -0.3775  -0.3763  -0.3743  -0.3507  -0.3502  -0.2993  -0.2976
    -0.2964  -0.2908  -0.2907  -0.2642  -0.2642  -0.2641  -0.2640  -0.2496
    -0.2468  -0.2463  -0.2422  -0.2422  -0.2224  -0.2208  -0.2196  -0.2191
    -0.2142  -0.2142  -0.2140  -0.2139  -0.2113  -0.2083  -0.1932  -0.1898
    -0.1891  -0.1877  -0.1872  -0.1678  -0.1200  -0.1198  -0.1181  -0.1176
    -0.1151  -0.0734  -0.0695  -0.0693  -0.0681  -0.0677  -0.0620  -0.0617
    -0.0615  -0.0615  -0.0613  -0.0537  -0.0469  -0.0346  -0.0102  -0.0084
    -0.0078  -0.0074   0.0013   0.0166   0.0211   0.0217   0.0220   0.0269
     0.0304   0.0458   0.0463   0.0481   0.0485   0.0499   0.0499   0.0638
     0.0638   0.0641   0.0644   0.0695   0.0764   0.0778   0.0783   0.1008
     0.1025   0.1353   0.1355   0.1548   0.1563   0.1642   0.1653   0.1892
     0.1935   0.2301   0.2381   0.2384   0.2386   0.2401   0.2436   0.2456
     0.2701   0.2736   0.2740   0.2744   0.2745   0.2847   0.2849   0.2984
     0.3266   0.3410   0.3410   0.3480   0.3488   0.3508   0.3508   0.3774
     0.3792   0.3837   0.3843   0.3844   0.3848   0.4152   0.4162   0.4232
     0.4232   0.4374   0.4385   0.4398   0.4407   0.4784   0.4795   0.4948
     0.4966   0.4970   0.4970   0.4975   0.5101   0.5273   0.5293   0.5333
     0.5339   0.5354   0.5358   0.5360   0.5379   0.5398   0.5473   0.5475
     0.5500   0.5543   0.5545   0.5560   0.5627   0.5643   0.5960   0.6036
     0.6059   0.6080   0.6165   0.6172   0.6481   0.6486   0.6501   0.6508
     0.6522   0.6534   0.6535   0.6545   0.6655   0.6659   0.6702   0.6748
     0.6789   0.6795   0.6800   0.6805   0.6878   0.6878   0.6978   0.6984
     0.7197   0.7202   0.7210   0.7215   0.7316   0.7331   0.7429   0.7438
     0.7465   0.7480   0.7487   0.7487   0.7557   0.7580   0.7610   0.7633
     0.7687   0.7745   0.8062   0.8063   0.8166   0.8178   0.8240   0.8245
     0.8250   0.8251   0.8557   0.8566   0.8704   0.8708   0.8764   0.8765
     0.8911   0.8912   0.9000   0.9006   0.9010   0.9025   0.9093   0.9219
     0.9333   0.9382   0.9391   0.9423   0.9428   0.9440   0.9472   0.9619
     0.9780   0.9783   0.9862   0.9873   0.9947   0.9973   1.0088   1.0110
     1.0116   1.0129   1.0137   1.0144   1.0198   1.0245   1.0269   1.0290
     1.0291   1.0295   1.0310   1.0441   1.0442   1.0625   1.0641   1.0647
     1.0652   1.0711   1.0740   1.1001   1.1051   1.1052   1.1074   1.1089
     1.1105   1.1116   1.1138   1.1191   1.1199   1.1200   1.1200   1.1201
     1.1219   1.1360   1.1362   1.1603   1.1667   1.1834   1.1844   1.1904
     1.2009   1.2030   1.2037   1.2051   1.2053   1.2066   1.2211   1.2233
     1.2270   1.2370   1.2383   1.2399   1.2406   1.2414   1.2452   1.2466
     1.2469   1.2552   1.2737   1.2751   1.2763   1.2769   1.2775   1.2777
     1.2788   1.2790   1.2945   1.2952   1.2964   1.3022   1.3106   1.3108
     1.3119   1.3119   1.3130   1.3220   1.3242   1.3256   1.3446   1.3464
     1.3507   1.3548   1.3563   1.3569   1.3575   1.3589   1.3595   1.3725
     1.3842   1.3869   1.3885   1.3934   1.4030   1.4164   1.4165   1.4228
     1.4230   1.4247   1.4286   1.4309   1.4310   1.4342   1.4348   1.4349
     1.4354   1.4372   1.4386   1.4464   1.4467   1.4505   1.4676   1.4677
     1.4687   1.4687   1.4725   1.4800   1.4810   1.5040   1.5044   1.5076
     1.5100   1.5209   1.5568   1.5579   1.5603   1.5616   1.5792   1.5799
     1.5802   1.5883   1.5914   1.6062   1.6295   1.6318   1.6329   1.6333
     1.6344   1.6434   1.6441   1.6444   1.9005   1.9561   2.1050   2.1085
     2.1479   2.1549   2.2028   2.2055   2.2066   2.2066   2.2132   2.2236
     2.2262   2.2263   2.3954   2.4019   2.4491   2.4655   2.4674   2.4677
     2.4790   2.4813   2.6414   2.7184   2.7247   2.7250   2.7728   2.9690
     2.9864   3.0137   3.1694   3.5202   3.5231   3.8125   3.8185   3.8456
     3.8506   3.8540   3.8560   3.8952   3.9672   3.9745   3.9890   4.0059
     4.0064   4.0088   4.0096   4.0127   4.0128   4.2457   4.2479   4.2502
     4.2515   4.3844   4.4283   4.6061   4.7627   4.8406   4.8958   4.9013
     5.3052   5.3896   5.3993   5.4068   5.7012   5.7111   5.7225   5.7246
     5.9296   5.9315   6.2517   6.3458   6.3471   6.3888   6.4098   6.4716
     6.4770   6.4786   6.4962   6.5814   6.5940   6.6111   6.6993   6.7774
     6.7780   6.7946   6.8051   6.8280   7.0160   7.0355   7.0510   7.0677
     7.0696   7.0928   7.3570   7.3596   7.5113   7.5434   7.5502   7.6965
     7.6968   7.7098   7.7108   8.0025   8.0385   8.1148   8.1625   8.1959
     8.2075   8.2999   8.3056   8.3063   8.3325   8.3357   8.3505   8.3996
     8.4040   8.4417   8.4893   8.5478   8.5650   8.5720   8.6643   8.6650
     8.6697   8.6701   8.8140   8.8162   8.8318   8.8323   8.8377   8.8407
     9.1075   9.1100   9.1101   9.1168   9.1202   9.1416   9.1736   9.3251
     9.3438   9.3466   9.4241   9.4802   9.4903   9.5783   9.5789   9.6617
     9.6701   9.8311   9.8314  10.0430  10.0439  10.1261  10.1781

          k = 0.0000-0.2165 0.0000 (256176 PWs)   bands (ev):

   -17.2740 -16.3025 -15.8948 -15.6602 -15.0736 -14.6786 -14.3572 -14.3398
   -14.2661 -14.2318 -13.8306 -13.7655 -13.7161 -13.7019 -12.5972 -12.4461
   -12.3925 -12.3035 -12.1478 -12.0811 -10.6502 -10.5533 -10.5215 -10.3933
    -9.4556  -9.4358  -9.3037  -9.1302  -8.9803  -8.9566  -8.4036  -8.2854
    -8.2142  -8.1597  -7.4805  -7.3434  -7.0147  -6.9721  -6.9043  -6.8952
    -6.8592  -6.8347  -6.1882  -6.0830  -5.8903  -5.8824  -5.5162  -5.3906
    -5.2833  -5.2143  -5.1372  -4.9646  -4.9121  -4.8410  -4.8377  -4.7405
    -4.6821  -4.6325  -4.6143  -4.4707  -4.1529  -4.0479  -3.8283  -3.6937
    -3.6622  -3.5907  -3.3151  -3.3049  -3.3018  -3.3009  -3.2487  -3.2267
    -3.1372  -3.0910  -3.0675  -3.0500  -3.0381  -3.0306  -3.0025  -2.9007
    -2.8702  -2.8668  -2.8295  -2.7899  -2.7737  -2.7121  -2.6961  -2.6017
    -2.5879  -2.5875  -2.5784  -2.5780  -2.5773  -2.5771  -2.4739  -2.3699
    -2.3369  -2.3326  -2.2518  -2.2508  -2.2477  -2.2445  -2.1478  -2.1452
    -2.1448  -2.1441  -2.0850  -2.0408  -1.9864  -1.9863  -1.9609  -1.9609
    -1.8772  -1.8643  -1.8573  -1.8071  -1.7888  -1.7865  -1.7683  -1.7675
    -1.7495  -1.7493  -1.7404  -1.7404  -1.7224  -1.7222  -1.6452  -1.6451
    -1.6255  -1.5858  -1.5710  -1.5692  -1.5607  -1.4675  -1.4667  -1.4625
    -1.4620  -1.3767  -1.3760  -1.3706  -1.3703  -1.3692  -1.3165  -1.3164
    -1.2795  -1.2788  -1.2747  -1.2744  -1.2720  -1.2720  -1.2539  -1.2480
    -1.2287  -1.2285  -1.2234  -1.2226  -1.2129  -1.2115  -1.1700  -1.1526
    -1.1495  -1.1492  -1.1327  -1.1324  -1.0887  -1.0885  -1.0504  -1.0503
    -1.0472  -1.0471  -1.0039  -1.0028  -0.9835  -0.9833  -0.9825  -0.9821
    -0.9778  -0.9776  -0.9270  -0.9265  -0.9192  -0.9186  -0.9105  -0.9104
    -0.9007  -0.8984  -0.8970  -0.8966  -0.8363  -0.8278  -0.8278  -0.8183
    -0.8182  -0.8171  -0.8162  -0.8154  -0.7957  -0.7952  -0.7820  -0.7807
    -0.7543  -0.7542  -0.7514  -0.7502  -0.6544  -0.6544  -0.6541  -0.6540
    -0.6333  -0.6330  -0.6253  -0.6076  -0.6070  -0.6058  -0.6054  -0.6012
    -0.6012  -0.5877  -0.5751  -0.5748  -0.5415  -0.5411  -0.5401  -0.5395
    -0.5376  -0.5361  -0.5346  -0.5329  -0.5036  -0.5035  -0.4837  -0.4837
    -0.4817  -0.4674  -0.4483  -0.4474  -0.4473  -0.4465  -0.4456  -0.4356
    -0.4352  -0.4351  -0.4348  -0.4151  -0.3578  -0.3572  -0.3571  -0.3569
    -0.3554  -0.3282  -0.3250  -0.3038  -0.3033  -0.3023  -0.2990  -0.2965
    -0.2963  -0.2951  -0.2769  -0.2691  -0.2690  -0.2686  -0.2678  -0.2602
    -0.2534  -0.2475  -0.2468  -0.2465  -0.2457  -0.2430  -0.2430  -0.2332
    -0.2327  -0.2067  -0.2065  -0.2045  -0.2043  -0.2004  -0.1917  -0.1805
    -0.1419  -0.1405  -0.1402  -0.1388  -0.1317  -0.1308  -0.1282  -0.1278
    -0.1208  -0.1181  -0.1082  -0.1028  -0.0882  -0.0880  -0.0859  -0.0856
    -0.0773  -0.0771  -0.0741  -0.0738  -0.0737  -0.0730  -0.0531  -0.0171
    -0.0169  -0.0131  -0.0129   0.0025   0.0031   0.0059   0.0059   0.0114
     0.0114   0.0143   0.0287   0.0300   0.0300   0.0310   0.0438   0.0468
     0.0587   0.0597   0.0757   0.0760   0.0762   0.0765   0.0943   0.0959
     0.1111   0.1112   0.1221   0.1223   0.1347   0.1354   0.1355   0.1364
     0.1798   0.1807   0.1838   0.1845   0.1959   0.1967   0.2018   0.2020
     0.2291   0.2293   0.2629   0.2631   0.2644   0.2660   0.2985   0.3004
     0.3005   0.3347   0.3858   0.3860   0.3870   0.3871   0.3962   0.4130
     0.4134   0.4138   0.4142   0.4251   0.4409   0.4468   0.4542   0.4551
     0.4552   0.4553   0.4566   0.4571   0.4619   0.4668   0.4773   0.4780
     0.4790   0.4792   0.4815   0.4821   0.4833   0.4849   0.5164   0.5165
     0.5278   0.5281   0.5282   0.5285   0.5361   0.5362   0.5549   0.5551
     0.5569   0.5572   0.5579   0.5582   0.5586   0.5588   0.5592   0.5603
     0.5817   0.5820   0.5832   0.5838   0.5840   0.5849   0.5855   0.5856
     0.6017   0.6018   0.6446   0.6453   0.6569   0.6572   0.6672   0.6683
     0.6689   0.6697   0.6748   0.6757   0.6763   0.6769   0.6820   0.6825
     0.6834   0.6834   0.7242   0.7245   0.7246   0.7247   0.7414   0.7417
     0.7421   0.7431   0.7432   0.7451   0.7548   0.7587   0.7752   0.7759
     0.7809   0.7813   0.7825   0.7828   0.8343   0.8348   0.8847   0.8861
     0.8919   0.8939   0.8944   0.8955   0.9030   0.9043   0.9108   0.9110
     0.9170   0.9177   0.9208   0.9244   0.9263   0.9267   0.9368   0.9391
     0.9415   0.9417   0.9423   0.9429   0.9528   0.9544   0.9575   0.9666
     0.9666   0.9683   0.9690   0.9710   0.9711   0.9744   0.9778   0.9779
     0.9894   0.9894   0.9904   0.9917   0.9930   0.9934   1.0113   1.0115
     1.0242   1.0244   1.0250   1.0264   1.0288   1.0301   1.0386   1.0388
     1.0397   1.0399   1.0405   1.0407   1.0767   1.0892   1.0943   1.1158
     1.1274   1.1275   1.1415   1.1438   1.1471   1.1529   1.1546   1.1566
     1.1701   1.1704   1.1851   1.1864   1.1911   1.1934   1.1944   1.1968
     1.1975   1.1982   1.1987   1.1994   1.2007   1.2019   1.2028   1.2035
     1.2103   1.2105   1.2208   1.2245   1.2299   1.2302   1.2310   1.2318
     1.2400   1.2412   1.2666   1.2698   1.2699   1.2703   1.2767   1.2768
     1.2792   1.2799   1.2905   1.2959   1.2969   1.2970   1.3105   1.3110
     1.3135   1.3144   1.3149   1.3155   1.3319   1.3325   1.3334   1.3339
     1.3512   1.3518   1.3522   1.3548   1.3709   1.3726   1.3780   1.3789
     1.3799   1.3799   1.3950   1.3951   1.3953   1.3955   1.4121   1.4126
     1.4264   1.4266   1.4270   1.4288   1.4467   1.4471   1.4484   1.4496
     1.4501   1.4503   1.4510   1.4516   1.4791   1.4792   1.4873   1.4877
     1.4965   1.4969   1.5047   1.5049   1.5184   1.5195   1.5197   1.5202
     1.5289   1.5289   1.5410   1.5411   1.5787   1.5860   1.5878   1.5884
     1.6774   1.6893   1.6978   1.7139   1.7167   1.7291   1.7306   1.7332
     1.7837   1.7867   1.7928   1.7941   1.8089   1.8117   1.8126   1.8141
     1.8534   1.8535   1.8783   2.0560   2.0698   2.0917   2.4122   2.4149
     2.4192   2.4194   2.4960   2.4984   2.5555   2.5623   2.5648   2.5659
     2.5809   2.5810   2.7095   2.7113   2.7565   2.7608   2.7795   2.7803
     2.9234   2.9244   3.1684   3.1698   3.1706   3.1869   3.3942   3.4151
     3.6005   3.6708   3.6766   3.9014   3.9318   3.9479   4.0965   4.1035
     4.1068   4.1070   4.3219   4.3263   4.3272   4.3275   4.4966   4.5003
     4.6616   4.6901   4.7646   4.7706   4.9199   5.0676   5.0995   5.1028
     5.2886   5.3580   5.3593   5.3604   5.3609   5.4312   5.5162   5.6538
     5.6819   5.7199   5.7990   5.8025   6.3804   6.3891   6.4264   6.4307
     6.4392   6.4452   6.5486   6.5553   6.6650   6.6684   6.7923   6.8101
     6.9973   7.0126   7.0380   7.0464   7.0712   7.0811   7.1176   7.1215
     7.1333   7.1346   7.2499   7.3366   7.3415   7.3799   7.4188   7.4189
     7.5384   7.6019   7.6686   7.6967   7.7326   7.7634   8.1424   8.1446
     8.3417   8.3559   8.3575   8.4237   8.4271   8.4289   8.4329   8.4486
     8.4486   8.4840   8.6391   8.6494   8.7129   8.7143   8.7174   8.7203
     8.7590   8.7631   8.8864   8.9184   8.9331   9.0115   9.0247   9.0546
     9.1432   9.1554   9.2366   9.2381   9.2812   9.3147   9.3856   9.3861
     9.3866   9.3871   9.4596   9.4603   9.4825   9.4845   9.4870   9.4932
     9.6629   9.6685   9.7873   9.7882   9.8227   9.8896   9.8898

          k = 0.2500 0.0000 0.0000 (256240 PWs)   bands (ev):

   -17.2225 -16.1273 -15.9655 -15.6633 -15.1432 -15.0051 -14.9462 -14.8947
   -14.1122 -13.9534 -13.7706 -13.2452 -13.1749 -13.0926 -13.0448 -12.3431
   -12.2377 -12.1566 -12.0755 -11.2349 -11.1419 -10.7903 -10.6719 -10.3607
   -10.2270  -9.9547  -9.9022  -9.5082  -9.2554  -9.1595  -8.6807  -7.9884
    -7.7987  -7.7306  -7.5657  -7.5435  -7.4470  -7.0940  -6.9763  -6.3008
    -6.2189  -6.0439  -5.9698  -5.9152  -5.8415  -5.4535  -5.3283  -5.3111
    -5.3025  -5.1619  -4.9238  -4.7424  -4.6330  -4.5445  -4.4686  -4.4639
    -4.4621  -4.4267  -4.3731  -4.2288  -4.1362  -4.0009  -4.0006  -3.9972
    -3.9107  -3.8446  -3.8403  -3.8120  -3.7953  -3.6284  -3.6021  -3.5738
    -3.5254  -3.4794  -3.4064  -3.4043  -3.2785  -3.2347  -3.2135  -3.1984
    -3.1422  -3.0362  -2.9569  -2.8959  -2.7996  -2.7986  -2.7915  -2.7526
    -2.6556  -2.6260  -2.6220  -2.5070  -2.4010  -2.3945  -2.3454  -2.3373
    -2.1260  -2.0991  -2.0973  -2.0822  -2.0798  -2.0600  -2.0034  -1.9899
    -1.9819  -1.8980  -1.8948  -1.8411  -1.8039  -1.8015  -1.7991  -1.7938
    -1.7938  -1.7851  -1.7736  -1.7459  -1.7348  -1.7253  -1.7192  -1.7174
    -1.7116  -1.6529  -1.6467  -1.6032  -1.5884  -1.5828  -1.5810  -1.5784
    -1.5780  -1.5775  -1.5468  -1.5263  -1.5148  -1.5038  -1.5018  -1.4908
    -1.4888  -1.3724  -1.3362  -1.3292  -1.3128  -1.2726  -1.2697  -1.2641
    -1.2440  -1.2429  -1.2378  -1.2357  -1.2299  -1.2198  -1.2076  -1.1991
    -1.1916  -1.1849  -1.1835  -1.1779  -1.1576  -1.1401  -1.1356  -1.1338
    -1.1335  -1.1316  -1.1163  -1.1118  -1.1109  -1.0912  -1.0767  -1.0675
    -1.0509  -1.0493  -1.0468  -1.0464  -1.0417  -1.0211  -1.0132  -1.0120
    -1.0042  -1.0014  -0.9963  -0.9931  -0.9815  -0.9814  -0.9811  -0.9802
    -0.9759  -0.9755  -0.9643  -0.9530  -0.9503  -0.9485  -0.9451  -0.9400
    -0.9210  -0.9017  -0.9003  -0.8955  -0.8527  -0.8520  -0.8161  -0.8161
    -0.7969  -0.7955  -0.7858  -0.7709  -0.7705  -0.7574  -0.7545  -0.7522
    -0.7498  -0.7425  -0.7414  -0.7221  -0.6079  -0.6027  -0.5997  -0.5967
    -0.5682  -0.5680  -0.5663  -0.5511  -0.5498  -0.5493  -0.5479  -0.5359
    -0.5305  -0.5272  -0.5267  -0.5266  -0.5175  -0.5061  -0.4931  -0.4878
    -0.4847  -0.4845  -0.4817  -0.4809  -0.4606  -0.4606  -0.4573  -0.4022
    -0.3993  -0.3993  -0.3965  -0.3912  -0.3893  -0.3805  -0.3802  -0.3760
    -0.3563  -0.3562  -0.3383  -0.3330  -0.3330  -0.3313  -0.3277  -0.3046
    -0.2948  -0.2946  -0.2919  -0.2884  -0.2815  -0.2814  -0.2708  -0.2692
    -0.2632  -0.2592  -0.2447  -0.2381  -0.2297  -0.2074  -0.2020  -0.1992
    -0.1985  -0.1966  -0.1958  -0.1822  -0.1801  -0.1799  -0.1795  -0.1658
    -0.1621  -0.1519  -0.1518  -0.1393  -0.1372  -0.1267  -0.1125  -0.1105
    -0.1105  -0.0658  -0.0636  -0.0631  -0.0548  -0.0548  -0.0446  -0.0233
    -0.0192  -0.0185  -0.0122  -0.0115  -0.0105  -0.0063   0.0013   0.0038
     0.0048   0.0061   0.0076   0.0083   0.0129   0.0195   0.0297   0.0332
     0.0337   0.0393   0.0396   0.0568   0.0587   0.0597   0.0671   0.0756
     0.0767   0.0934   0.1139   0.1147   0.1164   0.1168   0.1185   0.1233
     0.1363   0.1393   0.1418   0.1423   0.1426   0.1453   0.1773   0.1786
     0.1951   0.2538   0.2539   0.2553   0.2649   0.2715   0.2742   0.2751
     0.2762   0.2774   0.2825   0.2829   0.2843   0.2867   0.2878   0.2889
     0.2955   0.3049   0.3071   0.3074   0.3090   0.3211   0.3216   0.3266
     0.3290   0.3337   0.3358   0.3584   0.3603   0.3617   0.3832   0.3874
     0.3958   0.4054   0.4137   0.4250   0.4254   0.4434   0.4436   0.4440
     0.4474   0.4565   0.4607   0.4774   0.4802   0.4807   0.4854   0.4857
     0.4908   0.4919   0.4961   0.4962   0.5173   0.5201   0.5240   0.5298
     0.5409   0.5446   0.5448   0.5514   0.5517   0.5520   0.5553   0.5555
     0.5745   0.5794   0.5800   0.5917   0.5928   0.5936   0.5944   0.5968
     0.6101   0.6105   0.6138   0.6180   0.6181   0.6376   0.6378   0.6540
     0.6571   0.6635   0.6640   0.6666   0.6694   0.6722   0.6874   0.6940
     0.7013   0.7050   0.7238   0.7288   0.7369   0.7409   0.7424   0.7453
     0.7456   0.7512   0.7658   0.7711   0.7740   0.7785   0.7793   0.7842
     0.7899   0.7932   0.8035   0.8049   0.8154   0.8246   0.8247   0.8257
     0.8503   0.8519   0.8557   0.8564   0.8575   0.8795   0.8812   0.8891
     0.8923   0.8933   0.8940   0.8942   0.8990   0.9016   0.9039   0.9056
     0.9149   0.9370   0.9469   0.9506   0.9534   0.9548   0.9551   0.9682
     0.9699   0.9897   0.9910   0.9920   0.9931   0.9999   1.0010   1.0023
     1.0159   1.0170   1.0184   1.0189   1.0221   1.0225   1.0231   1.0250
     1.0276   1.0306   1.0314   1.0330   1.0398   1.0424   1.0539   1.0590
     1.0609   1.0626   1.0684   1.0691   1.0694   1.0762   1.0768   1.0902
     1.0907   1.1032   1.1063   1.1077   1.1088   1.1117   1.1214   1.1225
     1.1330   1.1363   1.1369   1.1440   1.1478   1.1537   1.1572   1.1578
     1.1604   1.1740   1.1838   1.1896   1.1913   1.1921   1.1951   1.2258
     1.2294   1.2335   1.2398   1.2428   1.2451   1.2524   1.2531   1.2536
     1.2542   1.2617   1.2629   1.2681   1.2754   1.2764   1.2793   1.2794
     1.2961   1.2974   1.3007   1.3008   1.3062   1.3117   1.3128   1.3138
     1.3161   1.3167   1.3208   1.3223   1.3238   1.3248   1.3326   1.3374
     1.3455   1.3497   1.3512   1.3519   1.3556   1.3560   1.3602   1.3644
     1.3717   1.3800   1.3803   1.3816   1.4035   1.4039   1.4124   1.4169
     1.4190   1.4227   1.4229   1.4255   1.4269   1.4271   1.4337   1.4342
     1.4349   1.4406   1.4413   1.4463   1.4622   1.4630   1.4642   1.4650
     1.4657   1.4696   1.4702   1.4827   1.4832   1.4895   1.4944   1.5000
     1.5059   1.5065   1.5091   1.5114   1.5144   1.5160   1.5460   1.5526
     1.5600   1.5720   1.5818   1.6235   1.6252   1.6286   1.6418   1.6549
     1.6632   1.7390   1.7538   1.7619   1.7627   1.7824   1.7940   1.8002
     1.8369   1.9617   2.0307   2.0589   2.0689   2.0801   2.0856   2.0874
     2.1891   2.2478   2.2534   2.5595   2.5615   2.5637   2.5660   2.9752
     2.9754   3.0065   3.1929   3.1936   3.2178   3.2179   3.2581   3.2793
     3.4512   3.4675   3.5501   3.5800   3.6032   3.6283   3.6565   3.6989
     3.7079   3.7162   3.7214   3.8048   3.8691   3.8720   3.9669   3.9699
     4.0509   4.1764   4.1852   4.1908   4.2796   4.3395   4.4140   4.5356
     4.7521   4.8083   4.8274   5.1057   5.1553   5.2182   5.2196   5.2286
     5.2588   5.3491   5.4618   5.4653   5.5063   5.5526   5.5825   5.5951
     5.6405   5.6751   5.6830   5.7310   5.7368   5.7963   5.8240   5.8279
     6.0082   6.0110   6.0361   6.0440   6.4256   6.5844   6.6891   6.6972
     6.7038   6.7516   6.7527   6.7791   6.8667   6.9400   7.0149   7.0352
     7.0507   7.0519   7.0685   7.2403   7.2415   7.3015   7.3042   7.5009
     7.5112   7.5185   7.5555   7.5687   7.6787   7.7620   7.7646   7.7951
     7.9977   8.0083   8.0171   8.0615   8.1022   8.1825   8.2004   8.2081
     8.2562   8.2626   8.3122   8.3132   8.3928   8.3991   8.4431   8.4715
     8.6440   8.6457   8.9438   8.9553   8.9846   8.9873   9.0073   9.1435
     9.1712   9.1888   9.2117   9.2269   9.2273   9.2559   9.2720   9.3370
     9.4058   9.4066   9.4385   9.4430   9.4888   9.5090   9.6374   9.6777
     9.7173   9.7201   9.8222   9.8305   9.8352   9.8455   9.9432

          k = 0.2500-0.2165 0.0000 (256316 PWs)   bands (ev):

   -17.2221 -16.1787 -15.8739 -15.5404 -15.4594 -15.1911 -14.7119 -14.5641
   -14.2556 -14.1161 -13.7226 -13.2667 -13.2507 -13.1625 -12.7675 -12.6635
   -12.1517 -12.0253 -11.5141 -11.4319 -11.2815 -11.1262 -10.9628 -10.6230
    -9.8694  -9.7857  -9.3877  -9.3588  -9.1024  -9.0520  -8.6774  -8.6260
    -8.4723  -8.4255  -7.3031  -7.0265  -6.8290  -6.6699  -6.6017  -6.5039
    -6.4505  -6.3187  -6.0854  -6.0323  -5.7131  -5.7042  -5.4256  -5.2556
    -5.1604  -5.0713  -4.9344  -4.8020  -4.6779  -4.6745  -4.5433  -4.5400
    -4.4816  -4.3493  -4.3457  -4.3166  -4.1863  -4.1623  -4.1493  -4.0493
    -3.9019  -3.7746  -3.7616  -3.7387  -3.5859  -3.5617  -3.5012  -3.4596
    -3.4580  -3.4549  -3.3627  -3.2920  -3.2539  -3.1955  -3.1425  -3.1037
    -3.0297  -2.9434  -2.9422  -2.9243  -2.9105  -2.9089  -2.8612  -2.8164
    -2.6943  -2.6572  -2.6039  -2.5050  -2.3344  -2.3136  -2.3117  -2.2685
    -2.1864  -2.1807  -2.1686  -2.1685  -2.1047  -2.0682  -2.0097  -2.0095
    -1.9777  -1.9762  -1.9723  -1.9690  -1.8928  -1.8300  -1.8221  -1.8128
    -1.8127  -1.7809  -1.7592  -1.7522  -1.7295  -1.7239  -1.7225  -1.7096
    -1.7094  -1.6930  -1.6786  -1.6775  -1.6762  -1.6760  -1.6671  -1.6669
    -1.5821  -1.5821  -1.5505  -1.4688  -1.4675  -1.3775  -1.3697  -1.3663
    -1.3618  -1.3299  -1.3297  -1.2775  -1.2773  -1.2692  -1.2626  -1.2625
    -1.2492  -1.2487  -1.2414  -1.2396  -1.2251  -1.2243  -1.2129  -1.2127
    -1.2104  -1.2040  -1.2005  -1.1986  -1.1871  -1.1870  -1.1732  -1.1334
    -1.1307  -1.1272  -1.1257  -1.1190  -1.1154  -1.1142  -1.1115  -1.0938
    -1.0829  -1.0815  -1.0396  -1.0394  -1.0356  -1.0297  -1.0262  -1.0238
    -0.9963  -0.9962  -0.9733  -0.9724  -0.9618  -0.9615  -0.9607  -0.9561
    -0.9556  -0.9520  -0.9511  -0.9341  -0.9240  -0.9239  -0.9142  -0.9050
    -0.8867  -0.8679  -0.8678  -0.8623  -0.8620  -0.8249  -0.7780  -0.7779
    -0.7738  -0.7737  -0.7707  -0.7692  -0.7242  -0.7213  -0.7139  -0.7123
    -0.7113  -0.7060  -0.7055  -0.6944  -0.6936  -0.6778  -0.6530  -0.6520
    -0.6150  -0.6147  -0.5798  -0.5684  -0.5664  -0.5663  -0.5631  -0.5609
    -0.5335  -0.5332  -0.5208  -0.5202  -0.5019  -0.5007  -0.4928  -0.4901
    -0.4883  -0.4723  -0.4607  -0.4584  -0.4517  -0.4495  -0.4428  -0.4426
    -0.4085  -0.4079  -0.4074  -0.3961  -0.3936  -0.3877  -0.3826  -0.3803
    -0.3680  -0.3675  -0.3631  -0.3630  -0.3572  -0.3558  -0.3518  -0.3517
    -0.3339  -0.3337  -0.3174  -0.3174  -0.2930  -0.2888  -0.2748  -0.2736
    -0.2609  -0.2566  -0.2399  -0.2399  -0.2350  -0.2309  -0.2177  -0.2173
    -0.2131  -0.2128  -0.1833  -0.1809  -0.1547  -0.1541  -0.1522  -0.1179
    -0.1177  -0.1090  -0.1088  -0.1049  -0.1037  -0.0875  -0.0873  -0.0849
    -0.0701  -0.0697  -0.0580  -0.0564  -0.0487  -0.0476  -0.0427  -0.0424
    -0.0402  -0.0398  -0.0144  -0.0134  -0.0118  -0.0057  -0.0040  -0.0029
    -0.0024  -0.0011  -0.0006   0.0012   0.0054   0.0077   0.0313   0.0317
     0.0318   0.0318   0.0407   0.0653   0.0656   0.0729   0.0738   0.0742
     0.0774   0.0977   0.0990   0.1048   0.1155   0.1313   0.1317   0.1321
     0.1407   0.1412   0.1519   0.1522   0.1550   0.1557   0.1690   0.1691
     0.1756   0.1762   0.2048   0.2052   0.2676   0.2693   0.2796   0.2816
     0.2821   0.2833   0.2838   0.2872   0.2874   0.2889   0.2927   0.2930
     0.3080   0.3170   0.3171   0.3192   0.3202   0.3268   0.3299   0.3316
     0.3344   0.3344   0.3662   0.3671   0.3810   0.3816   0.3845   0.3951
     0.3995   0.4021   0.4256   0.4427   0.4437   0.4471   0.4510   0.4525
     0.4575   0.4576   0.4679   0.4691   0.4692   0.4783   0.4796   0.4809
     0.4814   0.4819   0.4870   0.5120   0.5128   0.5183   0.5187   0.5343
     0.5346   0.5519   0.5667   0.5673   0.5679   0.5693   0.5994   0.6010
     0.6038   0.6045   0.6075   0.6086   0.6125   0.6145   0.6247   0.6268
     0.6280   0.6296   0.6334   0.6364   0.6482   0.6485   0.6583   0.6599
     0.6680   0.6682   0.6710   0.6711   0.6786   0.6802   0.6825   0.6866
     0.6890   0.6893   0.7023   0.7055   0.7098   0.7108   0.7160   0.7165
     0.7186   0.7191   0.7208   0.7215   0.7536   0.7560   0.7672   0.7676
     0.7825   0.7889   0.8030   0.8068   0.8226   0.8234   0.8245   0.8248
     0.8293   0.8309   0.8318   0.8536   0.8538   0.8541   0.8542   0.8554
     0.8558   0.8605   0.8672   0.8774   0.8832   0.8838   0.8920   0.8952
     0.8989   0.9047   0.9114   0.9286   0.9286   0.9414   0.9513   0.9519
     0.9579   0.9602   0.9643   0.9646   0.9710   0.9711   0.9754   0.9901
     0.9979   1.0031   1.0073   1.0172   1.0184   1.0281   1.0304   1.0379
     1.0467   1.0586   1.0618   1.0649   1.0794   1.0805   1.0864   1.0869
     1.0893   1.0895   1.0908   1.0909   1.0952   1.0954   1.1049   1.1054
     1.1152   1.1153   1.1161   1.1181   1.1361   1.1369   1.1572   1.1658
     1.1660   1.1699   1.1705   1.1732   1.1744   1.1753   1.1787   1.1844
     1.1879   1.1895   1.1907   1.1915   1.1966   1.1992   1.2010   1.2019
     1.2086   1.2096   1.2178   1.2207   1.2232   1.2235   1.2244   1.2247
     1.2364   1.2371   1.2447   1.2452   1.2677   1.2692   1.2776   1.2779
     1.2841   1.2916   1.2936   1.2961   1.3067   1.3098   1.3108   1.3129
     1.3189   1.3218   1.3303   1.3309   1.3348   1.3365   1.3442   1.3453
     1.3476   1.3479   1.3566   1.3597   1.3603   1.3704   1.3795   1.3810
     1.3811   1.3814   1.3865   1.3873   1.3918   1.3918   1.4001   1.4051
     1.4053   1.4096   1.4115   1.4185   1.4192   1.4225   1.4262   1.4334
     1.4371   1.4373   1.4373   1.4422   1.4441   1.4442   1.4468   1.4483
     1.4533   1.4535   1.4781   1.4782   1.4858   1.4860   1.4964   1.5007
     1.5185   1.5194   1.5265   1.5268   1.5291   1.5496   1.5500   1.5567
     1.5569   1.5753   1.5826   1.5903   1.6143   1.6454   1.6617   1.6631
     1.7095   1.7481   1.7577   1.7618   1.7717   1.7815   1.7857   1.7862
     1.7864   1.8112   1.8355   1.8431   2.1244   2.1252   2.1554   2.1570
     2.2819   2.2864   2.5814   2.5830   2.7767   2.7833   2.7868   2.7875
     2.7960   2.7998   2.8282   2.8317   2.9783   2.9822   3.0652   3.0790
     3.5187   3.5357   3.5840   3.6045   3.6530   3.6748   3.7795   3.8356
     3.8395   3.8445   3.8770   3.9892   3.9921   4.0569   4.0774   4.1589
     4.1611   4.3241   4.3719   4.3732   4.4387   4.5439   4.5458   4.6128
     4.6709   4.6773   4.6999   4.7231   4.9192   4.9251   4.9843   5.0044
     5.0197   5.1308   5.2635   5.2790   5.3952   5.4339   5.4396   5.4514
     5.4538   5.4728   5.7303   5.7589   5.8151   5.8823   5.8934   5.9505
     5.9545   5.9718   6.5563   6.5896   6.6074   6.6146   6.7447   6.7467
     6.8354   6.8500   6.8775   7.0233   7.0270   7.0469   7.0731   7.0867
     7.0980   7.1088   7.1884   7.2128   7.2144   7.3236   7.3269   7.3288
     7.3311   7.3981   7.4369   7.4379   7.6583   7.6645   7.7595   7.7878
     7.7905   7.8638   7.9780   7.9822   8.1790   8.1902   8.2437   8.2473
     8.2613   8.3871   8.5824   8.5834   8.5948   8.6046   8.6368   8.6385
     8.7040   8.7055   8.8021   8.8140   8.9060   8.9111   8.9395   8.9431
     9.0662   9.1027   9.1349   9.1546   9.1669   9.1798   9.1906   9.2066
     9.2114   9.2617   9.2685   9.3017   9.3442   9.3526   9.4308   9.4427
     9.4471   9.4783   9.6266   9.6275   9.9545   9.9611   9.9680

          k =-0.5000 0.0000 0.0000 (256496 PWs)   bands (ev):

   -17.1604 -16.0107 -15.7429 -15.6300 -15.6081 -15.5604 -14.8130 -14.6182
   -14.5142 -14.4814 -13.2068 -12.9072 -12.7639 -12.7014 -12.4544 -12.4375
   -11.9134 -11.8906 -11.8078 -11.8011 -11.2462 -11.2062 -10.9810 -10.7498
   -10.3344 -10.3033 -10.0794  -9.7621  -9.1478  -9.1469  -8.9776  -8.9462
    -7.8155  -7.6378  -7.5888  -7.4120  -7.3678  -7.3452  -6.3054  -6.2260
    -5.8441  -5.3262  -5.3200  -5.3088  -5.1430  -4.9828  -4.9721  -4.8668
    -4.8074  -4.8036  -4.8031  -4.8014  -4.7765  -4.7612  -4.7383  -4.6918
    -4.6671  -4.5462  -4.5441  -4.4719  -4.3798  -4.3788  -4.2920  -4.0568
    -4.0165  -3.9972  -3.9694  -3.9616  -3.6914  -3.6754  -3.6057  -3.5742
    -3.5718  -3.5559  -3.4283  -3.4205  -3.4199  -3.4187  -3.4183  -3.4120
    -3.3762  -3.3641  -2.9444  -2.9355  -2.8951  -2.8526  -2.8131  -2.7888
    -2.7664  -2.7594  -2.6222  -2.6090  -2.5677  -2.4791  -2.4504  -2.4396
    -2.3068  -2.3037  -2.3028  -2.3011  -1.8792  -1.8789  -1.8785  -1.8784
    -1.8766  -1.8763  -1.8658  -1.8213  -1.7804  -1.7592  -1.7562  -1.7554
    -1.6810  -1.6507  -1.6505  -1.6502  -1.6501  -1.6024  -1.6023  -1.6013
    -1.6008  -1.5113  -1.5061  -1.4889  -1.4883  -1.4863  -1.4760  -1.4573
    -1.4286  -1.4258  -1.4255  -1.4249  -1.4065  -1.4063  -1.3574  -1.3572
    -1.3544  -1.3542  -1.3535  -1.3422  -1.3415  -1.3407  -1.3405  -1.3373
    -1.2937  -1.2921  -1.2919  -1.2907  -1.2700  -1.2682  -1.2675  -1.2674
    -1.2249  -1.2046  -1.2041  -1.1831  -1.1829  -1.1822  -1.1820  -1.1587
    -1.1557  -1.1539  -1.1519  -1.1510  -1.1506  -1.1504  -1.1083  -1.1078
    -1.1068  -1.1068  -1.0861  -1.0858  -1.0745  -1.0583  -1.0557  -1.0555
    -1.0094  -1.0092  -1.0068  -0.9812  -0.9810  -0.9794  -0.9794  -0.9550
    -0.9534  -0.9525  -0.9510  -0.9485  -0.9460  -0.9436  -0.9318  -0.9314
    -0.9292  -0.9291  -0.9100  -0.9020  -0.8931  -0.8406  -0.8399  -0.8382
    -0.8380  -0.7946  -0.7945  -0.7125  -0.7117  -0.7114  -0.7109  -0.7028
    -0.6869  -0.6807  -0.6730  -0.6729  -0.6719  -0.6719  -0.6682  -0.6624
    -0.6379  -0.6320  -0.6307  -0.6292  -0.6208  -0.6178  -0.6079  -0.6034
    -0.6009  -0.5996  -0.5696  -0.5324  -0.5197  -0.5113  -0.4840  -0.4729
    -0.4657  -0.4647  -0.4563  -0.4562  -0.4302  -0.4156  -0.4134  -0.4099
    -0.4062  -0.4059  -0.4043  -0.4042  -0.3902  -0.3822  -0.3682  -0.3680
    -0.3679  -0.3676  -0.3292  -0.3291  -0.3283  -0.3281  -0.3013  -0.2957
    -0.2955  -0.2955  -0.2933  -0.2839  -0.2839  -0.2553  -0.2510  -0.2510
    -0.2498  -0.2496  -0.2481  -0.2407  -0.2196  -0.2113  -0.2089  -0.2010
    -0.1846  -0.1361  -0.1352  -0.1350  -0.1345  -0.1287  -0.1286  -0.1278
    -0.1275  -0.0884  -0.0882  -0.0864  -0.0858  -0.0650  -0.0521  -0.0518
    -0.0258  -0.0256  -0.0237  -0.0234  -0.0220  -0.0217  -0.0212  -0.0200
    -0.0198  -0.0198  -0.0193  -0.0193   0.0562   0.0574   0.0606   0.0641
     0.0659   0.0674   0.0722   0.0724   0.0727   0.0728   0.0778   0.0778
     0.0796   0.0800   0.0835   0.0841   0.0873   0.0888   0.1021   0.1022
     0.1154   0.1162   0.1167   0.1167   0.1169   0.1169   0.1231   0.1275
     0.1281   0.1281   0.1294   0.1401   0.1408   0.1444   0.1528   0.1530
     0.1536   0.1538   0.1710   0.1831   0.1834   0.1981   0.2458   0.2656
     0.2861   0.2863   0.2881   0.2881   0.3186   0.3196   0.3200   0.3208
     0.3344   0.3349   0.3394   0.3402   0.3444   0.3451   0.3452   0.3460
     0.3494   0.3501   0.3513   0.3522   0.3525   0.3526   0.3667   0.3669
     0.3693   0.3775   0.3801   0.3820   0.3891   0.3900   0.3953   0.3955
     0.4023   0.4025   0.4294   0.4381   0.4906   0.4919   0.4920   0.4930
     0.4984   0.5008   0.5191   0.5238   0.5263   0.5268   0.5269   0.5292
     0.5297   0.5301   0.5323   0.5332   0.5346   0.5351   0.5373   0.5377
     0.5440   0.5450   0.5455   0.5459   0.5602   0.5659   0.5668   0.5835
     0.5837   0.6024   0.6069   0.6086   0.6171   0.6183   0.6215   0.6223
     0.6304   0.6307   0.6311   0.6314   0.6335   0.6340   0.6458   0.6477
     0.6515   0.6518   0.6666   0.6677   0.6689   0.6690   0.7060   0.7063
     0.7067   0.7068   0.7073   0.7074   0.7256   0.7257   0.7449   0.7561
     0.7662   0.7669   0.7676   0.7677   0.7680   0.7681   0.7992   0.8078
     0.8319   0.8340   0.8371   0.8395   0.8402   0.8403   0.8432   0.8439
     0.8474   0.8522   0.8527   0.8531   0.8533   0.8652   0.8674   0.8849
     0.8851   0.8867   0.8867   0.8956   0.9056   0.9060   0.9064   0.9067
     0.9076   0.9077   0.9431   0.9457   0.9459   0.9463   0.9566   0.9958
     1.0119   1.0122   1.0128   1.0131   1.0423   1.0454   1.0464   1.0467
     1.0484   1.0494   1.0651   1.0658   1.0759   1.0766   1.0793   1.0832
     1.0878   1.0917   1.1096   1.1104   1.1156   1.1160   1.1162   1.1167
     1.1240   1.1240   1.1252   1.1257   1.1349   1.1349   1.1358   1.1365
     1.1376   1.1381   1.1384   1.1387   1.1722   1.1745   1.1756   1.1756
     1.1834   1.2000   1.2042   1.2057   1.2111   1.2116   1.2120   1.2123
     1.2297   1.2308   1.2369   1.2405   1.2408   1.2413   1.2457   1.2509
     1.2514   1.2518   1.2518   1.2563   1.2575   1.2678   1.2729   1.2755
     1.2983   1.2988   1.3128   1.3137   1.3140   1.3144   1.3144   1.3147
     1.3147   1.3149   1.3257   1.3261   1.3284   1.3285   1.3290   1.3292
     1.3307   1.3311   1.3361   1.3362   1.3412   1.3417   1.3421   1.3422
     1.3490   1.3496   1.3641   1.3642   1.3795   1.3829   1.3830   1.3842
     1.3916   1.3917   1.3928   1.3929   1.4074   1.4095   1.4131   1.4132
     1.4285   1.4287   1.4351   1.4353   1.4427   1.4476   1.4477   1.4480
     1.4487   1.4661   1.4668   1.4688   1.4698   1.4713   1.4786   1.4788
     1.4789   1.4793   1.4871   1.4891   1.4982   1.4983   1.5125   1.5126
     1.5130   1.5130   1.5153   1.5244   1.5261   1.5263   1.5757   1.5764
     1.6057   1.6062   1.6063   1.6104   1.6111   1.6207   2.0243   2.0279
     2.0293   2.0297   2.2301   2.2330   2.2468   2.2511   2.2835   2.2837
     2.2894   2.2908   2.6025   2.6137   2.6161   2.6174   2.8280   2.8284
     2.8289   2.8340   3.1820   3.1831   3.1840   3.1861   3.4594   3.4683
     3.7102   3.7513   3.7542   3.7551   3.8750   3.9170   3.9171   3.9230
     3.9541   4.0677   4.0702   4.0716   4.0926   4.1816   4.1836   4.3815
     4.3819   4.4856   4.7278   4.7410   4.7468   4.7514   4.7976   4.8237
     4.8264   4.8550   4.9179   5.0191   5.0202   5.0413   5.0420   5.0479
     5.0482   5.0541   5.0711   5.0720   5.0989   5.0997   5.1481   5.1629
     5.4620   5.5180   5.5294   5.5383   5.6527   5.6620   5.7621   5.8260
     5.9790   5.9907   5.9926   6.0005   6.0294   6.0346   6.0396   6.0447
     6.1903   6.3957   6.4253   6.4273   6.4323   6.4452   6.4524   6.4701
     7.0916   7.0949   7.1056   7.1060   7.1216   7.1254   7.5816   7.5846
     7.5970   7.5983   7.5996   7.6004   7.6229   7.6252   7.8131   7.8156
     7.8809   7.8819   7.8844   7.8877   8.0498   8.0531   8.0534   8.0556
     8.1182   8.1222   8.1233   8.1349   8.1613   8.1942   8.6495   8.6893
     8.6912   8.7056   8.8176   8.8277   8.8309   8.8326   8.9576   8.9867
     8.9889   9.0650   9.0665   9.0720   9.0980   9.2580   9.2591   9.3721
     9.4191   9.4439   9.4926   9.4949   9.4952   9.4960   9.5127   9.5128
     9.5190   9.5207   9.5262   9.5325   9.8241   9.8309  10.0198

          k =-0.5000-0.2165 0.0000 (256328 PWs)   bands (ev):

   -17.1602 -15.9793 -15.8213 -15.7944 -15.3896 -15.2202 -15.1505 -15.1144
   -14.0569 -13.8408 -13.7091 -13.6732 -12.6793 -12.4587 -12.0039 -11.9967
   -11.9194 -11.7751 -11.6766 -11.5874 -11.5432 -11.5355 -11.4228 -11.4050
   -10.0446 -10.0368  -9.7691  -9.7239  -9.2253  -8.9135  -8.8011  -8.7571
    -8.2695  -8.2322  -8.0223  -7.9996  -6.5305  -6.3414  -6.1242  -5.9497
    -5.8386  -5.6277  -5.3884  -5.3145  -5.3046  -5.2234  -5.2107  -5.1816
    -5.1797  -5.1793  -5.0224  -5.0022  -4.9358  -4.5123  -4.3929  -4.3554
    -4.3274  -4.3171  -4.2642  -4.2141  -4.2014  -4.1984  -4.1976  -4.1971
    -4.0811  -4.0748  -3.9165  -3.8751  -3.8662  -3.8574  -3.7548  -3.7487
    -3.7045  -3.6917  -3.6038  -3.5927  -3.5817  -3.4881  -3.4660  -3.4559
    -3.1726  -3.0871  -3.0721  -3.0618  -2.6364  -2.5852  -2.5807  -2.5788
    -2.5786  -2.5783  -2.5443  -2.5282  -2.5234  -2.5233  -2.4081  -2.3534
    -2.1560  -2.1552  -2.1100  -2.1008  -2.0968  -2.0952  -2.0523  -2.0510
    -2.0201  -2.0191  -2.0173  -2.0113  -1.9332  -1.8031  -1.8028  -1.8018
    -1.8017  -1.7738  -1.7391  -1.7276  -1.5706  -1.5231  -1.5088  -1.5020
    -1.4933  -1.4933  -1.4933  -1.4932  -1.4584  -1.4558  -1.4539  -1.4534
    -1.4336  -1.4333  -1.4331  -1.4331  -1.3840  -1.3839  -1.3837  -1.3835
    -1.3821  -1.3820  -1.3815  -1.3814  -1.3585  -1.3585  -1.3583  -1.3583
    -1.3093  -1.3079  -1.3073  -1.3071  -1.3030  -1.2379  -1.2327  -1.2325
    -1.2324  -1.1908  -1.1908  -1.1907  -1.1907  -1.1716  -1.1708  -1.1707
    -1.1706  -1.1290  -1.1217  -1.1217  -1.1216  -1.1158  -1.1158  -1.1156
    -1.1155  -1.1152  -1.0972  -1.0956  -1.0920  -1.0905  -1.0572  -1.0570
    -1.0566  -1.0566  -1.0402  -1.0401  -1.0399  -1.0398  -1.0371  -1.0369
    -1.0366  -1.0365  -1.0288  -1.0168  -0.8829  -0.8819  -0.8819  -0.8816
    -0.8537  -0.8527  -0.8525  -0.8524  -0.8059  -0.7709  -0.7700  -0.7697
    -0.7693  -0.7688  -0.7681  -0.7668  -0.7628  -0.7618  -0.7612  -0.7611
    -0.7071  -0.7001  -0.6999  -0.6997  -0.6919  -0.6890  -0.6888  -0.6875
    -0.6753  -0.6674  -0.6670  -0.6668  -0.6443  -0.5816  -0.5710  -0.5710
    -0.5673  -0.5670  -0.5667  -0.5661  -0.5007  -0.4981  -0.4978  -0.4977
    -0.4835  -0.4491  -0.4486  -0.4485  -0.4472  -0.4279  -0.4278  -0.4274
    -0.4271  -0.4100  -0.3997  -0.3996  -0.3891  -0.3891  -0.3881  -0.3881
    -0.3762  -0.3489  -0.3477  -0.3476  -0.2981  -0.2736  -0.2735  -0.2730
    -0.2728  -0.2575  -0.2574  -0.2569  -0.2569  -0.2413  -0.2400  -0.2398
    -0.2350  -0.1606  -0.1589  -0.1583  -0.1574  -0.1534  -0.1531  -0.1528
    -0.1528  -0.1512  -0.1494  -0.1494  -0.1474  -0.1126  -0.1125  -0.1124
    -0.1124  -0.1005  -0.1001  -0.0996  -0.0990  -0.0964  -0.0962  -0.0955
    -0.0955  -0.0704  -0.0275  -0.0266  -0.0255  -0.0251  -0.0010   0.0002
     0.0003   0.0037   0.0496   0.0506   0.0519   0.0554   0.0620   0.0663
     0.0780   0.0798   0.0806   0.0806   0.0817   0.0871   0.0881   0.0885
     0.0889   0.0912   0.0939   0.0942   0.1005   0.1005   0.1013   0.1014
     0.1064   0.1064   0.1065   0.1066   0.1213   0.1229   0.1232   0.1233
     0.1511   0.1511   0.1512   0.1512   0.1592   0.1603   0.1613   0.1617
     0.1697   0.2095   0.2095   0.2113   0.2113   0.2136   0.2329   0.2439
     0.2441   0.2473   0.2514   0.2997   0.3141   0.3154   0.3260   0.3279
     0.3282   0.3283   0.3376   0.3413   0.3441   0.3448   0.3465   0.3498
     0.3521   0.3611   0.3612   0.3617   0.3619   0.3679   0.3686   0.3686
     0.3699   0.3701   0.3713   0.3733   0.3757   0.3917   0.3963   0.4023
     0.4435   0.4480   0.4503   0.4521   0.4570   0.4574   0.4579   0.4590
     0.4690   0.4693   0.4693   0.4697   0.5035   0.5079   0.5083   0.5089
     0.5099   0.5103   0.5106   0.5108   0.5328   0.5540   0.5542   0.5543
     0.5547   0.5617   0.5658   0.5674   0.5680   0.5682   0.5687   0.5703
     0.5762   0.5764   0.5765   0.5767   0.5894   0.5913   0.5917   0.5920
     0.6036   0.6052   0.6077   0.6080   0.6551   0.6760   0.6771   0.6788
     0.6792   0.6826   0.6830   0.6832   0.6833   0.6839   0.6855   0.6911
     0.6916   0.7023   0.7073   0.7105   0.7283   0.7287   0.7291   0.7293
     0.7309   0.7309   0.7317   0.7320   0.7661   0.7795   0.7829   0.7836
     0.7896   0.8071   0.8114   0.8118   0.8125   0.8183   0.8278   0.8315
     0.8474   0.8479   0.8485   0.8485   0.8687   0.8712   0.8731   0.8734
     0.9252   0.9256   0.9261   0.9261   0.9583   0.9584   0.9595   0.9597
     0.9962   1.0106   1.0115   1.0129   1.0143   1.0188   1.0244   1.0261
     1.0273   1.0372   1.0388   1.0392   1.0395   1.0442   1.0444   1.0444
     1.0445   1.0466   1.0474   1.0485   1.0487   1.0640   1.0672   1.0733
     1.0751   1.0753   1.0775   1.0785   1.0789   1.0793   1.0815   1.0819
     1.0930   1.0940   1.0954   1.0975   1.1184   1.1195   1.1219   1.1223
     1.1261   1.1292   1.1317   1.1330   1.1412   1.1419   1.1419   1.1425
     1.1881   1.1898   1.1936   1.1944   1.1951   1.1958   1.1959   1.1983
     1.2205   1.2211   1.2214   1.2217   1.2321   1.2360   1.2378   1.2390
     1.2422   1.2442   1.2559   1.2565   1.2701   1.2706   1.2706   1.2708
     1.2787   1.2790   1.2798   1.2806   1.2851   1.2856   1.2864   1.2864
     1.3506   1.3524   1.3526   1.3531   1.3531   1.3539   1.3541   1.3544
     1.3546   1.3593   1.3610   1.3631   1.3693   1.3700   1.3707   1.3724
     1.3767   1.3779   1.3809   1.3812   1.3840   1.3854   1.3862   1.3869
     1.3927   1.3938   1.3939   1.3942   1.3995   1.4027   1.4042   1.4047
     1.4147   1.4148   1.4149   1.4156   1.4474   1.4480   1.4480   1.4481
     1.4602   1.4622   1.4633   1.4634   1.4748   1.4766   1.4782   1.4797
     1.4984   1.5000   1.5002   1.5008   1.5427   1.5499   1.5502   1.5528
     1.5725   1.5726   1.5729   1.5732   1.6013   1.6023   1.6032   1.6034
     1.6065   1.6086   1.6092   1.6094   1.6148   1.6152   1.6158   1.6162
     1.8320   1.8331   1.8336   1.8344   2.3264   2.3378   2.3422   2.3430
     2.5542   2.5559   2.5589   2.5596   2.7866   2.7914   2.7933   2.7935
     3.0743   3.0867   3.0883   3.0894   3.4469   3.4520   3.4521   3.4524
     3.6251   3.6373   3.6411   3.6419   3.8959   3.9269   3.9280   3.9280
     3.9955   4.2236   4.2244   4.2262   4.2360   4.3265   4.3307   4.3351
     4.3403   4.5103   4.5532   4.5583   4.5604   4.5614   4.5928   4.5937
     4.7045   4.7964   4.8026   4.8795   4.8920   4.9962   5.0217   5.0745
     5.1414   5.1680   5.1710   5.1747   5.1874   5.2704   5.2876   5.2993
     5.3340   5.3342   5.3459   5.3503   5.5367   5.5934   5.7287   5.7307
     5.7460   5.7465   5.7482   5.7500   5.8515   5.8656   5.8877   5.8880
     6.7768   6.7834   6.7837   6.7840   7.1024   7.1139   7.1206   7.1215
     7.1498   7.1524   7.1527   7.1534   7.2614   7.2658   7.2693   7.2746
     7.3614   7.3653   7.3666   7.3669   7.5426   7.6021   7.6048   7.6126
     7.6686   7.9058   7.9411   7.9617   7.9712   7.9790   7.9933   8.0092
     8.2310   8.2344   8.2349   8.2423   8.2469   8.2807   8.3579   8.3656
     8.8852   8.8904   8.8906   8.8915   8.9209   8.9221   8.9226   8.9255
     8.9610   8.9647   8.9653   8.9655   9.1067   9.1102   9.1186   9.1190
     9.3084   9.3246   9.3376   9.3436   9.5231   9.5265   9.5443   9.5451
     9.5631   9.5673   9.5710   9.5743   9.9273   9.9365   9.9657

     the Fermi energy is     3.3209 ev

!    total energy              =  -12707.14768360 Ry
     Harris-Foulkes estimate   =  -12707.14768357 Ry
     estimated scf accuracy    <          3.5E-09 Ry

     The total energy is the sum of the following terms:

     one-electron contribution = -109278.38522877 Ry
     hartree contribution      =   56000.60160948 Ry
     xc contribution           =   -4447.76856608 Ry
     ewald contribution        =   45024.74683934 Ry
     Dispersion Correction     =      -2.98700982 Ry
     smearing contrib. (-TS)   =      -3.35532775 Ry

     convergence has been achieved in  46 iterations

     Writing output data file gc.save
 
     init_run     :     98.86s CPU    105.87s WALL (       1 calls)
     electrons    :  12020.78s CPU  12895.00s WALL (       1 calls)

     Called by init_run:
     wfcinit      :     96.53s CPU    103.18s WALL (       1 calls)
     potinit      :      0.36s CPU      0.37s WALL (       1 calls)

     Called by electrons:
     c_bands      :  10992.54s CPU  11760.29s WALL (      46 calls)
     sum_band     :    845.09s CPU    921.44s WALL (      46 calls)
     v_of_rho     :      2.97s CPU      3.69s WALL (      47 calls)
     newd         :      8.47s CPU     14.36s WALL (      47 calls)
     mix_rho      :    171.66s CPU    195.15s WALL (      46 calls)

     Called by c_bands:
     init_us_2    :     37.70s CPU     38.33s WALL (     558 calls)
     cegterg      :  10824.84s CPU  11586.20s WALL (     282 calls)

     Called by sum_band:
     sum_band:bec :      4.67s CPU      5.38s WALL (     276 calls)
     addusdens    :      8.20s CPU     14.03s WALL (      46 calls)

     Called by *egterg:
     h_psi        :   4088.24s CPU   4432.71s WALL (    1759 calls)
     s_psi        :    967.66s CPU    979.50s WALL (    1759 calls)
     g_psi        :     10.19s CPU     10.18s WALL (    1471 calls)
     cdiaghg      :   2873.81s CPU   2992.26s WALL (    1747 calls)

     Called by h_psi:
     add_vuspsi   :    972.18s CPU    985.97s WALL (    1759 calls)

     General routines
     calbec       :   1420.50s CPU   1431.26s WALL (    2035 calls)
     fft          :      2.80s CPU      3.39s WALL (     610 calls)
     ffts         :    100.69s CPU    114.74s WALL (   26939 calls)
     fftw         :   2369.63s CPU   2656.58s WALL ( 1325250 calls)
     davcio       :      0.23s CPU      5.08s WALL (       6 calls)
 
     Parallel routines
     fft_scatter  :   1541.16s CPU   1690.53s WALL ( 1352799 calls)
 
     PWSCF        :     3h22m CPU        3h36m WALL

 
   This run was terminated on:  17:31:59  26Mar2017            

=------------------------------------------------------------------------------=
   JOB DONE.
=------------------------------------------------------------------------------=
