mpirun: INFO: switching to OpenMPI runtime version 1.10.2

     Program PWSCF v.5.4.0 starts on 30Jan2018 at 11: 0:33 

     This program is part of the open-source Quantum ESPRESSO suite
     for quantum simulation of materials; please cite
         "P. Giannozzi et al., J. Phys.:Condens. Matter 21 395502 (2009);
          URL http://www.quantum-espresso.org", 
     in publications or presentations arising from this work. More details at
     http://www.quantum-espresso.org/quote

     Parallel version (MPI & OpenMP), running on      28 processor cores
     Number of MPI processes:                28
     Threads/MPI process:                     1
     R & G space division:  proc/nbgrp/npool/nimage =      28
     Waiting for input...
     Reading input from standard input
Warning: card &IONS ignored
Warning: card / ignored

     Current dimensions of program PWSCF are:
     Max number of different atomic species (ntypx) = 10
     Max number of k-points (npk) =  40000
     Max angular momentum in pseudopotentials (lmaxx) =  3

     -------------------------------------
     Parameters for Dispersion Correction:
     -------------------------------------
       atom      VdW radius       C_6     

        Cu         2.952        374.666
        C_h        2.744         60.710
        C          2.744         60.710

     Subspace diagonalization in iterative solution of the eigenvalue problem:
     one sub-group per band group will be used
     scalapack distributed-memory algorithm (size of sub-group:  3*  3 procs)

 
     Parallelization info
     --------------------
     sticks:   dense  smooth     PW     G-vecs:    dense   smooth      PW
     Min         408     408    108                73226    73226    9928
     Max         410     410    109                73231    73231    9931
     Sum       11433   11433   3039              2050409  2050409  278033
 


     bravais-lattice index     =            0
     lattice parameter (alat)  =      13.9425  a.u.
     unit-cell volume          =   21209.0878 (a.u.)^3
     number of atoms/cell      =          148
     number of atomic types    =            3
     number of electrons       =      1293.00
     number of Kohn-Sham states=          776
     kinetic-energy cutoff     =      80.0000  Ry
     charge density cutoff     =     320.0000  Ry
     convergence threshold     =      1.0E-08
     mixing beta               =       0.7000
     number of iterations used =            8  local-TF  mixing
     Exchange-correlation      =  SLA  PW   PBX  PBC ( 1  4  3  4 0 0)

     celldm(1)=  13.942539  celldm(2)=   0.000000  celldm(3)=   0.000000
     celldm(4)=   0.000000  celldm(5)=   0.000000  celldm(6)=   0.000000

     crystal axes: (cart. coord. in units of alat)
               a(1) = (   1.000000   0.000000   0.000000 )  
               a(2) = (   0.000000   2.309401   0.000000 )  
               a(3) = (   0.000000   0.000000   3.388418 )  

     reciprocal axes: (cart. coord. in units 2 pi/alat)
               b(1) = (  1.000000  0.000000  0.000000 )  
               b(2) = (  0.000000  0.433013  0.000000 )  
               b(3) = (  0.000000  0.000000  0.295123 )  


     PseudoPot. # 1 for Cu read from file:
     /home/549/hxw549/Short/pseudopotentials/Cu.pbe-n-van_ak.UPF
     MD5 check sum: 601f7c30f7467666bec936e0661ce3e1
     Pseudo is Ultrasoft + core correction, Zval = 11.0
     Generated by new atomic code, or converted to UPF format
     Using radial grid of  867 points,  6 beta functions with: 
                l(1) =   0
                l(2) =   0
                l(3) =   1
                l(4) =   1
                l(5) =   2
                l(6) =   2
     Q(r) pseudized with  8 coefficients,  rinner =    1.400   1.400   1.400
                                                       1.400   1.400

     PseudoPot. # 2 for C  read from file:
     /home/549/hxw549/Short/pseudopotentials/C.star1s-pbe-mt_gipaw.UPF
     MD5 check sum: ef0cb3dee31bd9e4ba2a832a2c716264
     Pseudo is Norm-conserving, Zval =  5.0
     Generated by new atomic code, or converted to UPF format
     Using radial grid of 1073 points,  1 beta functions with: 
                l(1) =   0

     PseudoPot. # 3 for C  read from file:
     /home/549/hxw549/Short/pseudopotentials/C.pbe-mt_gipaw.UPF
     MD5 check sum: 5ac2f21f2c440b14befe521540822c15
     Pseudo is Norm-conserving, Zval =  4.0
     Generated by new atomic code, or converted to UPF format
     Using radial grid of 1073 points,  1 beta functions with: 
                l(1) =   0

     atomic species   valence    mass     pseudopotential
        Cu            11.00    63.54600     Cu( 1.00)
        C_h            5.00    12.01070     C ( 1.00)
        C              4.00    12.01070     C ( 1.00)

     No symmetry found



   Cartesian axes

     site n.     atom                  positions (alat units)
         1           Cu  tau(   1) = (   0.0000000   0.0000567   0.9971194  )
         2           Cu  tau(   2) = (   0.2499927   0.2309760   0.9972946  )
         3           Cu  tau(   3) = (   0.5000000   0.0000313   0.9971490  )
         4           Cu  tau(   4) = (   0.7500073   0.2309760   0.9972946  )
         5           Cu  tau(   5) = (   0.0000000   0.4618437   0.9973425  )
         6           Cu  tau(   6) = (   0.2499840   0.6927701   0.9971914  )
         7           Cu  tau(   7) = (   0.5000000   0.4618722   0.9973119  )
         8           Cu  tau(   8) = (   0.7500160   0.6927701   0.9971914  )
         9           Cu  tau(   9) = (   0.0000000   0.9237521   0.9970621  )
        10           Cu  tau(  10) = (   0.2500157   1.1547420   0.9971373  )
        11           Cu  tau(  11) = (   0.5000000   0.9237453   0.9970727  )
        12           Cu  tau(  12) = (   0.7499843   1.1547420   0.9971373  )
        13           Cu  tau(  13) = (   0.0000000   1.3856555   0.9972830  )
        14           Cu  tau(  14) = (   0.2500029   1.6165618   0.9973242  )
        15           Cu  tau(  15) = (   0.5000000   1.3857014   0.9973005  )
        16           Cu  tau(  16) = (   0.7499971   1.6165618   0.9973242  )
        17           Cu  tau(  17) = (   0.0000000   1.8474941   0.9971969  )
        18           Cu  tau(  18) = (   0.2500043   2.0784518   0.9970745  )
        19           Cu  tau(  19) = (   0.5000000   1.8474499   0.9971773  )
        20           Cu  tau(  20) = (   0.7499957   2.0784518   0.9970745  )
        21           Cu  tau(  21) = (   0.0000000   0.2308065   1.2457643  )
        22           Cu  tau(  22) = (   0.2499892  -0.0001010   1.2455764  )
        23           Cu  tau(  23) = (   0.5000000   0.2308938   1.2456746  )
        24           Cu  tau(  24) = (   0.7500108  -0.0001010   1.2455764  )
        25           Cu  tau(  25) = (   0.0000000   0.6929786   1.2456406  )
        26           Cu  tau(  26) = (   0.2499874   0.4619293   1.2457459  )
        27           Cu  tau(  27) = (   0.5000000   0.6929012   1.2456074  )
        28           Cu  tau(  28) = (   0.7500126   0.4619293   1.2457459  )
        29           Cu  tau(  29) = (   0.0000000   1.1546142   1.2455676  )
        30           Cu  tau(  30) = (   0.2499981   0.9237849   1.2455149  )
        31           Cu  tau(  31) = (   0.5000000   1.1545763   1.2455800  )
        32           Cu  tau(  32) = (   0.7500019   0.9237849   1.2455149  )
        33           Cu  tau(  33) = (   0.0000000   1.6166029   1.2456910  )
        34           Cu  tau(  34) = (   0.2500161   1.3855492   1.2457134  )
        35           Cu  tau(  35) = (   0.5000000   1.6166555   1.2458019  )
        36           Cu  tau(  36) = (   0.7499839   1.3855492   1.2457134  )
        37           Cu  tau(  37) = (   0.0000000   2.0784993   1.2455162  )
        38           Cu  tau(  38) = (   0.2500161   1.8476387   1.2456210  )
        39           Cu  tau(  39) = (   0.5000000   2.0784755   1.2455152  )
        40           Cu  tau(  40) = (   0.7499839   1.8476387   1.2456210  )
        41           Cu  tau(  41) = (   0.0000000  -0.0003182   1.4954305  )
        42           Cu  tau(  42) = (   0.2500224   0.2307186   1.4951678  )
        43           Cu  tau(  43) = (   0.5000000  -0.0002059   1.4952775  )
        44           Cu  tau(  44) = (   0.7499776   0.2307186   1.4951678  )
        45           Cu  tau(  45) = (   0.0000000   0.4620254   1.4950571  )
        46           Cu  tau(  46) = (   0.2500339   0.6931225   1.4952807  )
        47           Cu  tau(  47) = (   0.5000000   0.4619896   1.4952144  )
        48           Cu  tau(  48) = (   0.7499661   0.6931225   1.4952807  )
        49           Cu  tau(  49) = (   0.0000000   0.9238798   1.4954544  )
        50           Cu  tau(  50) = (   0.2499708   1.1544329   1.4953374  )
        51           Cu  tau(  51) = (   0.5000000   0.9237633   1.4954072  )
        52           Cu  tau(  52) = (   0.7500292   1.1544329   1.4953374  )
        53           Cu  tau(  53) = (   0.0000000   1.3854453   1.4952066  )
        54           Cu  tau(  54) = (   0.2499861   1.6167017   1.4951298  )
        55           Cu  tau(  55) = (   0.5000000   1.3853760   1.4951346  )
        56           Cu  tau(  56) = (   0.7500139   1.6167017   1.4951298  )
        57           Cu  tau(  57) = (   0.0000000   1.8477718   1.4952308  )
        58           Cu  tau(  58) = (   0.2499930   2.0785254   1.4954090  )
        59           Cu  tau(  59) = (   0.5000000   1.8478762   1.4953503  )
        60           Cu  tau(  60) = (   0.7500070   2.0785254   1.4954090  )
        61           Cu  tau(  61) = (   0.0000000   0.2310733   1.7440777  )
        62           Cu  tau(  62) = (   0.2501089  -0.0001294   1.7450479  )
        63           Cu  tau(  63) = (   0.5000000   0.2306045   1.7445985  )
        64           Cu  tau(  64) = (   0.7498911  -0.0001294   1.7450479  )
        65           Cu  tau(  65) = (   0.0000000   0.6927994   1.7446059  )
        66           Cu  tau(  66) = (   0.2502918   0.4619532   1.7441197  )
        67           Cu  tau(  67) = (   0.5000000   0.6931011   1.7451318  )
        68           Cu  tau(  68) = (   0.7497082   0.4619532   1.7441197  )
        69           Cu  tau(  69) = (   0.0000000   1.1545789   1.7453503  )
        70           Cu  tau(  70) = (   0.2500220   0.9237908   1.7453835  )
        71           Cu  tau(  71) = (   0.5000000   1.1545999   1.7449118  )
        72           Cu  tau(  72) = (   0.7499780   0.9237908   1.7453835  )
        73           Cu  tau(  73) = (   0.0000000   1.6167791   1.7444075  )
        74           Cu  tau(  74) = (   0.2497438   1.3855115   1.7442733  )
        75           Cu  tau(  75) = (   0.5000000   1.6164906   1.7439233  )
        76           Cu  tau(  76) = (   0.7502562   1.3855115   1.7442733  )
        77           Cu  tau(  77) = (   0.0000000   2.0782721   1.7455014  )
        78           Cu  tau(  78) = (   0.2498426   1.8476765   1.7447807  )
        79           Cu  tau(  79) = (   0.5000000   2.0787016   1.7454002  )
        80           Cu  tau(  80) = (   0.7501574   1.8476765   1.7447807  )
        81           Cu  tau(  81) = (   0.0000000   0.0010732   1.9906710  )
        82           Cu  tau(  82) = (   0.2503054   0.2314650   1.9904877  )
        83           Cu  tau(  83) = (   0.5000000   0.0001335   1.9924670  )
        84           Cu  tau(  84) = (   0.7496946   0.2314650   1.9904877  )
        85           Cu  tau(  85) = (   0.0000000   0.4618379   1.9901778  )
        86           Cu  tau(  86) = (   0.2508441   0.6921348   1.9910282  )
        87           Cu  tau(  87) = (   0.5000000   0.4613052   1.9913358  )
        88           Cu  tau(  88) = (   0.7491559   0.6921348   1.9910282  )
        89           Cu  tau(  89) = (   0.0000000   0.9224699   1.9915918  )
        90           Cu  tau(  90) = (   0.2491275   1.1552920   1.9912642  )
        91           Cu  tau(  91) = (   0.5000000   0.9247757   1.9920574  )
        92           Cu  tau(  92) = (   0.7508725   1.1552920   1.9912642  )
        93           Cu  tau(  93) = (   0.0000000   1.3865904   1.9916296  )
        94           Cu  tau(  94) = (   0.2499532   1.6162906   1.9903050  )
        95           Cu  tau(  95) = (   0.5000000   1.3858063   1.9901800  )
        96           Cu  tau(  96) = (   0.7500468   1.6162906   1.9903050  )
        97           Cu  tau(  97) = (   0.0000000   1.8468318   1.9923212  )
        98           Cu  tau(  98) = (   0.2497561   2.0783183   1.9915134  )
        99           Cu  tau(  99) = (   0.5000000   1.8467805   1.9903847  )
       100           Cu  tau( 100) = (   0.7502439   2.0783183   1.9915134  )
       101           C   tau( 101) = (   0.0000000   0.0962962   2.4368284  )
       102           C   tau( 102) = (   0.0000000   0.2886925   2.4379804  )
       103           C   tau( 103) = (   0.1666323   0.0000435   2.3878725  )
       104           C   tau( 104) = (   0.1664900   0.3848966   2.3886722  )
       105           C_h tau( 105) = (   0.3331238   0.0962174   2.4339279  )
       106           C   tau( 106) = (   0.3331280   0.2886629   2.4336026  )
       107           C   tau( 107) = (   0.5000000  -0.0000818   2.3845247  )
       108           C   tau( 108) = (   0.5000000   0.3849277   2.3842266  )
       109           C   tau( 109) = (   0.6668762   0.0962174   2.4339279  )
       110           C   tau( 110) = (   0.6668720   0.2886629   2.4336026  )
       111           C   tau( 111) = (   0.8333677   0.0000435   2.3878725  )
       112           C   tau( 112) = (   0.8335100   0.3848966   2.3886722  )
       113           C   tau( 113) = (   0.0000000   0.6735163   2.3413021  )
       114           C   tau( 114) = (   0.0000000   0.8659398   2.4349851  )
       115           C   tau( 115) = (   0.1664759   0.5773226   2.3205108  )
       116           C   tau( 116) = (   0.1667428   0.9622141   2.4548005  )
       117           C   tau( 117) = (   0.3332094   0.6735984   2.3379001  )
       118           C   tau( 118) = (   0.3332031   0.8660537   2.4345514  )
       119           C   tau( 119) = (   0.5000000   0.5773685   2.3170817  )
       120           C_h tau( 120) = (   0.5000000   0.9623380   2.4538518  )
       121           C   tau( 121) = (   0.6667906   0.6735984   2.3379001  )
       122           C   tau( 122) = (   0.6667969   0.8660537   2.4345514  )
       123           C   tau( 123) = (   0.8335241   0.5773226   2.3205108  )
       124           C   tau( 124) = (   0.8332572   0.9622141   2.4548005  )
       125           C   tau( 125) = (   0.0000000   1.2508867   2.3373580  )
       126           C   tau( 126) = (   0.0000000   1.4433300   2.3361517  )
       127           C   tau( 127) = (   0.1667360   1.1546708   2.3859885  )
       128           C   tau( 128) = (   0.1668939   1.5396104   2.3857175  )
       129           C   tau( 129) = (   0.3335095   1.2509657   2.3399603  )
       130           C   tau( 130) = (   0.3334866   1.4433958   2.3407464  )
       131           C   tau( 131) = (   0.5000000   1.1547731   2.3885095  )
       132           C   tau( 132) = (   0.5000000   1.5396099   2.3901495  )
       133           C   tau( 133) = (   0.6664905   1.2509657   2.3399603  )
       134           C   tau( 134) = (   0.6665134   1.4433958   2.3407464  )
       135           C   tau( 135) = (   0.8332640   1.1546708   2.3859885  )
       136           C   tau( 136) = (   0.8331061   1.5396104   2.3857175  )
       137           C   tau( 137) = (   0.0000000   1.8283510   2.4320981  )
       138           C   tau( 138) = (   0.0000000   2.0207949   2.3383880  )
       139           C   tau( 139) = (   0.1668959   1.7320513   2.4536349  )
       140           C   tau( 140) = (   0.1666186   2.1169980   2.3187623  )
       141           C   tau( 141) = (   0.3334155   1.8282368   2.4361507  )
       142           C   tau( 142) = (   0.3334352   2.0206763   2.3390522  )
       143           C   tau( 143) = (   0.5000000   1.7319961   2.4573080  )
       144           C   tau( 144) = (   0.5000000   2.1168754   2.3192503  )
       145           C   tau( 145) = (   0.6665845   1.8282368   2.4361507  )
       146           C   tau( 146) = (   0.6665648   2.0206763   2.3390522  )
       147           C   tau( 147) = (   0.8331041   1.7320513   2.4536349  )
       148           C   tau( 148) = (   0.8333814   2.1169980   2.3187623  )

     number of k points=     6  gaussian smearing, width (Ry)=  0.1000
                       cart. coord. in units 2pi/alat
        k(    1) = (   0.0000000   0.0000000   0.0000000), wk =   0.2500000
        k(    2) = (   0.0000000  -0.2165064   0.0000000), wk =   0.2500000
        k(    3) = (   0.2500000   0.0000000   0.0000000), wk =   0.5000000
        k(    4) = (   0.2500000  -0.2165064   0.0000000), wk =   0.5000000
        k(    5) = (  -0.5000000   0.0000000   0.0000000), wk =   0.2500000
        k(    6) = (  -0.5000000  -0.2165064   0.0000000), wk =   0.2500000

     Dense  grid:  2050409 G-vectors     FFT dimensions: (  80, 192, 270)

     Largest allocated arrays     est. size (Mb)     dimensions
        Kohn-Sham Wavefunctions       108.59 Mb     (    9171,  776)
        NL pseudopotentials           258.61 Mb     (    9171, 1848)
        Each V/rho on FFT grid          2.34 Mb     (  153600)
        Each G-vector array             0.56 Mb     (   73230)
        G-vector shells                 0.27 Mb     (   35784)
     Largest temporary arrays     est. size (Mb)     dimensions
        Auxiliary wavefunctions       434.37 Mb     (    9171, 3104)
        Each subspace H/S matrix       16.31 Mb     (    1034, 1034)
        Each <psi_i|beta_j> matrix     21.88 Mb     (    1848,  776)
        Arrays for rho mixing          18.75 Mb     (  153600,    8)

     Initial potential from superposition of free atoms
     Check: negative starting charge=   -0.001802

     starting charge 1266.81751, renormalised to 1293.00000

     negative rho (up, down):  1.840E-03 0.000E+00
     Starting wfc are 1284 randomized atomic wfcs

     total cpu time spent up to now is      200.0 secs

     Self-consistent Calculation

     iteration #  1     ecut=    80.00 Ry     beta=0.70
     Davidson diagonalization with overlap
     c_bands:  1 eigenvalues not converged
     c_bands:  4 eigenvalues not converged
     c_bands:  2 eigenvalues not converged
     c_bands:  3 eigenvalues not converged
     c_bands:  3 eigenvalues not converged
     ethr =  1.00E-04,  avg # of iterations = 41.2

     negative rho (up, down):  2.862E+01 0.000E+00

     total cpu time spent up to now is     4380.0 secs

     total energy              =   -9498.62944475 Ry
     Harris-Foulkes estimate   =  -17596.59443907 Ry
     estimated scf accuracy    <  184909.50573353 Ry

     iteration #  2     ecut=    80.00 Ry     beta=0.70
     Davidson diagonalization with overlap
     ethr =  1.00E-02,  avg # of iterations = 20.0

     negative rho (up, down):  2.923E+01 0.000E+00

     total cpu time spent up to now is     6484.1 secs

     total energy              =  -11179.64814140 Ry
     Harris-Foulkes estimate   =  -13813.14130330 Ry
     estimated scf accuracy    <   45874.36072653 Ry

     iteration #  3     ecut=    80.00 Ry     beta=0.70
     Davidson diagonalization with overlap
     ethr =  1.00E-02,  avg # of iterations = 19.7

     negative rho (up, down):  3.000E+01 0.000E+00

     total cpu time spent up to now is     8985.1 secs

     total energy              =  -12000.32835488 Ry
     Harris-Foulkes estimate   =  -14027.71843298 Ry
     estimated scf accuracy    <    6855.93743171 Ry

     iteration #  4     ecut=    80.00 Ry     beta=0.70
     Davidson diagonalization with overlap
     ethr =  1.00E-02,  avg # of iterations =  4.2

     negative rho (up, down):  1.915E+01 0.000E+00

     total cpu time spent up to now is     9946.0 secs

     total energy              =  -12852.61632560 Ry
     Harris-Foulkes estimate   =  -13024.72128197 Ry
     estimated scf accuracy    <     737.04752446 Ry

     iteration #  5     ecut=    80.00 Ry     beta=0.70
     Davidson diagonalization with overlap
     ethr =  1.00E-02,  avg # of iterations =  3.0

     negative rho (up, down):  1.717E+01 0.000E+00

     total cpu time spent up to now is    10440.0 secs

     total energy              =  -12864.21755827 Ry
     Harris-Foulkes estimate   =  -12920.50480192 Ry
     estimated scf accuracy    <    3873.36686715 Ry

     iteration #  6     ecut=    80.00 Ry     beta=0.70
     Davidson diagonalization with overlap
     ethr =  1.00E-02,  avg # of iterations =  1.7

     negative rho (up, down):  1.421E+01 0.000E+00

     total cpu time spent up to now is    10772.8 secs

     total energy              =  -12820.22817937 Ry
     Harris-Foulkes estimate   =  -12891.21376259 Ry
     estimated scf accuracy    <    1386.61065238 Ry

     iteration #  7     ecut=    80.00 Ry     beta=0.70
     Davidson diagonalization with overlap
     ethr =  1.00E-02,  avg # of iterations =  2.8

     negative rho (up, down):  7.942E+00 0.000E+00

     total cpu time spent up to now is    11156.8 secs

     total energy              =  -12796.20917526 Ry
     Harris-Foulkes estimate   =  -12862.22533962 Ry
     estimated scf accuracy    <     960.31708814 Ry

     iteration #  8     ecut=    80.00 Ry     beta=0.70
     Davidson diagonalization with overlap
     ethr =  1.00E-02,  avg # of iterations =  2.2

     negative rho (up, down):  3.477E+00 0.000E+00

     total cpu time spent up to now is    11497.5 secs

     total energy              =  -12756.34011660 Ry
     Harris-Foulkes estimate   =  -12806.41575809 Ry
     estimated scf accuracy    <     276.94067266 Ry

     iteration #  9     ecut=    80.00 Ry     beta=0.70
     Davidson diagonalization with overlap
     ethr =  1.00E-02,  avg # of iterations =  1.0

     negative rho (up, down):  2.950E+00 0.000E+00

     total cpu time spent up to now is    11817.0 secs

     total energy              =  -12761.56841383 Ry
     Harris-Foulkes estimate   =  -12768.52295127 Ry
     estimated scf accuracy    <     656.51558711 Ry

     iteration # 10     ecut=    80.00 Ry     beta=0.70
     Davidson diagonalization with overlap
     ethr =  1.00E-02,  avg # of iterations =  1.0

     negative rho (up, down):  7.247E-01 0.000E+00

     total cpu time spent up to now is    12134.9 secs

     total energy              =  -12722.66642304 Ry
     Harris-Foulkes estimate   =  -12763.95688586 Ry
     estimated scf accuracy    <     568.50172591 Ry

     iteration # 11     ecut=    80.00 Ry     beta=0.70
     Davidson diagonalization with overlap
     ethr =  1.00E-02,  avg # of iterations =  2.5

     negative rho (up, down):  7.869E-01 0.000E+00

     total cpu time spent up to now is    12486.8 secs

     total energy              =  -12726.52740624 Ry
     Harris-Foulkes estimate   =  -12733.42784141 Ry
     estimated scf accuracy    <      61.21840054 Ry

     iteration # 12     ecut=    80.00 Ry     beta=0.70
     Davidson diagonalization with overlap
     ethr =  4.73E-03,  avg # of iterations =  2.8

     negative rho (up, down):  5.394E+00 0.000E+00

     total cpu time spent up to now is    12844.7 secs

     total energy              =  -12720.91988368 Ry
     Harris-Foulkes estimate   =  -12730.16405373 Ry
     estimated scf accuracy    <      35.20791773 Ry

     iteration # 13     ecut=    80.00 Ry     beta=0.70
     Davidson diagonalization with overlap
     ethr =  2.72E-03,  avg # of iterations =  4.2

     negative rho (up, down):  4.473E+00 0.000E+00

     total cpu time spent up to now is    13248.6 secs

     total energy              =  -12717.60802586 Ry
     Harris-Foulkes estimate   =  -12723.95838768 Ry
     estimated scf accuracy    <      36.58833738 Ry

     iteration # 14     ecut=    80.00 Ry     beta=0.70
     Davidson diagonalization with overlap
     ethr =  2.72E-03,  avg # of iterations =  2.0

     negative rho (up, down):  5.452E+00 0.000E+00

     total cpu time spent up to now is    13585.9 secs

     total energy              =  -12720.12197406 Ry
     Harris-Foulkes estimate   =  -12722.06673566 Ry
     estimated scf accuracy    <      19.61367310 Ry

     iteration # 15     ecut=    80.00 Ry     beta=0.70
     Davidson diagonalization with overlap
     ethr =  1.52E-03,  avg # of iterations =  1.2

     negative rho (up, down):  2.862E+00 0.000E+00

     total cpu time spent up to now is    13908.0 secs

     total energy              =  -12718.81208076 Ry
     Harris-Foulkes estimate   =  -12720.69612774 Ry
     estimated scf accuracy    <      10.78302182 Ry

     iteration # 16     ecut=    80.00 Ry     beta=0.70
     Davidson diagonalization with overlap
     ethr =  8.34E-04,  avg # of iterations =  2.7

     negative rho (up, down):  3.258E+00 0.000E+00

     total cpu time spent up to now is    14261.6 secs

     total energy              =  -12718.33922337 Ry
     Harris-Foulkes estimate   =  -12719.15629281 Ry
     estimated scf accuracy    <       9.00032003 Ry

     iteration # 17     ecut=    80.00 Ry     beta=0.70
     Davidson diagonalization with overlap
     ethr =  6.96E-04,  avg # of iterations =  6.3

     negative rho (up, down):  1.754E+00 0.000E+00

     total cpu time spent up to now is    14703.4 secs

     total energy              =  -12716.58266071 Ry
     Harris-Foulkes estimate   =  -12718.50142352 Ry
     estimated scf accuracy    <       6.67977825 Ry

     iteration # 18     ecut=    80.00 Ry     beta=0.70
     Davidson diagonalization with overlap
     ethr =  5.17E-04,  avg # of iterations =  2.0

     negative rho (up, down):  1.855E+00 0.000E+00

     total cpu time spent up to now is    15043.6 secs

     total energy              =  -12716.22760722 Ry
     Harris-Foulkes estimate   =  -12716.97645629 Ry
     estimated scf accuracy    <      14.20393584 Ry

     iteration # 19     ecut=    80.00 Ry     beta=0.70
     Davidson diagonalization with overlap
     ethr =  5.17E-04,  avg # of iterations =  1.3

     negative rho (up, down):  2.888E+00 0.000E+00

     total cpu time spent up to now is    15367.8 secs

     total energy              =  -12717.08423068 Ry
     Harris-Foulkes estimate   =  -12716.57451603 Ry
     estimated scf accuracy    <       9.49259009 Ry

     iteration # 20     ecut=    80.00 Ry     beta=0.70
     Davidson diagonalization with overlap
     ethr =  5.17E-04,  avg # of iterations =  1.0

     negative rho (up, down):  1.937E+00 0.000E+00

     total cpu time spent up to now is    15686.2 secs

     total energy              =  -12715.25262487 Ry
     Harris-Foulkes estimate   =  -12717.52398091 Ry
     estimated scf accuracy    <       4.79724738 Ry

     iteration # 21     ecut=    80.00 Ry     beta=0.70
     Davidson diagonalization with overlap
     ethr =  3.71E-04,  avg # of iterations =  4.7

     negative rho (up, down):  1.475E+00 0.000E+00

     total cpu time spent up to now is    16091.2 secs

     total energy              =  -12714.56517432 Ry
     Harris-Foulkes estimate   =  -12715.37477211 Ry
     estimated scf accuracy    <       2.74629994 Ry

     iteration # 22     ecut=    80.00 Ry     beta=0.70
     Davidson diagonalization with overlap
     ethr =  2.12E-04,  avg # of iterations =  2.5

     negative rho (up, down):  1.049E+00 0.000E+00

     total cpu time spent up to now is    16443.4 secs

     total energy              =  -12714.27344266 Ry
     Harris-Foulkes estimate   =  -12714.67522133 Ry
     estimated scf accuracy    <       1.04993484 Ry

     iteration # 23     ecut=    80.00 Ry     beta=0.70
     Davidson diagonalization with overlap
     ethr =  8.12E-05,  avg # of iterations =  7.2

     negative rho (up, down):  1.089E+00 0.000E+00

     total cpu time spent up to now is    16913.5 secs

     total energy              =  -12714.16385596 Ry
     Harris-Foulkes estimate   =  -12714.32289387 Ry
     estimated scf accuracy    <       0.84320179 Ry

     iteration # 24     ecut=    80.00 Ry     beta=0.70
     Davidson diagonalization with overlap
     ethr =  6.52E-05,  avg # of iterations =  6.2

     negative rho (up, down):  8.393E-01 0.000E+00

     total cpu time spent up to now is    17369.4 secs

     total energy              =  -12714.08927097 Ry
     Harris-Foulkes estimate   =  -12714.19427471 Ry
     estimated scf accuracy    <       0.36067886 Ry

     iteration # 25     ecut=    80.00 Ry     beta=0.70
     Davidson diagonalization with overlap
     ethr =  2.79E-05,  avg # of iterations =  8.8

     negative rho (up, down):  5.726E-01 0.000E+00

     total cpu time spent up to now is    17903.0 secs

     total energy              =  -12714.06621719 Ry
     Harris-Foulkes estimate   =  -12714.10988408 Ry
     estimated scf accuracy    <       0.21970816 Ry

     iteration # 26     ecut=    80.00 Ry     beta=0.70
     Davidson diagonalization with overlap
     c_bands:  1 eigenvalues not converged
     ethr =  1.70E-05,  avg # of iterations = 13.7

     negative rho (up, down):  2.516E-01 0.000E+00

     total cpu time spent up to now is    18511.0 secs

     total energy              =  -12714.05908142 Ry
     Harris-Foulkes estimate   =  -12714.08086364 Ry
     estimated scf accuracy    <       0.12140797 Ry

     iteration # 27     ecut=    80.00 Ry     beta=0.70
     Davidson diagonalization with overlap
     c_bands:  1 eigenvalues not converged
     ethr =  9.39E-06,  avg # of iterations = 12.7

     negative rho (up, down):  6.625E-02 0.000E+00

     total cpu time spent up to now is    19143.2 secs

     total energy              =  -12714.05866847 Ry
     Harris-Foulkes estimate   =  -12714.06652899 Ry
     estimated scf accuracy    <       0.02404183 Ry

     iteration # 28     ecut=    80.00 Ry     beta=0.70
     Davidson diagonalization with overlap
     c_bands:  1 eigenvalues not converged
     ethr =  1.86E-06,  avg # of iterations = 16.5

     negative rho (up, down):  7.441E-02 0.000E+00

     total cpu time spent up to now is    19950.2 secs

     total energy              =  -12714.06144504 Ry
     Harris-Foulkes estimate   =  -12714.06279544 Ry
     estimated scf accuracy    <       0.01026986 Ry

     iteration # 29     ecut=    80.00 Ry     beta=0.70
     Davidson diagonalization with overlap
     ethr =  7.94E-07,  avg # of iterations =  9.0

     negative rho (up, down):  4.207E-02 0.000E+00

     total cpu time spent up to now is    20470.4 secs

     total energy              =  -12714.06178900 Ry
     Harris-Foulkes estimate   =  -12714.06239206 Ry
     estimated scf accuracy    <       0.00234546 Ry

     iteration # 30     ecut=    80.00 Ry     beta=0.70
     Davidson diagonalization with overlap
     c_bands:  2 eigenvalues not converged
     ethr =  1.81E-07,  avg # of iterations = 11.7

     negative rho (up, down):  3.897E-02 0.000E+00

     total cpu time spent up to now is    21059.4 secs

     total energy              =  -12714.06182862 Ry
     Harris-Foulkes estimate   =  -12714.06188869 Ry
     estimated scf accuracy    <       0.00119113 Ry

     iteration # 31     ecut=    80.00 Ry     beta=0.70
     Davidson diagonalization with overlap
     ethr =  9.21E-08,  avg # of iterations =  5.2

     negative rho (up, down):  2.711E-02 0.000E+00

     total cpu time spent up to now is    21480.6 secs

     total energy              =  -12714.06163047 Ry
     Harris-Foulkes estimate   =  -12714.06188191 Ry
     estimated scf accuracy    <       0.00070309 Ry

     iteration # 32     ecut=    80.00 Ry     beta=0.70
     Davidson diagonalization with overlap
     c_bands:  2 eigenvalues not converged
     ethr =  5.44E-08,  avg # of iterations = 14.2

     negative rho (up, down):  2.331E-02 0.000E+00

     total cpu time spent up to now is    22121.3 secs

     total energy              =  -12714.06152470 Ry
     Harris-Foulkes estimate   =  -12714.06167124 Ry
     estimated scf accuracy    <       0.00044236 Ry

     iteration # 33     ecut=    80.00 Ry     beta=0.70
     Davidson diagonalization with overlap
     ethr =  3.42E-08,  avg # of iterations =  8.3

     negative rho (up, down):  1.893E-02 0.000E+00

     total cpu time spent up to now is    22620.7 secs

     total energy              =  -12714.06143195 Ry
     Harris-Foulkes estimate   =  -12714.06154961 Ry
     estimated scf accuracy    <       0.00023276 Ry

     iteration # 34     ecut=    80.00 Ry     beta=0.70
     Davidson diagonalization with overlap
     ethr =  1.80E-08,  avg # of iterations =  9.7

     negative rho (up, down):  1.530E-02 0.000E+00

     total cpu time spent up to now is    23143.2 secs

     total energy              =  -12714.06135179 Ry
     Harris-Foulkes estimate   =  -12714.06143831 Ry
     estimated scf accuracy    <       0.00010066 Ry

     iteration # 35     ecut=    80.00 Ry     beta=0.70
     Davidson diagonalization with overlap
     ethr =  7.79E-09,  avg # of iterations =  4.2

     negative rho (up, down):  8.222E-03 0.000E+00

     total cpu time spent up to now is    23543.5 secs

     total energy              =  -12714.06121630 Ry
     Harris-Foulkes estimate   =  -12714.06135734 Ry
     estimated scf accuracy    <       0.00004284 Ry

     iteration # 36     ecut=    80.00 Ry     beta=0.70
     Davidson diagonalization with overlap
     c_bands:  1 eigenvalues not converged
     ethr =  3.31E-09,  avg # of iterations = 11.8

     negative rho (up, down):  5.562E-03 0.000E+00

     total cpu time spent up to now is    24136.4 secs

     total energy              =  -12714.06117415 Ry
     Harris-Foulkes estimate   =  -12714.06121996 Ry
     estimated scf accuracy    <       0.00002382 Ry

     iteration # 37     ecut=    80.00 Ry     beta=0.70
     Davidson diagonalization with overlap
     ethr =  1.84E-09,  avg # of iterations =  6.3

     negative rho (up, down):  2.755E-03 0.000E+00

     total cpu time spent up to now is    24585.9 secs

     total energy              =  -12714.06114610 Ry
     Harris-Foulkes estimate   =  -12714.06117597 Ry
     estimated scf accuracy    <       0.00001545 Ry

     iteration # 38     ecut=    80.00 Ry     beta=0.70
     Davidson diagonalization with overlap
     c_bands:  1 eigenvalues not converged
     ethr =  1.19E-09,  avg # of iterations =  8.0

     negative rho (up, down):  2.489E-03 0.000E+00

     total cpu time spent up to now is    25081.8 secs

     total energy              =  -12714.06114617 Ry
     Harris-Foulkes estimate   =  -12714.06114697 Ry
     estimated scf accuracy    <       0.00000254 Ry

     iteration # 39     ecut=    80.00 Ry     beta=0.70
     Davidson diagonalization with overlap
     ethr =  1.96E-10,  avg # of iterations =  4.0

     negative rho (up, down):  2.304E-03 0.000E+00

     total cpu time spent up to now is    25483.8 secs

     total energy              =  -12714.06114604 Ry
     Harris-Foulkes estimate   =  -12714.06114645 Ry
     estimated scf accuracy    <       0.00000118 Ry

     iteration # 40     ecut=    80.00 Ry     beta=0.70
     Davidson diagonalization with overlap
     ethr =  9.12E-11,  avg # of iterations =  2.0

     negative rho (up, down):  2.093E-03 0.000E+00

     total cpu time spent up to now is    25848.4 secs

     total energy              =  -12714.06114617 Ry
     Harris-Foulkes estimate   =  -12714.06114616 Ry
     estimated scf accuracy    <       0.00000021 Ry

     iteration # 41     ecut=    80.00 Ry     beta=0.70
     Davidson diagonalization with overlap
     ethr =  1.66E-11,  avg # of iterations =  3.0

     negative rho (up, down):  2.036E-03 0.000E+00

     total cpu time spent up to now is    26241.6 secs

     total energy              =  -12714.06114619 Ry
     Harris-Foulkes estimate   =  -12714.06114619 Ry
     estimated scf accuracy    <       0.00000007 Ry

     iteration # 42     ecut=    80.00 Ry     beta=0.70
     Davidson diagonalization with overlap
     ethr =  5.59E-12,  avg # of iterations =  3.3

     negative rho (up, down):  2.039E-03 0.000E+00

     total cpu time spent up to now is    26661.1 secs

     total energy              =  -12714.06114620 Ry
     Harris-Foulkes estimate   =  -12714.06114620 Ry
     estimated scf accuracy    <       0.00000003 Ry

     iteration # 43     ecut=    80.00 Ry     beta=0.70
     Davidson diagonalization with overlap
     ethr =  2.03E-12,  avg # of iterations =  1.7

     negative rho (up, down):  2.027E-03 0.000E+00

     total cpu time spent up to now is    26990.2 secs

     End of self-consistent calculation

          k = 0.0000 0.0000 0.0000 (256287 PWs)   bands (ev):

   -16.6983 -16.5064 -15.6520 -15.0778 -14.9975 -14.3344 -14.2302 -14.0560
   -13.9618 -13.6870 -13.6209 -13.4091 -12.9565 -12.8676 -12.8105 -12.7340
   -12.5907 -11.7117 -11.6388 -11.4772 -10.8501 -10.7869  -9.8400  -9.7874
    -9.6993  -9.0751  -9.0281  -8.6719  -8.6063  -8.2481  -8.1233  -7.9898
    -7.6380  -7.4261  -7.3918  -7.3012  -7.2370  -7.0108  -6.8671  -6.4328
    -6.2792  -6.1144  -6.0842  -5.9877  -5.6708  -5.5759  -5.5611  -5.5496
    -5.4514  -5.3337  -5.2447  -5.1712  -5.0735  -4.8247  -4.8066  -4.5757
    -4.5371  -4.5120  -4.1946  -4.1290  -4.0847  -4.0441  -4.0383  -3.7903
    -3.7263  -3.6523  -3.5316  -3.4874  -3.4668  -3.4592  -3.2941  -3.1820
    -3.1400  -3.0757  -3.0724  -3.0696  -3.0683  -3.0503  -3.0163  -2.9840
    -2.9446  -2.8873  -2.7824  -2.7554  -2.7212  -2.6960  -2.6725  -2.6270
    -2.5891  -2.4733  -2.4287  -2.3963  -2.3794  -2.3705  -2.3006  -2.2888
    -2.2531  -2.2521  -2.2174  -2.2170  -2.2168  -2.2163  -2.1271  -2.1021
    -2.0874  -2.0872  -2.0852  -2.0838  -2.0108  -1.9592  -1.9464  -1.9388
    -1.8744  -1.8424  -1.8361  -1.8270  -1.8041  -1.7943  -1.7877  -1.7823
    -1.7413  -1.7369  -1.7321  -1.7224  -1.7204  -1.6490  -1.6455  -1.6342
    -1.6294  -1.6247  -1.6106  -1.6041  -1.5928  -1.5816  -1.5804  -1.5751
    -1.5638  -1.5295  -1.5065  -1.4992  -1.4872  -1.4796  -1.4189  -1.4137
    -1.4055  -1.3785  -1.3759  -1.3649  -1.3271  -1.3271  -1.3166  -1.2779
    -1.2774  -1.2577  -1.2559  -1.2294  -1.2287  -1.1536  -1.1450  -1.1213
    -1.1205  -1.1190  -1.1165  -1.1155  -1.1002  -1.0957  -1.0894  -1.0850
    -1.0812  -1.0806  -1.0794  -1.0750  -1.0683  -1.0639  -1.0510  -1.0222
    -1.0060  -1.0040  -1.0017  -0.9970  -0.9884  -0.9863  -0.9359  -0.9300
    -0.9291  -0.9264  -0.9235  -0.9218  -0.9213  -0.9194  -0.9169  -0.9158
    -0.9146  -0.9140  -0.9138  -0.9123  -0.9081  -0.9078  -0.9008  -0.8943
    -0.8605  -0.8280  -0.7843  -0.7584  -0.7578  -0.7514  -0.7479  -0.7287
    -0.7268  -0.7118  -0.7112  -0.6914  -0.6893  -0.6703  -0.6638  -0.6598
    -0.6528  -0.6482  -0.6295  -0.6282  -0.6270  -0.6263  -0.6240  -0.6205
    -0.6172  -0.6146  -0.5852  -0.5636  -0.5629  -0.5389  -0.5083  -0.5055
    -0.5034  -0.4968  -0.4963  -0.4917  -0.4789  -0.4752  -0.4714  -0.4707
    -0.4698  -0.4694  -0.4683  -0.4677  -0.4583  -0.4524  -0.4523  -0.4487
    -0.4214  -0.4184  -0.4106  -0.3960  -0.3876  -0.3728  -0.3688  -0.3634
    -0.3580  -0.3576  -0.3323  -0.3301  -0.3300  -0.3288  -0.3287  -0.3248
    -0.3092  -0.3081  -0.2904  -0.2900  -0.2880  -0.2861  -0.2848  -0.2838
    -0.2805  -0.2743  -0.2733  -0.2723  -0.2647  -0.2597  -0.2596  -0.2578
    -0.2545  -0.2438  -0.2366  -0.1954  -0.1932  -0.1892  -0.1888  -0.1847
    -0.1602  -0.1598  -0.1528  -0.1511  -0.1465  -0.1424  -0.1323  -0.1279
    -0.1276  -0.1267  -0.0987  -0.0830  -0.0810  -0.0776  -0.0715  -0.0668
    -0.0653  -0.0490  -0.0462  -0.0444  -0.0423  -0.0399  -0.0383  -0.0328
    -0.0274  -0.0207  -0.0196  -0.0184  -0.0163  -0.0125  -0.0113  -0.0035
    -0.0031   0.0054   0.0113   0.0181   0.0199   0.0246   0.0321   0.0634
     0.0635   0.0716   0.0853   0.1126   0.1170   0.1234   0.1303   0.1323
     0.1665   0.1692   0.1710   0.1711   0.1733   0.1737   0.1778   0.1854
     0.1930   0.1961   0.2073   0.2082   0.2094   0.2597   0.2670   0.2729
     0.2736   0.2752   0.2760   0.2775   0.2880   0.3000   0.3064   0.3087
     0.3111   0.3124   0.3147   0.3413   0.3486   0.3514   0.3529   0.3686
     0.3712   0.3796   0.3832   0.3910   0.4016   0.4094   0.4192   0.4224
     0.4245   0.4278   0.4298   0.4302   0.4311   0.4333   0.4351   0.4487
     0.4556   0.4579   0.4636   0.4661   0.4681   0.4705   0.4750   0.4781
     0.4796   0.4869   0.4892   0.4902   0.4967   0.5000   0.5154   0.5225
     0.5314   0.5336   0.5364   0.5388   0.5396   0.5652   0.5675   0.5758
     0.5837   0.5838   0.5846   0.5854   0.5876   0.5964   0.5997   0.6040
     0.6060   0.6102   0.6194   0.6222   0.6226   0.6302   0.6401   0.6496
     0.6566   0.6612   0.6658   0.6681   0.6746   0.6757   0.6767   0.6792
     0.6807   0.6833   0.6833   0.6835   0.6906   0.7008   0.7095   0.7331
     0.7354   0.7423   0.7450   0.7529   0.7534   0.7543   0.7647   0.7822
     0.7846   0.8097   0.8100   0.8138   0.8148   0.8165   0.8191   0.8222
     0.8284   0.8310   0.8342   0.8414   0.8443   0.8461   0.8483   0.8611
     0.8659   0.8666   0.8699   0.8716   0.8724   0.8844   0.8914   0.9025
     0.9103   0.9164   0.9170   0.9181   0.9239   0.9272   0.9303   0.9313
     0.9355   0.9403   0.9458   0.9497   0.9555   0.9572   0.9581   0.9617
     0.9693   0.9772   0.9775   0.9828   0.9877   0.9951   0.9986   1.0081
     1.0114   1.0148   1.0172   1.0210   1.0251   1.0292   1.0385   1.0407
     1.0451   1.0468   1.0499   1.0572   1.0599   1.0627   1.0661   1.0682
     1.0700   1.0743   1.0758   1.0973   1.1148   1.1205   1.1239   1.1254
     1.1358   1.1364   1.1385   1.1394   1.1570   1.1645   1.1669   1.1703
     1.1711   1.1741   1.1754   1.1848   1.1868   1.1912   1.1934   1.1955
     1.1967   1.1991   1.2045   1.2054   1.2059   1.2085   1.2091   1.2099
     1.2182   1.2198   1.2249   1.2277   1.2309   1.2330   1.2411   1.2419
     1.2434   1.2463   1.2468   1.2482   1.2595   1.2681   1.2774   1.2815
     1.2849   1.2889   1.2905   1.2943   1.2977   1.3092   1.3181   1.3188
     1.3214   1.3342   1.3357   1.3395   1.3465   1.3466   1.3497   1.3524
     1.3530   1.3543   1.3568   1.3626   1.3655   1.3664   1.3681   1.3705
     1.3715   1.3766   1.3805   1.3822   1.3838   1.3912   1.3942   1.3983
     1.3994   1.4017   1.4146   1.4221   1.4288   1.4305   1.4551   1.4849
     1.4886   1.4970   1.4992   1.5082   1.5149   1.5234   1.5407   1.5442
     1.5576   1.5597   1.5656   1.5680   1.5765   1.5771   1.5783   1.6006
     1.6095   1.6480   1.6568   1.7102   1.8039   1.8907   1.9913   2.0225
     2.1224   2.1251   2.1371   2.1399   2.1439   2.1447   2.1482   2.1567
     2.1785   2.2205   2.2622   2.3397   2.3683   2.3756   2.3932   2.4080
     2.4113   2.4264   2.6003   2.6470   2.6484   2.6808   2.7217   2.7877
     2.8672   2.9842   3.2688   3.3167   3.3703   3.5702   3.6402   3.6993
     3.7120   3.7195   3.7321   3.7439   3.8846   3.9033   3.9063   3.9171
     3.9211   3.9236   4.0448   4.0499   4.1453   4.1807   4.2498   4.2669
     4.3189   4.3535   4.3688   4.4537   4.5142   4.5509   4.5834   4.6751
     4.6968   5.1822   5.2005   5.3093   5.4242   5.4909   5.5609   5.5942
     5.6449   5.6886   5.8422   5.8777   5.9015   5.9045   6.0225   6.2365
     6.3331   6.3681   6.3874   6.4447   6.4656   6.4816   6.4886   6.5114
     6.5256   6.6748   6.6990   6.7115   6.7174   6.7349   6.8086   6.9117
     6.9531   6.9862   7.0076   7.0670   7.1336   7.2052   7.2169   7.2611
     7.3010   7.3176   7.4718   7.6364   7.6494   7.6748   7.6835   7.7386
     7.7516   7.7771   7.9890   8.0781   8.1736   8.2388   8.2598   8.2630
     8.3035   8.3076   8.3250   8.3442   8.3704   8.4020   8.4684   8.4793
     8.5677   8.5824   8.6133   8.6410   8.6527   8.6825   8.7437   8.7797
     8.7978   8.8155   8.8252   8.8846   8.9135   8.9600   9.1143   9.1379
     9.1496   9.2075   9.2217   9.2681   9.2749   9.3055   9.4145   9.4677
     9.4942   9.5048   9.5510   9.6808   9.7542   9.7680   9.7969   9.8840

          k = 0.0000-0.2165 0.0000 (256176 PWs)   bands (ev):

   -16.6937 -16.5164 -15.5807 -15.2881 -14.8672 -14.3430 -14.0757 -14.0256
   -13.9291 -13.8920 -13.4848 -13.3811 -13.3056 -13.2711 -12.3966 -12.3197
   -12.1019 -12.0450 -11.9720 -11.8901 -10.4281 -10.3367 -10.2575 -10.1967
    -9.2413  -9.0398  -8.8950  -8.8276  -8.6255  -8.5977  -8.0286  -7.9580
    -7.8291  -7.7269  -7.0366  -6.9849  -6.9305  -6.8589  -6.6562  -6.4975
    -6.4020  -6.3974  -6.3503  -6.3067  -5.9487  -5.9410  -5.3908  -5.2379
    -5.2049  -5.0194  -4.9801  -4.9631  -4.9234  -4.8933  -4.8116  -4.7291
    -4.7011  -4.5719  -4.4708  -4.4023  -4.2815  -4.1833  -3.8670  -3.7786
    -3.5939  -3.5069  -3.3777  -3.3736  -3.3689  -3.3645  -3.3234  -3.2826
    -3.1903  -3.1243  -3.0918  -3.0877  -3.0443  -2.9716  -2.9674  -2.8875
    -2.8465  -2.8220  -2.7348  -2.7260  -2.6720  -2.6453  -2.6402  -2.6385
    -2.6377  -2.5937  -2.5871  -2.5712  -2.5328  -2.4029  -2.3544  -2.2722
    -2.2357  -2.2251  -2.2137  -2.1961  -2.1947  -2.1794  -2.1552  -2.1488
    -2.1313  -2.1184  -2.0833  -2.0520  -2.0506  -2.0387  -2.0251  -2.0244
    -1.9007  -1.8977  -1.8279  -1.8259  -1.8187  -1.8125  -1.8117  -1.8103
    -1.8083  -1.8057  -1.7861  -1.7856  -1.7469  -1.7413  -1.7114  -1.7112
    -1.5962  -1.5540  -1.5415  -1.5295  -1.5082  -1.4805  -1.4494  -1.4445
    -1.4362  -1.4353  -1.3830  -1.3825  -1.3779  -1.3690  -1.3584  -1.3430
    -1.3423  -1.3392  -1.3386  -1.3383  -1.3371  -1.3360  -1.3197  -1.2954
    -1.2950  -1.2883  -1.2859  -1.2827  -1.2671  -1.2108  -1.2053  -1.1721
    -1.1598  -1.1551  -1.1534  -1.1486  -1.1173  -1.1160  -1.1146  -1.1126
    -1.1055  -1.0893  -1.0774  -1.0530  -1.0514  -1.0482  -1.0477  -1.0469
    -1.0453  -1.0326  -0.9984  -0.9963  -0.9876  -0.9849  -0.9819  -0.9777
    -0.9715  -0.9574  -0.9546  -0.9541  -0.9218  -0.9082  -0.8994  -0.8988
    -0.8911  -0.8843  -0.8836  -0.8736  -0.8629  -0.8506  -0.8404  -0.8341
    -0.8294  -0.8281  -0.8195  -0.8136  -0.7538  -0.7444  -0.7225  -0.7221
    -0.7193  -0.7192  -0.6983  -0.6979  -0.6746  -0.6731  -0.6716  -0.6667
    -0.6663  -0.6658  -0.6511  -0.6496  -0.6160  -0.6152  -0.6141  -0.6119
    -0.6092  -0.6088  -0.6071  -0.6008  -0.5825  -0.5704  -0.5538  -0.5492
    -0.5492  -0.5328  -0.5274  -0.5231  -0.5138  -0.5124  -0.5104  -0.5034
    -0.5021  -0.5011  -0.4884  -0.4573  -0.4256  -0.4254  -0.4237  -0.4236
    -0.4051  -0.3896  -0.3786  -0.3700  -0.3693  -0.3689  -0.3635  -0.3579
    -0.3531  -0.3422  -0.3367  -0.3362  -0.3238  -0.3208  -0.3179  -0.3161
    -0.3149  -0.3121  -0.3106  -0.3102  -0.3082  -0.3005  -0.2744  -0.2722
    -0.2711  -0.2699  -0.2668  -0.2529  -0.2406  -0.2219  -0.2095  -0.2051
    -0.2007  -0.1965  -0.1949  -0.1914  -0.1820  -0.1775  -0.1732  -0.1676
    -0.1668  -0.1656  -0.1584  -0.1578  -0.1510  -0.1479  -0.1449  -0.1424
    -0.1395  -0.1297  -0.1023  -0.0955  -0.0933  -0.0906  -0.0821  -0.0765
    -0.0605  -0.0568  -0.0560  -0.0536  -0.0470  -0.0446  -0.0437  -0.0399
    -0.0225  -0.0181  -0.0144  -0.0047  -0.0008   0.0069   0.0085   0.0114
     0.0152   0.0185   0.0280   0.0416   0.0425   0.0456   0.0498   0.0543
     0.0588   0.0651   0.0662   0.0796   0.0888   0.1048   0.1093   0.1127
     0.1200   0.1257   0.1267   0.1362   0.1364   0.1566   0.1598   0.1803
     0.1947   0.1970   0.2176   0.2219   0.2330   0.2333   0.2395   0.2503
     0.2993   0.3094   0.3123   0.3152   0.3170   0.3202   0.3297   0.3305
     0.3339   0.3362   0.3431   0.3593   0.3644   0.3738   0.3750   0.3813
     0.3816   0.3851   0.3867   0.3946   0.3964   0.3973   0.4006   0.4061
     0.4069   0.4168   0.4299   0.4378   0.4431   0.4506   0.4516   0.4523
     0.4530   0.4560   0.4586   0.4682   0.4706   0.4707   0.4707   0.4806
     0.4885   0.4943   0.5009   0.5058   0.5104   0.5116   0.5126   0.5132
     0.5152   0.5154   0.5156   0.5208   0.5256   0.5299   0.5342   0.5433
     0.5719   0.5782   0.5852   0.5891   0.5915   0.5933   0.5935   0.6001
     0.6013   0.6022   0.6048   0.6081   0.6228   0.6276   0.6290   0.6343
     0.6450   0.6482   0.6541   0.6582   0.6595   0.6714   0.6719   0.6734
     0.6751   0.6798   0.6834   0.6897   0.6966   0.7059   0.7100   0.7129
     0.7231   0.7293   0.7619   0.7642   0.7782   0.7876   0.7995   0.8041
     0.8067   0.8197   0.8231   0.8263   0.8272   0.8316   0.8385   0.8402
     0.8409   0.8428   0.8443   0.8492   0.8504   0.8510   0.8532   0.8542
     0.8743   0.8782   0.8826   0.8858   0.8875   0.8888   0.8962   0.8968
     0.8969   0.9002   0.9012   0.9013   0.9105   0.9109   0.9221   0.9236
     0.9238   0.9239   0.9334   0.9407   0.9431   0.9434   0.9447   0.9518
     0.9583   0.9616   0.9654   0.9663   0.9672   0.9680   0.9683   0.9690
     0.9697   0.9710   0.9897   1.0035   1.0223   1.0351   1.0398   1.0494
     1.0618   1.0622   1.0651   1.0703   1.0800   1.0842   1.0885   1.0896
     1.1064   1.1069   1.1095   1.1125   1.1145   1.1192   1.1249   1.1253
     1.1275   1.1318   1.1335   1.1384   1.1414   1.1419   1.1440   1.1446
     1.1511   1.1561   1.1575   1.1616   1.1647   1.1662   1.1761   1.1784
     1.1794   1.1815   1.1823   1.1956   1.1983   1.2062   1.2080   1.2088
     1.2122   1.2197   1.2240   1.2287   1.2359   1.2367   1.2407   1.2446
     1.2449   1.2462   1.2529   1.2543   1.2580   1.2590   1.2601   1.2712
     1.2744   1.2765   1.2804   1.2834   1.3099   1.3120   1.3126   1.3135
     1.3199   1.3241   1.3271   1.3277   1.3307   1.3316   1.3416   1.3446
     1.3534   1.3612   1.3703   1.3753   1.3779   1.3784   1.3790   1.3803
     1.3809   1.3824   1.3831   1.3853   1.4081   1.4113   1.4133   1.4169
     1.4312   1.4321   1.4355   1.4419   1.4543   1.4558   1.4590   1.4599
     1.4638   1.4639   1.4756   1.4757   1.5154   1.5230   1.5401   1.5567
     1.5932   1.6485   1.6644   1.6693   1.6727   1.6770   1.6987   1.7005
     1.7018   1.7298   1.7361   1.7457   1.7487   1.7567   1.7872   1.7873
     1.8166   1.8269   1.9655   2.0236   2.0820   2.1214   2.3762   2.4088
     2.4149   2.4305   2.4447   2.4583   2.4866   2.5070   2.5189   2.5332
     2.5541   2.5580   2.6222   2.6347   2.6404   2.6427   2.7301   2.7971
     2.8551   2.8555   3.0486   3.0955   3.1047   3.1048   3.2518   3.3233
     3.4813   3.4886   3.4940   3.5390   3.6000   3.6255   4.0287   4.0877
     4.1117   4.1244   4.1302   4.1325   4.3581   4.3639   4.3835   4.4459
     4.4515   4.4887   4.7246   4.8887   4.9322   4.9424   4.9860   5.0225
     5.0283   5.0952   5.1459   5.1792   5.2958   5.3005   5.3101   5.3357
     5.3410   5.3548   5.5394   5.5466   5.9157   5.9670   6.0691   6.1558
     6.2289   6.3170   6.4048   6.4263   6.4838   6.4871   6.5330   6.5698
     6.5936   6.6039   6.6333   6.8169   6.9157   6.9495   6.9623   6.9953
     7.0359   7.0449   7.0632   7.0884   7.1049   7.1114   7.1187   7.1595
     7.2380   7.2716   7.3310   7.3680   7.3991   7.4510   7.4889   7.6329
     7.6545   7.8347   7.8511   7.8913   8.0617   8.1160   8.2751   8.3036
     8.3106   8.4134   8.4401   8.4579   8.4793   8.4947   8.5298   8.5354
     8.6143   8.6273   8.6565   8.6880   8.7105   8.7262   8.7451   8.7542
     8.9387   9.0152   9.0483   9.1280   9.1775   9.2526   9.2957   9.3009
     9.3131   9.3231   9.3538   9.3733   9.3991   9.4049   9.4565   9.4650
     9.4866   9.5199   9.6350   9.6839   9.7192   9.7288   9.7643   9.7984

          k = 0.2500 0.0000 0.0000 (256240 PWs)   bands (ev):

   -16.6389 -16.4511 -15.5421 -15.2246 -15.0686 -14.6733 -14.5579 -14.4634
   -13.8027 -13.6891 -13.3914 -13.1552 -12.9597 -12.5802 -12.5376 -12.4002
   -11.8886 -11.7655 -11.6171 -11.3755 -10.8750 -10.5593 -10.4112 -10.1784
    -9.6909  -9.5485  -9.4619  -8.9735  -8.9287  -8.7714  -8.7259  -8.1416
    -7.8311  -7.5513  -7.3764  -7.0578  -6.9357  -6.5288  -6.4538  -6.3441
    -6.1089  -5.9053  -5.7948  -5.7032  -5.5678  -5.4337  -5.3863  -5.3771
    -5.2078  -5.0792  -4.9408  -4.9002  -4.6619  -4.5371  -4.5176  -4.4361
    -4.3837  -4.3560  -4.2543  -4.1058  -4.0694  -4.0442  -3.9977  -3.9070
    -3.9030  -3.8645  -3.7995  -3.6783  -3.6341  -3.6024  -3.5194  -3.4085
    -3.3802  -3.3367  -3.2970  -3.2359  -3.2133  -3.1447  -3.0780  -3.0284
    -3.0151  -2.9533  -2.8967  -2.8758  -2.8639  -2.8463  -2.8180  -2.6737
    -2.6537  -2.6155  -2.5954  -2.4687  -2.4536  -2.3875  -2.3754  -2.2935
    -2.2415  -2.2038  -2.1604  -2.1578  -2.1472  -2.1458  -2.1015  -2.0402
    -1.9848  -1.9461  -1.9288  -1.9001  -1.8780  -1.8687  -1.8681  -1.8656
    -1.8588  -1.8585  -1.8406  -1.8268  -1.7990  -1.7799  -1.7378  -1.7142
    -1.7133  -1.6810  -1.6641  -1.6477  -1.6467  -1.6464  -1.6384  -1.6333
    -1.6147  -1.5789  -1.5708  -1.5690  -1.5649  -1.5559  -1.5441  -1.5093
    -1.4480  -1.4384  -1.4075  -1.4001  -1.3793  -1.3769  -1.3426  -1.3361
    -1.3240  -1.3089  -1.3076  -1.3041  -1.2746  -1.2698  -1.2635  -1.2582
    -1.2510  -1.2493  -1.2422  -1.2268  -1.2069  -1.2017  -1.1996  -1.1933
    -1.1821  -1.1762  -1.1754  -1.1724  -1.1631  -1.1323  -1.1226  -1.1176
    -1.1122  -1.1049  -1.1011  -1.0860  -1.0820  -1.0787  -1.0767  -1.0695
    -1.0664  -1.0600  -1.0516  -1.0462  -1.0457  -1.0451  -1.0439  -1.0433
    -1.0417  -1.0349  -1.0160  -1.0044  -0.9796  -0.9752  -0.9685  -0.9567
    -0.9228  -0.9215  -0.9181  -0.8816  -0.8807  -0.8588  -0.8577  -0.8565
    -0.8458  -0.8382  -0.8307  -0.8271  -0.8236  -0.8195  -0.8157  -0.8113
    -0.8093  -0.7929  -0.6754  -0.6719  -0.6676  -0.6574  -0.6447  -0.6397
    -0.6370  -0.6254  -0.6207  -0.6174  -0.6146  -0.6137  -0.6118  -0.5972
    -0.5958  -0.5942  -0.5762  -0.5737  -0.5599  -0.5588  -0.5560  -0.5524
    -0.5504  -0.5277  -0.5268  -0.5265  -0.5144  -0.4893  -0.4714  -0.4690
    -0.4667  -0.4664  -0.4609  -0.4597  -0.4577  -0.4486  -0.4327  -0.4281
    -0.4235  -0.4042  -0.4006  -0.3991  -0.3841  -0.3618  -0.3606  -0.3589
    -0.3587  -0.3584  -0.3497  -0.3349  -0.3294  -0.3283  -0.3171  -0.3150
    -0.3082  -0.3056  -0.2866  -0.2816  -0.2728  -0.2710  -0.2687  -0.2607
    -0.2533  -0.2514  -0.2504  -0.2344  -0.2299  -0.2187  -0.2174  -0.2051
    -0.2034  -0.1943  -0.1853  -0.1840  -0.1824  -0.1773  -0.1515  -0.1363
    -0.1343  -0.1307  -0.1287  -0.1212  -0.1197  -0.1158  -0.1016  -0.0958
    -0.0895  -0.0784  -0.0777  -0.0741  -0.0729  -0.0693  -0.0684  -0.0670
    -0.0655  -0.0630  -0.0619  -0.0578  -0.0570  -0.0429  -0.0343  -0.0329
    -0.0275  -0.0243  -0.0148  -0.0085  -0.0024   0.0103   0.0216   0.0292
     0.0327   0.0399   0.0449   0.0460   0.0509   0.0582   0.0694   0.0714
     0.0738   0.0756   0.0778   0.1024   0.1152   0.1485   0.1603   0.1682
     0.1759   0.1794   0.1863   0.1877   0.1941   0.1967   0.1998   0.2030
     0.2065   0.2145   0.2156   0.2171   0.2195   0.2218   0.2235   0.2338
     0.2389   0.2412   0.2489   0.2587   0.2604   0.2642   0.2673   0.2698
     0.2704   0.2849   0.2907   0.3017   0.3098   0.3238   0.3378   0.3394
     0.3423   0.3510   0.3658   0.3724   0.3734   0.3769   0.3776   0.3888
     0.3912   0.4075   0.4096   0.4109   0.4127   0.4137   0.4154   0.4180
     0.4233   0.4288   0.4294   0.4399   0.4432   0.4501   0.4548   0.4655
     0.4709   0.4728   0.4754   0.4773   0.4805   0.4854   0.4942   0.4989
     0.5060   0.5071   0.5113   0.5220   0.5253   0.5311   0.5321   0.5360
     0.5402   0.5453   0.5470   0.5650   0.5672   0.5787   0.5857   0.5897
     0.5945   0.5968   0.6004   0.6043   0.6174   0.6273   0.6324   0.6335
     0.6428   0.6482   0.6505   0.6581   0.6658   0.6716   0.6738   0.6772
     0.6786   0.6958   0.6996   0.7054   0.7093   0.7145   0.7210   0.7262
     0.7309   0.7399   0.7496   0.7506   0.7517   0.7621   0.7772   0.7815
     0.7874   0.7890   0.7927   0.8000   0.8102   0.8122   0.8155   0.8184
     0.8214   0.8251   0.8284   0.8327   0.8358   0.8372   0.8379   0.8527
     0.8666   0.8740   0.8790   0.8826   0.8893   0.8953   0.8988   0.9032
     0.9125   0.9190   0.9205   0.9228   0.9254   0.9285   0.9349   0.9363
     0.9396   0.9423   0.9477   0.9503   0.9514   0.9519   0.9565   0.9577
     0.9633   0.9652   0.9691   0.9760   0.9786   0.9879   0.9911   0.9934
     0.9969   0.9979   1.0017   1.0029   1.0048   1.0080   1.0133   1.0185
     1.0208   1.0354   1.0378   1.0394   1.0407   1.0474   1.0532   1.0545
     1.0642   1.0691   1.0716   1.0766   1.0825   1.0856   1.0906   1.1057
     1.1121   1.1158   1.1193   1.1226   1.1254   1.1272   1.1340   1.1591
     1.1683   1.1716   1.1737   1.1786   1.1810   1.1833   1.1886   1.1914
     1.1954   1.2070   1.2085   1.2126   1.2140   1.2150   1.2174   1.2225
     1.2254   1.2289   1.2297   1.2308   1.2332   1.2340   1.2387   1.2391
     1.2413   1.2428   1.2467   1.2605   1.2647   1.2770   1.2841   1.2860
     1.2871   1.2895   1.2946   1.2968   1.3001   1.3059   1.3084   1.3161
     1.3210   1.3228   1.3295   1.3339   1.3417   1.3455   1.3494   1.3522
     1.3542   1.3553   1.3560   1.3566   1.3603   1.3616   1.3662   1.3675
     1.3681   1.3767   1.3800   1.3818   1.3904   1.3994   1.4018   1.4046
     1.4085   1.4138   1.4154   1.4167   1.4196   1.4283   1.4309   1.4423
     1.4454   1.4490   1.4505   1.4562   1.4722   1.4830   1.4875   1.5116
     1.5150   1.5464   1.5526   1.5560   1.5596   1.5686   1.6134   1.6518
     1.6768   1.6879   1.6915   1.7042   1.7663   1.7710   1.7937   1.8227
     1.9286   1.9593   1.9712   1.9990   2.0131   2.0280   2.0336   2.1630
     2.1835   2.2201   2.4664   2.4804   2.4896   2.4940   2.5130   2.9071
     2.9075   3.0286   3.0521   3.1195   3.1221   3.1523   3.1530   3.2361
     3.3258   3.3848   3.4103   3.4298   3.4799   3.5126   3.5333   3.5963
     3.6067   3.6096   3.6725   3.7133   3.7517   3.7969   3.8122   3.8399
     3.8526   3.8789   3.9639   4.0450   4.1954   4.1986   4.3720   4.4207
     4.5881   4.6651   4.6990   4.7480   4.7807   4.8315   4.9470   4.9881
     5.0584   5.2313   5.2421   5.3107   5.3706   5.3998   5.4072   5.4333
     5.4353   5.4678   5.4935   5.6037   5.6567   5.6785   5.7100   5.7766
     5.8129   5.9086   5.9440   5.9514   5.9856   6.0411   6.1313   6.1890
     6.2164   6.3958   6.5044   6.6470   6.6508   6.7243   6.7511   6.7841
     6.9187   6.9217   6.9372   6.9885   6.9909   7.0231   7.1378   7.1656
     7.2722   7.3414   7.3655   7.4342   7.5248   7.5764   7.6700   7.7486
     7.7852   7.8534   7.8975   7.9221   7.9323   7.9560   7.9965   8.0113
     8.0209   8.1484   8.2394   8.2675   8.3093   8.3478   8.3624   8.4010
     8.4716   8.4800   8.5730   8.5835   8.6399   8.7007   8.7346   8.7851
     8.8678   8.9177   8.9323   8.9941   9.0041   9.0169   9.0822   9.1057
     9.1832   9.1978   9.2204   9.2701   9.3370   9.3923   9.4276   9.4343
     9.4466   9.4743   9.5432   9.6016   9.6076   9.6258   9.6559   9.7021

          k = 0.2500-0.2165 0.0000 (256316 PWs)   bands (ev):

   -16.6356 -16.4581 -15.5018 -15.2146 -15.1238 -14.8624 -14.3877 -14.1842
   -14.0744 -13.7975 -13.2433 -13.1277 -12.9343 -12.8353 -12.4138 -12.2417
   -12.0349 -11.8652 -11.3479 -11.1079 -11.0759 -10.9412 -10.4095 -10.2464
    -9.4669  -9.3526  -9.2848  -9.1264  -8.9902  -8.8233  -8.4304  -8.2437
    -8.1895  -8.0702  -6.9461  -6.7211  -6.6589  -6.4917  -6.4226  -6.2710
    -6.1988  -6.0681  -5.9909  -5.8828  -5.7706  -5.7608  -5.2662  -5.1596
    -4.9940  -4.9027  -4.8207  -4.8159  -4.7599  -4.7298  -4.6056  -4.4243
    -4.4128  -4.3722  -4.3021  -4.2525  -4.1920  -4.1518  -3.9426  -3.8502
    -3.7328  -3.6943  -3.6582  -3.5966  -3.5642  -3.5400  -3.5158  -3.5106
    -3.3977  -3.3294  -3.3177  -3.2345  -3.1812  -3.1228  -3.1053  -3.0406
    -2.9786  -2.9675  -2.9552  -2.9424  -2.9316  -2.8003  -2.7713  -2.7536
    -2.7199  -2.6292  -2.5715  -2.3828  -2.3802  -2.3686  -2.3352  -2.2665
    -2.2421  -2.2334  -2.2334  -2.1920  -2.1526  -2.1229  -2.0906  -2.0808
    -2.0747  -2.0684  -2.0074  -1.9760  -1.8793  -1.8783  -1.8465  -1.8305
    -1.7975  -1.7938  -1.7859  -1.7840  -1.7758  -1.7749  -1.7688  -1.7606
    -1.7512  -1.7438  -1.7396  -1.7378  -1.7340  -1.7296  -1.7278  -1.6478
    -1.6473  -1.5436  -1.5390  -1.5320  -1.4735  -1.4660  -1.4153  -1.3965
    -1.3953  -1.3763  -1.3654  -1.3470  -1.3432  -1.3340  -1.3308  -1.3295
    -1.3136  -1.3125  -1.3025  -1.2970  -1.2920  -1.2860  -1.2795  -1.2789
    -1.2772  -1.2719  -1.2555  -1.2542  -1.2519  -1.2346  -1.2244  -1.1969
    -1.1930  -1.1902  -1.1858  -1.1814  -1.1784  -1.1488  -1.1402  -1.1330
    -1.1073  -1.1060  -1.1056  -1.1019  -1.0880  -1.0814  -1.0772  -1.0682
    -1.0630  -1.0606  -1.0578  -1.0530  -1.0310  -1.0279  -1.0264  -1.0261
    -1.0192  -1.0133  -1.0020  -0.9952  -0.9934  -0.9920  -0.9349  -0.9347
    -0.9297  -0.9283  -0.8854  -0.8518  -0.8494  -0.8459  -0.8415  -0.8399
    -0.8390  -0.8297  -0.7916  -0.7823  -0.7815  -0.7730  -0.7709  -0.7672
    -0.7661  -0.7609  -0.7546  -0.7231  -0.7168  -0.6945  -0.6799  -0.6570
    -0.6384  -0.6367  -0.6326  -0.6269  -0.6224  -0.6083  -0.6069  -0.6019
    -0.5889  -0.5803  -0.5738  -0.5681  -0.5597  -0.5574  -0.5477  -0.5340
    -0.5213  -0.5124  -0.5119  -0.5080  -0.5040  -0.4855  -0.4842  -0.4771
    -0.4741  -0.4673  -0.4653  -0.4490  -0.4390  -0.4357  -0.4321  -0.4313
    -0.4278  -0.4251  -0.4236  -0.4180  -0.4073  -0.4034  -0.4031  -0.3897
    -0.3866  -0.3837  -0.3692  -0.3516  -0.3475  -0.3329  -0.3229  -0.3142
    -0.3102  -0.3059  -0.2982  -0.2936  -0.2924  -0.2854  -0.2847  -0.2757
    -0.2750  -0.2566  -0.2371  -0.2208  -0.2193  -0.1917  -0.1829  -0.1786
    -0.1760  -0.1755  -0.1731  -0.1718  -0.1600  -0.1531  -0.1399  -0.1334
    -0.1293  -0.1268  -0.1234  -0.1218  -0.1166  -0.1161  -0.1134  -0.1118
    -0.1100  -0.1063  -0.0879  -0.0849  -0.0822  -0.0736  -0.0707  -0.0696
    -0.0688  -0.0623  -0.0578  -0.0557  -0.0535  -0.0486  -0.0442  -0.0392
    -0.0380  -0.0370  -0.0216  -0.0105  -0.0090  -0.0008   0.0062   0.0091
     0.0256   0.0308   0.0410   0.0577   0.0653   0.0725   0.0756   0.0777
     0.0817   0.0864   0.0880   0.0888   0.0964   0.0969   0.1089   0.1136
     0.1386   0.1457   0.1889   0.1965   0.1981   0.2102   0.2114   0.2116
     0.2130   0.2140   0.2162   0.2192   0.2222   0.2294   0.2404   0.2452
     0.2494   0.2501   0.2523   0.2581   0.2644   0.2676   0.2723   0.2744
     0.2791   0.2850   0.2889   0.2952   0.3006   0.3036   0.3060   0.3191
     0.3273   0.3335   0.3475   0.3612   0.3781   0.3857   0.3868   0.3885
     0.3933   0.3991   0.4022   0.4047   0.4070   0.4120   0.4130   0.4149
     0.4185   0.4347   0.4375   0.4487   0.4522   0.4619   0.4641   0.4886
     0.4926   0.4958   0.5007   0.5092   0.5176   0.5259   0.5296   0.5314
     0.5337   0.5391   0.5443   0.5459   0.5504   0.5558   0.5590   0.5651
     0.5701   0.5726   0.5808   0.5816   0.5828   0.5873   0.5961   0.6002
     0.6019   0.6034   0.6043   0.6066   0.6169   0.6184   0.6227   0.6263
     0.6293   0.6304   0.6368   0.6389   0.6429   0.6454   0.6468   0.6498
     0.6550   0.6569   0.6836   0.6848   0.6862   0.7005   0.7050   0.7168
     0.7307   0.7386   0.7414   0.7463   0.7488   0.7540   0.7581   0.7589
     0.7673   0.7737   0.7782   0.7805   0.7835   0.7882   0.7900   0.7946
     0.7985   0.8064   0.8110   0.8159   0.8184   0.8216   0.8266   0.8303
     0.8333   0.8484   0.8515   0.8567   0.8619   0.8661   0.8717   0.8865
     0.8940   0.8957   0.8971   0.9015   0.9056   0.9074   0.9296   0.9323
     0.9368   0.9396   0.9469   0.9600   0.9644   0.9669   0.9778   0.9819
     0.9890   0.9968   0.9999   1.0111   1.0162   1.0197   1.0205   1.0217
     1.0221   1.0233   1.0237   1.0263   1.0312   1.0332   1.0358   1.0420
     1.0460   1.0504   1.0540   1.0657   1.0687   1.0729   1.0797   1.0873
     1.0907   1.0996   1.1036   1.1056   1.1099   1.1117   1.1157   1.1178
     1.1215   1.1219   1.1241   1.1264   1.1291   1.1328   1.1384   1.1425
     1.1457   1.1501   1.1520   1.1550   1.1585   1.1612   1.1757   1.1769
     1.1816   1.1918   1.1932   1.2002   1.2042   1.2075   1.2096   1.2114
     1.2214   1.2243   1.2376   1.2422   1.2451   1.2504   1.2535   1.2587
     1.2611   1.2618   1.2649   1.2657   1.2682   1.2781   1.2788   1.2800
     1.2834   1.2848   1.2976   1.2983   1.2999   1.3025   1.3106   1.3114
     1.3134   1.3207   1.3221   1.3232   1.3256   1.3260   1.3267   1.3283
     1.3380   1.3504   1.3580   1.3643   1.3649   1.3659   1.3665   1.3692
     1.3723   1.3730   1.3767   1.3789   1.3839   1.3854   1.3915   1.4025
     1.4084   1.4096   1.4099   1.4166   1.4207   1.4209   1.4325   1.4423
     1.4465   1.4530   1.4536   1.4557   1.4796   1.4800   1.4935   1.4977
     1.5299   1.5360   1.5491   1.5692   1.5791   1.5822   1.5914   1.6560
     1.6846   1.6865   1.6878   1.6982   1.7372   1.7516   1.7921   1.9043
     1.9508   1.9640   1.9903   2.0134   2.0598   2.0641   2.0953   2.1017
     2.2549   2.2573   2.5120   2.5141   2.6405   2.6469   2.6919   2.7129
     2.7224   2.7452   2.7525   2.8738   2.8819   2.9085   3.1061   3.1303
     3.2545   3.3223   3.3852   3.4945   3.5807   3.5993   3.6943   3.7140
     3.7556   3.7745   3.8292   3.8499   3.8747   3.8981   3.9597   4.0021
     4.0345   4.0764   4.0885   4.1301   4.2299   4.2544   4.3081   4.3331
     4.3621   4.3924   4.4603   4.5112   4.6232   4.6429   4.9526   5.0862
     5.1201   5.1492   5.2031   5.2628   5.3543   5.3627   5.3724   5.4008
     5.4268   5.4395   5.4679   5.4876   5.5802   5.6621   5.6799   5.7579
     5.8519   5.8661   5.8733   5.9299   6.0207   6.0966   6.1123   6.1799
     6.5001   6.5277   6.6864   6.7339   6.7472   6.7560   6.9113   6.9896
     7.0297   7.0633   7.0795   7.0904   7.1637   7.1901   7.2095   7.2336
     7.2494   7.2951   7.3674   7.3782   7.3990   7.4083   7.4450   7.5698
     7.6239   7.6497   7.6712   7.7212   7.9314   8.0019   8.0521   8.1062
     8.1405   8.1531   8.1899   8.2052   8.2758   8.3510   8.4348   8.5332
     8.5996   8.6060   8.6406   8.6446   8.6667   8.7078   8.7541   8.7935
     8.8047   8.8494   8.9038   8.9445   8.9957   9.0515   9.0593   9.0721
     9.0931   9.1532   9.1688   9.2007   9.2308   9.2526   9.2812   9.3301
     9.3470   9.3843   9.4313   9.4610   9.4754   9.5642   9.5821   9.5918

          k =-0.5000 0.0000 0.0000 (256496 PWs)   bands (ev):

   -16.5658 -16.3838 -15.4911 -15.2719 -15.1800 -15.0359 -14.5639 -14.4341
   -14.1268 -14.0712 -13.2739 -12.8352 -12.4999 -12.0809 -12.0049 -11.8787
   -11.7648 -11.6959 -11.3096 -11.2547 -11.1771 -10.9100 -10.8186 -10.7912
   -10.0106  -9.9761  -9.4675  -9.2062  -9.1727  -8.9666  -8.5034  -8.4621
    -8.0293  -7.6605  -7.6385  -7.4717  -7.1936  -6.9142  -5.8021  -5.7046
    -5.4681  -5.4032  -5.3758  -5.3712  -5.1239  -5.0160  -4.8933  -4.8815
    -4.8681  -4.8628  -4.8069  -4.7433  -4.7032  -4.6247  -4.4940  -4.4623
    -4.4069  -4.3427  -4.2109  -4.1545  -4.1349  -4.0512  -4.0041  -3.9683
    -3.9440  -3.9355  -3.9124  -3.7931  -3.7139  -3.6436  -3.5932  -3.5156
    -3.4992  -3.4867  -3.4826  -3.4581  -3.4305  -3.3654  -3.3392  -3.2855
    -3.2707  -3.2062  -3.1718  -3.0983  -3.0408  -2.8028  -2.7670  -2.7417
    -2.7059  -2.6804  -2.6721  -2.6371  -2.4694  -2.4099  -2.3613  -2.3432
    -2.3185  -2.2901  -2.1064  -2.0468  -2.0159  -1.9585  -1.9451  -1.9438
    -1.9436  -1.9428  -1.9426  -1.9416  -1.9114  -1.8715  -1.8046  -1.7762
    -1.7678  -1.7168  -1.7162  -1.7150  -1.7128  -1.6695  -1.6688  -1.6679
    -1.6676  -1.6269  -1.5648  -1.5557  -1.5539  -1.5524  -1.5218  -1.4988
    -1.4902  -1.4896  -1.4848  -1.4831  -1.4701  -1.4683  -1.4462  -1.4256
    -1.4238  -1.4232  -1.4194  -1.4120  -1.4111  -1.4099  -1.3937  -1.3832
    -1.3804  -1.3731  -1.3565  -1.3538  -1.3520  -1.3463  -1.3351  -1.3343
    -1.3340  -1.3330  -1.2704  -1.2703  -1.2488  -1.2486  -1.2479  -1.2472
    -1.2165  -1.2068  -1.2023  -1.2021  -1.1985  -1.1937  -1.1771  -1.1746
    -1.1738  -1.1733  -1.1698  -1.1533  -1.1525  -1.1497  -1.1219  -1.1219
    -1.0796  -1.0795  -1.0474  -1.0473  -1.0462  -1.0459  -1.0236  -1.0170
    -1.0101  -1.0029  -0.9964  -0.9953  -0.9944  -0.9933  -0.9925  -0.9876
    -0.9846  -0.9831  -0.9760  -0.9749  -0.9160  -0.9155  -0.9154  -0.9142
    -0.8644  -0.8643  -0.7806  -0.7796  -0.7757  -0.7751  -0.7448  -0.7438
    -0.7431  -0.7425  -0.7415  -0.7402  -0.7304  -0.7255  -0.7208  -0.7008
    -0.6947  -0.6921  -0.6915  -0.6904  -0.6897  -0.6888  -0.6468  -0.6433
    -0.6417  -0.6401  -0.5771  -0.5687  -0.5633  -0.5409  -0.5298  -0.5296
    -0.5193  -0.5046  -0.5041  -0.5023  -0.4814  -0.4784  -0.4749  -0.4738
    -0.4638  -0.4533  -0.4399  -0.4349  -0.4338  -0.4324  -0.4290  -0.4033
    -0.4020  -0.4017  -0.4009  -0.3854  -0.3816  -0.3754  -0.3646  -0.3642
    -0.3631  -0.3630  -0.3529  -0.3524  -0.3409  -0.3180  -0.3178  -0.3169
    -0.3168  -0.2974  -0.2948  -0.2798  -0.2777  -0.2170  -0.2068  -0.2058
    -0.2047  -0.2037  -0.1979  -0.1958  -0.1934  -0.1656  -0.1624  -0.1620
    -0.1604  -0.1572  -0.1325  -0.1293  -0.1241  -0.1130  -0.0934  -0.0932
    -0.0918  -0.0913  -0.0910  -0.0895  -0.0884  -0.0875  -0.0867  -0.0841
    -0.0839  -0.0763  -0.0464  -0.0244  -0.0126  -0.0097  -0.0046  -0.0018
    -0.0008  -0.0002   0.0004   0.0007   0.0051   0.0054   0.0070   0.0129
     0.0146   0.0159   0.0293   0.0345   0.0361   0.0362   0.0429   0.0509
     0.0509   0.0512   0.0513   0.0583   0.0585   0.0591   0.0595   0.0631
     0.0687   0.0698   0.0767   0.0831   0.0844   0.0847   0.0874   0.0880
     0.1011   0.1068   0.1801   0.1909   0.2028   0.2061   0.2088   0.2110
     0.2211   0.2299   0.2339   0.2491   0.2506   0.2522   0.2548   0.2573
     0.2628   0.2654   0.2687   0.2692   0.2736   0.2745   0.2762   0.2795
     0.2799   0.2822   0.2839   0.2854   0.2897   0.2934   0.3014   0.3017
     0.3127   0.3220   0.3224   0.3260   0.3267   0.3438   0.3482   0.3533
     0.3583   0.3653   0.3963   0.4074   0.4146   0.4229   0.4243   0.4244
     0.4414   0.4423   0.4532   0.4549   0.4560   0.4577   0.4582   0.4604
     0.4635   0.4642   0.4652   0.4679   0.4699   0.4709   0.4716   0.4796
     0.4850   0.4916   0.4944   0.4993   0.5218   0.5246   0.5306   0.5313
     0.5386   0.5448   0.5572   0.5594   0.5604   0.5608   0.5620   0.5633
     0.5638   0.5646   0.5670   0.5758   0.5802   0.5827   0.5848   0.5892
     0.5920   0.5966   0.6059   0.6159   0.6254   0.6324   0.6380   0.6383
     0.6395   0.6406   0.6476   0.6501   0.6587   0.6622   0.6763   0.6793
     0.6821   0.6885   0.6979   0.6996   0.7114   0.7235   0.7491   0.7562
     0.7612   0.7657   0.7732   0.7733   0.7739   0.7747   0.7778   0.7789
     0.7886   0.7980   0.8031   0.8062   0.8150   0.8152   0.8162   0.8169
     0.8206   0.8240   0.8290   0.8296   0.8322   0.8401   0.8409   0.8473
     0.8520   0.8632   0.8768   0.8794   0.8841   0.9033   0.9364   0.9380
     0.9439   0.9449   0.9616   0.9649   0.9675   0.9685   0.9726   0.9776
     0.9861   0.9899   1.0097   1.0115   1.0139   1.0184   1.0230   1.0251
     1.0318   1.0338   1.0369   1.0393   1.0478   1.0489   1.0496   1.0512
     1.0549   1.0571   1.0617   1.0619   1.0622   1.0639   1.0683   1.0685
     1.0844   1.0887   1.0909   1.0987   1.1101   1.1101   1.1236   1.1245
     1.1281   1.1294   1.1347   1.1389   1.1402   1.1424   1.1525   1.1549
     1.1560   1.1615   1.1722   1.1729   1.1732   1.1742   1.1795   1.1840
     1.1875   1.1941   1.1973   1.2070   1.2161   1.2221   1.2336   1.2418
     1.2435   1.2452   1.2496   1.2496   1.2518   1.2561   1.2565   1.2579
     1.2580   1.2615   1.2622   1.2637   1.2644   1.2661   1.2679   1.2694
     1.2700   1.2711   1.2724   1.2756   1.2766   1.2848   1.2884   1.2944
     1.2947   1.2978   1.3043   1.3056   1.3066   1.3127   1.3128   1.3152
     1.3298   1.3320   1.3337   1.3423   1.3461   1.3469   1.3482   1.3529
     1.3569   1.3600   1.3731   1.3753   1.3829   1.3840   1.3883   1.3915
     1.3922   1.4005   1.4013   1.4037   1.4040   1.4080   1.4202   1.4226
     1.4335   1.4447   1.4456   1.4457   1.4462   1.4465   1.4468   1.4469
     1.4644   1.4689   1.4832   1.4942   1.5100   1.5287   1.5340   1.5346
     1.5406   1.5407   1.5518   1.5623   1.7723   1.9143   1.9588   1.9631
     1.9671   1.9737   2.1748   2.1801   2.2053   2.2110   2.2215   2.2247
     2.3065   2.3134   2.5323   2.5530   2.7500   2.7516   2.7592   2.7651
     2.7834   2.8166   3.1110   3.1135   3.1164   3.1196   3.3440   3.3906
     3.4540   3.5141   3.5736   3.6309   3.7556   3.8012   3.8115   3.8502
     3.8580   3.9029   3.9294   3.9680   3.9772   4.0309   4.0584   4.1374
     4.2494   4.2907   4.3053   4.3101   4.4342   4.5458   4.6308   4.7032
     4.7391   4.7482   4.7695   4.7870   4.8095   4.8860   4.8904   4.8933
     4.9031   4.9350   4.9505   4.9662   4.9747   4.9770   5.0261   5.0371
     5.0485   5.0568   5.1060   5.1174   5.3476   5.4157   5.4363   5.4794
     5.5244   5.5291   5.8443   5.8623   5.9042   5.9126   5.9195   5.9253
     6.1553   6.1888   6.3475   6.4061   6.4194   6.5497   6.6167   6.6716
     6.6798   6.7365   6.7831   6.8078   7.0941   7.1021   7.2162   7.2226
     7.2666   7.2787   7.5387   7.5481   7.5561   7.5571   7.6068   7.7067
     7.7260   7.7309   7.7408   7.7682   7.8029   7.8427   7.8660   7.8767
     7.8806   7.8970   7.9493   7.9539   8.2490   8.2805   8.3358   8.3434
     8.3632   8.4103   8.6571   8.7181   8.7389   8.8082   8.8248   8.8559
     8.8639   8.8798   8.8828   8.9702   8.9884   8.9910   9.0223   9.0379
     9.0934   9.1374   9.1483   9.1931   9.2002   9.2173   9.2436   9.2827
     9.2924   9.3061   9.4988   9.5026   9.5050   9.5082   9.5143   9.5501

          k =-0.5000-0.2165 0.0000 (256328 PWs)   bands (ev):

   -16.5642 -16.3866 -15.4427 -15.4024 -15.0932 -14.8459 -14.7578 -14.6513
   -14.0520 -13.5616 -13.4364 -13.3357 -12.3293 -12.0031 -11.7977 -11.7806
   -11.6727 -11.6052 -11.4189 -11.3837 -11.1780 -11.0843 -11.0009 -10.9002
    -9.8231  -9.7216  -9.5635  -9.4860  -8.9366  -8.7694  -8.3566  -8.3422
    -8.1401  -8.0611  -7.9275  -7.8364  -6.5954  -6.2501  -6.0567  -5.9723
    -5.5710  -5.3918  -5.3330  -5.2480  -5.2471  -5.2459  -5.2380  -5.0839
    -4.9320  -4.8230  -4.5918  -4.5260  -4.4123  -4.3690  -4.3189  -4.3036
    -4.2962  -4.2816  -4.2619  -4.2523  -4.2308  -4.1607  -4.0544  -4.0326
    -3.9614  -3.9103  -3.8986  -3.8598  -3.8254  -3.7770  -3.7208  -3.6654
    -3.6357  -3.5586  -3.5389  -3.5071  -3.4087  -3.3865  -3.3354  -3.3311
    -3.1208  -3.0273  -2.9666  -2.9290  -2.8467  -2.6774  -2.6475  -2.6401
    -2.6393  -2.6365  -2.6026  -2.5572  -2.5314  -2.5221  -2.4696  -2.4443
    -2.3662  -2.2089  -2.1889  -2.1449  -2.1392  -2.1229  -2.1040  -2.0862
    -2.0523  -2.0314  -2.0008  -1.9870  -1.8700  -1.8689  -1.8686  -1.8679
    -1.8146  -1.6740  -1.6643  -1.6612  -1.6530  -1.6096  -1.5932  -1.5599
    -1.5596  -1.5578  -1.5578  -1.5497  -1.5067  -1.5012  -1.5005  -1.4999
    -1.4982  -1.4938  -1.4901  -1.4581  -1.4536  -1.4532  -1.4518  -1.4517
    -1.4471  -1.4467  -1.4457  -1.4419  -1.4242  -1.4242  -1.4237  -1.4237
    -1.3799  -1.3789  -1.3738  -1.3733  -1.3324  -1.3122  -1.2791  -1.2672
    -1.2567  -1.2565  -1.2564  -1.2564  -1.2496  -1.2409  -1.2365  -1.2332
    -1.2309  -1.2192  -1.2143  -1.2136  -1.1920  -1.1890  -1.1822  -1.1810
    -1.1802  -1.1793  -1.1779  -1.1759  -1.1245  -1.1235  -1.1232  -1.1229
    -1.1066  -1.1064  -1.1062  -1.1059  -1.1053  -1.1052  -1.1048  -1.1047
    -1.0653  -0.9585  -0.9580  -0.9564  -0.9558  -0.9259  -0.9205  -0.9176
    -0.9173  -0.9148  -0.9051  -0.8827  -0.8491  -0.8452  -0.8432  -0.8396
    -0.8394  -0.8386  -0.8379  -0.8283  -0.8277  -0.7745  -0.7714  -0.7691
    -0.7673  -0.7542  -0.7531  -0.7525  -0.7515  -0.7460  -0.7447  -0.7388
    -0.7371  -0.6944  -0.6910  -0.6777  -0.6548  -0.6465  -0.6386  -0.6344
    -0.6277  -0.6259  -0.6033  -0.5718  -0.5715  -0.5648  -0.5642  -0.5253
    -0.5240  -0.5205  -0.5198  -0.5021  -0.5017  -0.5011  -0.5001  -0.4969
    -0.4900  -0.4855  -0.4700  -0.4609  -0.4600  -0.4592  -0.4584  -0.4561
    -0.4385  -0.4262  -0.3955  -0.3942  -0.3420  -0.3417  -0.3415  -0.3412
    -0.3262  -0.3258  -0.3252  -0.3252  -0.3126  -0.3122  -0.3037  -0.3034
    -0.2528  -0.2373  -0.2307  -0.2278  -0.2259  -0.2232  -0.2218  -0.2216
    -0.2197  -0.2178  -0.2059  -0.1977  -0.1781  -0.1779  -0.1776  -0.1770
    -0.1704  -0.1691  -0.1664  -0.1662  -0.1632  -0.1629  -0.1628  -0.1626
    -0.1356  -0.1293  -0.1106  -0.1003  -0.0981  -0.0910  -0.0793  -0.0723
    -0.0698  -0.0686  -0.0647  -0.0493  -0.0316  -0.0281  -0.0260  -0.0007
     0.0085   0.0105   0.0114   0.0122   0.0125   0.0136   0.0201   0.0223
     0.0228   0.0274   0.0282   0.0299   0.0330   0.0355   0.0367   0.0407
     0.0412   0.0413   0.0418   0.0511   0.0536   0.0561   0.0589   0.0623
     0.0811   0.0812   0.0846   0.0847   0.0867   0.0883   0.0917   0.0932
     0.1171   0.1428   0.1441   0.1445   0.1448   0.1539   0.1733   0.1773
     0.1780   0.1876   0.2188   0.2247   0.2386   0.2523   0.2551   0.2557
     0.2562   0.2735   0.2788   0.2789   0.2798   0.2821   0.2900   0.2920
     0.2925   0.2939   0.2944   0.2962   0.2974   0.2977   0.2980   0.3048
     0.3148   0.3305   0.3444   0.3705   0.3739   0.3744   0.3756   0.3799
     0.3959   0.4010   0.4011   0.4016   0.4019   0.4065   0.4067   0.4096
     0.4126   0.4207   0.4301   0.4316   0.4365   0.4385   0.4399   0.4447
     0.4484   0.4530   0.4779   0.4786   0.4793   0.4855   0.4919   0.4958
     0.4966   0.4971   0.4984   0.5023   0.5047   0.5070   0.5084   0.5090
     0.5116   0.5121   0.5164   0.5229   0.5290   0.5376   0.5495   0.5509
     0.5598   0.5634   0.5811   0.5916   0.5951   0.5965   0.5970   0.6096
     0.6127   0.6132   0.6176   0.6176   0.6190   0.6240   0.6452   0.6505
     0.6534   0.6572   0.6581   0.6584   0.6615   0.6619   0.6687   0.6718
     0.6919   0.7055   0.7155   0.7172   0.7239   0.7327   0.7387   0.7423
     0.7425   0.7426   0.7471   0.7656   0.7744   0.7762   0.7773   0.7782
     0.7832   0.7910   0.8008   0.8220   0.8482   0.8488   0.8557   0.8559
     0.8579   0.8604   0.8725   0.8759   0.8760   0.8792   0.8820   0.8835
     0.9176   0.9257   0.9301   0.9391   0.9414   0.9424   0.9513   0.9539
     0.9550   0.9570   0.9672   0.9679   0.9688   0.9729   0.9732   0.9743
     0.9756   0.9757   0.9779   0.9780   0.9790   0.9839   1.0004   1.0014
     1.0021   1.0056   1.0217   1.0234   1.0296   1.0311   1.0336   1.0365
     1.0457   1.0479   1.0621   1.0643   1.0653   1.0673   1.0686   1.0701
     1.0721   1.0749   1.0774   1.0824   1.0862   1.0960   1.1099   1.1143
     1.1193   1.1207   1.1228   1.1265   1.1312   1.1360   1.1368   1.1423
     1.1512   1.1550   1.1556   1.1603   1.1864   1.1886   1.1896   1.1918
     1.1929   1.1992   1.2119   1.2131   1.2133   1.2150   1.2165   1.2172
     1.2200   1.2227   1.2241   1.2255   1.2299   1.2307   1.2575   1.2702
     1.2751   1.2773   1.2776   1.2787   1.2802   1.2805   1.2826   1.2843
     1.2846   1.2914   1.2939   1.3042   1.3071   1.3114   1.3128   1.3138
     1.3165   1.3180   1.3193   1.3203   1.3222   1.3247   1.3260   1.3326
     1.3337   1.3350   1.3373   1.3389   1.3421   1.3455   1.3521   1.3527
     1.3574   1.3618   1.3673   1.3694   1.3803   1.3821   1.3890   1.3912
     1.4032   1.4078   1.4202   1.4313   1.4352   1.4411   1.4442   1.4462
     1.4549   1.4581   1.4753   1.4845   1.4888   1.4999   1.5032   1.5041
     1.5041   1.5062   1.5143   1.5279   1.5290   1.5352   1.5356   1.5397
     1.5471   1.5561   1.5719   1.5763   1.6302   1.6912   1.7078   1.7448
     1.7542   1.7556   1.7800   1.7888   2.3899   2.4138   2.4171   2.4305
     2.4829   2.4842   2.5021   2.5057   2.6712   2.6912   2.7575   2.7680
     2.8703   2.9219   3.1053   3.1204   3.3759   3.3792   3.3850   3.3882
     3.4895   3.5247   3.5526   3.5832   3.7620   3.8354   3.8514   3.8539
     3.8568   3.8958   4.0381   4.1012   4.1290   4.1345   4.1499   4.1775
     4.2112   4.2433   4.2784   4.3262   4.3648   4.3881   4.4056   4.4336
     4.4493   4.4799   4.5031   4.5600   4.5916   4.6100   4.6394   4.6893
     4.7397   4.7512   4.8326   4.9572   5.0920   5.1026   5.1370   5.1655
     5.2029   5.2157   5.2465   5.2749   5.4660   5.4975   5.5420   5.5703
     5.6124   5.6519   5.7041   5.7136   6.0069   6.0288   6.0423   6.0620
     6.0989   6.2519   6.3239   6.3586   6.7101   6.7131   6.7170   6.7207
     6.9269   6.9656   7.0053   7.0714   7.0989   7.1160   7.1264   7.1355
     7.2724   7.2898   7.2954   7.3055   7.3179   7.3191   7.3814   7.5095
     7.5196   7.5806   7.6674   7.7651   7.8256   7.8544   7.9491   7.9587
     8.1049   8.1225   8.1275   8.1574   8.2691   8.3901   8.4038   8.4393
     8.5288   8.5428   8.5598   8.5937   8.7815   8.8054   8.8550   8.8659
     8.8710   8.8734   8.8818   8.8863   8.9158   8.9198   8.9361   8.9432
     9.0103   9.1187   9.1193   9.1222   9.1237   9.1418   9.1852   9.2046
     9.2454   9.3748   9.4066   9.4493   9.4664   9.5549   9.6489   9.6607

     the Fermi energy is     3.2553 ev

!    total energy              =  -12714.06114623 Ry
     Harris-Foulkes estimate   =  -12714.06114620 Ry
     estimated scf accuracy    <          5.0E-09 Ry

     The total energy is the sum of the following terms:

     one-electron contribution = -109203.58428618 Ry
     hartree contribution      =   55961.39484192 Ry
     xc contribution           =   -4446.56607280 Ry
     ewald contribution        =   44981.17531539 Ry
     Dispersion Correction     =      -2.97802109 Ry
     smearing contrib. (-TS)   =      -3.50292346 Ry

     convergence has been achieved in  43 iterations

     Writing output data file gc.save
 
     init_run     :    186.25s CPU    199.35s WALL (       1 calls)
     electrons    :  25185.51s CPU  26790.45s WALL (       1 calls)

     Called by init_run:
     wfcinit      :    183.51s CPU    195.75s WALL (       1 calls)
     potinit      :      0.67s CPU      0.74s WALL (       1 calls)

     Called by electrons:
     c_bands      :  23193.51s CPU  24626.53s WALL (      43 calls)
     sum_band     :   1618.61s CPU   1736.32s WALL (      43 calls)
     v_of_rho     :      5.10s CPU      6.43s WALL (      44 calls)
     newd         :     13.98s CPU     24.87s WALL (      44 calls)
     mix_rho      :    354.28s CPU    396.42s WALL (      43 calls)

     Called by c_bands:
     init_us_2    :     78.06s CPU     79.02s WALL (     522 calls)
     cegterg      :  22872.02s CPU  24292.43s WALL (     266 calls)

     Called by sum_band:
     sum_band:bec :      4.56s CPU      5.21s WALL (     258 calls)
     addusdens    :     19.48s CPU     29.17s WALL (      43 calls)

     Called by *egterg:
     h_psi        :   7969.05s CPU   8579.22s WALL (    2055 calls)
     s_psi        :   2001.71s CPU   2015.04s WALL (    2055 calls)
     g_psi        :     21.82s CPU     21.99s WALL (    1783 calls)
     cdiaghg      :   6993.91s CPU   7345.64s WALL (    2042 calls)

     Called by h_psi:
     add_vuspsi   :   2006.59s CPU   2021.37s WALL (    2055 calls)

     General routines
     calbec       :   2662.80s CPU   2683.74s WALL (    2313 calls)
     fft          :      4.07s CPU      5.10s WALL (     571 calls)
     ffts         :    150.34s CPU    180.23s WALL (   23284 calls)
     fftw         :   3879.17s CPU   4426.63s WALL ( 1318816 calls)
     davcio       :      0.47s CPU      7.72s WALL (       6 calls)
 
     Parallel routines
     fft_scatter  :   1964.32s CPU   2270.06s WALL ( 1342671 calls)
 
     PWSCF        :     7h 2m CPU        7h30m WALL

 
   This run was terminated on:  18:30:33  30Jan2018            

=------------------------------------------------------------------------------=
   JOB DONE.
=------------------------------------------------------------------------------=
