
     Program PWSCF v.5.4.0 starts on  7Feb2018 at 18: 4:48 

     This program is part of the open-source Quantum ESPRESSO suite
     for quantum simulation of materials; please cite
         "P. Giannozzi et al., J. Phys.:Condens. Matter 21 395502 (2009);
          URL http://www.quantum-espresso.org", 
     in publications or presentations arising from this work. More details at
     http://www.quantum-espresso.org/quote

     Parallel version (MPI & OpenMP), running on       1 processor cores
     Number of MPI processes:                 1
     Threads/MPI process:                     1
     Waiting for input...
     Reading input from standard input
     Message from routine read_cards :
     DEPRECATED: no units specified in ATOMIC_POSITIONS card
     Message from routine read_cards :
     ATOMIC_POSITIONS: units set to alat

     Current dimensions of program PWSCF are:
     Max number of different atomic species (ntypx) = 10
     Max number of k-points (npk) =  40000
     Max angular momentum in pseudopotentials (lmaxx) =  3

     Atomic positions and unit cell read from directory:
     /short/y35/tjf502/QE-5.4.0-bw/tempdir/AlAs110.save/
 

     Subspace diagonalization in iterative solution of the eigenvalue problem:
     a serial algorithm will be used

 
     G-vector sticks info
     --------------------
     sticks:   dense  smooth     PW     G-vecs:    dense   smooth      PW
     Sum         349     349    109                24607    24607    4469
 


     bravais-lattice index     =            8
     lattice parameter (alat)  =       7.4246  a.u.
     unit-cell volume          =    3472.8750 (a.u.)^3
     number of atoms/cell      =           14
     number of atomic types    =            2
     number of electrons       =        56.00
     number of Kohn-Sham states=           34
     kinetic-energy cutoff     =      14.0000  Ry
     charge density cutoff     =      56.0000  Ry
     Exchange-correlation      =  SLA  PZ   NOGX NOGC ( 1  1  0  0 0 0)

     celldm(1)=   7.424621  celldm(2)=   1.414214  celldm(3)=   6.000000
     celldm(4)=   0.000000  celldm(5)=   0.000000  celldm(6)=   0.000000

     crystal axes: (cart. coord. in units of alat)
               a(1) = (   1.000000   0.000000   0.000000 )  
               a(2) = (   0.000000   1.414214   0.000000 )  
               a(3) = (   0.000000   0.000000   6.000000 )  

     reciprocal axes: (cart. coord. in units 2 pi/alat)
               b(1) = (  1.000000  0.000000  0.000000 )  
               b(2) = (  0.000000  0.707107  0.000000 )  
               b(3) = (  0.000000  0.000000  0.166667 )  


     PseudoPot. # 1 for Al read from file:
     /short/y35/tjf502/QE-5.4.0-bw/pseudo/Al.pz-vbc.UPF
     MD5 check sum: 614279c88ff8d45c90147292d03ed420
     Pseudo is Norm-conserving, Zval =  3.0
     Generated by new atomic code, or converted to UPF format
     Using radial grid of  171 points,  2 beta functions with: 
                l(1) =   0
                l(2) =   1

     PseudoPot. # 2 for As read from file:
     /short/y35/tjf502/QE-5.4.0-bw/pseudo/As.pz-bhs.UPF
     MD5 check sum: 451cd3365afcfc94d28b1934951c34a8
     Pseudo is Norm-conserving, Zval =  5.0
     Generated by new atomic code, or converted to UPF format
     Using radial grid of  525 points,  2 beta functions with: 
                l(1) =   0
                l(2) =   1

     atomic species   valence    mass     pseudopotential
        Al             3.00    26.98000     Al( 1.00)
        As             5.00    74.92000     As( 1.00)

      4 Sym. Ops. (no inversion) found ( 2 have fractional translation)



   Cartesian axes

     site n.     atom                  positions (alat units)
         1           As  tau(   1) = (   0.0000000  -0.0447772  -0.0581587  )
         2           Al  tau(   2) = (   0.5000000   0.2514603   0.1135255  )
         3           As  tau(   3) = (   0.5000000   0.7122790   0.5041839  )
         4           Al  tau(   4) = (   0.0000000   1.0676335   0.4804606  )
         5           As  tau(   5) = (   0.0000000  -0.0039371   0.9958267  )
         6           Al  tau(   6) = (   0.5000000   0.3514010   1.0042202  )
         7           As  tau(   7) = (   0.0000000  -0.0039371   2.0041733  )
         8           Al  tau(   8) = (   0.5000000   0.3514010   1.9957798  )
         9           As  tau(   9) = (   0.5000000   0.7122790   2.4958161  )
        10           Al  tau(  10) = (   0.0000000   1.0676335   2.5195394  )
        11           As  tau(  11) = (   0.0000000  -0.0447772   3.0581587  )
        12           Al  tau(  12) = (   0.5000000   0.2514603   2.8864745  )
        13           As  tau(  13) = (   0.5000000   0.7071068   1.5000000  )
        14           Al  tau(  14) = (   0.0000000   1.0606602   1.5000000  )

     number of k points=    21  gaussian smearing, width (Ry)=  0.0100
                       cart. coord. in units 2pi/alat
        k(    1) = (   0.0000000   0.0000000   0.0000000), wk =   0.0416667
        k(    2) = (   0.0000000   0.1767767   0.0000000), wk =   0.0833333
        k(    3) = (   0.0000000  -0.3535534   0.0000000), wk =   0.0416667
        k(    4) = (   0.0833333   0.0000000   0.0000000), wk =   0.0833333
        k(    5) = (   0.0833333   0.1767767   0.0000000), wk =   0.1666667
        k(    6) = (   0.0833333  -0.3535534   0.0000000), wk =   0.0833333
        k(    7) = (   0.1666667   0.0000000   0.0000000), wk =   0.0833333
        k(    8) = (   0.1666667   0.1767767   0.0000000), wk =   0.1666667
        k(    9) = (   0.1666667  -0.3535534   0.0000000), wk =   0.0833333
        k(   10) = (   0.2500000   0.0000000   0.0000000), wk =   0.0833333
        k(   11) = (   0.2500000   0.1767767   0.0000000), wk =   0.1666667
        k(   12) = (   0.2500000  -0.3535534   0.0000000), wk =   0.0833333
        k(   13) = (   0.3333333   0.0000000   0.0000000), wk =   0.0833333
        k(   14) = (   0.3333333   0.1767767   0.0000000), wk =   0.1666667
        k(   15) = (   0.3333333  -0.3535534   0.0000000), wk =   0.0833333
        k(   16) = (   0.4166667   0.0000000   0.0000000), wk =   0.0833333
        k(   17) = (   0.4166667   0.1767767   0.0000000), wk =   0.1666667
        k(   18) = (   0.4166667  -0.3535534   0.0000000), wk =   0.0833333
        k(   19) = (  -0.5000000   0.0000000   0.0000000), wk =   0.0416667
        k(   20) = (  -0.5000000   0.1767767   0.0000000), wk =   0.0833333
        k(   21) = (  -0.5000000  -0.3535534   0.0000000), wk =   0.0416667

     Dense  grid:    24607 G-vectors     FFT dimensions: (  18,  25, 108)

     Largest allocated arrays     est. size (Mb)     dimensions
        Kohn-Sham Wavefunctions         1.61 Mb     (    3109,   34)
        NL pseudopotentials             2.66 Mb     (    3109,   56)
        Each V/rho on FFT grid          0.74 Mb     (   48600)
        Each G-vector array             0.19 Mb     (   24607)
        G-vector shells                 0.02 Mb     (    2793)
     Largest temporary arrays     est. size (Mb)     dimensions
        Auxiliary wavefunctions         6.45 Mb     (    3109,  136)
        Each subspace H/S matrix        0.28 Mb     (     136,  136)
        Each <psi_i|beta_j> matrix      0.03 Mb     (      56,   34)

     The potential is recalculated from file :
     /short/y35/tjf502/QE-5.4.0-bw/tempdir/AlAs110.save/charge-density.dat

     Starting wfc are   56 randomized atomic wfcs

     Band Structure Calculation
     Davidson diagonalization with overlap

     ethr =  1.79E-09,  avg # of iterations = 41.4

     total cpu time spent up to now is       25.0 secs

     End of band structure calculation

          k = 0.0000 0.0000 0.0000 (  3109 PWs)   bands (ev):

   -11.3361 -10.9806 -10.4142  -9.7739  -9.3981  -9.2155  -9.1946  -4.8463
    -4.5617  -4.0437  -3.5094  -2.9300  -2.5725  -2.4571  -1.8628  -1.5451
    -1.4474  -1.2938  -1.1279  -0.6401  -0.5786  -0.3203  -0.0993   0.3064
     0.3424   0.4699   0.5789   0.6711   2.1639   2.5812   2.8672   3.2540
     3.4666   3.5053

          k = 0.0000 0.1768 0.0000 (  3087 PWs)   bands (ev):

   -11.1305 -10.7856 -10.2787  -9.7869  -9.7373  -9.4630  -9.4386  -4.6258
    -4.6257  -4.2653  -3.9190  -3.0451  -2.3265  -1.7963  -1.7643  -1.4106
    -1.2312  -0.9638  -0.9350  -0.5079  -0.4472  -0.2988  -0.0742   0.1517
     0.2357   0.2583   0.2642   0.4224   2.4826   2.8628   3.2570   3.4486
     3.4815   3.7844

          k = 0.0000-0.3536 0.0000 (  3100 PWs)   bands (ev):

   -10.5677 -10.4864 -10.3312 -10.1923 -10.0722  -9.6540  -9.6029  -4.9054
    -4.6894  -4.1709  -3.6948  -3.1389  -2.5625  -2.2175  -0.8133  -0.6464
    -0.6436  -0.6049  -0.5816  -0.4628  -0.4127  -0.3683  -0.3260  -0.2574
    -0.0529  -0.0094   0.0739   0.2514   2.7662   3.0832   3.2754   3.5089
     3.5918   3.7095

          k = 0.0833 0.0000 0.0000 (  3109 PWs)   bands (ev):

   -11.2922 -10.9327 -10.3702  -9.7390  -9.3746  -9.1996  -9.1769  -4.8101
    -4.5389  -4.0433  -3.5093  -2.9069  -2.5549  -2.4454  -1.8285  -1.7606
    -1.5642  -1.4209  -1.3025  -0.9428  -0.5791  -0.4852  -0.2660   0.0169
     0.2221   0.2444   0.3849   0.4235   2.4465   2.9718   3.1535   3.5827
     3.6239   3.8278

          k = 0.0833 0.1768 0.0000 (  3078 PWs)   bands (ev):

   -11.0830 -10.7400 -10.2388  -9.7535  -9.7138  -9.4322  -9.4029  -4.5963
    -4.5914  -4.2679  -3.9019  -3.0455  -2.3867  -1.8869  -1.7833  -1.5795
    -1.3976  -1.1393  -1.0327  -0.7322  -0.6424  -0.3932  -0.3085  -0.1835
    -0.0486   0.0570   0.3862   0.4748   2.7237   3.1671   3.5047   3.6641
     3.8004   4.0184

          k = 0.0833-0.3536 0.0000 (  3068 PWs)   bands (ev):

   -10.5280 -10.4460 -10.2941 -10.1508 -10.0316  -9.6105  -9.5587  -4.8630
    -4.6478  -4.1545  -3.6726  -3.2117  -2.6012  -2.4042  -1.1101  -1.0681
    -1.0043  -0.8294  -0.6773  -0.6179  -0.6040  -0.4049  -0.3158  -0.2646
    -0.1622  -0.1318   0.1934   0.2524   2.9966   3.2778   3.6445   3.7840
     3.8798   4.0802

          k = 0.1667 0.0000 0.0000 (  3105 PWs)   bands (ev):

   -11.1498 -10.7915 -10.2404  -9.6353  -9.3304  -9.1557  -9.1295  -4.7147
    -4.4896  -4.0724  -3.5481  -2.8901  -2.5418  -2.4430  -2.3546  -2.0764
    -1.7446  -1.5575  -1.5525  -1.3262  -0.9785  -0.8450  -0.5531  -0.5113
    -0.2702  -0.0993   0.1799   0.3538   2.7385   3.2540   3.6684   3.9705
     3.9977   4.1194

          k = 0.1667 0.1768 0.0000 (  3079 PWs)   bands (ev):

   -10.9476 -10.6076 -10.1194  -9.6652  -9.6573  -9.3441  -9.3128  -4.5289
    -4.5073  -4.3136  -3.8783  -3.0995  -2.6611  -2.2464  -2.0837  -1.9655
    -1.7519  -1.4457  -1.2789  -1.0451  -0.9596  -0.8165  -0.7321  -0.5797
    -0.2289  -0.0252   0.3475   0.4351   2.8907   3.2924   3.7292   3.8445
     3.9870   4.3182

          k = 0.1667-0.3536 0.0000 (  3090 PWs)   bands (ev):

   -10.4284 -10.3395 -10.1965 -10.0421  -9.9290  -9.5002  -9.4476  -4.7482
    -4.5346  -4.1348  -3.6540  -3.4873  -2.8998  -2.8442  -1.7027  -1.6076
    -1.5054  -1.4961  -1.2299  -1.2224  -0.7129  -0.5206  -0.3500  -0.2652
    -0.1691  -0.1635   0.2202   0.2523   3.2379   3.4103   4.1241   4.1286
     4.2033   4.4661

          k = 0.2500 0.0000 0.0000 (  3061 PWs)   bands (ev):

   -10.9105 -10.5662 -10.0437  -9.4928  -9.3144  -9.0732  -9.0698  -4.6009
    -4.4751  -4.1936  -3.7180  -3.0971  -2.8473  -2.6737  -2.5306  -2.3742
    -1.9467  -1.9156  -1.8332  -1.5103  -1.2606  -1.1943  -0.7756  -0.7587
    -0.4718  -0.2566  -0.0517   0.3100   2.7016   2.8339   3.4012   3.8340
     3.8350   3.9309

          k = 0.2500 0.1768 0.0000 (  3072 PWs)   bands (ev):

   -10.7291 -10.4024  -9.9393  -9.5982  -9.5478  -9.2153  -9.1816  -4.5130
    -4.4929  -4.3825  -3.9312  -3.3330  -3.1160  -2.8657  -2.5325  -2.3785
    -2.0858  -1.8663  -1.4517  -1.2606  -1.1213  -1.0499  -0.7764  -0.7135
    -0.2897  -0.1421   0.1810   0.3439   2.6932   3.0654   3.5434   3.5609
     3.7499   4.4245

          k = 0.2500-0.3536 0.0000 (  3074 PWs)   bands (ev):

   -10.2676 -10.1673 -10.0429  -9.8741  -9.7803  -9.3271  -9.2834  -4.6010
    -4.4018  -4.2012  -4.0032  -3.8563  -3.3840  -3.3735  -2.2224  -2.1925
    -2.1290  -2.0170  -1.4868  -1.4021  -0.6971  -0.5852  -0.5714  -0.4462
    -0.2085  -0.1529   0.1546   0.2831   3.1840   3.2741   4.1248   4.2102
     4.2528   4.3233

          k = 0.3333 0.0000 0.0000 (  3055 PWs)   bands (ev):

   -10.6150 -10.2805  -9.8049  -9.3988  -9.3822  -9.0161  -8.9863  -4.5355
    -4.5347  -4.3860  -4.0348  -3.5642  -3.0935  -2.9712  -2.7625  -2.7310
    -2.2524  -1.9037  -1.8215  -1.4702  -1.2510  -1.1966  -1.0876  -0.7782
    -0.6686  -0.3963  -0.0916   0.2370   2.2007   2.3685   3.2291   3.2870
     3.4006   3.6623

          k = 0.3333 0.1768 0.0000 (  3062 PWs)   bands (ev):

   -10.4517 -10.1444  -9.7328  -9.5717  -9.4550  -9.0661  -9.0480  -4.7249
    -4.5809  -4.4064  -4.1069  -3.7407  -3.6233  -3.5894  -2.6648  -2.6166
    -2.1425  -2.0474  -1.5709  -1.2609  -1.1953  -1.1347  -0.8135  -0.7330
    -0.3913  -0.3328   0.0397   0.2650   2.4314   2.7278   3.2391   3.3286
     3.7751   4.1757

          k = 0.3333-0.3536 0.0000 (  3056 PWs)   bands (ev):

   -10.0867  -9.9729  -9.8704  -9.6859  -9.6167  -9.1302  -9.0938  -4.6371
    -4.5361  -4.4326  -4.3395  -4.2775  -3.8953  -3.7896  -2.6118  -2.5857
    -2.2857  -2.2814  -1.3331  -1.3013  -1.0753  -0.9971  -0.6439  -0.3803
    -0.3207  -0.1752   0.0965   0.2946   2.9496   3.0936   3.9027   4.0513
     4.1139   4.3244

          k = 0.4167 0.0000 0.0000 (  3053 PWs)   bands (ev):

   -10.2770  -9.9775  -9.6357  -9.5471  -9.4110  -8.9410  -8.9399  -4.6179
    -4.6164  -4.3360  -4.2525  -4.0094  -3.6835  -3.4785  -2.7570  -2.5482
    -2.1108  -1.7230  -1.6483  -1.5971  -1.5738  -1.2118  -1.1388  -0.7301
    -0.7197  -0.4723  -0.0904   0.1850   1.7007   2.0569   2.7746   3.1639
     3.1706   3.2596

          k = 0.4167 0.1768 0.0000 (  3044 PWs)   bands (ev):

   -10.1548  -9.8789  -9.6665  -9.5251  -9.4443  -8.9484  -8.9372  -4.8220
    -4.6817  -4.5169  -4.3207  -4.1951  -4.1100  -4.1041  -2.5237  -2.4907
    -1.9474  -1.9044  -1.7689  -1.5260  -1.2646  -1.2105  -0.9319  -0.6596
    -0.5916  -0.3828   0.0188   0.2363   2.2752   2.4013   3.1800   3.2317
     3.7168   3.8817

          k = 0.4167-0.3536 0.0000 (  3068 PWs)   bands (ev):

    -9.9451  -9.8181  -9.7329  -9.5306  -9.4824  -8.9653  -8.9368  -5.0227
    -4.8499  -4.7882  -4.4490  -4.4142  -4.1796  -4.1560  -2.6973  -2.6767
    -2.1362  -2.1199  -1.6640  -1.4719  -1.0831  -0.9638  -0.8984  -0.6303
    -0.2571  -0.1875   0.0858   0.2864   2.6660   2.9885   3.6533   4.0507
     4.1042   4.4926

          k =-0.5000 0.0000 0.0000 (  3048 PWs)   bands (ev):

    -9.9835  -9.8424  -9.7694  -9.5297  -9.4811  -8.9360  -8.9031  -4.6785
    -4.6587  -4.2313  -4.1566  -4.0608  -4.0389  -3.9647  -2.4875  -2.3859
    -2.1221  -1.9133  -1.7436  -1.5800  -1.4938  -1.2242  -1.1396  -0.7652
    -0.6425  -0.5195  -0.0789   0.1761   1.4928   1.9617   2.5607   2.9733
     3.2143   3.2556

          k =-0.5000 0.1768 0.0000 (  3052 PWs)   bands (ev):

    -9.9349  -9.7983  -9.7260  -9.5002  -9.4554  -8.9177  -8.8863  -4.7465
    -4.6882  -4.6151  -4.4759  -4.3894  -4.3639  -4.2756  -2.2429  -2.1917
    -2.1619  -2.0095  -1.6434  -1.6114  -1.3288  -1.3215  -1.1077  -0.6410
    -0.5612  -0.4012   0.0313   0.2300   2.2346   2.2595   3.1982   3.2573
     3.6114   3.6231

          k =-0.5000-0.3536 0.0000 (  3076 PWs)   bands (ev):

    -9.8899  -9.7578  -9.6805  -9.4691  -9.4280  -8.9007  -8.8728  -5.1771
    -4.9870  -4.9380  -4.5653  -4.4133  -4.3650  -4.2326  -2.5987  -2.5941
    -2.1194  -2.0248  -1.7820  -1.6336  -1.2817  -0.9929  -0.7770  -0.5166
    -0.4465  -0.2638   0.1473   0.2909   2.5264   2.9580   3.6030   4.0714
     4.1922   4.5701

     the Fermi energy is     1.0820 ev

     Writing output data file AlAs110.save
 
     init_run     :      0.01s CPU      0.06s WALL (       1 calls)
     electrons    :      7.48s CPU     24.87s WALL (       1 calls)

     Called by init_run:
     wfcinit      :      0.00s CPU      0.00s WALL (       1 calls)
     potinit      :      0.00s CPU      0.01s WALL (       1 calls)

     Called by electrons:
     c_bands      :      7.48s CPU     24.87s WALL (       1 calls)
     v_of_rho     :      0.00s CPU      0.00s WALL (       1 calls)

     Called by c_bands:
     init_us_2    :      0.00s CPU      0.03s WALL (      21 calls)
     cegterg      :      6.90s CPU     22.84s WALL (      54 calls)

     Called by sum_band:

     Called by *egterg:
     h_psi        :      4.36s CPU     15.02s WALL (     944 calls)
     g_psi        :      0.09s CPU      0.29s WALL (     869 calls)
     cdiaghg      :      0.88s CPU      2.90s WALL (     890 calls)

     Called by h_psi:
     add_vuspsi   :      0.32s CPU      0.95s WALL (     944 calls)

     General routines
     calbec       :      0.34s CPU      1.00s WALL (     944 calls)
     fft          :      0.00s CPU      0.00s WALL (       3 calls)
     fftw         :      3.30s CPU     11.60s WALL (   24738 calls)
     davcio       :      0.01s CPU      0.14s WALL (      21 calls)
 
     Parallel routines
     fft_scatter  :      0.49s CPU      1.71s WALL (   24741 calls)
 
     PWSCF        :     7.50s CPU        25.27s WALL

 
   This run was terminated on:  18: 5:13   7Feb2018            

=------------------------------------------------------------------------------=
   JOB DONE.
=------------------------------------------------------------------------------=
