
     Program PROJWFC v.5.4.0 starts on  7Feb2018 at 18: 5:43 

     This program is part of the open-source Quantum ESPRESSO suite
     for quantum simulation of materials; please cite
         "P. Giannozzi et al., J. Phys.:Condens. Matter 21 395502 (2009);
          URL http://www.quantum-espresso.org", 
     in publications or presentations arising from this work. More details at
     http://www.quantum-espresso.org/quote

     Parallel version (MPI & OpenMP), running on       1 processor cores
     Number of MPI processes:                 1
     Threads/MPI process:                     1

     Reading data from directory:
     /short/y35/tjf502/QE-5.4.0-bw/tempdir/AlAs110.save

   Info: using nr1, nr2, nr3 values from input

   Info: using nr1, nr2, nr3 values from input

     IMPORTANT: XC functional enforced from input :
     Exchange-correlation      =  SLA  PZ   NOGX NOGC ( 1  1  0  0 0 0)
     Any further DFT definition will be discarded
     Please, verify this is what you really want

 
     G-vector sticks info
     --------------------
     sticks:   dense  smooth     PW     G-vecs:    dense   smooth      PW
     Sum         349     349    109                24607    24607    4469
 

     Gaussian broadening (read from input): ngauss,degauss=   0    0.010000


     Calling projwave .... 

     Atomic states used for projection
     (read from pseudopotential files):

     state #   1: atom   1 (As ), wfc  1 (l=0 m= 1)
     state #   2: atom   1 (As ), wfc  2 (l=1 m= 1)
     state #   3: atom   1 (As ), wfc  2 (l=1 m= 2)
     state #   4: atom   1 (As ), wfc  2 (l=1 m= 3)
     state #   5: atom   2 (Al ), wfc  1 (l=0 m= 1)
     state #   6: atom   2 (Al ), wfc  2 (l=1 m= 1)
     state #   7: atom   2 (Al ), wfc  2 (l=1 m= 2)
     state #   8: atom   2 (Al ), wfc  2 (l=1 m= 3)
     state #   9: atom   3 (As ), wfc  1 (l=0 m= 1)
     state #  10: atom   3 (As ), wfc  2 (l=1 m= 1)
     state #  11: atom   3 (As ), wfc  2 (l=1 m= 2)
     state #  12: atom   3 (As ), wfc  2 (l=1 m= 3)
     state #  13: atom   4 (Al ), wfc  1 (l=0 m= 1)
     state #  14: atom   4 (Al ), wfc  2 (l=1 m= 1)
     state #  15: atom   4 (Al ), wfc  2 (l=1 m= 2)
     state #  16: atom   4 (Al ), wfc  2 (l=1 m= 3)
     state #  17: atom   5 (As ), wfc  1 (l=0 m= 1)
     state #  18: atom   5 (As ), wfc  2 (l=1 m= 1)
     state #  19: atom   5 (As ), wfc  2 (l=1 m= 2)
     state #  20: atom   5 (As ), wfc  2 (l=1 m= 3)
     state #  21: atom   6 (Al ), wfc  1 (l=0 m= 1)
     state #  22: atom   6 (Al ), wfc  2 (l=1 m= 1)
     state #  23: atom   6 (Al ), wfc  2 (l=1 m= 2)
     state #  24: atom   6 (Al ), wfc  2 (l=1 m= 3)
     state #  25: atom   7 (As ), wfc  1 (l=0 m= 1)
     state #  26: atom   7 (As ), wfc  2 (l=1 m= 1)
     state #  27: atom   7 (As ), wfc  2 (l=1 m= 2)
     state #  28: atom   7 (As ), wfc  2 (l=1 m= 3)
     state #  29: atom   8 (Al ), wfc  1 (l=0 m= 1)
     state #  30: atom   8 (Al ), wfc  2 (l=1 m= 1)
     state #  31: atom   8 (Al ), wfc  2 (l=1 m= 2)
     state #  32: atom   8 (Al ), wfc  2 (l=1 m= 3)
     state #  33: atom   9 (As ), wfc  1 (l=0 m= 1)
     state #  34: atom   9 (As ), wfc  2 (l=1 m= 1)
     state #  35: atom   9 (As ), wfc  2 (l=1 m= 2)
     state #  36: atom   9 (As ), wfc  2 (l=1 m= 3)
     state #  37: atom  10 (Al ), wfc  1 (l=0 m= 1)
     state #  38: atom  10 (Al ), wfc  2 (l=1 m= 1)
     state #  39: atom  10 (Al ), wfc  2 (l=1 m= 2)
     state #  40: atom  10 (Al ), wfc  2 (l=1 m= 3)
     state #  41: atom  11 (As ), wfc  1 (l=0 m= 1)
     state #  42: atom  11 (As ), wfc  2 (l=1 m= 1)
     state #  43: atom  11 (As ), wfc  2 (l=1 m= 2)
     state #  44: atom  11 (As ), wfc  2 (l=1 m= 3)
     state #  45: atom  12 (Al ), wfc  1 (l=0 m= 1)
     state #  46: atom  12 (Al ), wfc  2 (l=1 m= 1)
     state #  47: atom  12 (Al ), wfc  2 (l=1 m= 2)
     state #  48: atom  12 (Al ), wfc  2 (l=1 m= 3)
     state #  49: atom  13 (As ), wfc  1 (l=0 m= 1)
     state #  50: atom  13 (As ), wfc  2 (l=1 m= 1)
     state #  51: atom  13 (As ), wfc  2 (l=1 m= 2)
     state #  52: atom  13 (As ), wfc  2 (l=1 m= 3)
     state #  53: atom  14 (Al ), wfc  1 (l=0 m= 1)
     state #  54: atom  14 (Al ), wfc  2 (l=1 m= 1)
     state #  55: atom  14 (Al ), wfc  2 (l=1 m= 2)
     state #  56: atom  14 (Al ), wfc  2 (l=1 m= 3)

 k =   0.0000000000  0.0000000000  0.0000000000
==== e(   1) =   -11.33605 eV ==== 
     psi = 0.154*[#  49]+0.119*[#  17]+0.119*[#  25]+0.098*[#  53]+0.084*[#  21]+
          +0.084*[#  29]+0.072*[#   9]+0.072*[#  33]+0.044*[#  13]+0.044*[#  37]+
          +0.017*[#   5]+0.017*[#  45]+0.012*[#   1]+0.012*[#  41]+0.009*[#  14]+
          +0.009*[#  38]+0.009*[#   6]+0.009*[#  46]+0.003*[#  22]+0.003*[#  30]+
          +0.002*[#   2]+0.002*[#  42]+0.001*[#  10]+0.001*[#  34]+
    |psi|^2 = 0.997
==== e(   2) =   -10.98058 eV ==== 
     psi = 0.157*[#   9]+0.157*[#  33]+0.080*[#  17]+0.080*[#  25]+0.073*[#  13]+
          +0.073*[#  37]+0.049*[#  54]+0.041*[#  21]+0.041*[#  29]+0.038*[#   5]+
          +0.038*[#  45]+0.037*[#   1]+0.037*[#  41]+0.025*[#  22]+0.025*[#  30]+
          +0.010*[#   6]+0.010*[#  46]+0.008*[#  50]+0.004*[#   2]+0.004*[#  42]+
          +0.003*[#  18]+0.003*[#  26]+0.001*[#  16]+0.001*[#  40]+
    |psi|^2 = 0.996
==== e(   3) =   -10.41417 eV ==== 
     psi = 0.168*[#  49]+0.123*[#   9]+0.123*[#  33]+0.068*[#   1]+0.068*[#  41]+
          +0.064*[#  22]+0.064*[#  30]+0.048*[#  53]+0.044*[#   5]+0.044*[#  45]+
          +0.037*[#  13]+0.037*[#  37]+0.018*[#  14]+0.018*[#  38]+0.011*[#  17]+
          +0.011*[#  25]+0.008*[#  18]+0.008*[#  26]+0.006*[#  56]+0.005*[#  16]+
          +0.005*[#  40]+0.004*[#   2]+0.004*[#  42]+0.003*[#  21]+0.003*[#  29]+
          +0.003*[#  10]+0.003*[#  34]+0.001*[#   6]+0.001*[#  46]+
    |psi|^2 = 0.996
==== e(   4) =    -9.77385 eV ==== 
     psi = 0.177*[#  17]+0.177*[#  25]+0.104*[#   1]+0.104*[#  41]+0.057*[#  54]+
          +0.054*[#  14]+0.054*[#  38]+0.037*[#   5]+0.037*[#  45]+0.026*[#   9]+
          +0.026*[#  33]+0.023*[#  21]+0.023*[#  29]+0.021*[#  24]+0.021*[#  32]+
          +0.005*[#  10]+0.005*[#  34]+0.005*[#  50]+0.004*[#  13]+0.004*[#  37]+
          +0.003*[#  16]+0.003*[#  40]+0.003*[#   8]+0.003*[#  48]+0.003*[#   6]+
          +0.003*[#  46]+0.002*[#   2]+0.002*[#  22]+0.002*[#  30]+0.002*[#  42]+
          +0.001*[#  20]+0.001*[#  28]+
    |psi|^2 = 0.997
==== e(   5) =    -9.39815 eV ==== 
     psi = 0.261*[#  49]+0.120*[#  17]+0.120*[#  25]+0.084*[#   1]+0.084*[#  41]+
          +0.072*[#  56]+0.035*[#  24]+0.035*[#  32]+0.033*[#  14]+0.033*[#  38]+
          +0.018*[#   5]+0.018*[#  45]+0.018*[#  22]+0.018*[#  30]+0.007*[#   6]+
          +0.007*[#  46]+0.007*[#   8]+0.007*[#  48]+0.006*[#  53]+0.002*[#  21]+
          +0.002*[#  29]+0.001*[#  10]+0.001*[#  34]+
    |psi|^2 = 0.997
==== e(   6) =    -9.21548 eV ==== 
     psi = 0.148*[#   1]+0.148*[#  41]+0.116*[#   9]+0.116*[#  33]+0.063*[#  17]+
          +0.063*[#  25]+0.042*[#  16]+0.042*[#  40]+0.033*[#  49]+0.032*[#   8]+
          +0.032*[#  48]+0.028*[#  24]+0.028*[#  32]+0.020*[#   6]+0.020*[#  46]+
          +0.019*[#  56]+0.013*[#   5]+0.013*[#  45]+0.005*[#  14]+0.005*[#  38]+
          +0.001*[#   2]+0.001*[#  22]+0.001*[#  30]+0.001*[#  42]+0.001*[#  53]+
          +0.001*[#   4]+0.001*[#  44]+
    |psi|^2 = 0.996
==== e(   7) =    -9.19463 eV ==== 
     psi = 0.168*[#   1]+0.168*[#  41]+0.128*[#   9]+0.128*[#  33]+0.046*[#  17]+
          +0.046*[#  25]+0.044*[#  16]+0.044*[#  40]+0.036*[#   8]+0.036*[#  48]+
          +0.023*[#   6]+0.023*[#  46]+0.017*[#  24]+0.017*[#  32]+0.015*[#   5]+
          +0.015*[#  45]+0.010*[#  54]+0.007*[#  14]+0.007*[#  38]+0.006*[#  22]+
          +0.006*[#  30]+0.001*[#   2]+0.001*[#   4]+0.001*[#  42]+0.001*[#  44]+
    |psi|^2 = 0.996
==== e(   8) =    -4.84625 eV ==== 
     psi = 0.159*[#  52]+0.125*[#  20]+0.125*[#  28]+0.111*[#  53]+0.088*[#  21]+
          +0.088*[#  29]+0.078*[#  12]+0.078*[#  36]+0.040*[#  13]+0.040*[#  37]+
          +0.008*[#   4]+0.008*[#   5]+0.008*[#  44]+0.008*[#  45]+0.004*[#  10]+
          +0.004*[#  34]+0.003*[#  18]+0.003*[#  26]+0.002*[#   2]+0.002*[#  42]+
          +0.002*[#   8]+0.002*[#  48]+
    |psi|^2 = 0.995
==== e(   9) =    -4.56168 eV ==== 
     psi = 0.139*[#  12]+0.139*[#  36]+0.098*[#  13]+0.098*[#  37]+0.076*[#  21]+
          +0.076*[#  29]+0.072*[#  20]+0.072*[#  28]+0.048*[#  50]+0.022*[#   4]+
          +0.022*[#  44]+0.021*[#   5]+0.021*[#  45]+0.011*[#  18]+0.011*[#  26]+
          +0.009*[#   2]+0.009*[#  42]+0.006*[#  24]+0.006*[#  32]+0.006*[#   8]+
          +0.006*[#  48]+0.006*[#  10]+0.006*[#  34]+0.003*[#  17]+0.003*[#  25]+
          +0.002*[#   1]+0.002*[#  41]+
    |psi|^2 = 0.994
==== e(  10) =    -4.04370 eV ==== 
     psi = 0.112*[#  53]+0.108*[#  18]+0.108*[#  26]+0.074*[#  12]+0.074*[#  36]+
          +0.071*[#  13]+0.071*[#  37]+0.062*[#  52]+0.035*[#   5]+0.035*[#  45]+
          +0.031*[#  56]+0.024*[#   4]+0.024*[#  44]+0.021*[#   8]+0.021*[#  48]+
          +0.015*[#  10]+0.015*[#  34]+0.014*[#  49]+0.010*[#   2]+0.010*[#  42]+
          +0.009*[#  16]+0.009*[#  40]+0.009*[#   9]+0.009*[#  33]+0.004*[#  21]+
          +0.004*[#  29]+0.002*[#  14]+0.002*[#  38]+0.002*[#  20]+0.002*[#  24]+
          +0.002*[#  28]+0.002*[#  32]+0.001*[#   6]+0.001*[#  46]+
    |psi|^2 = 0.993
==== e(  11) =    -3.50937 eV ==== 
     psi = 0.204*[#  50]+0.092*[#  10]+0.092*[#  34]+0.051*[#   5]+0.051*[#  45]+
          +0.050*[#  24]+0.050*[#  32]+0.042*[#  12]+0.042*[#  36]+0.037*[#  21]+
          +0.037*[#  29]+0.022*[#   8]+0.022*[#  48]+0.022*[#  54]+0.020*[#   4]+
          +0.020*[#  44]+0.017*[#  17]+0.017*[#  25]+0.016*[#   1]+0.016*[#  41]+
          +0.011*[#  22]+0.011*[#  30]+0.008*[#   6]+0.008*[#  46]+0.005*[#  16]+
          +0.005*[#  40]+0.005*[#  13]+0.005*[#  37]+0.004*[#  18]+0.004*[#  26]+
          +0.002*[#   2]+0.002*[#  42]+0.001*[#  14]+0.001*[#  38]+
    |psi|^2 = 0.994
==== e(  12) =    -2.92998 eV ==== 
     psi = 0.119*[#  18]+0.119*[#  26]+0.072*[#  52]+0.051*[#  12]+0.051*[#  36]+
          +0.048*[#  56]+0.047*[#  22]+0.047*[#  30]+0.042*[#   5]+0.042*[#  45]+
          +0.038*[#  16]+0.038*[#  40]+0.030*[#   4]+0.030*[#  44]+0.021*[#  49]+
          +0.018*[#   6]+0.018*[#  46]+0.015*[#   1]+0.015*[#  41]+0.013*[#  14]+
          +0.013*[#  38]+0.013*[#   9]+0.013*[#  33]+0.013*[#   2]+0.013*[#  42]+
          +0.011*[#  20]+0.011*[#  28]+0.008*[#  21]+0.008*[#  29]+0.004*[#  10]+
          +0.004*[#  34]+0.003*[#   8]+0.003*[#  48]+
    |psi|^2 = 0.993
==== e(  13) =    -2.57253 eV ==== 
     psi = 0.123*[#  18]+0.123*[#  26]+0.097*[#  54]+0.055*[#  20]+0.055*[#  28]+
          +0.044*[#   2]+0.044*[#  42]+0.042*[#  16]+0.042*[#  40]+0.036*[#   6]+
          +0.036*[#  46]+0.028*[#  22]+0.028*[#  30]+0.024*[#  10]+0.024*[#  34]+
          +0.019*[#  21]+0.019*[#  29]+0.017*[#  13]+0.017*[#  37]+0.016*[#   8]+
          +0.016*[#  48]+0.013*[#   9]+0.013*[#  33]+0.009*[#  17]+0.009*[#  25]+
          +0.006*[#   4]+0.006*[#  44]+0.005*[#  50]+0.005*[#   1]+0.005*[#  41]+
          +0.004*[#   5]+0.004*[#  45]+0.003*[#  12]+0.003*[#  36]+
    |psi|^2 = 0.990
==== e(  14) =    -2.45707 eV ==== 
     psi = 0.210*[#  10]+0.210*[#  34]+0.063*[#  52]+0.038*[#  22]+0.038*[#  30]+
          +0.037*[#   2]+0.037*[#  42]+0.036*[#  14]+0.036*[#  38]+0.028*[#   1]+
          +0.028*[#  41]+0.025*[#  24]+0.025*[#  32]+0.018*[#   5]+0.018*[#  45]+
          +0.013*[#   8]+0.013*[#  48]+0.013*[#   6]+0.013*[#  46]+0.011*[#  13]+
          +0.011*[#  37]+0.009*[#  21]+0.009*[#  29]+0.009*[#  49]+0.008*[#  53]+
          +0.006*[#  20]+0.006*[#  28]+0.006*[#  56]+0.004*[#  12]+0.004*[#  36]+
          +0.002*[#  16]+0.002*[#  40]+0.002*[#  18]+0.002*[#  26]+0.001*[#  17]+
          +0.001*[#  25]+
    |psi|^2 = 0.992
==== e(  15) =    -1.86275 eV ==== 
     psi = 0.125*[#  20]+0.125*[#  28]+0.081*[#   4]+0.081*[#  44]+0.078*[#  14]+
          +0.078*[#  38]+0.049*[#  10]+0.049*[#  34]+0.036*[#  18]+0.036*[#  26]+
          +0.027*[#   5]+0.027*[#  45]+0.022*[#  54]+0.018*[#  50]+0.018*[#  24]+
          +0.018*[#  32]+0.014*[#  21]+0.014*[#  29]+0.013*[#  12]+0.013*[#  36]+
          +0.012*[#  16]+0.012*[#  40]+0.011*[#  22]+0.011*[#  30]+0.006*[#  17]+
          +0.006*[#  25]+0.004*[#   9]+0.004*[#  33]+
    |psi|^2 = 0.991
==== e(  16) =    -1.54508 eV ==== 
     psi = 0.232*[#  50]+0.115*[#   2]+0.115*[#  42]+0.064*[#  10]+0.064*[#  34]+
          +0.035*[#  54]+0.032*[#  22]+0.032*[#  30]+0.030*[#   1]+0.030*[#  41]+
          +0.029*[#   6]+0.029*[#  46]+0.025*[#   5]+0.025*[#  45]+0.016*[#  14]+
          +0.016*[#  38]+0.013*[#   9]+0.013*[#  33]+0.009*[#  16]+0.009*[#  40]+
          +0.007*[#  13]+0.007*[#  37]+0.006*[#  17]+0.006*[#  25]+0.005*[#  18]+
          +0.005*[#  26]+0.005*[#  24]+0.005*[#  32]+0.003*[#  20]+0.003*[#  28]+
          +0.003*[#   8]+0.003*[#  48]+0.001*[#  21]+0.001*[#  29]+
    |psi|^2 = 0.992
==== e(  17) =    -1.44745 eV ==== 
     psi = 0.177*[#  51]+0.146*[#  19]+0.146*[#  27]+0.088*[#  55]+0.079*[#  11]+
          +0.079*[#  35]+0.073*[#  23]+0.073*[#  31]+0.040*[#  15]+0.040*[#  39]+
          +0.015*[#   3]+0.015*[#  43]+0.013*[#   7]+0.013*[#  47]+
    |psi|^2 = 0.996
==== e(  18) =    -1.29380 eV ==== 
     psi = 0.095*[#   2]+0.095*[#  42]+0.078*[#   4]+0.078*[#  44]+0.066*[#  52]+
          +0.066*[#   6]+0.066*[#  46]+0.043*[#  53]+0.042*[#  14]+0.042*[#  38]+
          +0.026*[#  20]+0.026*[#  28]+0.025*[#  12]+0.025*[#  36]+0.020*[#   5]+
          +0.020*[#  45]+0.016*[#   8]+0.016*[#  48]+0.015*[#  18]+0.015*[#  26]+
          +0.012*[#  22]+0.012*[#  30]+0.012*[#  16]+0.012*[#  40]+0.010*[#  10]+
          +0.010*[#  34]+0.009*[#  17]+0.009*[#  25]+0.008*[#  21]+0.008*[#  29]+
          +0.004*[#  49]+0.002*[#  56]+0.002*[#   9]+0.002*[#  33]+
    |psi|^2 = 0.985
==== e(  19) =    -1.12790 eV ==== 
     psi = 0.173*[#  11]+0.173*[#  35]+0.102*[#  19]+0.102*[#  27]+0.083*[#  15]+
          +0.083*[#  39]+0.055*[#   3]+0.055*[#  43]+0.045*[#  23]+0.045*[#  31]+
          +0.040*[#   7]+0.040*[#  47]+
    |psi|^2 = 0.995
==== e(  20) =    -0.64012 eV ==== 
     psi = 0.203*[#  51]+0.112*[#   3]+0.112*[#  43]+0.112*[#  11]+0.112*[#  35]+
          +0.074*[#  55]+0.060*[#   7]+0.060*[#  47]+0.050*[#  15]+0.050*[#  39]+
          +0.016*[#  19]+0.016*[#  27]+0.007*[#  23]+0.007*[#  31]+
    |psi|^2 = 0.992
==== e(  21) =    -0.57860 eV ==== 
     psi = 0.096*[#   2]+0.096*[#  42]+0.090*[#  52]+0.089*[#   4]+0.089*[#  44]+
          +0.058*[#  10]+0.058*[#  34]+0.036*[#  56]+0.035*[#  18]+0.035*[#  26]+
          +0.030*[#  20]+0.030*[#  28]+0.021*[#   5]+0.021*[#  45]+0.016*[#  14]+
          +0.016*[#  38]+0.016*[#  17]+0.016*[#  25]+0.013*[#  49]+0.012*[#  22]+
          +0.012*[#  30]+0.011*[#   8]+0.011*[#  48]+0.010*[#   1]+0.010*[#   6]+
          +0.010*[#  41]+0.010*[#  46]+0.007*[#  16]+0.007*[#  24]+0.007*[#  32]+
          +0.007*[#  40]+0.003*[#  13]+0.003*[#  37]+0.002*[#  12]+0.002*[#  36]+
    |psi|^2 = 0.987
==== e(  22) =    -0.32029 eV ==== 
     psi = 0.103*[#  12]+0.103*[#  36]+0.100*[#   4]+0.100*[#  44]+0.050*[#  20]+
          +0.050*[#  28]+0.043*[#   6]+0.043*[#  46]+0.042*[#  54]+0.039*[#  18]+
          +0.039*[#  26]+0.023*[#   5]+0.023*[#  45]+0.023*[#  50]+0.021*[#   2]+
          +0.021*[#  42]+0.018*[#  10]+0.018*[#  34]+0.015*[#  22]+0.015*[#  30]+
          +0.011*[#  14]+0.011*[#  38]+0.010*[#  13]+0.010*[#  37]+0.009*[#  21]+
          +0.009*[#  29]+0.007*[#   1]+0.007*[#  41]+0.006*[#   8]+0.006*[#  48]+
          +0.003*[#  16]+0.003*[#  40]+
    |psi|^2 = 0.982
==== e(  23) =    -0.09926 eV ==== 
     psi = 0.191*[#  19]+0.191*[#  27]+0.178*[#   3]+0.178*[#  43]+0.063*[#   7]+
          +0.063*[#  47]+0.055*[#  23]+0.055*[#  31]+0.003*[#  11]+0.003*[#  35]+
          +0.003*[#  15]+0.003*[#  39]+
    |psi|^2 = 0.988
==== e(  24) =     0.30644 eV ==== 
     psi = 0.210*[#  51]+0.187*[#   3]+0.187*[#  43]+0.066*[#  11]+0.066*[#  35]+
          +0.051*[#  19]+0.051*[#  27]+0.047*[#   7]+0.047*[#  47]+0.038*[#  55]+
          +0.009*[#  23]+0.009*[#  31]+0.008*[#  15]+0.008*[#  39]+
    |psi|^2 = 0.983
==== e(  25) =     0.34238 eV ==== 
     psi = 0.113*[#  18]+0.113*[#  26]+0.100*[#   2]+0.100*[#  42]+0.096*[#   4]+
          +0.096*[#  44]+0.082*[#  50]+0.058*[#  10]+0.058*[#  34]+0.029*[#  12]+
          +0.029*[#  36]+0.025*[#   8]+0.025*[#  48]+0.012*[#  20]+0.012*[#  28]+
          +0.004*[#   1]+0.004*[#  41]+0.003*[#   9]+0.003*[#  33]+0.003*[#  24]+
          +0.003*[#  32]+0.002*[#   6]+0.002*[#  46]+0.001*[#  13]+0.001*[#  37]+
          +0.001*[#   5]+0.001*[#  45]+
    |psi|^2 = 0.980
==== e(  26) =     0.46986 eV ==== 
     psi = 0.163*[#  52]+0.159*[#  20]+0.159*[#  28]+0.101*[#  12]+0.101*[#  36]+
          +0.091*[#   4]+0.091*[#  44]+0.010*[#   6]+0.010*[#  46]+0.009*[#  24]+
          +0.009*[#  32]+0.009*[#   1]+0.009*[#  41]+0.008*[#  56]+0.006*[#   2]+
          +0.006*[#  42]+0.003*[#   5]+0.003*[#  45]+0.003*[#  21]+0.003*[#  29]+
          +0.003*[#   8]+0.003*[#  16]+0.003*[#  40]+0.003*[#  48]+0.002*[#  53]+
          +0.002*[#  22]+0.002*[#  30]+0.001*[#  17]+0.001*[#  25]+
    |psi|^2 = 0.976
==== e(  27) =     0.57885 eV ==== 
     psi = 0.214*[#  11]+0.214*[#  35]+0.128*[#   3]+0.128*[#  43]+0.090*[#  19]+
          +0.090*[#  27]+0.025*[#   7]+0.025*[#  47]+0.021*[#  15]+0.021*[#  39]+
          +0.012*[#  23]+0.012*[#  31]+
    |psi|^2 = 0.980
==== e(  28) =     0.67106 eV ==== 
     psi = 0.183*[#  51]+0.175*[#  19]+0.175*[#  27]+0.133*[#  11]+0.133*[#  35]+
          +0.046*[#   3]+0.046*[#  43]+0.016*[#  23]+0.016*[#  31]+0.015*[#  55]+
          +0.010*[#  15]+0.010*[#  39]+0.008*[#   7]+0.008*[#  47]+
    |psi|^2 = 0.977
==== e(  29) =     2.16388 eV ==== 
     psi = 0.113*[#  24]+0.113*[#  32]+0.099*[#  56]+0.059*[#   2]+0.059*[#  42]+
          +0.056*[#  16]+0.056*[#  40]+0.045*[#   8]+0.045*[#  48]+0.038*[#  17]+
          +0.038*[#  25]+0.038*[#  49]+0.022*[#   9]+0.022*[#  33]+0.010*[#   6]+
          +0.010*[#  46]+0.006*[#  13]+0.006*[#  37]+0.005*[#  12]+0.005*[#  36]+
          +0.005*[#  53]+0.004*[#  20]+0.004*[#  28]+0.004*[#  21]+0.004*[#  29]+
          +0.004*[#   5]+0.004*[#  45]+0.003*[#   1]+0.003*[#  41]+0.003*[#  52]+
    |psi|^2 = 0.887
==== e(  30) =     2.58123 eV ==== 
     psi = 0.076*[#   8]+0.076*[#  48]+0.070*[#  16]+0.070*[#  40]+0.054*[#  24]+
          +0.054*[#  32]+0.046*[#   2]+0.046*[#  42]+0.034*[#   5]+0.034*[#  45]+
          +0.024*[#  12]+0.024*[#  36]+0.023*[#  13]+0.023*[#  37]+0.018*[#   9]+
          +0.018*[#  33]+0.018*[#   1]+0.018*[#  41]+0.017*[#  17]+0.017*[#  25]+
          +0.012*[#   4]+0.012*[#  44]+0.012*[#  21]+0.012*[#  29]+0.010*[#  20]+
          +0.010*[#  28]+0.008*[#  18]+0.008*[#  26]+0.008*[#  50]+0.004*[#   6]+
          +0.004*[#  46]+0.003*[#  22]+0.003*[#  30]+
    |psi|^2 = 0.864
==== e(  31) =     2.86716 eV ==== 
     psi = 0.108*[#   5]+0.108*[#  45]+0.100*[#  21]+0.100*[#  29]+0.053*[#   6]+
          +0.053*[#  46]+0.051*[#   4]+0.051*[#  44]+0.042*[#   1]+0.042*[#  41]+
          +0.023*[#  49]+0.023*[#   9]+0.023*[#  33]+0.015*[#  20]+0.015*[#  28]+
          +0.010*[#  17]+0.010*[#  25]+0.008*[#  12]+0.008*[#  36]+0.006*[#   8]+
          +0.006*[#  48]+0.006*[#  14]+0.006*[#  38]+0.005*[#  13]+0.005*[#  24]+
          +0.005*[#  32]+0.005*[#  37]+0.005*[#  53]+0.004*[#  52]+0.003*[#  22]+
          +0.003*[#  30]+
    |psi|^2 = 0.907
==== e(  32) =     3.25400 eV ==== 
     psi = 0.148*[#  53]+0.085*[#  52]+0.076*[#  56]+0.058*[#   2]+0.058*[#  42]+
          +0.048*[#   8]+0.048*[#  48]+0.033*[#  49]+0.032*[#  20]+0.032*[#  28]+
          +0.021*[#  21]+0.021*[#  29]+0.016*[#   5]+0.016*[#  16]+0.016*[#  40]+
          +0.016*[#  45]+0.011*[#  24]+0.011*[#  32]+0.010*[#   1]+0.010*[#  41]+
          +0.009*[#  13]+0.009*[#  37]+0.004*[#   6]+0.004*[#  14]+0.004*[#  38]+
          +0.004*[#  46]+0.003*[#  22]+0.003*[#  30]+0.003*[#  18]+0.003*[#  26]+
          +0.003*[#   4]+0.003*[#  44]+0.002*[#  10]+0.002*[#  34]+
    |psi|^2 = 0.824
==== e(  33) =     3.46664 eV ==== 
     psi = 0.106*[#   6]+0.106*[#  46]+0.097*[#   5]+0.097*[#  45]+0.047*[#   4]+
          +0.047*[#  44]+0.046*[#   1]+0.046*[#  41]+0.038*[#  50]+0.027*[#   9]+
          +0.027*[#  33]+0.025*[#  22]+0.025*[#  30]+0.024*[#  10]+0.024*[#  34]+
          +0.016*[#  13]+0.016*[#  37]+0.015*[#  21]+0.015*[#  29]+0.013*[#  14]+
          +0.013*[#  38]+0.011*[#   8]+0.011*[#  48]+0.010*[#  54]+0.008*[#  16]+
          +0.008*[#  40]+0.005*[#  24]+0.005*[#  32]+0.003*[#   2]+0.003*[#  42]+
          +0.003*[#  18]+0.003*[#  26]+
    |psi|^2 = 0.943
==== e(  34) =     3.50532 eV ==== 
     psi = 0.142*[#  13]+0.142*[#  37]+0.061*[#  56]+0.047*[#   8]+0.047*[#  48]+
          +0.044*[#  53]+0.041*[#  17]+0.041*[#  25]+0.029*[#   9]+0.029*[#  33]+
          +0.026*[#  12]+0.026*[#  36]+0.020*[#   2]+0.020*[#  42]+0.017*[#  24]+
          +0.017*[#  32]+0.009*[#   4]+0.009*[#  44]+0.008*[#  16]+0.008*[#  40]+
          +0.007*[#  18]+0.007*[#  26]+0.005*[#  20]+0.005*[#  28]+0.005*[#   5]+
          +0.005*[#  45]+0.004*[#  10]+0.004*[#  34]+0.004*[#  21]+0.004*[#  29]+
          +0.003*[#  22]+0.003*[#  30]+0.001*[#   1]+0.001*[#  41]+
    |psi|^2 = 0.842

 k =   0.0000000000  0.1767766936  0.0000000000
==== e(   1) =   -11.13047 eV ==== 
     psi = 0.151*[#  49]+0.114*[#  17]+0.114*[#  25]+0.079*[#  53]+0.069*[#   9]+
          +0.069*[#  33]+0.067*[#  21]+0.067*[#  29]+0.035*[#  13]+0.035*[#  37]+
          +0.025*[#  56]+0.021*[#  24]+0.021*[#  32]+0.012*[#   5]+0.012*[#  45]+
          +0.011*[#  16]+0.011*[#  40]+0.010*[#   1]+0.010*[#  41]+0.007*[#  14]+
          +0.007*[#  38]+0.007*[#   6]+0.007*[#  46]+0.006*[#   8]+0.006*[#  48]+
          +0.004*[#  52]+0.003*[#  20]+0.003*[#  28]+0.002*[#  12]+0.002*[#  22]+
          +0.002*[#  30]+0.002*[#  36]+0.001*[#   2]+0.001*[#  42]+0.001*[#  10]+
          +0.001*[#  34]+
    |psi|^2 = 0.997
==== e(   2) =   -10.78562 eV ==== 
     psi = 0.160*[#   9]+0.160*[#  33]+0.080*[#  17]+0.080*[#  25]+0.062*[#  13]+
          +0.062*[#  37]+0.038*[#  54]+0.036*[#  21]+0.036*[#  29]+0.033*[#   1]+
          +0.033*[#  41]+0.029*[#   5]+0.029*[#  45]+0.020*[#  22]+0.020*[#  30]+
          +0.017*[#  16]+0.017*[#  40]+0.013*[#   8]+0.013*[#  48]+0.009*[#  24]+
          +0.009*[#  32]+0.008*[#   6]+0.008*[#  46]+0.006*[#  50]+0.003*[#   2]+
          +0.003*[#  42]+0.002*[#  12]+0.002*[#  36]+0.002*[#  18]+0.002*[#  26]+
          +0.001*[#  20]+0.001*[#  28]+
    |psi|^2 = 0.996
==== e(   3) =   -10.27872 eV ==== 
     psi = 0.179*[#  49]+0.135*[#   9]+0.135*[#  33]+0.056*[#   1]+0.056*[#  41]+
          +0.054*[#  22]+0.054*[#  30]+0.048*[#  53]+0.035*[#  13]+0.035*[#  37]+
          +0.032*[#   5]+0.032*[#  45]+0.014*[#  56]+0.013*[#  14]+0.013*[#  38]+
          +0.012*[#   8]+0.012*[#  48]+0.011*[#  17]+0.011*[#  25]+0.011*[#  16]+
          +0.011*[#  40]+0.006*[#  18]+0.006*[#  26]+0.003*[#  21]+0.003*[#  29]+
          +0.003*[#   2]+0.003*[#  42]+0.002*[#   6]+0.002*[#  46]+0.002*[#  10]+
          +0.002*[#  34]+0.001*[#  52]+
    |psi|^2 = 0.996
==== e(   4) =    -9.78692 eV ==== 
     psi = 0.214*[#  17]+0.214*[#  25]+0.061*[#   9]+0.061*[#  33]+0.055*[#  54]+
          +0.041*[#   1]+0.041*[#  41]+0.033*[#  14]+0.033*[#  38]+0.032*[#  24]+
          +0.032*[#  32]+0.031*[#  21]+0.031*[#  29]+0.017*[#   5]+0.017*[#  45]+
          +0.013*[#  16]+0.013*[#  40]+0.008*[#  13]+0.008*[#  37]+0.007*[#   8]+
          +0.007*[#  48]+0.003*[#  50]+0.003*[#  22]+0.003*[#  30]+0.003*[#   6]+
          +0.003*[#  46]+0.003*[#  10]+0.003*[#  34]+0.002*[#  20]+0.002*[#  28]+
    |psi|^2 = 0.997
==== e(   5) =    -9.73731 eV ==== 
     psi = 0.229*[#  49]+0.163*[#  17]+0.163*[#  25]+0.084*[#  56]+0.061*[#  24]+
          +0.061*[#  32]+0.034*[#   9]+0.034*[#  33]+0.025*[#  53]+0.018*[#  21]+
          +0.018*[#  29]+0.018*[#  16]+0.018*[#  40]+0.007*[#  14]+0.007*[#  38]+
          +0.007*[#  52]+0.005*[#  22]+0.005*[#  30]+0.005*[#  13]+0.005*[#  37]+
          +0.004*[#   8]+0.004*[#  20]+0.004*[#  28]+0.004*[#  48]+0.002*[#  12]+
          +0.002*[#  36]+0.002*[#   1]+0.002*[#  41]+0.001*[#   6]+0.001*[#  46]+
    |psi|^2 = 0.996
==== e(   6) =    -9.46301 eV ==== 
     psi = 0.227*[#   1]+0.227*[#  41]+0.079*[#   9]+0.079*[#  33]+0.044*[#   5]+
          +0.044*[#  45]+0.037*[#   8]+0.037*[#  48]+0.036*[#  16]+0.036*[#  40]+
          +0.019*[#  14]+0.019*[#  38]+0.016*[#   6]+0.016*[#  46]+0.008*[#  13]+
          +0.008*[#  37]+0.007*[#  24]+0.007*[#  32]+0.007*[#  17]+0.007*[#  25]+
          +0.004*[#  12]+0.004*[#  36]+0.004*[#  22]+0.004*[#  30]+0.003*[#   2]+
          +0.003*[#  42]+0.002*[#   4]+0.002*[#  44]+0.002*[#  54]+0.001*[#  21]+
          +0.001*[#  29]+0.001*[#  10]+0.001*[#  34]+
    |psi|^2 = 0.996
==== e(   7) =    -9.43855 eV ==== 
     psi = 0.235*[#   1]+0.235*[#  41]+0.062*[#   9]+0.062*[#  33]+0.045*[#   5]+
          +0.045*[#  45]+0.035*[#   8]+0.035*[#  48]+0.034*[#  49]+0.028*[#  14]+
          +0.028*[#  38]+0.025*[#  16]+0.025*[#  40]+0.018*[#   6]+0.018*[#  46]+
          +0.010*[#  22]+0.010*[#  30]+0.006*[#  56]+0.006*[#  13]+0.006*[#  37]+
          +0.004*[#  53]+0.004*[#  17]+0.004*[#  25]+0.003*[#  12]+0.003*[#  36]+
          +0.003*[#   2]+0.003*[#  42]+0.003*[#   4]+0.003*[#  44]+0.001*[#  10]+
          +0.001*[#  34]+
    |psi|^2 = 0.997
==== e(   8) =    -4.62581 eV ==== 
     psi = 0.119*[#  50]+0.081*[#  21]+0.081*[#  29]+0.073*[#  20]+0.073*[#  28]+
          +0.072*[#  12]+0.072*[#  36]+0.050*[#  13]+0.050*[#  37]+0.043*[#  54]+
          +0.029*[#  10]+0.029*[#  34]+0.018*[#  18]+0.018*[#  26]+0.017*[#   1]+
          +0.017*[#  41]+0.017*[#   6]+0.017*[#  46]+0.015*[#  24]+0.015*[#  32]+
          +0.011*[#   2]+0.011*[#  42]+0.009*[#  22]+0.009*[#  30]+0.007*[#  14]+
          +0.007*[#  38]+0.004*[#   9]+0.004*[#  33]+0.003*[#   5]+0.003*[#  17]+
          +0.003*[#  25]+0.003*[#  45]+0.002*[#   4]+0.002*[#  16]+0.002*[#  40]+
          +0.002*[#  44]+
    |psi|^2 = 0.993
==== e(   9) =    -4.62572 eV ==== 
     psi = 0.122*[#  18]+0.122*[#  26]+0.118*[#  53]+0.092*[#  52]+0.056*[#  12]+
          +0.056*[#  36]+0.047*[#  13]+0.047*[#  37]+0.039*[#  22]+0.039*[#  30]+
          +0.029*[#  56]+0.017*[#   6]+0.017*[#  46]+0.013*[#  16]+0.013*[#  40]+
          +0.012*[#   5]+0.012*[#  45]+0.011*[#   1]+0.011*[#   2]+0.011*[#  41]+
          +0.011*[#  42]+0.009*[#  10]+0.009*[#  34]+0.008*[#   4]+0.008*[#  44]+
          +0.007*[#   8]+0.007*[#  14]+0.007*[#  38]+0.007*[#  48]+0.006*[#  49]+
          +0.006*[#  21]+0.006*[#  29]+0.005*[#  20]+0.005*[#  28]+0.003*[#   9]+
          +0.003*[#  33]+
    |psi|^2 = 0.992
==== e(  10) =    -4.26532 eV ==== 
     psi = 0.121*[#  52]+0.112*[#  20]+0.112*[#  28]+0.083*[#  12]+0.083*[#  36]+
          +0.070*[#  21]+0.070*[#  29]+0.057*[#  53]+0.043*[#  13]+0.043*[#  37]+
          +0.022*[#  49]+0.017*[#  17]+0.017*[#  25]+0.016*[#  10]+0.016*[#  34]+
          +0.011*[#   6]+0.011*[#  46]+0.011*[#   1]+0.011*[#  41]+0.008*[#   2]+
          +0.008*[#  42]+0.007*[#  14]+0.007*[#  38]+0.006*[#   5]+0.006*[#  45]+
          +0.006*[#   9]+0.006*[#  33]+0.004*[#   4]+0.004*[#  44]+0.002*[#   8]+
          +0.002*[#  48]+
    |psi|^2 = 0.993
==== e(  11) =    -3.91903 eV ==== 
     psi = 0.082*[#  12]+0.082*[#  36]+0.075*[#  50]+0.067*[#  10]+0.067*[#  34]+
          +0.050*[#   5]+0.050*[#  45]+0.043*[#  13]+0.043*[#  37]+0.035*[#   4]+
          +0.035*[#  44]+0.025*[#  21]+0.025*[#  29]+0.024*[#   8]+0.024*[#  48]+
          +0.022*[#  17]+0.022*[#  25]+0.019*[#  18]+0.019*[#  24]+0.019*[#  26]+
          +0.019*[#  32]+0.015*[#  14]+0.015*[#  38]+0.011*[#  20]+0.011*[#  28]+
          +0.011*[#   6]+0.011*[#  46]+0.010*[#   2]+0.010*[#  42]+0.010*[#  54]+
          +0.008*[#  22]+0.008*[#  30]+0.006*[#   1]+0.006*[#  41]+0.003*[#  16]+
          +0.003*[#  40]+
    |psi|^2 = 0.989
==== e(  12) =    -3.04510 eV ==== 
     psi = 0.138*[#  10]+0.138*[#  34]+0.079*[#   5]+0.079*[#  45]+0.070*[#   4]+
          +0.070*[#  44]+0.035*[#  52]+0.029*[#   8]+0.029*[#  48]+0.026*[#  14]+
          +0.026*[#  38]+0.024*[#  18]+0.024*[#  26]+0.020*[#  49]+0.020*[#  53]+
          +0.014*[#  21]+0.014*[#  29]+0.012*[#  12]+0.012*[#  36]+0.011*[#  24]+
          +0.011*[#  32]+0.010*[#   1]+0.010*[#  41]+0.009*[#  17]+0.009*[#  25]+
          +0.007*[#   9]+0.007*[#  33]+0.006*[#  22]+0.006*[#  30]+0.006*[#  20]+
          +0.006*[#  28]+0.005*[#  13]+0.005*[#  16]+0.005*[#  37]+0.005*[#  40]+
          +0.004*[#  56]+0.004*[#   2]+0.004*[#  42]+0.002*[#   6]+0.002*[#  46]+
    |psi|^2 = 0.990
==== e(  13) =    -2.32647 eV ==== 
     psi = 0.068*[#  18]+0.068*[#  26]+0.058*[#  20]+0.058*[#  28]+0.052*[#   2]+
          +0.052*[#  42]+0.050*[#   4]+0.050*[#  44]+0.044*[#   5]+0.044*[#  45]+
          +0.033*[#  54]+0.033*[#   9]+0.033*[#  33]+0.029*[#  16]+0.029*[#  40]+
          +0.027*[#   6]+0.027*[#  46]+0.020*[#   1]+0.020*[#  41]+0.020*[#  21]+
          +0.020*[#  29]+0.018*[#  10]+0.018*[#  34]+0.017*[#  12]+0.017*[#  36]+
          +0.016*[#  13]+0.016*[#  37]+0.008*[#   8]+0.008*[#  48]+0.008*[#  22]+
          +0.008*[#  30]+0.005*[#  50]+0.003*[#  24]+0.003*[#  32]+0.002*[#  14]+
          +0.002*[#  17]+0.002*[#  25]+0.002*[#  38]+
    |psi|^2 = 0.990
==== e(  14) =    -1.79625 eV ==== 
     psi = 0.100*[#  18]+0.100*[#  26]+0.066*[#  52]+0.051*[#  20]+0.051*[#  28]+
          +0.047*[#  56]+0.042*[#  10]+0.042*[#  14]+0.042*[#  34]+0.042*[#  38]+
          +0.040*[#  12]+0.040*[#  36]+0.036*[#  53]+0.030*[#  22]+0.030*[#  30]+
          +0.029*[#   2]+0.029*[#  42]+0.019*[#  49]+0.014*[#   6]+0.014*[#  46]+
          +0.012*[#   4]+0.012*[#  44]+0.011*[#   5]+0.011*[#  45]+0.010*[#   1]+
          +0.010*[#  41]+0.008*[#  24]+0.008*[#  32]+0.008*[#  21]+0.008*[#  29]+
          +0.004*[#  16]+0.004*[#  40]+0.004*[#  13]+0.004*[#  37]+0.002*[#   8]+
          +0.002*[#  48]+0.001*[#  17]+0.001*[#  25]+
    |psi|^2 = 0.991
==== e(  15) =    -1.76434 eV ==== 
     psi = 0.253*[#  50]+0.083*[#  54]+0.051*[#  10]+0.051*[#  18]+0.051*[#  26]+
          +0.051*[#  34]+0.049*[#  22]+0.049*[#  30]+0.036*[#  12]+0.036*[#  36]+
          +0.027*[#   4]+0.027*[#  44]+0.024*[#  14]+0.024*[#  38]+0.019*[#  20]+
          +0.019*[#  28]+0.014*[#   5]+0.014*[#  45]+0.010*[#  24]+0.010*[#  32]+
          +0.009*[#  13]+0.009*[#  37]+0.009*[#   8]+0.009*[#  48]+0.007*[#  16]+
          +0.007*[#  40]+0.005*[#   2]+0.005*[#   6]+0.005*[#  42]+0.005*[#  46]+
          +0.005*[#   1]+0.005*[#  41]+0.003*[#  17]+0.003*[#  25]+0.003*[#   9]+
          +0.003*[#  21]+0.003*[#  29]+0.003*[#  33]+
    |psi|^2 = 0.992
==== e(  16) =    -1.41060 eV ==== 
     psi = 0.160*[#  52]+0.116*[#   2]+0.116*[#  42]+0.040*[#   6]+0.040*[#  46]+
          +0.037*[#  20]+0.037*[#  28]+0.027*[#  53]+0.027*[#  16]+0.027*[#  40]+
          +0.025*[#  22]+0.025*[#  30]+0.023*[#   4]+0.023*[#  44]+0.022*[#   9]+
          +0.022*[#  33]+0.018*[#  17]+0.018*[#  25]+0.018*[#  12]+0.018*[#  36]+
          +0.016*[#  13]+0.016*[#  37]+0.014*[#  21]+0.014*[#  29]+0.013*[#  10]+
          +0.013*[#  34]+0.010*[#   1]+0.010*[#  41]+0.008*[#   5]+0.008*[#  45]+
          +0.005*[#  56]+0.004*[#  49]+0.003*[#   8]+0.003*[#  48]+0.002*[#  18]+
          +0.002*[#  26]+
    |psi|^2 = 0.986
==== e(  17) =    -1.23117 eV ==== 
     psi = 0.183*[#  51]+0.149*[#  19]+0.149*[#  27]+0.084*[#  55]+0.079*[#  11]+
          +0.079*[#  35]+0.070*[#  23]+0.070*[#  31]+0.038*[#  15]+0.038*[#  39]+
          +0.015*[#   3]+0.015*[#  43]+0.012*[#   7]+0.012*[#  47]+
    |psi|^2 = 0.995
==== e(  18) =    -0.96376 eV ==== 
     psi = 0.078*[#   4]+0.078*[#  44]+0.072*[#  20]+0.072*[#  28]+0.066*[#  18]+
          +0.066*[#  26]+0.057*[#  14]+0.057*[#  38]+0.055*[#  10]+0.055*[#  34]+
          +0.043*[#   2]+0.043*[#  42]+0.028*[#   5]+0.028*[#  45]+0.027*[#  50]+
          +0.020*[#  24]+0.020*[#  32]+0.017*[#   6]+0.017*[#  46]+0.011*[#  22]+
          +0.011*[#  30]+0.009*[#  21]+0.009*[#  29]+0.008*[#   1]+0.008*[#  41]+
          +0.007*[#  54]+0.005*[#  17]+0.005*[#  25]+0.003*[#   8]+0.003*[#  48]+
          +0.002*[#   9]+0.002*[#  33]+0.001*[#  12]+0.001*[#  36]+
    |psi|^2 = 0.989
==== e(  19) =    -0.93499 eV ==== 
     psi = 0.176*[#  11]+0.176*[#  35]+0.105*[#  19]+0.105*[#  27]+0.080*[#  15]+
          +0.080*[#  39]+0.056*[#   3]+0.056*[#  43]+0.043*[#  23]+0.043*[#  31]+
          +0.036*[#   7]+0.036*[#  47]+
    |psi|^2 = 0.993
==== e(  20) =    -0.50790 eV ==== 
     psi = 0.215*[#  51]+0.117*[#  11]+0.117*[#  35]+0.112*[#   3]+0.112*[#  43]+
          +0.071*[#  55]+0.052*[#   7]+0.052*[#  47]+0.050*[#  15]+0.050*[#  39]+
          +0.015*[#  19]+0.015*[#  27]+0.007*[#  23]+0.007*[#  31]+
    |psi|^2 = 0.991
==== e(  21) =    -0.44721 eV ==== 
     psi = 0.119*[#   4]+0.119*[#  44]+0.094*[#  12]+0.094*[#  36]+0.047*[#  20]+
          +0.047*[#  28]+0.045*[#   2]+0.045*[#  42]+0.040*[#  52]+0.026*[#   6]+
          +0.026*[#  46]+0.021*[#   5]+0.021*[#  45]+0.018*[#  10]+0.018*[#  34]+
          +0.015*[#  14]+0.015*[#  38]+0.014*[#  49]+0.014*[#  16]+0.014*[#  40]+
          +0.011*[#   1]+0.011*[#  41]+0.011*[#  21]+0.011*[#  29]+0.009*[#  24]+
          +0.009*[#  32]+0.007*[#  13]+0.007*[#  37]+0.006*[#   9]+0.006*[#  33]+
          +0.006*[#  18]+0.006*[#  26]+0.006*[#  22]+0.006*[#  30]+0.005*[#  17]+
          +0.005*[#  25]+0.005*[#  56]+0.003*[#  53]+0.002*[#   8]+0.002*[#  48]+
    |psi|^2 = 0.984
==== e(  22) =    -0.29885 eV ==== 
     psi = 0.157*[#   2]+0.157*[#  42]+0.073*[#  20]+0.073*[#  28]+0.071*[#  12]+
          +0.071*[#  36]+0.040*[#  54]+0.030*[#  50]+0.029*[#  10]+0.029*[#  34]+
          +0.028*[#   6]+0.028*[#  46]+0.022*[#  18]+0.022*[#  26]+0.022*[#  16]+
          +0.022*[#  40]+0.017*[#  22]+0.017*[#  30]+0.011*[#  24]+0.011*[#  32]+
          +0.008*[#   8]+0.008*[#  48]+0.008*[#   4]+0.008*[#  44]+0.004*[#  21]+
          +0.004*[#  29]+0.003*[#  13]+0.003*[#  37]+0.002*[#   1]+0.002*[#  41]+
          +0.002*[#  17]+0.002*[#  25]+
    |psi|^2 = 0.985
==== e(  23) =    -0.07418 eV ==== 
     psi = 0.208*[#  19]+0.208*[#  27]+0.161*[#   3]+0.161*[#  43]+0.058*[#  23]+
          +0.058*[#  31]+0.051*[#   7]+0.051*[#  47]+0.010*[#  11]+0.010*[#  35]+
          +0.006*[#  15]+0.006*[#  39]+
    |psi|^2 = 0.987
==== e(  24) =     0.15173 eV ==== 
     psi = 0.335*[#  51]+0.158*[#  19]+0.158*[#  27]+0.074*[#  55]+0.066*[#   3]+
          +0.066*[#  43]+0.037*[#  23]+0.037*[#  31]+0.015*[#   7]+0.015*[#  47]+
          +0.011*[#  11]+0.011*[#  35]+
    |psi|^2 = 0.985
==== e(  25) =     0.23573 eV ==== 
     psi = 0.174*[#  11]+0.174*[#  35]+0.160*[#   3]+0.160*[#  43]+0.055*[#   7]+
          +0.055*[#  47]+0.051*[#  19]+0.051*[#  27]+0.028*[#  15]+0.028*[#  39]+
          +0.025*[#  51]+0.008*[#  23]+0.008*[#  31]+0.002*[#  55]+
    |psi|^2 = 0.982
==== e(  26) =     0.25827 eV ==== 
     psi = 0.140*[#  52]+0.078*[#  10]+0.078*[#  34]+0.078*[#   2]+0.078*[#  42]+
          +0.076*[#   4]+0.076*[#  44]+0.072*[#  20]+0.072*[#  28]+0.040*[#  18]+
          +0.040*[#  26]+0.030*[#  56]+0.014*[#  12]+0.014*[#  36]+0.012*[#  24]+
          +0.012*[#  32]+0.012*[#   8]+0.012*[#  48]+0.006*[#  14]+0.006*[#  38]+
          +0.004*[#  22]+0.004*[#  30]+0.004*[#  16]+0.004*[#  40]+0.004*[#   1]+
          +0.004*[#  41]+0.002*[#   5]+0.002*[#  45]+0.002*[#   9]+0.002*[#  33]+
          +0.001*[#  21]+0.001*[#  29]+
    |psi|^2 = 0.983
==== e(  27) =     0.26417 eV ==== 
     psi = 0.197*[#  11]+0.197*[#  35]+0.137*[#   3]+0.137*[#  43]+0.069*[#  19]+
          +0.069*[#  27]+0.047*[#   7]+0.047*[#  47]+0.031*[#  15]+0.031*[#  39]+
          +0.012*[#  23]+0.012*[#  31]+
    |psi|^2 = 0.983
==== e(  28) =     0.42238 eV ==== 
     psi = 0.126*[#  50]+0.114*[#   4]+0.114*[#  44]+0.089*[#  18]+0.089*[#  26]+
          +0.078*[#  10]+0.078*[#  34]+0.048*[#  12]+0.048*[#  36]+0.028*[#   2]+
          +0.028*[#  42]+0.016*[#  20]+0.016*[#  28]+0.009*[#  22]+0.009*[#  30]+
          +0.009*[#   1]+0.009*[#  41]+0.009*[#   8]+0.009*[#  48]+0.007*[#  16]+
          +0.007*[#  40]+0.007*[#  54]+0.004*[#   6]+0.004*[#  46]+0.003*[#   5]+
          +0.003*[#  45]+0.002*[#  13]+0.002*[#  37]+0.002*[#  24]+0.002*[#  32]+
          +0.001*[#   9]+0.001*[#  33]+
    |psi|^2 = 0.979
==== e(  29) =     2.48258 eV ==== 
     psi = 0.103*[#  24]+0.103*[#  32]+0.089*[#  56]+0.063*[#   8]+0.063*[#  48]+
          +0.050*[#  16]+0.050*[#  40]+0.047*[#   2]+0.047*[#  42]+0.035*[#  17]+
          +0.035*[#  25]+0.025*[#  49]+0.023*[#  13]+0.023*[#  37]+0.019*[#   6]+
          +0.019*[#  46]+0.015*[#  53]+0.013*[#   9]+0.013*[#  33]+0.010*[#   5]+
          +0.010*[#  45]+0.008*[#  12]+0.008*[#  36]+0.007*[#  21]+0.007*[#  29]+
          +0.004*[#  20]+0.004*[#  28]+0.003*[#   1]+0.003*[#  41]+0.002*[#  14]+
          +0.002*[#  38]+0.001*[#  10]+0.001*[#  34]+
    |psi|^2 = 0.908
==== e(  30) =     2.86282 eV ==== 
     psi = 0.097*[#   8]+0.097*[#  48]+0.058*[#  16]+0.058*[#  40]+0.051*[#  24]+
          +0.051*[#  32]+0.045*[#  13]+0.045*[#  37]+0.040*[#   2]+0.040*[#  42]+
          +0.030*[#   5]+0.030*[#  45]+0.022*[#  12]+0.022*[#  36]+0.020*[#  17]+
          +0.020*[#  25]+0.018*[#   6]+0.018*[#  46]+0.014*[#   1]+0.014*[#  41]+
          +0.011*[#  50]+0.010*[#   4]+0.010*[#  44]+0.010*[#   9]+0.010*[#  33]+
          +0.007*[#  20]+0.007*[#  28]+0.006*[#  21]+0.006*[#  29]+0.005*[#  18]+
          +0.005*[#  26]+0.003*[#  22]+0.003*[#  30]+0.002*[#  10]+0.002*[#  34]+
    |psi|^2 = 0.890
==== e(  31) =     3.25698 eV ==== 
     psi = 0.082*[#   5]+0.082*[#  45]+0.078*[#   6]+0.078*[#  46]+0.060*[#  53]+
          +0.045*[#   1]+0.045*[#  41]+0.037*[#   4]+0.037*[#  44]+0.032*[#  52]+
          +0.030*[#  21]+0.030*[#  29]+0.026*[#  14]+0.026*[#  38]+0.016*[#  22]+
          +0.016*[#  30]+0.015*[#  49]+0.013*[#  56]+0.012*[#  12]+0.012*[#  36]+
          +0.007*[#  20]+0.007*[#  28]+0.007*[#  17]+0.007*[#  25]+0.004*[#   2]+
          +0.004*[#  13]+0.004*[#  37]+0.004*[#  42]+0.004*[#  24]+0.004*[#  32]+
          +0.003*[#   8]+0.003*[#  48]+0.003*[#  16]+0.003*[#  40]+0.002*[#   9]+
          +0.002*[#  33]+0.002*[#  10]+0.002*[#  34]+
    |psi|^2 = 0.845
==== e(  32) =     3.44864 eV ==== 
     psi = 0.116*[#   6]+0.116*[#  46]+0.071*[#   5]+0.071*[#  45]+0.046*[#   1]+
          +0.046*[#  41]+0.044*[#  21]+0.044*[#  29]+0.036*[#  13]+0.036*[#  37]+
          +0.033*[#  54]+0.017*[#   4]+0.017*[#  44]+0.016*[#  17]+0.016*[#  25]+
          +0.015*[#   9]+0.015*[#  33]+0.015*[#  22]+0.015*[#  30]+0.013*[#  14]+
          +0.013*[#  38]+0.010*[#  20]+0.010*[#  28]+0.010*[#  12]+0.010*[#  36]+
          +0.009*[#  10]+0.009*[#  34]+0.005*[#   8]+0.005*[#  48]+0.005*[#  50]+
          +0.005*[#  24]+0.005*[#  32]+0.004*[#  16]+0.004*[#  40]+0.004*[#   2]+
          +0.004*[#  42]+
    |psi|^2 = 0.914
==== e(  33) =     3.48153 eV ==== 
     psi = 0.096*[#  56]+0.089*[#  53]+0.071*[#   8]+0.071*[#  48]+0.064*[#  52]+
          +0.030*[#  24]+0.030*[#  32]+0.030*[#   5]+0.030*[#  45]+0.028*[#  49]+
          +0.022*[#   2]+0.022*[#  42]+0.021*[#  21]+0.021*[#  29]+0.019*[#   1]+
          +0.019*[#  41]+0.018*[#  16]+0.018*[#  40]+0.016*[#  13]+0.016*[#  37]+
          +0.015*[#  20]+0.015*[#  28]+0.012*[#  22]+0.012*[#  30]+0.012*[#   4]+
          +0.012*[#  44]+0.008*[#  17]+0.008*[#  25]+0.006*[#  12]+0.006*[#  36]+
          +0.006*[#  18]+0.006*[#  26]+0.005*[#   9]+0.005*[#  33]+0.004*[#   6]+
          +0.004*[#  46]+0.002*[#  10]+0.002*[#  34]+
    |psi|^2 = 0.872
==== e(  34) =     3.78436 eV ==== 
     psi = 0.064*[#  21]+0.064*[#  29]+0.057*[#   5]+0.057*[#  45]+0.055*[#  24]+
          +0.055*[#  32]+0.046*[#   4]+0.046*[#  44]+0.040*[#  16]+0.040*[#  40]+
          +0.039*[#   9]+0.039*[#  33]+0.036*[#  54]+0.033*[#  17]+0.033*[#  25]+
          +0.030*[#  13]+0.030*[#  37]+0.018*[#  22]+0.018*[#  30]+0.017*[#   1]+
          +0.017*[#  41]+0.015*[#  14]+0.015*[#  20]+0.015*[#  28]+0.015*[#  38]+
          +0.005*[#  50]+0.004*[#   6]+0.004*[#  46]+0.003*[#   2]+0.003*[#  18]+
          +0.003*[#  26]+0.003*[#  42]+0.002*[#  12]+0.002*[#  36]+0.002*[#  10]+
          +0.002*[#  34]+
    |psi|^2 = 0.929

 k =   0.0000000000 -0.3535533872  0.0000000000
==== e(   1) =   -10.56767 eV ==== 
     psi = 0.278*[#  49]+0.133*[#   9]+0.133*[#  33]+0.059*[#  56]+0.046*[#  53]+
          +0.042*[#  24]+0.042*[#  32]+0.039*[#  21]+0.039*[#  29]+0.026*[#  16]+
          +0.026*[#  40]+0.022*[#  13]+0.022*[#  37]+0.016*[#   8]+0.016*[#  48]+
          +0.012*[#  20]+0.012*[#  28]+0.006*[#   6]+0.006*[#  46]+0.005*[#   5]+
          +0.005*[#  45]+0.002*[#  22]+0.002*[#  30]+
    |psi|^2 = 0.996
==== e(   2) =   -10.48636 eV ==== 
     psi = 0.256*[#  17]+0.256*[#  25]+0.055*[#  56]+0.054*[#  24]+0.054*[#  32]+
          +0.049*[#  53]+0.046*[#  21]+0.046*[#  29]+0.019*[#  16]+0.019*[#  40]+
          +0.019*[#  13]+0.019*[#  37]+0.017*[#  52]+0.014*[#   1]+0.014*[#  41]+
          +0.009*[#  14]+0.009*[#  38]+0.008*[#  12]+0.008*[#  36]+0.005*[#   8]+
          +0.005*[#  48]+0.005*[#   5]+0.005*[#  45]+0.001*[#   2]+0.001*[#   6]+
          +0.001*[#  42]+0.001*[#  46]+
    |psi|^2 = 0.996
==== e(   3) =   -10.33123 eV ==== 
     psi = 0.286*[#   9]+0.286*[#  33]+0.054*[#  13]+0.054*[#  37]+0.040*[#  16]+
          +0.040*[#  40]+0.038*[#   8]+0.038*[#  48]+0.018*[#  22]+0.018*[#  30]+
          +0.017*[#  24]+0.017*[#  32]+0.013*[#  21]+0.013*[#  29]+0.010*[#   6]+
          +0.010*[#  46]+0.007*[#   5]+0.007*[#  45]+0.005*[#  20]+0.005*[#  28]+
          +0.003*[#  54]+0.003*[#  50]+0.002*[#   4]+0.002*[#  44]+0.001*[#   1]+
          +0.001*[#  41]+0.001*[#   2]+0.001*[#  42]+
    |psi|^2 = 0.996
==== e(   4) =   -10.19232 eV ==== 
     psi = 0.244*[#  17]+0.244*[#  25]+0.060*[#  54]+0.050*[#  21]+0.050*[#  29]+
          +0.041*[#   1]+0.041*[#  41]+0.034*[#  24]+0.034*[#  32]+0.031*[#  16]+
          +0.031*[#  40]+0.021*[#  13]+0.021*[#  37]+0.013*[#   5]+0.013*[#  45]+
          +0.011*[#  12]+0.011*[#  36]+0.008*[#   8]+0.008*[#  48]+0.003*[#  14]+
          +0.003*[#  38]+0.003*[#  50]+0.003*[#  22]+0.003*[#  30]+0.002*[#   2]+
          +0.002*[#  42]+0.001*[#  18]+0.001*[#  20]+0.001*[#  26]+0.001*[#  28]+
    |psi|^2 = 0.997
==== e(   5) =   -10.07222 eV ==== 
     psi = 0.300*[#  49]+0.157*[#   9]+0.157*[#  33]+0.061*[#  53]+0.050*[#  22]+
          +0.050*[#  30]+0.034*[#  56]+0.032*[#  13]+0.032*[#  37]+0.024*[#   8]+
          +0.024*[#  48]+0.017*[#  16]+0.017*[#  40]+0.005*[#   6]+0.005*[#  46]+
          +0.003*[#  18]+0.003*[#  26]+0.003*[#   5]+0.003*[#  45]+0.002*[#  24]+
          +0.002*[#  32]+0.002*[#   1]+0.002*[#  41]+0.002*[#  52]+
    |psi|^2 = 0.996
==== e(   6) =    -9.65399 eV ==== 
     psi = 0.277*[#   1]+0.277*[#  41]+0.076*[#   5]+0.076*[#  45]+0.035*[#  14]+
          +0.035*[#  38]+0.027*[#   8]+0.027*[#  48]+0.018*[#  17]+0.018*[#  25]+
          +0.016*[#  16]+0.016*[#  40]+0.007*[#   6]+0.007*[#  46]+0.007*[#  56]+
          +0.007*[#  13]+0.007*[#  37]+0.005*[#  12]+0.005*[#  36]+0.005*[#   2]+
          +0.005*[#  42]+0.004*[#  22]+0.004*[#  30]+0.004*[#   9]+0.004*[#  33]+
          +0.003*[#   4]+0.003*[#  44]+0.003*[#  21]+0.003*[#  29]+0.002*[#  53]+
          +0.002*[#  24]+0.002*[#  32]+0.001*[#  18]+0.001*[#  26]+0.001*[#  49]+
          +0.001*[#  52]+0.001*[#  10]+0.001*[#  34]+
    |psi|^2 = 0.997
==== e(   7) =    -9.60293 eV ==== 
     psi = 0.252*[#   1]+0.252*[#  41]+0.067*[#   5]+0.067*[#  45]+0.056*[#  17]+
          +0.056*[#  25]+0.041*[#  14]+0.041*[#  38]+0.024*[#   8]+0.024*[#  48]+
          +0.012*[#  54]+0.009*[#   6]+0.009*[#  46]+0.009*[#  21]+0.009*[#  29]+
          +0.008*[#  16]+0.008*[#  40]+0.006*[#  24]+0.006*[#  32]+0.004*[#   2]+
          +0.004*[#  42]+0.003*[#  13]+0.003*[#  37]+0.003*[#   4]+0.003*[#  44]+
          +0.003*[#  12]+0.003*[#  36]+0.002*[#   9]+0.002*[#  33]+0.001*[#  10]+
          +0.001*[#  34]+
    |psi|^2 = 0.997
==== e(   8) =    -4.90535 eV ==== 
     psi = 0.133*[#  18]+0.133*[#  26]+0.102*[#  53]+0.083*[#  52]+0.063*[#  12]+
          +0.063*[#  36]+0.055*[#  13]+0.055*[#  37]+0.053*[#  22]+0.053*[#  30]+
          +0.029*[#   6]+0.029*[#  46]+0.025*[#   1]+0.025*[#  41]+0.024*[#  56]+
          +0.014*[#   2]+0.014*[#  42]+0.010*[#  16]+0.010*[#  40]+0.006*[#  14]+
          +0.006*[#  38]+0.002*[#   5]+0.002*[#  45]+0.001*[#  49]+
    |psi|^2 = 0.992
==== e(   9) =    -4.68944 eV ==== 
     psi = 0.192*[#  50]+0.101*[#  21]+0.101*[#  29]+0.085*[#  20]+0.085*[#  28]+
          +0.082*[#  10]+0.082*[#  34]+0.067*[#  54]+0.027*[#  14]+0.027*[#  38]+
          +0.024*[#  24]+0.024*[#  32]+0.015*[#   5]+0.015*[#  45]+0.011*[#   8]+
          +0.011*[#  48]+0.008*[#   9]+0.008*[#  33]+0.008*[#   4]+0.008*[#  44]+
          +0.002*[#  17]+0.001*[#  22]+0.002*[#  25]+0.001*[#  30]+
    |psi|^2 = 0.990
==== e(  10) =    -4.17088 eV ==== 
     psi = 0.141*[#  12]+0.141*[#  36]+0.086*[#  13]+0.086*[#  37]+0.062*[#  18]+
          +0.062*[#  26]+0.053*[#   6]+0.053*[#  46]+0.041*[#   1]+0.041*[#  41]+
          +0.037*[#   2]+0.037*[#  42]+0.025*[#  17]+0.025*[#  25]+0.023*[#  22]+
          +0.023*[#  30]+0.017*[#  54]+0.009*[#   5]+0.009*[#  45]+0.006*[#  16]+
          +0.006*[#  40]+0.001*[#   4]+0.001*[#  44]+
    |psi|^2 = 0.990
==== e(  11) =    -3.69478 eV ==== 
     psi = 0.152*[#  10]+0.152*[#  34]+0.081*[#  20]+0.081*[#  28]+0.060*[#  21]+
          +0.060*[#  29]+0.050*[#  49]+0.049*[#  14]+0.049*[#  38]+0.046*[#   5]+
          +0.046*[#  45]+0.037*[#   4]+0.037*[#  44]+0.023*[#   8]+0.023*[#  48]+
          +0.008*[#  22]+0.008*[#  30]+0.006*[#  24]+0.006*[#  32]+0.005*[#  52]+
          +0.002*[#  56]+0.001*[#  17]+0.001*[#  25]+0.001*[#   1]+0.001*[#  41]+
    |psi|^2 = 0.989
==== e(  12) =    -3.13893 eV ==== 
     psi = 0.219*[#  52]+0.107*[#  12]+0.107*[#  36]+0.094*[#  53]+0.062*[#  17]+
          +0.062*[#  25]+0.029*[#   2]+0.029*[#   6]+0.029*[#  42]+0.029*[#  46]+
          +0.029*[#  13]+0.029*[#  37]+0.019*[#   1]+0.019*[#  41]+0.019*[#  18]+
          +0.019*[#  26]+0.013*[#   5]+0.013*[#  45]+0.007*[#  20]+0.007*[#  28]+
          +0.007*[#  21]+0.007*[#  29]+0.006*[#  22]+0.006*[#  30]+0.003*[#  49]+
          +0.003*[#  14]+0.003*[#  38]+0.002*[#  24]+0.002*[#  32]+
    |psi|^2 = 0.988
==== e(  13) =    -2.56255 eV ==== 
     psi = 0.131*[#   4]+0.131*[#  44]+0.087*[#   5]+0.087*[#  45]+0.076*[#  50]+
          +0.063*[#  10]+0.063*[#  34]+0.035*[#   9]+0.035*[#  33]+0.029*[#  20]+
          +0.029*[#  28]+0.027*[#   8]+0.027*[#  48]+0.022*[#  54]+0.021*[#  14]+
          +0.021*[#  38]+0.011*[#  22]+0.011*[#  30]+0.011*[#  21]+0.011*[#  29]+
          +0.007*[#  13]+0.007*[#  37]+0.007*[#  12]+0.007*[#  36]+0.006*[#   6]+
          +0.006*[#  46]+0.005*[#   1]+0.005*[#  41]+0.003*[#   2]+0.003*[#  42]+
    |psi|^2 = 0.988
==== e(  14) =    -2.21745 eV ==== 
     psi = 0.152*[#  20]+0.152*[#  28]+0.105*[#   4]+0.105*[#  44]+0.053*[#   5]+
          +0.053*[#  45]+0.043*[#   9]+0.043*[#  33]+0.033*[#  21]+0.033*[#  29]+
          +0.033*[#  49]+0.021*[#  53]+0.018*[#  13]+0.018*[#  37]+0.013*[#   8]+
          +0.013*[#  48]+0.010*[#  52]+0.010*[#  12]+0.010*[#  36]+0.009*[#  10]+
          +0.009*[#  34]+0.005*[#   2]+0.005*[#  42]+0.005*[#   6]+0.005*[#  46]+
          +0.004*[#   1]+0.004*[#  41]+0.003*[#  24]+0.003*[#  32]+0.003*[#  17]+
          +0.003*[#  25]+0.002*[#  14]+0.002*[#  38]+0.002*[#  56]+0.001*[#  16]+
          +0.001*[#  40]+
    |psi|^2 = 0.988
==== e(  15) =    -0.81332 eV ==== 
     psi = 0.256*[#  18]+0.256*[#  26]+0.092*[#  54]+0.071*[#  12]+0.071*[#  36]+
          +0.032*[#  14]+0.032*[#  38]+0.022*[#  16]+0.022*[#  40]+0.015*[#   2]+
          +0.015*[#  42]+0.014*[#   5]+0.014*[#  45]+0.010*[#  50]+0.009*[#   6]+
          +0.009*[#  46]+0.007*[#  21]+0.007*[#  29]+0.004*[#   1]+0.004*[#  41]+
          +0.004*[#  22]+0.004*[#  30]+0.003*[#   4]+0.003*[#  17]+0.003*[#  25]+
          +0.003*[#  44]+0.002*[#   8]+0.002*[#  48]+
    |psi|^2 = 0.989
==== e(  16) =    -0.64637 eV ==== 
     psi = 0.168*[#  52]+0.135*[#   2]+0.135*[#  42]+0.096*[#  18]+0.096*[#  26]+
          +0.051*[#  56]+0.041*[#  14]+0.041*[#  38]+0.029*[#  20]+0.029*[#  28]+
          +0.023*[#  21]+0.023*[#  29]+0.022*[#   6]+0.022*[#  46]+0.009*[#   1]+
          +0.009*[#  41]+0.005*[#  10]+0.005*[#  34]+0.005*[#   5]+0.005*[#  45]+
          +0.005*[#  49]+0.005*[#  24]+0.005*[#  32]+0.004*[#  53]+0.003*[#  17]+
          +0.003*[#  25]+0.002*[#  12]+0.002*[#  36]+0.001*[#   4]+0.001*[#  44]+
          +0.001*[#  16]+0.001*[#  40]+0.001*[#   9]+0.001*[#  33]+
    |psi|^2 = 0.987
==== e(  17) =    -0.64358 eV ==== 
     psi = 0.214*[#  51]+0.130*[#  19]+0.130*[#  27]+0.130*[#  55]+0.097*[#  11]+
          +0.097*[#  35]+0.064*[#  15]+0.064*[#  39]+0.026*[#   3]+0.026*[#  43]+
          +0.003*[#   7]+0.003*[#  47]+0.003*[#  23]+0.003*[#  31]+
    |psi|^2 = 0.991
==== e(  18) =    -0.60489 eV ==== 
     psi = 0.197*[#  51]+0.190*[#  19]+0.190*[#  27]+0.121*[#  23]+0.121*[#  31]+
          +0.059*[#  11]+0.059*[#  35]+0.013*[#   7]+0.013*[#  47]+0.010*[#   3]+
          +0.010*[#  43]+0.006*[#  55]+
    |psi|^2 = 0.991
==== e(  19) =    -0.58156 eV ==== 
     psi = 0.330*[#  50]+0.101*[#  20]+0.101*[#  28]+0.073*[#  22]+0.073*[#  30]+
          +0.030*[#   2]+0.030*[#  42]+0.027*[#  24]+0.027*[#  32]+0.025*[#  10]+
          +0.025*[#  34]+0.021*[#  13]+0.021*[#  37]+0.014*[#  12]+0.014*[#  36]+
          +0.012*[#   4]+0.012*[#  44]+0.009*[#   9]+0.009*[#  33]+0.007*[#  18]+
          +0.007*[#  26]+0.003*[#  16]+0.003*[#  40]+0.002*[#  14]+0.002*[#  38]+
          +0.002*[#  17]+0.002*[#  25]+0.001*[#   6]+0.001*[#  46]+0.001*[#  21]+
          +0.001*[#  29]+
    |psi|^2 = 0.990
==== e(  20) =    -0.46281 eV ==== 
     psi = 0.187*[#  11]+0.187*[#  35]+0.115*[#  15]+0.115*[#  39]+0.096*[#  19]+
          +0.096*[#  27]+0.080*[#   3]+0.080*[#  43]+0.011*[#   7]+0.011*[#  47]+
          +0.006*[#  23]+0.006*[#  31]+
    |psi|^2 = 0.990
==== e(  21) =    -0.41269 eV ==== 
     psi = 0.212*[#   2]+0.212*[#  42]+0.076*[#  12]+0.076*[#  36]+0.063*[#  20]+
          +0.063*[#  28]+0.029*[#  16]+0.029*[#  40]+0.023*[#   6]+0.023*[#  46]+
          +0.021*[#  50]+0.020*[#  14]+0.020*[#  38]+0.012*[#  24]+0.012*[#  32]+
          +0.011*[#  54]+0.010*[#  10]+0.010*[#  34]+0.009*[#  21]+0.009*[#  29]+
          +0.007*[#   1]+0.007*[#  41]+0.004*[#  22]+0.004*[#  30]+0.004*[#   9]+
          +0.004*[#  33]+0.003*[#  13]+0.003*[#  37]+0.002*[#  17]+0.002*[#  25]+
    |psi|^2 = 0.986
==== e(  22) =    -0.36830 eV ==== 
     psi = 0.174*[#  11]+0.174*[#  35]+0.173*[#  19]+0.173*[#  27]+0.086*[#  23]+
          +0.086*[#  31]+0.032*[#   7]+0.032*[#  47]+0.021*[#   3]+0.021*[#  43]+
          +0.009*[#  15]+0.009*[#  39]+
    |psi|^2 = 0.990
==== e(  23) =    -0.32600 eV ==== 
     psi = 0.162*[#  52]+0.112*[#  12]+0.112*[#  36]+0.083*[#   2]+0.083*[#  42]+
          +0.056*[#  18]+0.056*[#  26]+0.039*[#  16]+0.039*[#  40]+0.035*[#  22]+
          +0.035*[#  30]+0.035*[#  56]+0.032*[#  10]+0.032*[#  34]+0.013*[#  20]+
          +0.013*[#  28]+0.007*[#   6]+0.007*[#  46]+0.006*[#   5]+0.006*[#  45]+
          +0.006*[#  53]+0.005*[#  24]+0.005*[#  32]+0.002*[#   4]+0.002*[#  44]+
          +0.002*[#  49]+0.001*[#  17]+0.001*[#  25]+
    |psi|^2 = 0.988
==== e(  24) =    -0.25737 eV ==== 
     psi = 0.308*[#  51]+0.173*[#  11]+0.173*[#  35]+0.105*[#  55]+0.057*[#  15]+
          +0.057*[#  39]+0.044*[#   3]+0.044*[#  43]+0.011*[#  19]+0.011*[#  27]+
          +0.002*[#   7]+0.002*[#  47]+
    |psi|^2 = 0.989
==== e(  25) =    -0.05286 eV ==== 
     psi = 0.268*[#   3]+0.268*[#  43]+0.121*[#   7]+0.121*[#  47]+0.049*[#  11]+
          +0.049*[#  35]+0.032*[#  19]+0.032*[#  27]+0.029*[#  51]+0.007*[#  23]+
          +0.007*[#  31]+
    |psi|^2 = 0.985
==== e(  26) =    -0.00938 eV ==== 
     psi = 0.247*[#   3]+0.247*[#  43]+0.112*[#  19]+0.112*[#  27]+0.096*[#   7]+
          +0.096*[#  47]+0.021*[#  23]+0.021*[#  31]+0.016*[#  11]+0.016*[#  35]+
    |psi|^2 = 0.984
==== e(  27) =     0.07394 eV ==== 
     psi = 0.158*[#   4]+0.158*[#  44]+0.122*[#  10]+0.122*[#  34]+0.050*[#   2]+
          +0.050*[#  42]+0.032*[#  53]+0.031*[#  20]+0.031*[#  28]+0.028*[#  12]+
          +0.028*[#  36]+0.023*[#  24]+0.023*[#  32]+0.013*[#   1]+0.013*[#  41]+
          +0.013*[#  16]+0.013*[#  40]+0.009*[#  22]+0.009*[#  30]+0.008*[#   9]+
          +0.008*[#  33]+0.005*[#   5]+0.005*[#  45]+0.004*[#   8]+0.004*[#  48]+
          +0.004*[#   6]+0.004*[#  46]+0.004*[#  49]+0.002*[#  18]+0.002*[#  26]+
          +0.002*[#  14]+0.002*[#  38]+0.001*[#  52]+
    |psi|^2 = 0.983
==== e(  28) =     0.25143 eV ==== 
     psi = 0.163*[#  10]+0.163*[#  34]+0.157*[#   4]+0.157*[#  44]+0.053*[#  20]+
          +0.053*[#  28]+0.030*[#   2]+0.030*[#  42]+0.023*[#  54]+0.021*[#  24]+
          +0.021*[#  32]+0.012*[#   1]+0.012*[#  41]+0.009*[#  12]+0.009*[#  36]+
          +0.008*[#  22]+0.008*[#  30]+0.006*[#   6]+0.006*[#  46]+0.006*[#   5]+
          +0.006*[#  45]+0.005*[#   8]+0.005*[#  48]+0.004*[#  16]+0.004*[#  40]+
          +0.003*[#   9]+0.003*[#  33]+0.001*[#  14]+0.001*[#  38]+
    |psi|^2 = 0.984
==== e(  29) =     2.76617 eV ==== 
     psi = 0.139*[#  13]+0.139*[#  37]+0.093*[#   8]+0.093*[#  48]+0.088*[#   6]+
          +0.088*[#  46]+0.052*[#  49]+0.042*[#  24]+0.042*[#  32]+0.022*[#  22]+
          +0.022*[#  30]+0.020*[#   9]+0.020*[#  33]+0.019*[#  16]+0.019*[#  40]+
          +0.012*[#   2]+0.012*[#  42]+0.010*[#  53]+0.007*[#  17]+0.007*[#  25]+
          +0.002*[#  12]+0.002*[#  36]+0.001*[#  21]+0.001*[#  29]+0.001*[#  18]+
          +0.001*[#  26]+0.001*[#  56]+
    |psi|^2 = 0.963
==== e(  30) =     3.08323 eV ==== 
     psi = 0.099*[#  13]+0.099*[#  37]+0.096*[#   6]+0.096*[#  46]+0.090*[#   8]+
          +0.090*[#  48]+0.041*[#  17]+0.041*[#  25]+0.027*[#  24]+0.027*[#  32]+
          +0.023*[#  21]+0.023*[#  29]+0.020*[#  20]+0.020*[#  28]+0.020*[#  14]+
          +0.020*[#  38]+0.020*[#  16]+0.020*[#  40]+0.019*[#  54]+0.015*[#  50]+
          +0.010*[#   9]+0.010*[#  33]+0.005*[#   5]+0.005*[#  45]+0.004*[#  10]+
          +0.004*[#  34]+0.002*[#   2]+0.002*[#  42]+0.002*[#   1]+0.002*[#  41]+
    |psi|^2 = 0.959
==== e(  31) =     3.27541 eV ==== 
     psi = 0.089*[#  21]+0.089*[#  29]+0.080*[#   5]+0.080*[#  45]+0.048*[#   8]+
          +0.048*[#  48]+0.043*[#   1]+0.043*[#  41]+0.039*[#  17]+0.039*[#  25]+
          +0.033*[#   2]+0.033*[#  42]+0.027*[#   4]+0.027*[#  44]+0.024*[#  54]+
          +0.024*[#  13]+0.024*[#  37]+0.024*[#  50]+0.020*[#  14]+0.020*[#  38]+
          +0.017*[#  16]+0.017*[#  40]+0.007*[#  24]+0.007*[#  32]+0.007*[#   9]+
          +0.007*[#  33]+0.004*[#  10]+0.004*[#  34]+0.003*[#  12]+0.003*[#  36]+
          +0.001*[#   6]+0.001*[#  46]+
    |psi|^2 = 0.932
==== e(  32) =     3.50889 eV ==== 
     psi = 0.257*[#  56]+0.077*[#  49]+0.067*[#  53]+0.060*[#  16]+0.060*[#  40]+
          +0.052*[#  21]+0.052*[#  29]+0.036*[#   2]+0.036*[#  42]+0.032*[#  52]+
          +0.026*[#   8]+0.026*[#  48]+0.025*[#   1]+0.025*[#  41]+0.012*[#  22]+
          +0.012*[#  30]+0.008*[#   5]+0.008*[#  10]+0.008*[#  34]+0.008*[#  45]+
          +0.007*[#   6]+0.007*[#  46]+0.004*[#  13]+0.004*[#  37]+0.004*[#  17]+
          +0.004*[#  25]+0.001*[#   9]+0.001*[#  33]+
    |psi|^2 = 0.926
==== e(  33) =     3.59182 eV ==== 
     psi = 0.142*[#  53]+0.086*[#  24]+0.086*[#  32]+0.055*[#   5]+0.055*[#  45]+
          +0.045*[#   4]+0.045*[#  44]+0.033*[#  17]+0.033*[#  25]+0.032*[#  56]+
          +0.024*[#  20]+0.024*[#  28]+0.023*[#  21]+0.023*[#  29]+0.022*[#   1]+
          +0.022*[#  41]+0.021*[#  14]+0.021*[#  38]+0.015*[#   9]+0.015*[#  33]+
          +0.014*[#  49]+0.010*[#  16]+0.010*[#  40]+0.010*[#   2]+0.010*[#  42]+
          +0.010*[#  18]+0.010*[#  26]+0.009*[#   6]+0.009*[#  46]+0.003*[#  10]+
          +0.003*[#  34]+0.003*[#  22]+0.003*[#  30]+
    |psi|^2 = 0.929
==== e(  34) =     3.70949 eV ==== 
     psi = 0.114*[#   5]+0.114*[#  45]+0.056*[#  24]+0.056*[#  32]+0.050*[#  56]+
          +0.040*[#   1]+0.040*[#  41]+0.032*[#  16]+0.032*[#  40]+0.030*[#   6]+
          +0.030*[#  46]+0.029*[#  53]+0.028*[#  21]+0.028*[#  29]+0.020*[#   8]+
          +0.020*[#  48]+0.019*[#   9]+0.019*[#  33]+0.019*[#   4]+0.019*[#  44]+
          +0.015*[#  20]+0.015*[#  28]+0.014*[#  12]+0.014*[#  36]+0.007*[#  14]+
          +0.007*[#  38]+0.006*[#  10]+0.006*[#  34]+0.004*[#  22]+0.004*[#  30]+
          +0.004*[#  49]+0.002*[#   2]+0.002*[#  42]+0.001*[#  52]+
    |psi|^2 = 0.901

 k =   0.0833333333  0.0000000000  0.0000000000
==== e(   1) =   -11.29219 eV ==== 
     psi = 0.152*[#  49]+0.118*[#  17]+0.118*[#  25]+0.093*[#  53]+0.079*[#  21]+
          +0.079*[#  29]+0.071*[#   9]+0.071*[#  33]+0.042*[#  13]+0.042*[#  37]+
          +0.016*[#   5]+0.016*[#  45]+0.011*[#   1]+0.011*[#  41]+0.009*[#  14]+
          +0.009*[#  38]+0.008*[#   6]+0.008*[#  46]+0.007*[#  55]+0.006*[#  23]+
          +0.006*[#  31]+0.003*[#  15]+0.003*[#  39]+0.002*[#  22]+0.002*[#  30]+
          +0.002*[#   2]+0.002*[#  42]+0.001*[#   7]+0.001*[#  10]+0.001*[#  34]+
          +0.001*[#  47]+0.001*[#  51]+
    |psi|^2 = 0.997
==== e(   2) =   -10.93267 eV ==== 
     psi = 0.156*[#   9]+0.156*[#  33]+0.079*[#  17]+0.079*[#  25]+0.069*[#  13]+
          +0.069*[#  37]+0.047*[#  54]+0.039*[#  21]+0.039*[#  29]+0.036*[#   1]+
          +0.036*[#  41]+0.036*[#   5]+0.036*[#  45]+0.024*[#  22]+0.024*[#  30]+
          +0.010*[#   6]+0.010*[#  46]+0.007*[#  50]+0.006*[#  15]+0.006*[#  39]+
          +0.004*[#   2]+0.004*[#  42]+0.003*[#  18]+0.003*[#  26]+0.003*[#   7]+
          +0.003*[#  23]+0.003*[#  31]+0.003*[#  47]+0.001*[#  16]+0.001*[#  40]+
    |psi|^2 = 0.996
==== e(   3) =   -10.37016 eV ==== 
     psi = 0.170*[#  49]+0.123*[#   9]+0.123*[#  33]+0.066*[#   1]+0.066*[#  41]+
          +0.062*[#  22]+0.062*[#  30]+0.046*[#  53]+0.041*[#   5]+0.041*[#  45]+
          +0.035*[#  13]+0.035*[#  37]+0.017*[#  14]+0.017*[#  38]+0.011*[#  17]+
          +0.011*[#  25]+0.007*[#  18]+0.007*[#  26]+0.006*[#  56]+0.004*[#  16]+
          +0.004*[#  40]+0.004*[#  55]+0.003*[#   2]+0.003*[#  42]+0.003*[#  15]+
          +0.003*[#  21]+0.003*[#  29]+0.003*[#  39]+0.003*[#   7]+0.003*[#  10]+
          +0.003*[#  34]+0.003*[#  47]+0.001*[#   6]+0.001*[#  46]+
    |psi|^2 = 0.996
==== e(   4) =    -9.73897 eV ==== 
     psi = 0.180*[#  17]+0.180*[#  25]+0.102*[#   1]+0.102*[#  41]+0.056*[#  54]+
          +0.052*[#  14]+0.052*[#  38]+0.035*[#   5]+0.035*[#  45]+0.027*[#   9]+
          +0.027*[#  33]+0.022*[#  21]+0.022*[#  29]+0.020*[#  24]+0.020*[#  32]+
          +0.005*[#  10]+0.005*[#  34]+0.004*[#  50]+0.004*[#  13]+0.004*[#  16]+
          +0.004*[#  37]+0.004*[#  40]+0.003*[#  23]+0.003*[#  31]+0.003*[#   8]+
          +0.003*[#  48]+0.003*[#   7]+0.003*[#  47]+0.002*[#   6]+0.002*[#  46]+
          +0.002*[#   2]+0.002*[#  22]+0.002*[#  30]+0.002*[#  42]+
    |psi|^2 = 0.996
==== e(   5) =    -9.37461 eV ==== 
     psi = 0.270*[#  49]+0.132*[#  17]+0.132*[#  25]+0.074*[#  56]+0.071*[#   1]+
          +0.071*[#  41]+0.037*[#  24]+0.037*[#  32]+0.031*[#  14]+0.031*[#  38]+
          +0.017*[#  22]+0.017*[#  30]+0.016*[#   5]+0.016*[#  45]+0.005*[#   6]+
          +0.005*[#  46]+0.005*[#   8]+0.005*[#  48]+0.004*[#  53]+0.004*[#  55]+
          +0.002*[#  21]+0.002*[#  23]+0.002*[#  29]+0.002*[#  31]+0.001*[#   7]+
          +0.001*[#  47]+0.001*[#  10]+0.001*[#  34]+
    |psi|^2 = 0.996
==== e(   6) =    -9.19956 eV ==== 
     psi = 0.162*[#   1]+0.162*[#  41]+0.116*[#   9]+0.116*[#  33]+0.052*[#  17]+
          +0.052*[#  25]+0.040*[#  16]+0.040*[#  40]+0.033*[#   8]+0.033*[#  48]+
          +0.023*[#  24]+0.023*[#  32]+0.022*[#  49]+0.020*[#   6]+0.020*[#  46]+
          +0.014*[#  56]+0.013*[#   5]+0.013*[#  45]+0.006*[#  14]+0.006*[#  38]+
          +0.003*[#   7]+0.003*[#  47]+0.002*[#  22]+0.002*[#  30]+0.002*[#  53]+
          +0.001*[#   2]+0.001*[#  42]+0.001*[#   4]+0.001*[#  15]+0.001*[#  39]+
          +0.001*[#  44]+
    |psi|^2 = 0.996
==== e(   7) =    -9.17690 eV ==== 
     psi = 0.172*[#   1]+0.172*[#  41]+0.127*[#   9]+0.127*[#  33]+0.044*[#  17]+
          +0.044*[#  25]+0.042*[#  16]+0.042*[#  40]+0.036*[#   8]+0.036*[#  48]+
          +0.022*[#   6]+0.022*[#  46]+0.016*[#  24]+0.016*[#  32]+0.014*[#   5]+
          +0.014*[#  45]+0.010*[#  54]+0.007*[#  14]+0.007*[#  38]+0.005*[#  22]+
          +0.005*[#  30]+0.004*[#   7]+0.004*[#  47]+0.001*[#   2]+0.001*[#   4]+
          +0.001*[#  42]+0.001*[#  15]+0.001*[#  39]+0.001*[#  44]+
    |psi|^2 = 0.996
==== e(   8) =    -4.81008 eV ==== 
     psi = 0.156*[#  52]+0.122*[#  20]+0.122*[#  28]+0.113*[#  53]+0.090*[#  21]+
          +0.090*[#  29]+0.075*[#  12]+0.075*[#  36]+0.040*[#  13]+0.040*[#  37]+
          +0.008*[#   5]+0.008*[#  45]+0.008*[#   4]+0.008*[#  44]+0.005*[#  10]+
          +0.005*[#  34]+0.003*[#  18]+0.003*[#  26]+0.002*[#  51]+0.002*[#   2]+
          +0.002*[#  42]+0.002*[#  19]+0.002*[#  27]+0.001*[#   8]+0.001*[#  48]+
    |psi|^2 = 0.995
==== e(   9) =    -4.53892 eV ==== 
     psi = 0.134*[#  12]+0.134*[#  36]+0.099*[#  13]+0.099*[#  37]+0.079*[#  21]+
          +0.079*[#  29]+0.070*[#  20]+0.070*[#  28]+0.051*[#  50]+0.021*[#   5]+
          +0.021*[#  45]+0.021*[#   4]+0.021*[#  44]+0.012*[#  18]+0.012*[#  26]+
          +0.009*[#   2]+0.009*[#  42]+0.006*[#  10]+0.006*[#  34]+0.006*[#  24]+
          +0.006*[#  32]+0.005*[#   8]+0.005*[#  48]+0.003*[#  17]+0.003*[#  25]+
          +0.002*[#  11]+0.002*[#  35]+0.002*[#   1]+0.002*[#  19]+0.002*[#  27]+
          +0.002*[#  41]+
    |psi|^2 = 0.995
==== e(  10) =    -4.04330 eV ==== 
     psi = 0.114*[#  53]+0.110*[#  18]+0.110*[#  26]+0.074*[#  13]+0.074*[#  37]+
          +0.071*[#  12]+0.071*[#  36]+0.056*[#  52]+0.036*[#   5]+0.036*[#  45]+
          +0.029*[#  56]+0.023*[#   4]+0.023*[#  44]+0.019*[#   8]+0.019*[#  48]+
          +0.015*[#  10]+0.015*[#  34]+0.014*[#  49]+0.011*[#   2]+0.011*[#  42]+
          +0.009*[#   9]+0.009*[#  33]+0.008*[#  16]+0.008*[#  40]+0.004*[#  51]+
          +0.004*[#  21]+0.004*[#  29]+0.002*[#  11]+0.002*[#  35]+0.002*[#  14]+
          +0.002*[#  38]+0.002*[#  24]+0.002*[#  32]+0.001*[#  20]+0.001*[#  28]+
          +0.001*[#   3]+0.001*[#   6]+0.001*[#  43]+0.001*[#  46]+
    |psi|^2 = 0.993
==== e(  11) =    -3.50929 eV ==== 
     psi = 0.198*[#  50]+0.094*[#  10]+0.094*[#  34]+0.055*[#   5]+0.055*[#  45]+
          +0.046*[#  24]+0.046*[#  32]+0.043*[#  12]+0.043*[#  36]+0.039*[#  21]+
          +0.039*[#  29]+0.022*[#   8]+0.022*[#  48]+0.020*[#   4]+0.020*[#  44]+
          +0.019*[#  54]+0.017*[#  17]+0.017*[#  25]+0.015*[#   1]+0.015*[#  41]+
          +0.010*[#  22]+0.010*[#  30]+0.007*[#   6]+0.007*[#  46]+0.006*[#  13]+
          +0.006*[#  37]+0.005*[#  16]+0.005*[#  40]+0.003*[#  18]+0.003*[#  26]+
          +0.002*[#  19]+0.002*[#  27]+0.002*[#   3]+0.002*[#  43]+0.001*[#   2]+
          +0.001*[#  42]+
    |psi|^2 = 0.994
==== e(  12) =    -2.90685 eV ==== 
     psi = 0.116*[#  18]+0.116*[#  26]+0.066*[#  52]+0.050*[#  12]+0.050*[#  36]+
          +0.048*[#   5]+0.048*[#  45]+0.043*[#  56]+0.042*[#  22]+0.042*[#  30]+
          +0.036*[#  16]+0.036*[#  40]+0.029*[#   4]+0.029*[#  44]+0.023*[#  49]+
          +0.018*[#   1]+0.018*[#  41]+0.018*[#   6]+0.018*[#  46]+0.014*[#   2]+
          +0.014*[#  42]+0.013*[#   9]+0.013*[#  33]+0.011*[#  14]+0.011*[#  38]+
          +0.010*[#  20]+0.010*[#  28]+0.009*[#  21]+0.009*[#  29]+0.007*[#  10]+
          +0.007*[#  34]+0.003*[#   8]+0.003*[#  48]+0.002*[#   3]+0.002*[#  43]+
    |psi|^2 = 0.993
==== e(  13) =    -2.55492 eV ==== 
     psi = 0.125*[#  18]+0.125*[#  26]+0.097*[#  54]+0.052*[#  20]+0.052*[#  28]+
          +0.046*[#   2]+0.046*[#  42]+0.040*[#  16]+0.040*[#  40]+0.037*[#   6]+
          +0.037*[#  46]+0.028*[#  22]+0.028*[#  30]+0.020*[#  10]+0.020*[#  34]+
          +0.018*[#  13]+0.018*[#  21]+0.018*[#  29]+0.018*[#  37]+0.014*[#   9]+
          +0.014*[#  33]+0.013*[#   8]+0.013*[#  48]+0.009*[#  17]+0.009*[#  25]+
          +0.007*[#  50]+0.005*[#   1]+0.005*[#  41]+0.005*[#   4]+0.005*[#  12]+
          +0.005*[#  36]+0.005*[#  44]+0.003*[#   5]+0.003*[#  45]+0.003*[#  11]+
          +0.003*[#  35]+
    |psi|^2 = 0.990
==== e(  14) =    -2.44543 eV ==== 
     psi = 0.205*[#  10]+0.205*[#  34]+0.074*[#  52]+0.043*[#  22]+0.043*[#  30]+
          +0.035*[#  14]+0.035*[#  38]+0.032*[#   2]+0.032*[#  42]+0.026*[#   1]+
          +0.026*[#  41]+0.022*[#  24]+0.022*[#  32]+0.017*[#   5]+0.017*[#  45]+
          +0.011*[#   8]+0.011*[#  13]+0.011*[#  37]+0.011*[#  48]+0.009*[#  53]+
          +0.009*[#   6]+0.009*[#  21]+0.009*[#  29]+0.009*[#  46]+0.008*[#  49]+
          +0.007*[#  56]+0.007*[#  20]+0.007*[#  28]+0.006*[#  12]+0.006*[#  36]+
          +0.003*[#  18]+0.003*[#  26]+0.002*[#   3]+0.002*[#  43]+0.002*[#  17]+
          +0.002*[#  19]+0.002*[#  25]+0.002*[#  27]+0.001*[#   4]+0.001*[#  44]+
    |psi|^2 = 0.992
==== e(  15) =    -1.82854 eV ==== 
     psi = 0.129*[#  20]+0.129*[#  28]+0.078*[#   4]+0.078*[#  44]+0.073*[#  14]+
          +0.073*[#  38]+0.042*[#  10]+0.042*[#  34]+0.034*[#  18]+0.034*[#  26]+
          +0.032*[#   5]+0.032*[#  45]+0.027*[#  50]+0.025*[#  54]+0.017*[#  24]+
          +0.017*[#  32]+0.013*[#  16]+0.013*[#  40]+0.012*[#  12]+0.012*[#  36]+
          +0.012*[#  21]+0.012*[#  29]+0.008*[#  22]+0.008*[#  30]+0.007*[#  17]+
          +0.007*[#  25]+0.005*[#   9]+0.005*[#  33]+0.003*[#  23]+0.003*[#  31]+
          +0.002*[#   1]+0.002*[#   3]+0.002*[#  41]+0.002*[#  43]+
    |psi|^2 = 0.991
==== e(  16) =    -1.76056 eV ==== 
     psi = 0.157*[#  51]+0.131*[#  19]+0.131*[#  27]+0.080*[#  55]+0.073*[#  11]+
          +0.073*[#  35]+0.069*[#  23]+0.069*[#  31]+0.041*[#  15]+0.041*[#  39]+
          +0.017*[#   3]+0.017*[#  43]+0.013*[#   7]+0.013*[#  47]+0.010*[#  56]+
          +0.008*[#  24]+0.008*[#  32]+0.005*[#  12]+0.005*[#  36]+0.004*[#  20]+
          +0.004*[#  28]+0.003*[#  53]+0.003*[#  16]+0.003*[#  40]+0.002*[#  52]+
          +0.002*[#   5]+0.002*[#  21]+0.002*[#  29]+0.002*[#  45]+0.001*[#   8]+
          +0.001*[#  48]+
    |psi|^2 = 0.995
==== e(  17) =    -1.56420 eV ==== 
     psi = 0.178*[#  50]+0.087*[#   2]+0.087*[#  42]+0.062*[#  10]+0.062*[#  34]+
          +0.030*[#   1]+0.030*[#  41]+0.028*[#  22]+0.028*[#  30]+0.027*[#   5]+
          +0.027*[#  45]+0.022*[#   3]+0.022*[#  43]+0.020*[#  54]+0.020*[#  19]+
          +0.020*[#  27]+0.019*[#   6]+0.019*[#  46]+0.018*[#  14]+0.018*[#  38]+
          +0.013*[#  15]+0.013*[#  39]+0.012*[#  11]+0.012*[#  35]+0.010*[#  16]+
          +0.010*[#  40]+0.010*[#   7]+0.010*[#  47]+0.009*[#   9]+0.009*[#  33]+
          +0.007*[#  23]+0.007*[#  31]+0.006*[#  18]+0.006*[#  26]+0.005*[#  17]+
          +0.005*[#  25]+0.005*[#  13]+0.005*[#  37]+0.004*[#  21]+0.004*[#  29]+
          +0.003*[#  12]+0.003*[#  36]+
    |psi|^2 = 0.992
==== e(  18) =    -1.42093 eV ==== 
     psi = 0.143*[#  11]+0.143*[#  35]+0.072*[#  19]+0.072*[#  27]+0.069*[#  15]+
          +0.069*[#  39]+0.047*[#  50]+0.034*[#   3]+0.034*[#  43]+0.032*[#  23]+
          +0.032*[#  31]+0.029*[#   7]+0.029*[#  47]+0.019*[#   2]+0.019*[#  42]+
          +0.012*[#  54]+0.011*[#  24]+0.011*[#  32]+0.011*[#  10]+0.011*[#  34]+
          +0.008*[#   8]+0.008*[#  48]+0.008*[#  12]+0.008*[#  36]+0.006*[#  22]+
          +0.006*[#  30]+0.005*[#   6]+0.005*[#  13]+0.005*[#  37]+0.005*[#  46]+
          +0.005*[#   9]+0.005*[#  33]+0.002*[#  14]+0.002*[#  16]+0.002*[#  38]+
          +0.002*[#  40]+0.002*[#   1]+0.002*[#  41]+0.001*[#  18]+0.001*[#  26]+
    |psi|^2 = 0.994
==== e(  19) =    -1.30251 eV ==== 
     psi = 0.098*[#   2]+0.098*[#  42]+0.068*[#   6]+0.068*[#  46]+0.068*[#   4]+
          +0.068*[#  44]+0.061*[#  52]+0.043*[#  14]+0.043*[#  38]+0.039*[#  53]+
          +0.026*[#  12]+0.026*[#  36]+0.021*[#  20]+0.021*[#  28]+0.019*[#   5]+
          +0.019*[#  45]+0.014*[#  18]+0.014*[#  26]+0.011*[#  16]+0.011*[#  40]+
          +0.010*[#  17]+0.010*[#  22]+0.010*[#  25]+0.010*[#  30]+0.010*[#   3]+
          +0.010*[#  43]+0.009*[#   8]+0.009*[#  48]+0.009*[#  19]+0.009*[#  27]+
          +0.008*[#  21]+0.008*[#  29]+0.005*[#  10]+0.005*[#  34]+0.004*[#  55]+
          +0.004*[#  49]+0.003*[#  56]+0.002*[#   9]+0.002*[#  33]+0.001*[#  15]+
          +0.001*[#  39]+0.001*[#  24]+0.001*[#  32]+
    |psi|^2 = 0.985
==== e(  20) =    -0.94282 eV ==== 
     psi = 0.210*[#  51]+0.097*[#   3]+0.097*[#  43]+0.083*[#  11]+0.083*[#  35]+
          +0.071*[#  55]+0.051*[#   7]+0.051*[#  47]+0.042*[#  15]+0.042*[#  39]+
          +0.017*[#   8]+0.017*[#  48]+0.011*[#  19]+0.011*[#  27]+0.009*[#  16]+
          +0.009*[#  40]+0.008*[#  56]+0.007*[#  53]+0.007*[#   2]+0.007*[#  23]+
          +0.007*[#  31]+0.007*[#  42]+0.006*[#  10]+0.006*[#  34]+0.004*[#  49]+
          +0.003*[#   5]+0.003*[#  45]+0.003*[#  12]+0.003*[#  36]+0.003*[#   1]+
          +0.003*[#  41]+0.002*[#  52]+0.002*[#  24]+0.002*[#  32]+0.001*[#  20]+
          +0.001*[#  28]+0.001*[#   4]+0.001*[#  44]+
    |psi|^2 = 0.991
==== e(  21) =    -0.57911 eV ==== 
     psi = 0.097*[#  52]+0.090*[#   4]+0.090*[#  44]+0.080*[#   2]+0.080*[#  42]+
          +0.049*[#  10]+0.049*[#  34]+0.036*[#  20]+0.036*[#  28]+0.033*[#  56]+
          +0.030*[#  18]+0.030*[#  26]+0.020*[#   5]+0.020*[#  45]+0.017*[#  14]+
          +0.017*[#  38]+0.016*[#  17]+0.016*[#  25]+0.014*[#  11]+0.014*[#  35]+
          +0.013*[#  49]+0.013*[#  22]+0.013*[#  30]+0.009*[#   1]+0.009*[#  41]+
          +0.007*[#   6]+0.007*[#  46]+0.006*[#   8]+0.006*[#  48]+0.006*[#  19]+
          +0.006*[#  27]+0.006*[#  13]+0.006*[#  37]+0.005*[#  24]+0.005*[#  32]+
          +0.004*[#   7]+0.004*[#  47]+0.003*[#  16]+0.003*[#  40]+0.003*[#  23]+
          +0.003*[#  31]+0.002*[#  15]+0.002*[#  39]+0.002*[#   9]+0.002*[#  33]+
          +0.001*[#  12]+0.001*[#  36]+0.001*[#  53]+0.001*[#  55]+
    |psi|^2 = 0.987
==== e(  22) =    -0.48520 eV ==== 
     psi = 0.120*[#   3]+0.120*[#  43]+0.073*[#  19]+0.073*[#  27]+0.046*[#  12]+
          +0.046*[#  36]+0.039*[#  20]+0.039*[#  28]+0.034*[#  23]+0.034*[#  31]+
          +0.030*[#   6]+0.030*[#  46]+0.025*[#   4]+0.025*[#  44]+0.025*[#   7]+
          +0.025*[#  47]+0.022*[#  54]+0.019*[#   5]+0.019*[#  45]+0.018*[#  18]+
          +0.018*[#  26]+0.014*[#   2]+0.014*[#  42]+0.007*[#  50]+0.006*[#   1]+
          +0.006*[#  41]+0.006*[#  14]+0.006*[#  38]+0.004*[#  11]+0.004*[#  35]+
          +0.004*[#  22]+0.004*[#  30]+0.003*[#  13]+0.003*[#  37]+0.003*[#  16]+
          +0.003*[#  40]+0.003*[#  24]+0.003*[#  32]+0.002*[#  10]+0.002*[#  34]+
          +0.001*[#  15]+0.001*[#  21]+0.001*[#  29]+0.001*[#  39]+
    |psi|^2 = 0.985
==== e(  23) =    -0.26597 eV ==== 
     psi = 0.120*[#  19]+0.120*[#  27]+0.063*[#   4]+0.063*[#  44]+0.041*[#  12]+
          +0.041*[#  36]+0.039*[#   3]+0.039*[#  43]+0.027*[#   7]+0.027*[#  47]+
          +0.024*[#  11]+0.024*[#  35]+0.020*[#  23]+0.020*[#  31]+0.019*[#  54]+
          +0.018*[#   6]+0.018*[#  46]+0.017*[#  18]+0.017*[#  26]+0.016*[#  10]+
          +0.016*[#  34]+0.015*[#   2]+0.015*[#  42]+0.014*[#   8]+0.014*[#  48]+
          +0.011*[#  24]+0.011*[#  32]+0.011*[#  20]+0.011*[#  28]+0.008*[#  21]+
          +0.008*[#  22]+0.008*[#  29]+0.008*[#  30]+0.007*[#  50]+0.006*[#  13]+
          +0.006*[#  37]+0.006*[#  16]+0.006*[#  40]+0.006*[#  14]+0.006*[#  38]+
          +0.005*[#   5]+0.005*[#  45]+0.001*[#  15]+0.001*[#  39]+0.001*[#   1]+
          +0.001*[#   9]+
    |psi|^2 = 0.986
==== e(  24) =     0.01688 eV ==== 
     psi = 0.177*[#   3]+0.177*[#  43]+0.131*[#  51]+0.097*[#  11]+0.097*[#  35]+
          +0.038*[#   7]+0.038*[#  47]+0.032*[#  55]+0.019*[#  19]+0.019*[#  27]+
          +0.018*[#  52]+0.009*[#   8]+0.009*[#  48]+0.009*[#  15]+0.009*[#  39]+
          +0.008*[#  20]+0.008*[#  28]+0.007*[#  23]+0.007*[#  31]+0.006*[#  56]+
          +0.006*[#  16]+0.006*[#  40]+0.005*[#   5]+0.005*[#  45]+0.005*[#  10]+
          +0.005*[#  34]+0.003*[#   1]+0.003*[#  41]+0.003*[#  18]+0.003*[#  26]+
          +0.003*[#   6]+0.003*[#  46]+0.002*[#   9]+0.002*[#  24]+0.002*[#  32]+
          +0.002*[#  33]+0.001*[#   4]+0.001*[#  13]+0.001*[#  22]+0.001*[#  30]+
          +0.001*[#  37]+0.001*[#  44]+
    |psi|^2 = 0.984
==== e(  25) =     0.22205 eV ==== 
     psi = 0.203*[#  51]+0.165*[#  19]+0.165*[#  27]+0.077*[#  11]+0.077*[#  35]+
          +0.025*[#  56]+0.018*[#  52]+0.016*[#  24]+0.016*[#  32]+0.014*[#  20]+
          +0.014*[#  28]+0.010*[#  21]+0.010*[#  29]+0.009*[#  12]+0.009*[#  36]+
          +0.009*[#  16]+0.009*[#  40]+0.008*[#  55]+0.007*[#   2]+0.007*[#   3]+
          +0.007*[#  42]+0.007*[#  43]+0.007*[#  31]+0.007*[#  53]+0.007*[#   6]+
          +0.007*[#  23]+0.007*[#  46]+0.006*[#  49]+0.005*[#  17]+0.005*[#  25]+
          +0.004*[#   9]+0.004*[#  10]+0.004*[#  33]+0.004*[#  34]+0.003*[#  13]+
          +0.003*[#  37]+0.003*[#   4]+0.003*[#  44]+0.003*[#   5]+0.003*[#  45]+
          +0.002*[#  15]+0.002*[#  18]+0.002*[#  26]+0.002*[#  39]+0.002*[#   1]+
          +0.002*[#  41]+
    |psi|^2 = 0.981
==== e(  26) =     0.24439 eV ==== 
     psi = 0.111*[#  11]+0.111*[#  35]+0.082*[#   3]+0.082*[#  43]+0.081*[#   4]+
          +0.081*[#  44]+0.047*[#  19]+0.047*[#  27]+0.040*[#   2]+0.040*[#  42]+
          +0.034*[#  12]+0.034*[#  36]+0.023*[#   7]+0.023*[#  47]+0.015*[#  20]+
          +0.015*[#  28]+0.015*[#  15]+0.015*[#  39]+0.010*[#  18]+0.010*[#  26]+
          +0.008*[#  23]+0.008*[#  31]+0.005*[#  10]+0.005*[#  34]+0.005*[#  16]+
          +0.005*[#  40]+0.005*[#  22]+0.005*[#  30]+0.004*[#   9]+0.004*[#  33]+
          +0.003*[#  54]+0.002*[#  13]+0.002*[#  37]+0.001*[#  50]+0.001*[#   6]+
          +0.001*[#  46]+
    |psi|^2 = 0.983
==== e(  27) =     0.38494 eV ==== 
     psi = 0.109*[#  18]+0.109*[#  26]+0.095*[#  50]+0.064*[#  11]+0.064*[#  35]+
          +0.063*[#   2]+0.063*[#  42]+0.057*[#  10]+0.057*[#  34]+0.038*[#   4]+
          +0.038*[#  44]+0.027*[#   3]+0.027*[#  43]+0.027*[#   8]+0.027*[#  48]+
          +0.021*[#  19]+0.021*[#  27]+0.007*[#  12]+0.007*[#  36]+0.006*[#  16]+
          +0.006*[#  40]+0.005*[#  24]+0.005*[#  32]+0.004*[#  15]+0.004*[#  39]+
          +0.004*[#   1]+0.004*[#  41]+0.003*[#  20]+0.003*[#  28]+0.002*[#   7]+
          +0.002*[#  47]+0.002*[#   5]+0.002*[#  45]+0.002*[#  54]+0.001*[#   6]+
          +0.001*[#  46]+0.001*[#  23]+0.001*[#  31]+
    |psi|^2 = 0.980
==== e(  28) =     0.42349 eV ==== 
     psi = 0.133*[#  20]+0.133*[#  28]+0.124*[#  52]+0.104*[#   4]+0.104*[#  44]+
          +0.087*[#  12]+0.087*[#  36]+0.015*[#   3]+0.015*[#  43]+0.015*[#   2]+
          +0.015*[#  42]+0.011*[#  11]+0.011*[#  35]+0.010*[#   7]+0.010*[#  19]+
          +0.010*[#  27]+0.010*[#  47]+0.009*[#  23]+0.009*[#  31]+0.009*[#  55]+
          +0.008*[#  51]+0.006*[#  15]+0.006*[#  39]+0.005*[#   1]+0.005*[#  41]+
          +0.004*[#   6]+0.004*[#  46]+0.003*[#  24]+0.003*[#  32]+0.002*[#   8]+
          +0.002*[#  48]+0.002*[#  56]+0.001*[#  10]+0.001*[#  18]+0.001*[#  26]+
          +0.001*[#  34]+
    |psi|^2 = 0.978
==== e(  29) =     2.44651 eV ==== 
     psi = 0.104*[#  24]+0.104*[#  32]+0.085*[#  56]+0.075*[#   2]+0.075*[#  42]+
          +0.056*[#   8]+0.056*[#  48]+0.049*[#  16]+0.049*[#  40]+0.036*[#  49]+
          +0.033*[#  17]+0.033*[#  25]+0.025*[#   6]+0.025*[#  46]+0.021*[#   9]+
          +0.021*[#  33]+0.008*[#  11]+0.008*[#  35]+0.007*[#  19]+0.007*[#  27]+
          +0.004*[#  51]+0.002*[#  13]+0.002*[#  14]+0.002*[#  37]+0.002*[#  38]+
          +0.001*[#  12]+0.001*[#  36]+
    |psi|^2 = 0.896
==== e(  30) =     2.97176 eV ==== 
     psi = 0.083*[#   8]+0.083*[#  48]+0.062*[#  16]+0.062*[#  40]+0.061*[#   2]+
          +0.061*[#  42]+0.049*[#  24]+0.049*[#  32]+0.020*[#   5]+0.020*[#  45]+
          +0.020*[#   6]+0.020*[#  46]+0.019*[#  12]+0.019*[#  36]+0.018*[#  13]+
          +0.018*[#  37]+0.016*[#  17]+0.016*[#  25]+0.015*[#   9]+0.015*[#  33]+
          +0.013*[#  50]+0.013*[#  11]+0.013*[#  35]+0.010*[#   1]+0.010*[#  41]+
          +0.009*[#  18]+0.009*[#  26]+0.009*[#   3]+0.009*[#  43]+0.006*[#  19]+
          +0.006*[#  27]+0.005*[#  20]+0.005*[#  28]+0.004*[#   4]+0.004*[#  21]+
          +0.004*[#  29]+0.004*[#  44]+0.002*[#   7]+0.002*[#  22]+0.002*[#  23]+
          +0.002*[#  30]+0.002*[#  31]+0.002*[#  47]+0.002*[#  10]+0.002*[#  34]+
    |psi|^2 = 0.871
==== e(  31) =     3.15348 eV ==== 
     psi = 0.097*[#  21]+0.097*[#  29]+0.088*[#   5]+0.088*[#  45]+0.047*[#   6]+
          +0.047*[#  46]+0.037*[#   4]+0.037*[#  44]+0.036*[#   1]+0.036*[#  41]+
          +0.016*[#  17]+0.016*[#  25]+0.014*[#   3]+0.014*[#  43]+0.014*[#  20]+
          +0.014*[#  28]+0.012*[#   9]+0.012*[#  12]+0.012*[#  33]+0.012*[#  36]+
          +0.012*[#  52]+0.010*[#  19]+0.010*[#  27]+0.010*[#   8]+0.010*[#  48]+
          +0.010*[#  56]+0.009*[#  14]+0.009*[#  38]+0.007*[#  16]+0.007*[#  40]+
          +0.005*[#   7]+0.005*[#  47]+0.005*[#  49]+0.003*[#  13]+0.003*[#  37]+
          +0.003*[#  22]+0.003*[#  30]+0.003*[#   2]+0.003*[#  42]+0.002*[#  11]+
          +0.002*[#  23]+0.002*[#  31]+0.002*[#  35]+0.001*[#  10]+0.001*[#  34]+
    |psi|^2 = 0.884
==== e(  32) =     3.58266 eV ==== 
     psi = 0.166*[#  53]+0.065*[#  52]+0.057*[#   2]+0.057*[#  42]+0.042*[#  13]+
          +0.042*[#  37]+0.035*[#  49]+0.035*[#  20]+0.035*[#  28]+0.034*[#  56]+
          +0.028*[#  51]+0.019*[#  24]+0.019*[#  32]+0.013*[#   5]+0.013*[#  45]+
          +0.011*[#  21]+0.011*[#  29]+0.009*[#   9]+0.009*[#  33]+0.008*[#   1]+
          +0.008*[#   8]+0.008*[#  41]+0.008*[#  48]+0.006*[#  16]+0.006*[#  40]+
          +0.004*[#   3]+0.004*[#  43]+0.004*[#  15]+0.004*[#  39]+0.004*[#  22]+
          +0.004*[#  30]+0.004*[#  55]+0.002*[#  18]+0.002*[#  26]+0.002*[#   7]+
          +0.002*[#  14]+0.002*[#  17]+0.002*[#  25]+0.002*[#  47]+0.002*[#  38]+
          +0.001*[#  12]+0.001*[#  36]+0.001*[#   6]+0.001*[#  46]+
    |psi|^2 = 0.799
==== e(  33) =     3.62386 eV ==== 
     psi = 0.107*[#   6]+0.107*[#  46]+0.089*[#   5]+0.089*[#  45]+0.043*[#   1]+
          +0.043*[#  41]+0.041*[#   4]+0.041*[#  44]+0.027*[#  50]+0.024*[#  10]+
          +0.024*[#  34]+0.024*[#  21]+0.024*[#  29]+0.023*[#  22]+0.023*[#  30]+
          +0.019*[#   8]+0.019*[#  48]+0.017*[#  14]+0.017*[#  38]+0.014*[#   9]+
          +0.014*[#  33]+0.011*[#   3]+0.011*[#  43]+0.008*[#  13]+0.008*[#  37]+
          +0.005*[#  54]+0.004*[#   7]+0.004*[#  18]+0.004*[#  26]+0.004*[#  47]+
          +0.004*[#  11]+0.004*[#  35]+0.004*[#  20]+0.004*[#  28]+0.003*[#  12]+
          +0.003*[#  36]+0.002*[#   2]+0.002*[#  42]+0.002*[#  19]+0.002*[#  27]+
          +0.001*[#  17]+0.001*[#  25]+
    |psi|^2 = 0.923
==== e(  34) =     3.82782 eV ==== 
     psi = 0.109*[#  56]+0.105*[#  13]+0.105*[#  37]+0.075*[#   8]+0.075*[#  48]+
          +0.026*[#  12]+0.026*[#  36]+0.024*[#  17]+0.024*[#  25]+0.015*[#   5]+
          +0.015*[#  11]+0.015*[#  35]+0.015*[#  45]+0.013*[#   9]+0.013*[#  33]+
          +0.013*[#  24]+0.013*[#  32]+0.012*[#  18]+0.012*[#  26]+0.012*[#   4]+
          +0.012*[#  44]+0.008*[#  10]+0.008*[#  34]+0.007*[#  53]+0.007*[#  22]+
          +0.007*[#  30]+0.006*[#   3]+0.006*[#  16]+0.006*[#  40]+0.006*[#  43]+
          +0.005*[#  52]+0.004*[#  19]+0.004*[#  27]+0.004*[#  51]+0.004*[#   1]+
          +0.004*[#   6]+0.004*[#  41]+0.004*[#  46]+0.003*[#  20]+0.003*[#  28]+
          +0.002*[#  21]+0.002*[#  29]+0.002*[#   2]+0.002*[#  42]+0.001*[#   7]+
          +0.001*[#  47]+0.001*[#  14]+0.001*[#  38]+
    |psi|^2 = 0.839

 k =   0.0833333333  0.1767766936  0.0000000000
==== e(   1) =   -11.08296 eV ==== 
     psi = 0.151*[#  49]+0.113*[#  17]+0.113*[#  25]+0.076*[#  53]+0.069*[#   9]+
[...]
          +0.049*[#  39]+0.038*[#  52]+0.034*[#   9]+0.034*[#  33]+0.032*[#  22]+
          +0.032*[#  30]+0.024*[#  55]+0.023*[#  49]+0.019*[#  12]+0.019*[#  36]+
          +0.007*[#   5]+0.007*[#  45]+0.007*[#   3]+0.007*[#  43]+0.006*[#  21]+
          +0.006*[#  29]+0.005*[#  10]+0.005*[#  34]+0.003*[#  24]+0.003*[#  32]+
          +0.003*[#  19]+0.003*[#  27]+
    |psi|^2 = 0.934
==== e(  30) =     2.25951 eV ==== 
     psi = 0.207*[#   6]+0.207*[#  46]+0.059*[#  15]+0.059*[#  39]+0.048*[#   8]+
          +0.048*[#  48]+0.043*[#  50]+0.038*[#   9]+0.038*[#  33]+0.024*[#  21]+
          +0.024*[#  29]+0.017*[#  22]+0.017*[#  30]+0.016*[#  12]+0.016*[#  36]+
          +0.013*[#   3]+0.013*[#  43]+0.009*[#  19]+0.009*[#  27]+0.005*[#   5]+
          +0.005*[#  45]+0.004*[#  10]+0.004*[#  34]+0.001*[#  24]+0.001*[#  32]+
    |psi|^2 = 0.925
==== e(  31) =     3.19819 eV ==== 
     psi = 0.105*[#  55]+0.076*[#  22]+0.076*[#  30]+0.064*[#   6]+0.064*[#  46]+
          +0.056*[#  49]+0.039*[#  21]+0.039*[#  29]+0.036*[#   5]+0.036*[#  45]+
          +0.030*[#   8]+0.030*[#  48]+0.021*[#  12]+0.021*[#  36]+0.021*[#  10]+
          +0.021*[#  34]+0.016*[#  24]+0.016*[#  32]+0.015*[#   3]+0.015*[#  43]+
          +0.012*[#   9]+0.012*[#  33]+0.011*[#  19]+0.011*[#  27]+0.008*[#  52]+
          +0.006*[#  15]+0.006*[#  39]+
    |psi|^2 = 0.861
==== e(  32) =     3.25731 eV ==== 
     psi = 0.199*[#  54]+0.116*[#  23]+0.116*[#  31]+0.070*[#  17]+0.070*[#  25]+
          +0.034*[#  13]+0.034*[#  37]+0.032*[#   4]+0.032*[#  44]+0.023*[#  20]+
          +0.023*[#  28]+0.019*[#  14]+0.019*[#  38]+0.015*[#  18]+0.015*[#  26]+
          +0.009*[#  11]+0.009*[#  35]+0.003*[#   7]+0.003*[#  47]+0.002*[#   2]+
          +0.002*[#  42]+
    |psi|^2 = 0.850
==== e(  33) =     3.61144 eV ==== 
     psi = 0.113*[#   5]+0.113*[#  45]+0.074*[#   8]+0.074*[#  48]+0.051*[#   3]+
          +0.051*[#  43]+0.046*[#  10]+0.046*[#  34]+0.037*[#   6]+0.037*[#  46]+
          +0.034*[#  22]+0.034*[#  30]+0.022*[#   9]+0.022*[#  33]+0.018*[#  21]+
          +0.018*[#  29]+0.015*[#  15]+0.015*[#  39]+0.011*[#  12]+0.011*[#  36]+
          +0.008*[#  24]+0.008*[#  32]+0.006*[#  50]+0.006*[#  19]+0.006*[#  27]+
    |psi|^2 = 0.873
==== e(  34) =     3.62309 eV ==== 
     psi = 0.171*[#  53]+0.083*[#  14]+0.083*[#  38]+0.050*[#  23]+0.050*[#  31]+
          +0.044*[#  18]+0.044*[#  26]+0.038*[#  51]+0.029*[#  17]+0.029*[#  25]+
          +0.026*[#   7]+0.026*[#  47]+0.014*[#   1]+0.014*[#  41]+0.010*[#   2]+
          +0.010*[#  42]+0.009*[#  13]+0.009*[#  37]+0.008*[#  11]+0.008*[#  35]+
          +0.008*[#  16]+0.008*[#  40]+0.007*[#  56]+0.006*[#   4]+0.006*[#  44]+
          +0.003*[#  20]+0.003*[#  28]+
    |psi|^2 = 0.797

 k =  -0.5000000000 -0.3535533872  0.0000000000
==== e(   1) =    -9.88988 eV ==== 
     psi = 0.310*[#  49]+0.166*[#   9]+0.166*[#  33]+0.067*[#  55]+0.047*[#  21]+
          +0.047*[#  29]+0.034*[#  15]+0.034*[#  39]+0.027*[#  24]+0.027*[#  32]+
          +0.010*[#   5]+0.010*[#   8]+0.010*[#  45]+0.010*[#  48]+0.008*[#   6]+
          +0.008*[#  46]+0.003*[#  19]+0.003*[#  27]+0.002*[#  52]+0.002*[#  12]+
          +0.002*[#  22]+0.002*[#  30]+0.002*[#  36]+
    |psi|^2 = 0.997
==== e(   2) =    -9.75781 eV ==== 
     psi = 0.315*[#  17]+0.315*[#  25]+0.067*[#  23]+0.067*[#  31]+0.064*[#  53]+
          +0.035*[#  56]+0.021*[#  13]+0.021*[#  37]+0.012*[#  14]+0.012*[#  38]+
          +0.010*[#   1]+0.010*[#  16]+0.010*[#  40]+0.010*[#  41]+0.005*[#   7]+
          +0.005*[#  47]+0.005*[#  51]+0.002*[#  11]+0.002*[#  35]+0.001*[#  20]+
          +0.001*[#  28]+
    |psi|^2 = 0.997
==== e(   3) =    -9.68054 eV ==== 
     psi = 0.329*[#   9]+0.329*[#  33]+0.066*[#  15]+0.066*[#  39]+0.020*[#   8]+
          +0.020*[#  48]+0.020*[#  22]+0.020*[#  30]+0.018*[#   5]+0.018*[#  45]+
          +0.017*[#  21]+0.017*[#  29]+0.013*[#   6]+0.013*[#  46]+0.010*[#  24]+
          +0.010*[#  32]+0.003*[#  50]+0.002*[#  12]+0.002*[#  36]+0.001*[#   3]+
          +0.001*[#  19]+0.001*[#  27]+0.001*[#  43]+
    |psi|^2 = 0.996
==== e(   4) =    -9.46908 eV ==== 
     psi = 0.307*[#  17]+0.307*[#  25]+0.070*[#  54]+0.064*[#  23]+0.064*[#  31]+
          +0.028*[#   1]+0.028*[#  41]+0.027*[#  13]+0.027*[#  37]+0.014*[#  16]+
          +0.014*[#  40]+0.012*[#   7]+0.012*[#  47]+0.007*[#  14]+0.007*[#  38]+
          +0.002*[#  11]+0.002*[#  35]+0.002*[#   2]+0.002*[#  42]+0.001*[#  18]+
          +0.001*[#  26]+
    |psi|^2 = 0.997
==== e(   5) =    -9.42795 eV ==== 
     psi = 0.354*[#  49]+0.168*[#   9]+0.168*[#  33]+0.073*[#  55]+0.055*[#  22]+
          +0.055*[#  30]+0.033*[#  15]+0.033*[#  39]+0.011*[#   8]+0.011*[#  48]+
          +0.009*[#   5]+0.009*[#  45]+0.005*[#   6]+0.005*[#  46]+0.002*[#  21]+
          +0.002*[#  29]+0.001*[#  24]+0.001*[#  32]+
    |psi|^2 = 0.997
==== e(   6) =    -8.90072 eV ==== 
     psi = 0.333*[#   1]+0.333*[#  41]+0.088*[#   7]+0.088*[#  47]+0.032*[#  14]+
          +0.032*[#  38]+0.015*[#  13]+0.015*[#  37]+0.012*[#  17]+0.012*[#  25]+
          +0.005*[#  16]+0.005*[#  40]+0.004*[#   2]+0.004*[#  42]+0.003*[#  23]+
          +0.003*[#  31]+0.003*[#  53]+0.002*[#  11]+0.002*[#  35]+0.002*[#  56]+
          +0.001*[#  18]+0.001*[#  26]+
    |psi|^2 = 0.996
==== e(   7) =    -8.87278 eV ==== 
     psi = 0.315*[#   1]+0.315*[#  41]+0.082*[#   7]+0.082*[#  47]+0.036*[#  14]+
          +0.036*[#  38]+0.035*[#  17]+0.035*[#  25]+0.010*[#  13]+0.010*[#  37]+
          +0.008*[#  23]+0.008*[#  31]+0.007*[#  54]+0.003*[#   2]+0.003*[#  42]+
          +0.003*[#  16]+0.003*[#  40]+0.002*[#  11]+0.002*[#  35]+
    |psi|^2 = 0.996
==== e(   8) =    -5.17709 eV ==== 
     psi = 0.129*[#  19]+0.129*[#  27]+0.089*[#  21]+0.089*[#  29]+0.065*[#  52]+
          +0.059*[#  12]+0.059*[#  36]+0.050*[#  55]+0.048*[#  15]+0.048*[#  39]+
          +0.042*[#   5]+0.042*[#  45]+0.034*[#   3]+0.034*[#  43]+0.025*[#  24]+
          +0.025*[#  32]+0.005*[#   8]+0.005*[#  48]+0.004*[#   6]+0.004*[#  46]+
          +0.002*[#  49]+0.002*[#   9]+0.002*[#  33]+
    |psi|^2 = 0.991
==== e(   9) =    -4.98704 eV ==== 
     psi = 0.090*[#  19]+0.090*[#  27]+0.081*[#  12]+0.081*[#  36]+0.077*[#  21]+
          +0.077*[#  29]+0.074*[#   5]+0.074*[#  45]+0.067*[#  15]+0.067*[#  39]+
          +0.065*[#   3]+0.065*[#  43]+0.019*[#  50]+0.011*[#  24]+0.011*[#  32]+
          +0.010*[#   8]+0.010*[#  48]+0.006*[#  22]+0.006*[#  30]+0.003*[#   6]+
          +0.003*[#   9]+0.003*[#  33]+0.003*[#  46]+0.001*[#  10]+0.001*[#  34]+
    |psi|^2 = 0.991
==== e(  10) =    -4.93803 eV ==== 
     psi = 0.246*[#  51]+0.177*[#  53]+0.076*[#  20]+0.076*[#  28]+0.063*[#  11]+
          +0.063*[#  35]+0.061*[#  23]+0.061*[#  31]+0.038*[#  56]+0.034*[#  13]+
          +0.034*[#  37]+0.014*[#  16]+0.014*[#  40]+0.004*[#   4]+0.004*[#  18]+
          +0.004*[#  26]+0.004*[#  44]+0.004*[#   7]+0.004*[#  47]+0.003*[#  14]+
          +0.003*[#  38]+0.002*[#  17]+0.002*[#  25]+0.001*[#   2]+0.001*[#  42]+
    |psi|^2 = 0.992
==== e(  11) =    -4.56534 eV ==== 
     psi = 0.197*[#  11]+0.197*[#  35]+0.145*[#  13]+0.145*[#  37]+0.039*[#  20]+
          +0.039*[#  28]+0.030*[#  23]+0.030*[#  31]+0.026*[#  16]+0.026*[#  40]+
          +0.017*[#   4]+0.017*[#  44]+0.014*[#   7]+0.014*[#  47]+0.010*[#  18]+
          +0.010*[#  26]+0.008*[#   2]+0.008*[#  42]+0.006*[#  54]+0.004*[#   1]+
          +0.004*[#  41]+0.002*[#  17]+0.002*[#  25]+0.001*[#  14]+0.001*[#  38]+
    |psi|^2 = 0.992
==== e(  12) =    -4.41327 eV ==== 
     psi = 0.147*[#  53]+0.129*[#  13]+0.129*[#  37]+0.122*[#  11]+0.122*[#  35]+
          +0.106*[#  51]+0.072*[#  18]+0.072*[#  26]+0.014*[#   4]+0.014*[#  44]+
          +0.011*[#   2]+0.011*[#  42]+0.009*[#   7]+0.009*[#  47]+0.007*[#   1]+
          +0.007*[#  41]+0.006*[#  16]+0.006*[#  40]+
    |psi|^2 = 0.994
==== e(  13) =    -4.36505 eV ==== 
     psi = 0.144*[#   5]+0.144*[#  45]+0.131*[#   3]+0.131*[#  43]+0.060*[#  52]+
          +0.049*[#  19]+0.049*[#  27]+0.046*[#  55]+0.042*[#  21]+0.042*[#  29]+
          +0.020*[#  12]+0.020*[#  36]+0.017*[#  10]+0.017*[#  34]+0.017*[#  15]+
          +0.017*[#  39]+0.009*[#  22]+0.009*[#  30]+0.007*[#   8]+0.007*[#  48]+
          +0.005*[#  24]+0.005*[#  32]+0.003*[#  49]+0.001*[#   6]+0.001*[#  46]+
    |psi|^2 = 0.991
==== e(  14) =    -4.23259 eV ==== 
     psi = 0.116*[#   5]+0.116*[#  45]+0.113*[#  21]+0.113*[#  29]+0.096*[#   3]+
          +0.096*[#  43]+0.080*[#  50]+0.073*[#  19]+0.073*[#  27]+0.047*[#  10]+
          +0.047*[#  34]+0.003*[#  12]+0.003*[#  36]+0.003*[#   6]+0.003*[#  46]+
          +0.002*[#  15]+0.002*[#  39]+0.001*[#   8]+0.001*[#   9]+0.001*[#  33]+
          +0.001*[#  48]+0.001*[#  22]+0.001*[#  30]+
    |psi|^2 = 0.993
==== e(  15) =    -2.59874 eV ==== 
     psi = 0.245*[#  50]+0.102*[#  24]+0.102*[#  32]+0.085*[#  10]+0.085*[#  34]+
          +0.071*[#  19]+0.071*[#  27]+0.048*[#   3]+0.048*[#  43]+0.030*[#   8]+
          +0.030*[#  48]+0.011*[#   6]+0.011*[#  46]+0.008*[#  21]+0.008*[#  29]+
          +0.007*[#  12]+0.007*[#  36]+0.005*[#  22]+0.005*[#  30]+0.003*[#   5]+
          +0.003*[#  45]+0.002*[#   9]+0.002*[#  33]+0.001*[#  15]+0.001*[#  39]+
    |psi|^2 = 0.992
==== e(  16) =    -2.59413 eV ==== 
     psi = 0.202*[#  18]+0.202*[#  26]+0.126*[#  56]+0.088*[#  51]+0.061*[#  16]+
          +0.061*[#  40]+0.053*[#  11]+0.053*[#  35]+0.017*[#  14]+0.017*[#  38]+
          +0.015*[#   7]+0.015*[#  47]+0.011*[#  53]+0.011*[#   2]+0.011*[#  42]+
          +0.009*[#   1]+0.009*[#  41]+0.008*[#   4]+0.008*[#  44]+0.002*[#  20]+
          +0.002*[#  28]+0.002*[#  23]+0.002*[#  31]+0.001*[#  13]+0.001*[#  37]+
          +0.001*[#  17]+0.001*[#  25]+
    |psi|^2 = 0.993
==== e(  17) =    -2.11935 eV ==== 
     psi = 0.164*[#  52]+0.096*[#  10]+0.096*[#  34]+0.095*[#  22]+0.095*[#  30]+
          +0.075*[#  55]+0.069*[#  12]+0.069*[#  36]+0.029*[#  15]+0.029*[#  39]+
          +0.023*[#   5]+0.023*[#  45]+0.023*[#   6]+0.023*[#  46]+0.021*[#   3]+
          +0.021*[#  43]+0.009*[#  21]+0.009*[#  29]+0.007*[#  24]+0.007*[#  32]+
          +0.006*[#  49]+0.003*[#   8]+0.003*[#  48]+
    |psi|^2 = 0.994
==== e(  18) =    -2.02478 eV ==== 
     psi = 0.137*[#  54]+0.115*[#  18]+0.115*[#  26]+0.094*[#  20]+0.094*[#  28]+
          +0.059*[#   2]+0.059*[#  42]+0.046*[#  23]+0.046*[#  31]+0.040*[#  13]+
          +0.040*[#  37]+0.028*[#  16]+0.028*[#  40]+0.016*[#   1]+0.016*[#  41]+
          +0.012*[#   4]+0.012*[#  44]+0.011*[#  14]+0.011*[#  38]+0.006*[#  17]+
          +0.006*[#  25]+0.001*[#  11]+0.001*[#  35]+
    |psi|^2 = 0.992
==== e(  19) =    -1.78203 eV ==== 
     psi = 0.194*[#  10]+0.194*[#  34]+0.076*[#   3]+0.076*[#  43]+0.074*[#   8]+
          +0.074*[#  48]+0.042*[#  12]+0.042*[#  36]+0.030*[#  24]+0.030*[#  32]+
          +0.025*[#   6]+0.025*[#  46]+0.024*[#  52]+0.012*[#  21]+0.012*[#  29]+
          +0.012*[#  49]+0.010*[#  19]+0.010*[#  27]+0.008*[#  15]+0.008*[#  39]+
          +0.007*[#  55]+
    |psi|^2 = 0.989
==== e(  20) =    -1.63358 eV ==== 
     psi = 0.102*[#  20]+0.102*[#  28]+0.081*[#  18]+0.081*[#  26]+0.054*[#  16]+
          +0.054*[#  40]+0.053*[#  14]+0.053*[#  38]+0.043*[#  11]+0.043*[#  35]+
          +0.042*[#   4]+0.042*[#  44]+0.039*[#  23]+0.039*[#  31]+0.039*[#   7]+
          +0.039*[#  47]+0.019*[#   2]+0.019*[#  42]+0.013*[#   1]+0.013*[#  41]+
          +0.010*[#  54]+0.003*[#  13]+0.003*[#  37]+0.002*[#  17]+0.002*[#  25]+
    |psi|^2 = 0.991
==== e(  21) =    -1.28172 eV ==== 
     psi = 0.180*[#  12]+0.180*[#  36]+0.071*[#  19]+0.071*[#  27]+0.054*[#   6]+
          +0.054*[#  46]+0.052*[#   3]+0.052*[#  43]+0.044*[#  15]+0.044*[#  39]+
          +0.034*[#  22]+0.034*[#  30]+0.027*[#  24]+0.027*[#  32]+0.016*[#  10]+
          +0.016*[#  34]+0.007*[#   5]+0.007*[#  45]+0.006*[#  21]+0.006*[#  29]+
          +0.005*[#   8]+0.005*[#  48]+
    |psi|^2 = 0.991
==== e(  22) =    -0.99293 eV ==== 
     psi = 0.115*[#   4]+0.115*[#  44]+0.101*[#  20]+0.101*[#  28]+0.093*[#  14]+
          +0.093*[#  38]+0.088*[#  51]+0.053*[#   2]+0.053*[#  42]+0.032*[#  23]+
          +0.032*[#  31]+0.022*[#   7]+0.022*[#  47]+0.020*[#  56]+0.016*[#  53]+
          +0.006*[#  13]+0.006*[#  37]+0.005*[#  16]+0.005*[#  40]+0.003*[#  11]+
          +0.003*[#  35]+0.002*[#  17]+0.002*[#  25]+0.002*[#   1]+0.002*[#  41]+
    |psi|^2 = 0.990
==== e(  23) =    -0.77696 eV ==== 
     psi = 0.302*[#  50]+0.173*[#  10]+0.173*[#  34]+0.065*[#   8]+0.065*[#  48]+
          +0.045*[#  22]+0.045*[#  30]+0.019*[#   5]+0.019*[#  45]+0.018*[#   3]+
          +0.018*[#  43]+0.008*[#   9]+0.008*[#  33]+0.005*[#  24]+0.005*[#  32]+
          +0.005*[#  12]+0.005*[#  36]+0.003*[#  19]+0.003*[#  27]+0.002*[#  21]+
          +0.002*[#  29]+
    |psi|^2 = 0.989
==== e(  24) =    -0.51660 eV ==== 
     psi = 0.285*[#  52]+0.120*[#  19]+0.120*[#  27]+0.091*[#  12]+0.091*[#  36]+
          +0.055*[#  24]+0.055*[#  32]+0.050*[#  55]+0.018*[#   6]+0.018*[#  46]+
          +0.014*[#   3]+0.014*[#  43]+0.012*[#  15]+0.012*[#  39]+0.007*[#  22]+
          +0.007*[#  30]+0.005*[#   8]+0.005*[#  48]+0.002*[#  10]+0.002*[#  34]+
          +0.001*[#  21]+0.001*[#  29]+
    |psi|^2 = 0.990
==== e(  25) =    -0.44647 eV ==== 
     psi = 0.214*[#   2]+0.214*[#  42]+0.076*[#  56]+0.066*[#  51]+0.049*[#  20]+
          +0.049*[#  28]+0.034*[#  16]+0.034*[#  40]+0.028*[#  18]+0.028*[#  26]+
          +0.028*[#   1]+0.028*[#  41]+0.018*[#  11]+0.018*[#  35]+0.015*[#   7]+
          +0.015*[#  47]+0.014*[#  53]+0.012*[#  13]+0.012*[#  37]+0.010*[#  17]+
          +0.010*[#  25]+0.005*[#  23]+0.005*[#  31]+0.001*[#  14]+0.001*[#  38]+
          +0.001*[#   4]+0.001*[#  44]+
    |psi|^2 = 0.987
==== e(  26) =    -0.26376 eV ==== 
     psi = 0.165*[#   4]+0.165*[#  44]+0.078*[#   2]+0.078*[#  42]+0.058*[#  11]+
          +0.058*[#  35]+0.057*[#  54]+0.049*[#  14]+0.049*[#  38]+0.033*[#  20]+
          +0.033*[#  28]+0.031*[#  18]+0.031*[#  26]+0.026*[#  16]+0.026*[#  40]+
          +0.021*[#   7]+0.021*[#  47]+0.005*[#  23]+0.005*[#  31]+
    |psi|^2 = 0.989
==== e(  27) =     0.14729 eV ==== 
     psi = 0.183*[#   4]+0.183*[#  44]+0.104*[#  20]+0.104*[#  28]+0.055*[#  11]+
          +0.055*[#  35]+0.048*[#   7]+0.048*[#  47]+0.030*[#  51]+0.029*[#   2]+
          +0.029*[#  42]+0.016*[#   1]+0.016*[#  41]+0.013*[#  23]+0.013*[#  31]+
          +0.013*[#  16]+0.013*[#  40]+0.008*[#  56]+0.006*[#  18]+0.006*[#  26]+
          +0.004*[#  17]+0.004*[#  25]+0.002*[#  53]+0.001*[#  14]+0.001*[#  38]+
          +0.001*[#  13]+0.001*[#  37]+
    |psi|^2 = 0.987
==== e(  28) =     0.29092 eV ==== 
     psi = 0.185*[#   2]+0.185*[#  42]+0.114*[#  18]+0.114*[#  26]+0.090*[#   4]+
          +0.090*[#  44]+0.039*[#   7]+0.039*[#  47]+0.027*[#   1]+0.027*[#  41]+
          +0.015*[#  11]+0.015*[#  35]+0.010*[#  20]+0.010*[#  28]+0.009*[#  54]+
          +0.004*[#  14]+0.004*[#  38]+0.002*[#  16]+0.002*[#  40]+0.001*[#  23]+
          +0.001*[#  31]+
    |psi|^2 = 0.986
==== e(  29) =     2.52643 eV ==== 
     psi = 0.131*[#   6]+0.131*[#  46]+0.119*[#   8]+0.119*[#  48]+0.067*[#  21]+
          +0.067*[#  29]+0.046*[#   9]+0.046*[#  33]+0.038*[#   5]+0.038*[#  45]+
          +0.032*[#  49]+0.025*[#  15]+0.025*[#  39]+0.017*[#  24]+0.017*[#  32]+
          +0.014*[#  55]+0.006*[#   3]+0.006*[#  43]+0.005*[#  12]+0.005*[#  36]+
          +0.003*[#  52]+0.002*[#  22]+0.002*[#  30]+0.002*[#  19]+0.002*[#  27]+
    |psi|^2 = 0.965
==== e(  30) =     2.95800 eV ==== 
     psi = 0.190*[#   6]+0.190*[#  46]+0.112*[#   8]+0.112*[#  48]+0.051*[#  50]+
          +0.025*[#  15]+0.025*[#  39]+0.025*[#   9]+0.025*[#  12]+0.025*[#  33]+
          +0.025*[#  36]+0.021*[#  10]+0.021*[#  34]+0.020*[#  21]+0.020*[#  29]+
          +0.019*[#   5]+0.019*[#  45]+0.007*[#  22]+0.007*[#  30]+0.004*[#  24]+
          +0.004*[#  32]+0.003*[#   3]+0.003*[#  43]+
    |psi|^2 = 0.954
==== e(  31) =     3.60302 eV ==== 
     psi = 0.157*[#  53]+0.090*[#  17]+0.090*[#  25]+0.085*[#   2]+0.085*[#  42]+
          +0.082*[#  23]+0.082*[#  31]+0.078*[#  13]+0.078*[#  37]+0.016*[#  56]+
          +0.013*[#  51]+0.008*[#   7]+0.008*[#  47]+0.008*[#  18]+0.008*[#  26]+
          +0.007*[#  16]+0.007*[#  40]+0.006*[#  11]+0.006*[#  35]+0.005*[#   1]+
          +0.005*[#  41]+0.003*[#  14]+0.003*[#  38]+
    |psi|^2 = 0.927
==== e(  32) =     4.07139 eV ==== 
     psi = 0.114*[#   6]+0.114*[#  46]+0.093*[#  55]+0.081*[#  12]+0.081*[#  36]+
          +0.060*[#   5]+0.060*[#  45]+0.035*[#  21]+0.035*[#  29]+0.033*[#  52]+
          +0.030*[#  49]+0.023*[#   3]+0.023*[#  43]+0.019*[#   9]+0.019*[#  33]+
          +0.009*[#  19]+0.009*[#  27]+0.008*[#   8]+0.008*[#  48]+0.008*[#  22]+
          +0.008*[#  30]+0.004*[#  10]+0.004*[#  34]+
    |psi|^2 = 0.877
==== e(  33) =     4.19225 eV ==== 
     psi = 0.132*[#   5]+0.132*[#  45]+0.081*[#  12]+0.081*[#  36]+0.071*[#  22]+
          +0.071*[#  30]+0.055*[#   3]+0.055*[#  43]+0.032*[#   6]+0.032*[#  46]+
          +0.027*[#   9]+0.027*[#  33]+0.012*[#  10]+0.012*[#  34]+0.003*[#  24]+
          +0.003*[#  32]+0.003*[#  50]+0.001*[#   8]+0.001*[#  48]+0.001*[#  15]+
          +0.001*[#  39]+
    |psi|^2 = 0.840
==== e(  34) =     4.57012 eV ==== 
     psi = 0.106*[#  23]+0.106*[#  31]+0.099*[#  13]+0.099*[#  37]+0.049*[#  20]+
          +0.049*[#  28]+0.047*[#  18]+0.047*[#  26]+0.043*[#   2]+0.043*[#  42]+
          +0.030*[#  54]+0.025*[#  17]+0.025*[#  25]+0.019*[#  11]+0.019*[#  35]+
          +0.014*[#   7]+0.014*[#  47]+0.009*[#   1]+0.009*[#  41]+
    |psi|^2 = 0.852

Lowdin Charges: 

     Atom #   1: total charge =   5.3159, s =  1.5416, 
     Atom #   1: total charge =   5.3159, p =  3.7743, pz=  1.3030, px=  1.1722, py=  1.2991, 
     Atom #   2: total charge =   2.5411, s =  0.9486, 
     Atom #   2: total charge =   2.5411, p =  1.5925, pz=  0.4276, px=  0.6481, py=  0.5169, 
     Atom #   3: total charge =   5.2855, s =  1.3938, 
     Atom #   3: total charge =   5.2855, p =  3.8917, pz=  1.3048, px=  1.3150, py=  1.2719, 
     Atom #   4: total charge =   2.6885, s =  0.8601, 
     Atom #   4: total charge =   2.6885, p =  1.8284, pz=  0.6173, px=  0.6006, py=  0.6104, 
     Atom #   5: total charge =   5.2890, s =  1.3955, 
     Atom #   5: total charge =   5.2890, p =  3.8935, pz=  1.2999, px=  1.2899, py=  1.3037, 
     Atom #   6: total charge =   2.6743, s =  0.8648, 
     Atom #   6: total charge =   2.6743, p =  1.8096, pz=  0.5993, px=  0.6028, py=  0.6075, 
     Atom #   7: total charge =   5.2890, s =  1.3955, 
     Atom #   7: total charge =   5.2890, p =  3.8935, pz=  1.2999, px=  1.2899, py=  1.3037, 
     Atom #   8: total charge =   2.6743, s =  0.8648, 
     Atom #   8: total charge =   2.6743, p =  1.8096, pz=  0.5993, px=  0.6028, py=  0.6075, 
     Atom #   9: total charge =   5.2855, s =  1.3938, 
     Atom #   9: total charge =   5.2855, p =  3.8917, pz=  1.3048, px=  1.3150, py=  1.2719, 
     Atom #  10: total charge =   2.6885, s =  0.8601, 
     Atom #  10: total charge =   2.6885, p =  1.8284, pz=  0.6173, px=  0.6006, py=  0.6104, 
     Atom #  11: total charge =   5.3159, s =  1.5416, 
     Atom #  11: total charge =   5.3159, p =  3.7743, pz=  1.3030, px=  1.1722, py=  1.2991, 
     Atom #  12: total charge =   2.5411, s =  0.9486, 
     Atom #  12: total charge =   2.5411, p =  1.5925, pz=  0.4276, px=  0.6481, py=  0.5169, 
     Atom #  13: total charge =   5.2735, s =  1.3811, 
     Atom #  13: total charge =   5.2735, p =  3.8924, pz=  1.2927, px=  1.3032, py=  1.2965, 
     Atom #  14: total charge =   2.6621, s =  0.8651, 
     Atom #  14: total charge =   2.6621, p =  1.7969, pz=  0.6021, px=  0.5969, py=  0.5980, 
     Spilling Parameter:   0.0085
 
     PROJWFC      :     0.43s CPU         1.82s WALL

 
   This run was terminated on:  18: 5:44   7Feb2018            

=------------------------------------------------------------------------------=
   JOB DONE.
=------------------------------------------------------------------------------=
