
     Program POST-PROC v.5.4.0 starts on  7Feb2018 at 18: 5:32 

     This program is part of the open-source Quantum ESPRESSO suite
     for quantum simulation of materials; please cite
         "P. Giannozzi et al., J. Phys.:Condens. Matter 21 395502 (2009);
          URL http://www.quantum-espresso.org", 
     in publications or presentations arising from this work. More details at
     http://www.quantum-espresso.org/quote

     Parallel version (MPI & OpenMP), running on       1 processor cores
     Number of MPI processes:                 1
     Threads/MPI process:                     1
     Reading header from file  AlAsresm+1.0

   Info: using nr1, nr2, nr3 values from input
     Reading data from file  AlAsresm+1.0

     Writing data to be plotted to file AlAs110.pp_isostm+.dat
 
     image of z coordinates of the constant isovalue
     -----------------------------------------------
     max density found:   2.024301117000000E-003
     min density found:   6.917982753000000E-010
     isovalue:            5.000000000000000E-005
 
     G-vector sticks info
     --------------------
     sticks:   dense  smooth     PW     G-vecs:    dense   smooth      PW
     Sum         349     349      1                24607    24607       7
 
     Min, Max, imaginary charge:   -17.455570   73.879218    0.000000
     Plot Type: 2D contour             Output format: gnuplot x,y,f
 
     POST-PROC    :     0.27s CPU         1.11s WALL

 
   This run was terminated on:  18: 5:33   7Feb2018            

=------------------------------------------------------------------------------=
   JOB DONE.
=------------------------------------------------------------------------------=
