
     Program PROJWFC v.5.4.0 starts on  7Feb2018 at 18: 5:36 

     This program is part of the open-source Quantum ESPRESSO suite
     for quantum simulation of materials; please cite
         "P. Giannozzi et al., J. Phys.:Condens. Matter 21 395502 (2009);
          URL http://www.quantum-espresso.org", 
     in publications or presentations arising from this work. More details at
     http://www.quantum-espresso.org/quote

     Parallel version (MPI & OpenMP), running on       1 processor cores
     Number of MPI processes:                 1
     Threads/MPI process:                     1

     Reading data from directory:
     /short/y35/tjf502/QE-5.4.0-bw/tempdir/AlAs110.save

   Info: using nr1, nr2, nr3 values from input

   Info: using nr1, nr2, nr3 values from input

     IMPORTANT: XC functional enforced from input :
     Exchange-correlation      =  SLA  PZ   NOGX NOGC ( 1  1  0  0 0 0)
     Any further DFT definition will be discarded
     Please, verify this is what you really want

 
     G-vector sticks info
     --------------------
     sticks:   dense  smooth     PW     G-vecs:    dense   smooth      PW
     Sum         349     349    109                24607    24607    4469
 

     Gaussian broadening (read from input): ngauss,degauss=   0    0.010000


     Calling projwave_boxes .... 
 
     Box #  1 : vol   0.055556 % =       1.929375 (a.u.)^3;  0.129807E-01 elec
     Box #  2 : vol   0.055556 % =       1.929375 (a.u.)^3;  0.146365E-02 elec
     Box #  3 : vol   0.055556 % =       1.929375 (a.u.)^3;  0.224751E-03 elec
     Box #  4 : vol   0.222222 % =       7.717500 (a.u.)^3;  0.267744E-01 elec
     Box #  5 : vol   0.055556 % =       1.929375 (a.u.)^3;  0.283979E-04 elec
     Box #  6 : vol   0.055556 % =       1.929375 (a.u.)^3;  0.772864E-05 elec
     Box #  7 : vol   0.055556 % =       1.929375 (a.u.)^3;  0.454302E-05 elec
     Box #  8 : vol   0.222222 % =       7.717500 (a.u.)^3;  0.813053E-04 elec
 
     PROJWFC      :     0.50s CPU         2.13s WALL

 
   This run was terminated on:  18: 5:39   7Feb2018            

=------------------------------------------------------------------------------=
   JOB DONE.
=------------------------------------------------------------------------------=
