
     Program PWSCF v.5.4.0 starts on 13Jan2017 at  4: 1:55 

     This program is part of the open-source Quantum ESPRESSO suite
     for quantum simulation of materials; please cite
         "P. Giannozzi et al., J. Phys.:Condens. Matter 21 395502 (2009);
          URL http://www.quantum-espresso.org", 
     in publications or presentations arising from this work. More details at
     http://www.quantum-espresso.org/quote

     Parallel version (MPI & OpenMP), running on      56 processor cores
     Number of MPI processes:                56
     Threads/MPI process:                     1
     R & G space division:  proc/nbgrp/npool/nimage =      56
     Waiting for input...
     Reading input from standard input
Warning: card &IONS ignored
Warning: card / ignored

     Current dimensions of program PWSCF are:
     Max number of different atomic species (ntypx) = 10
     Max number of k-points (npk) =  40000
     Max angular momentum in pseudopotentials (lmaxx) =  3
     WARNING: atomic wfc #  2 for atom type 4 has zero norm
     WARNING: atomic wfc #  4 for atom type 4 has zero norm
     WARNING: atomic wfc #  5 for atom type 4 has zero norm

     -------------------------------------
     Parameters for Dispersion Correction:
     -------------------------------------
       atom      VdW radius       C_6     

        Cu         2.952        374.666
        C_h        2.744         60.710
        C          2.744         60.710
        O          2.536         24.284

     Subspace diagonalization in iterative solution of the eigenvalue problem:
     one sub-group per band group will be used
     scalapack distributed-memory algorithm (size of sub-group:  5*  5 procs)

 
     Parallelization info
     --------------------
     sticks:   dense  smooth     PW     G-vecs:    dense   smooth      PW
     Min         204     204     54                36612    36612    4962
     Max         205     205     55                36617    36617    4968
     Sum       11433   11433   3039              2050409  2050409  278033
 


     bravais-lattice index     =            0
     lattice parameter (alat)  =      13.9425  a.u.
     unit-cell volume          =   21209.0878 (a.u.)^3
     number of atoms/cell      =          149
     number of atomic types    =            4
     number of electrons       =      1298.00
     number of Kohn-Sham states=          779
     kinetic-energy cutoff     =      80.0000  Ry
     charge density cutoff     =     320.0000  Ry
     convergence threshold     =      1.0E-08
     mixing beta               =       0.7000
     number of iterations used =            8  local-TF  mixing
     Exchange-correlation      =  SLA  PW   PBX  PBC ( 1  4  3  4 0 0)

     celldm(1)=  13.942539  celldm(2)=   0.000000  celldm(3)=   0.000000
     celldm(4)=   0.000000  celldm(5)=   0.000000  celldm(6)=   0.000000

     crystal axes: (cart. coord. in units of alat)
               a(1) = (   1.000000   0.000000   0.000000 )  
               a(2) = (   0.000000   2.309401   0.000000 )  
               a(3) = (   0.000000   0.000000   3.388418 )  

     reciprocal axes: (cart. coord. in units 2 pi/alat)
               b(1) = (  1.000000  0.000000  0.000000 )  
               b(2) = (  0.000000  0.433013  0.000000 )  
               b(3) = (  0.000000  0.000000  0.295123 )  


     PseudoPot. # 1 for Cu read from file:
     /home/549/hxw549/Short/pseudopotentials/Cu.pbe-n-van_ak.UPF
     MD5 check sum: 601f7c30f7467666bec936e0661ce3e1
     Pseudo is Ultrasoft + core correction, Zval = 11.0
     Generated by new atomic code, or converted to UPF format
     Using radial grid of  867 points,  6 beta functions with: 
                l(1) =   0
                l(2) =   0
                l(3) =   1
                l(4) =   1
                l(5) =   2
                l(6) =   2
     Q(r) pseudized with  8 coefficients,  rinner =    1.400   1.400   1.400
                                                       1.400   1.400

     PseudoPot. # 2 for C  read from file:
     /home/549/hxw549/Short/pseudopotentials/C.star1s-pbe-mt_gipaw.UPF
     MD5 check sum: ef0cb3dee31bd9e4ba2a832a2c716264
     Pseudo is Norm-conserving, Zval =  5.0
     Generated by new atomic code, or converted to UPF format
     Using radial grid of 1073 points,  1 beta functions with: 
                l(1) =   0

     PseudoPot. # 3 for C  read from file:
     /home/549/hxw549/Short/pseudopotentials/C.pbe-mt_gipaw.UPF
     MD5 check sum: 5ac2f21f2c440b14befe521540822c15
     Pseudo is Norm-conserving, Zval =  4.0
     Generated by new atomic code, or converted to UPF format
     Using radial grid of 1073 points,  1 beta functions with: 
                l(1) =   0

     PseudoPot. # 4 for O  read from file:
     /home/549/hxw549/Short/pseudopotentials/O.pbe-van_gipaw.UPF
     MD5 check sum: 5ce2a047509d4f331db576c963e74b29
     Pseudo is Ultrasoft, Zval =  6.0
     Generated by new atomic code, or converted to UPF format
     Using radial grid of 1095 points,  4 beta functions with: 
                l(1) =   0
                l(2) =   0
                l(3) =   1
                l(4) =   1
     Q(r) pseudized with 0 coefficients 


     atomic species   valence    mass     pseudopotential
        Cu            11.00    63.54600     Cu( 1.00)
        C_h            5.00    12.01070     C ( 1.00)
        C              4.00    12.01070     C ( 1.00)
        O              6.00    15.99940     O ( 1.00)

     No symmetry found



   Cartesian axes

     site n.     atom                  positions (alat units)
         1           Cu  tau(   1) = (  -0.0000267   0.0003068   0.9983929  )
         2           Cu  tau(   2) = (   0.2500036   0.2312703   0.9983145  )
         3           Cu  tau(   3) = (   0.4999803   0.0002594   0.9983489  )
         4           Cu  tau(   4) = (   0.7499895   0.2312918   0.9983342  )
         5           Cu  tau(   5) = (   0.0000225   0.4620329   0.9981170  )
         6           Cu  tau(   6) = (   0.2500219   0.6928138   0.9977793  )
         7           Cu  tau(   7) = (   0.5000145   0.4620708   0.9980771  )
         8           Cu  tau(   8) = (   0.7500464   0.6928005   0.9977795  )
         9           Cu  tau(   9) = (   0.0000444   0.9236560   0.9976799  )
        10           Cu  tau(  10) = (   0.2500468   1.1544894   0.9979087  )
        11           Cu  tau(  11) = (   0.5000294   0.9236428   0.9976663  )
        12           Cu  tau(  12) = (   0.7500113   1.1544661   0.9979233  )
        13           Cu  tau(  13) = (  -0.0000030   1.3852325   0.9982653  )
        14           Cu  tau(  14) = (   0.2500078   1.6159458   0.9985773  )
        15           Cu  tau(  15) = (   0.5000250   1.3851939   0.9983781  )
        16           Cu  tau(  16) = (   0.7499695   1.6160612   0.9985012  )
        17           Cu  tau(  17) = (   0.0000343   1.8470384   0.9985232  )
        18           Cu  tau(  18) = (   0.2499384   2.0784489   0.9984548  )
        19           Cu  tau(  19) = (   0.4999091   1.8470915   0.9984673  )
        20           Cu  tau(  20) = (   0.7499959   2.0783416   0.9983130  )
        21           Cu  tau(  21) = (   0.0000812   0.2314093   1.2467788  )
        22           Cu  tau(  22) = (   0.2500218   0.0003249   1.2465774  )
        23           Cu  tau(  23) = (   0.5000485   0.2314075   1.2466680  )
        24           Cu  tau(  24) = (   0.7500266   0.0001653   1.2463696  )
        25           Cu  tau(  25) = (   0.0001623   0.6931214   1.2464311  )
        26           Cu  tau(  26) = (   0.2501033   0.4623525   1.2466471  )
        27           Cu  tau(  27) = (   0.5001337   0.6931028   1.2464251  )
        28           Cu  tau(  28) = (   0.7501184   0.4623956   1.2466785  )
        29           Cu  tau(  29) = (   0.0001568   1.1541245   1.2464838  )
        30           Cu  tau(  30) = (   0.2501615   0.9236200   1.2463252  )
        31           Cu  tau(  31) = (   0.5001177   1.1540045   1.2466424  )
        32           Cu  tau(  32) = (   0.7501390   0.9235859   1.2463014  )
        33           Cu  tau(  33) = (   0.0000729   1.6157545   1.2468989  )
        34           Cu  tau(  34) = (   0.2501093   1.3847381   1.2469554  )
        35           Cu  tau(  35) = (   0.5000326   1.6158869   1.2468953  )
        36           Cu  tau(  36) = (   0.7500890   1.3848287   1.2468265  )
        37           Cu  tau(  37) = (   0.0000323   2.0783589   1.2463249  )
        38           Cu  tau(  38) = (   0.2500077   1.8470268   1.2466081  )
        39           Cu  tau(  39) = (   0.4999755   2.0783445   1.2462814  )
        40           Cu  tau(  40) = (   0.7500223   1.8470837   1.2465241  )
        41           Cu  tau(  41) = (   0.0002124  -0.0001420   1.4956913  )
        42           Cu  tau(  42) = (   0.2502432   0.2315683   1.4963144  )
        43           Cu  tau(  43) = (   0.5000580  -0.0001022   1.4955702  )
        44           Cu  tau(  44) = (   0.7501834   0.2311697   1.4957919  )
        45           Cu  tau(  45) = (   0.0003849   0.4627079   1.4963383  )
        46           Cu  tau(  46) = (   0.2503961   0.6934059   1.4964363  )
        47           Cu  tau(  47) = (   0.5002404   0.4626228   1.4962459  )
        48           Cu  tau(  48) = (   0.7504437   0.6934576   1.4964425  )
        49           Cu  tau(  49) = (   0.0004625   0.9237210   1.4966639  )
        50           Cu  tau(  50) = (   0.2503244   1.1534720   1.4969567  )
        51           Cu  tau(  51) = (   0.5003991   0.9233981   1.4968565  )
        52           Cu  tau(  52) = (   0.7504645   1.1536830   1.4965640  )
        53           Cu  tau(  53) = (   0.0003821   1.3842432   1.4966806  )
        54           Cu  tau(  54) = (   0.2501321   1.6156588   1.4962873  )
        55           Cu  tau(  55) = (   0.5002113   1.3843989   1.4963900  )
        56           Cu  tau(  56) = (   0.7502647   1.6157441   1.4960739  )
        57           Cu  tau(  57) = (   0.0001207   1.8471506   1.4957144  )
        58           Cu  tau(  58) = (   0.2500858   2.0782753   1.4956306  )
        59           Cu  tau(  59) = (   0.5001251   1.8473075   1.4957920  )
        60           Cu  tau(  60) = (   0.7501138   2.0783207   1.4955742  )
        61           Cu  tau(  61) = (   0.0006392   0.2308735   1.7441459  )
        62           Cu  tau(  62) = (   0.2504158  -0.0005355   1.7449106  )
        63           Cu  tau(  63) = (   0.5002246   0.2305722   1.7445406  )
        64           Cu  tau(  64) = (   0.7501913  -0.0003931   1.7446966  )
        65           Cu  tau(  65) = (   0.0011818   0.6935460   1.7465189  )
        66           Cu  tau(  66) = (   0.2510178   0.4635280   1.7463239  )
        67           Cu  tau(  67) = (   0.5006724   0.6932120   1.7469307  )
        68           Cu  tau(  68) = (   0.7502789   0.4622959   1.7447587  )
        69           Cu  tau(  69) = (   0.0010896   1.1532691   1.7478853  )
        70           Cu  tau(  70) = (   0.2510233   0.9227073   1.7481025  )
        71           Cu  tau(  71) = (   0.5006627   1.1535677   1.7464536  )
        72           Cu  tau(  72) = (   0.7510601   0.9235893   1.7472115  )
        73           Cu  tau(  73) = (   0.0004758   1.6160976   1.7450473  )
        74           Cu  tau(  74) = (   0.2502121   1.3840137   1.7461821  )
        75           Cu  tau(  75) = (   0.5003724   1.6159583   1.7442703  )
        76           Cu  tau(  76) = (   0.7510145   1.3842499   1.7454633  )
        77           Cu  tau(  77) = (   0.0002451   2.0780251   1.7451646  )
        78           Cu  tau(  78) = (   0.2501320   1.8474404   1.7447821  )
        79           Cu  tau(  79) = (   0.5002731   2.0784000   1.7451917  )
        80           Cu  tau(  80) = (   0.7504684   1.8474054   1.7447238  )
        81           Cu  tau(  81) = (   0.0005767   0.0000026   1.9903772  )
        82           Cu  tau(  82) = (   0.2505076   0.2308079   1.9897657  )
        83           Cu  tau(  83) = (   0.5003407  -0.0001971   1.9920597  )
        84           Cu  tau(  84) = (   0.7508598   0.2304463   1.9896692  )
        85           Cu  tau(  85) = (   0.0007252   0.4619078   1.9888295  )
        86           Cu  tau(  86) = (   0.2543946   0.6925846   1.9984671  )
        87           Cu  tau(  87) = (   0.5014478   0.4595729   1.9915324  )
        88           Cu  tau(  88) = (   0.7494838   0.6919755   1.9922578  )
        89           Cu  tau(  89) = (   0.0022301   0.9213544   1.9947254  )
        90           Cu  tau(  90) = (   0.2515066   1.1535075   1.9951996  )
        91           Cu  tau(  91) = (   0.5019605   0.9245193   1.9950177  )
        92           Cu  tau(  92) = (   0.7515414   1.1546013   1.9935588  )
        93           Cu  tau(  93) = (   0.0013104   1.3858691   1.9926217  )
        94           Cu  tau(  94) = (   0.2503372   1.6166014   1.9901204  )
        95           Cu  tau(  95) = (   0.5006192   1.3858005   1.9901314  )
        96           Cu  tau(  96) = (   0.7509579   1.6160844   1.9897276  )
        97           Cu  tau(  97) = (   0.0002748   1.8473145   1.9921170  )
        98           Cu  tau(  98) = (   0.2505214   2.0779375   1.9914291  )
        99           Cu  tau(  99) = (   0.5006319   1.8466210   1.9902901  )
       100           Cu  tau( 100) = (   0.7502694   2.0782754   1.9912423  )
       101           C   tau( 101) = (  -0.0007583   0.0963134   2.3862891  )
       102           C   tau( 102) = (  -0.0009641   0.2884428   2.3833147  )
       103           C   tau( 103) = (   0.1660055   0.0003785   2.3872135  )
       104           C   tau( 104) = (   0.1654608   0.3840869   2.3791849  )
       105           C   tau( 105) = (   0.3325218   0.0962801   2.3838471  )
       106           C   tau( 106) = (   0.3323993   0.2885900   2.3788628  )
       107           C   tau( 107) = (   0.4993762   0.0002074   2.3846977  )
       108           C   tau( 108) = (   0.4993768   0.3848633   2.3764734  )
       109           C   tau( 109) = (   0.6662368   0.0964118   2.3840959  )
       110           C   tau( 110) = (   0.6662787   0.2886562   2.3798869  )
       111           C   tau( 111) = (   0.8326681   0.0003019   2.3874107  )
       112           C   tau( 112) = (   0.8327915   0.3847794   2.3811008  )
       113           C   tau( 113) = (  -0.0012722   0.6735101   2.3803848  )
       114           C   tau( 114) = (  -0.0009511   0.8666962   2.3764449  )
       115           C   tau( 115) = (   0.1655204   0.5765016   2.3784056  )
       116           C   tau( 116) = (   0.1624509   0.9643662   2.3844256  )
       117           C   tau( 117) = (   0.3316218   0.6703151   2.3800734  )
       118           C   tau( 118) = (   0.3292206   0.8643671   2.4184809  )
       119           C   tau( 119) = (   0.4987612   0.5771637   2.3788923  )
       120           C   tau( 120) = (   0.5021138   0.9644200   2.4216837  )
       121           O   tau( 121) = (   0.4140165   0.9101453   2.5990232  )
       122           C   tau( 122) = (   0.6663442   0.6742083   2.3806324  )
       123           C   tau( 123) = (   0.6689595   0.8654305   2.3851659  )
       124           C   tau( 124) = (   0.8329766   0.5774622   2.3796904  )
       125           C   tau( 125) = (   0.8321191   0.9628646   2.3782389  )
       126           C   tau( 126) = (  -0.0010921   1.2520160   2.3785180  )
       127           C   tau( 127) = (  -0.0007197   1.4446627   2.3773574  )
       128           C   tau( 128) = (   0.1654289   1.1553812   2.3831881  )
       129           C   tau( 129) = (   0.1661398   1.5408122   2.3809588  )
       130           C_h tau( 130) = (   0.3332591   1.2524179   2.3871897  )
       131           C   tau( 131) = (   0.3327347   1.4447081   2.3843921  )
       132           C   tau( 132) = (   0.4999577   1.1596325   2.3913607  )
       133           C   tau( 133) = (   0.4993062   1.5408861   2.3859785  )
       134           C   tau( 134) = (   0.6656079   1.2530081   2.3829609  )
       135           C   tau( 135) = (   0.6659456   1.4454088   2.3819018  )
       136           C   tau( 136) = (   0.8327273   1.1559617   2.3795433  )
       137           C   tau( 137) = (   0.8326004   1.5410745   2.3794124  )
       138           C   tau( 138) = (  -0.0005841   1.8293317   2.3831804  )
       139           C   tau( 139) = (  -0.0006107   2.0215344   2.3872925  )
       140           C   tau( 140) = (   0.1662470   1.7330653   2.3837749  )
       141           C   tau( 141) = (   0.1660003   2.1175423   2.3879995  )
       142           C   tau( 142) = (   0.3327657   1.8291420   2.3882670  )
       143           C   tau( 143) = (   0.3327961   2.0213806   2.3890482  )
       144           C   tau( 144) = (   0.4993270   1.7331699   2.3878917  )
       145           C   tau( 145) = (   0.4993850   2.1173816   2.3892301  )
       146           C   tau( 146) = (   0.6659668   1.8291231   2.3874666  )
       147           C   tau( 147) = (   0.6659485   2.0213555   2.3883541  )
       148           C   tau( 148) = (   0.8325583   1.7332547   2.3830305  )
       149           C   tau( 149) = (   0.8327361   2.1174924   2.3876620  )

     number of k points=     6  gaussian smearing, width (Ry)=  0.1000
                       cart. coord. in units 2pi/alat
        k(    1) = (   0.0000000   0.0000000   0.0000000), wk =   0.2500000
        k(    2) = (   0.0000000  -0.2165064   0.0000000), wk =   0.2500000
        k(    3) = (   0.2500000   0.0000000   0.0000000), wk =   0.5000000
        k(    4) = (   0.2500000  -0.2165064   0.0000000), wk =   0.5000000
        k(    5) = (  -0.5000000   0.0000000   0.0000000), wk =   0.2500000
        k(    6) = (  -0.5000000  -0.2165064   0.0000000), wk =   0.2500000

     Dense  grid:  2050409 G-vectors     FFT dimensions: (  80, 192, 270)

     Largest allocated arrays     est. size (Mb)     dimensions
        Kohn-Sham Wavefunctions        54.73 Mb     (    4604,  779)
        NL pseudopotentials           130.39 Mb     (    4604, 1856)
        Each V/rho on FFT grid          1.17 Mb     (   76800)
        Each G-vector array             0.28 Mb     (   36616)
        G-vector shells                 0.14 Mb     (   17932)
     Largest temporary arrays     est. size (Mb)     dimensions
        Auxiliary wavefunctions       218.90 Mb     (    4604, 3116)
        Each subspace H/S matrix        5.92 Mb     (     623,  623)
        Each <psi_i|beta_j> matrix     22.06 Mb     (    1856,  779)
        Arrays for rho mixing           9.38 Mb     (   76800,    8)

     Initial potential from superposition of free atoms
     Check: negative starting charge=   -0.001801

     starting charge 1272.81751, renormalised to 1298.00000

     negative rho (up, down):  1.836E-03 0.000E+00
     Starting wfc are 1288 randomized atomic wfcs

     total cpu time spent up to now is      106.9 secs

     Self-consistent Calculation

     iteration #  1     ecut=    80.00 Ry     beta=0.70
     Davidson diagonalization with overlap
     c_bands:  2 eigenvalues not converged
     c_bands:  5 eigenvalues not converged
     ethr =  1.00E-04,  avg # of iterations = 34.7

     negative rho (up, down):  2.543E+01 0.000E+00

     total cpu time spent up to now is     2070.5 secs

     total energy              =   -9765.76615626 Ry
     Harris-Foulkes estimate   =  -17289.33101903 Ry
     estimated scf accuracy    <  178093.27058612 Ry

     iteration #  2     ecut=    80.00 Ry     beta=0.70
     Davidson diagonalization with overlap
     ethr =  1.00E-02,  avg # of iterations = 11.3

     negative rho (up, down):  2.992E+01 0.000E+00

     total cpu time spent up to now is     2976.3 secs

     total energy              =  -12279.87781023 Ry
     Harris-Foulkes estimate   =  -13655.21196647 Ry
     estimated scf accuracy    <   22783.39099268 Ry

     iteration #  3     ecut=    80.00 Ry     beta=0.70
     Davidson diagonalization with overlap
     ethr =  1.00E-02,  avg # of iterations =  7.0

     negative rho (up, down):  3.041E+01 0.000E+00

     total cpu time spent up to now is     3510.3 secs

     total energy              =  -12463.90827970 Ry
     Harris-Foulkes estimate   =  -13395.92650250 Ry
     estimated scf accuracy    <    5925.81275117 Ry

     iteration #  4     ecut=    80.00 Ry     beta=0.70
     Davidson diagonalization with overlap
     ethr =  1.00E-02,  avg # of iterations =  5.3

     negative rho (up, down):  2.241E+01 0.000E+00

     total cpu time spent up to now is     4052.9 secs

     total energy              =  -12855.35979708 Ry
     Harris-Foulkes estimate   =  -13093.03656883 Ry
     estimated scf accuracy    <    1911.86463175 Ry

     iteration #  5     ecut=    80.00 Ry     beta=0.70
     Davidson diagonalization with overlap
     ethr =  1.00E-02,  avg # of iterations =  3.3

     negative rho (up, down):  1.711E+01 0.000E+00

     total cpu time spent up to now is     4324.9 secs

     total energy              =  -12861.38206256 Ry
     Harris-Foulkes estimate   =  -12976.16973835 Ry
     estimated scf accuracy    <    1150.03050005 Ry

     iteration #  6     ecut=    80.00 Ry     beta=0.70
     Davidson diagonalization with overlap
     ethr =  1.00E-02,  avg # of iterations =  3.0

     negative rho (up, down):  1.154E+01 0.000E+00

     total cpu time spent up to now is     4522.6 secs

     total energy              =  -12851.41930687 Ry
     Harris-Foulkes estimate   =  -12919.16712921 Ry
     estimated scf accuracy    <     539.83153729 Ry

     iteration #  7     ecut=    80.00 Ry     beta=0.70
     Davidson diagonalization with overlap
     ethr =  1.00E-02,  avg # of iterations =  2.0

     negative rho (up, down):  7.900E+00 0.000E+00

     total cpu time spent up to now is     4706.2 secs

     total energy              =  -12823.77744922 Ry
     Harris-Foulkes estimate   =  -12864.47587120 Ry
     estimated scf accuracy    <     366.75355391 Ry

     iteration #  8     ecut=    80.00 Ry     beta=0.70
     Davidson diagonalization with overlap
     ethr =  1.00E-02,  avg # of iterations =  2.0

     negative rho (up, down):  6.411E+00 0.000E+00

     total cpu time spent up to now is     4886.1 secs

     total energy              =  -12808.03786024 Ry
     Harris-Foulkes estimate   =  -12836.19827685 Ry
     estimated scf accuracy    <     476.49921038 Ry

     iteration #  9     ecut=    80.00 Ry     beta=0.70
     Davidson diagonalization with overlap
     ethr =  1.00E-02,  avg # of iterations =  1.5

     negative rho (up, down):  5.558E+00 0.000E+00

     total cpu time spent up to now is     5059.7 secs

     total energy              =  -12808.67788263 Ry
     Harris-Foulkes estimate   =  -12819.79943274 Ry
     estimated scf accuracy    <     200.67508402 Ry

     iteration # 10     ecut=    80.00 Ry     beta=0.70
     Davidson diagonalization with overlap
     ethr =  1.00E-02,  avg # of iterations =  1.2

     negative rho (up, down):  2.276E+00 0.000E+00

     total cpu time spent up to now is     5229.5 secs

     total energy              =  -12779.38149404 Ry
     Harris-Foulkes estimate   =  -12811.13674496 Ry
     estimated scf accuracy    <     142.29828801 Ry

     iteration # 11     ecut=    80.00 Ry     beta=0.70
     Davidson diagonalization with overlap
     ethr =  1.00E-02,  avg # of iterations =  1.8

     negative rho (up, down):  9.006E-01 0.000E+00

     total cpu time spent up to now is     5407.3 secs

     total energy              =  -12761.79956698 Ry
     Harris-Foulkes estimate   =  -12785.02117362 Ry
     estimated scf accuracy    <     117.55019864 Ry

     iteration # 12     ecut=    80.00 Ry     beta=0.70
     Davidson diagonalization with overlap
     ethr =  9.06E-03,  avg # of iterations =  1.0

     negative rho (up, down):  1.587E+00 0.000E+00

     total cpu time spent up to now is     5576.4 secs

     total energy              =  -12752.86991181 Ry
     Harris-Foulkes estimate   =  -12766.55840477 Ry
     estimated scf accuracy    <     172.75761688 Ry

     iteration # 13     ecut=    80.00 Ry     beta=0.70
     Davidson diagonalization with overlap
     ethr =  9.06E-03,  avg # of iterations =  2.2

     negative rho (up, down):  3.806E+00 0.000E+00

     total cpu time spent up to now is     5759.3 secs

     total energy              =  -12746.03778200 Ry
     Harris-Foulkes estimate   =  -12761.26589325 Ry
     estimated scf accuracy    <     180.15941769 Ry

     iteration # 14     ecut=    80.00 Ry     beta=0.70
     Davidson diagonalization with overlap
     ethr =  9.06E-03,  avg # of iterations =  2.2

     negative rho (up, down):  5.134E+00 0.000E+00

     total cpu time spent up to now is     5940.8 secs

     total energy              =  -12748.27250805 Ry
     Harris-Foulkes estimate   =  -12754.62457632 Ry
     estimated scf accuracy    <      62.77456696 Ry

     iteration # 15     ecut=    80.00 Ry     beta=0.70
     Davidson diagonalization with overlap
     ethr =  4.84E-03,  avg # of iterations =  3.7

     negative rho (up, down):  5.504E+00 0.000E+00

     total cpu time spent up to now is     6140.6 secs

     total energy              =  -12748.62978318 Ry
     Harris-Foulkes estimate   =  -12751.58750475 Ry
     estimated scf accuracy    <      30.57314241 Ry

     iteration # 16     ecut=    80.00 Ry     beta=0.70
     Davidson diagonalization with overlap
     ethr =  2.36E-03,  avg # of iterations =  5.2

     negative rho (up, down):  6.133E+00 0.000E+00

     total cpu time spent up to now is     6357.0 secs

     total energy              =  -12746.77369036 Ry
     Harris-Foulkes estimate   =  -12749.18563669 Ry
     estimated scf accuracy    <      18.73576134 Ry

     iteration # 17     ecut=    80.00 Ry     beta=0.70
     Davidson diagonalization with overlap
     ethr =  1.44E-03,  avg # of iterations =  4.3

     negative rho (up, down):  5.109E+00 0.000E+00

     total cpu time spent up to now is     6563.7 secs

     total energy              =  -12745.78493143 Ry
     Harris-Foulkes estimate   =  -12747.32739406 Ry
     estimated scf accuracy    <      13.53597598 Ry

     iteration # 18     ecut=    80.00 Ry     beta=0.70
     Davidson diagonalization with overlap
     ethr =  1.04E-03,  avg # of iterations =  4.8

     negative rho (up, down):  4.194E+00 0.000E+00

     total cpu time spent up to now is     6776.4 secs

     total energy              =  -12744.44799722 Ry
     Harris-Foulkes estimate   =  -12746.07832352 Ry
     estimated scf accuracy    <      10.24496695 Ry

     iteration # 19     ecut=    80.00 Ry     beta=0.70
     Davidson diagonalization with overlap
     ethr =  7.89E-04,  avg # of iterations =  9.0

     negative rho (up, down):  3.521E+00 0.000E+00

     total cpu time spent up to now is     7041.6 secs

     total energy              =  -12743.83351154 Ry
     Harris-Foulkes estimate   =  -12744.66980897 Ry
     estimated scf accuracy    <       8.52048848 Ry

     iteration # 20     ecut=    80.00 Ry     beta=0.70
     Davidson diagonalization with overlap
     ethr =  6.56E-04,  avg # of iterations =  2.7

     negative rho (up, down):  1.748E+00 0.000E+00

     total cpu time spent up to now is     7228.1 secs

     total energy              =  -12741.68074646 Ry
     Harris-Foulkes estimate   =  -12744.00575221 Ry
     estimated scf accuracy    <       6.63676614 Ry

     iteration # 21     ecut=    80.00 Ry     beta=0.70
     Davidson diagonalization with overlap
     ethr =  5.11E-04,  avg # of iterations =  5.3

     negative rho (up, down):  1.408E+00 0.000E+00

     total cpu time spent up to now is     7451.5 secs

     total energy              =  -12742.16717689 Ry
     Harris-Foulkes estimate   =  -12742.07034133 Ry
     estimated scf accuracy    <      24.53019934 Ry

     iteration # 22     ecut=    80.00 Ry     beta=0.70
     Davidson diagonalization with overlap
     ethr =  5.11E-04,  avg # of iterations =  2.7

     negative rho (up, down):  1.353E+00 0.000E+00

     total cpu time spent up to now is     7639.3 secs

     total energy              =  -12742.36501911 Ry
     Harris-Foulkes estimate   =  -12742.20928053 Ry
     estimated scf accuracy    <      19.78501430 Ry

     iteration # 23     ecut=    80.00 Ry     beta=0.70
     Davidson diagonalization with overlap
     ethr =  5.11E-04,  avg # of iterations =  8.2

     negative rho (up, down):  7.909E-01 0.000E+00

     total cpu time spent up to now is     7889.6 secs

     total energy              =  -12741.97388186 Ry
     Harris-Foulkes estimate   =  -12742.50548834 Ry
     estimated scf accuracy    <       8.73275843 Ry

     iteration # 24     ecut=    80.00 Ry     beta=0.70
     Davidson diagonalization with overlap
     ethr =  5.11E-04,  avg # of iterations =  4.0

     negative rho (up, down):  9.195E-01 0.000E+00

     total cpu time spent up to now is     8092.5 secs

     total energy              =  -12742.07455008 Ry
     Harris-Foulkes estimate   =  -12742.32887283 Ry
     estimated scf accuracy    <      40.53608919 Ry

     iteration # 25     ecut=    80.00 Ry     beta=0.70
     Davidson diagonalization with overlap
     ethr =  5.11E-04,  avg # of iterations =  1.0

     negative rho (up, down):  3.876E-01 0.000E+00

     total cpu time spent up to now is     8262.0 secs

     total energy              =  -12741.78206195 Ry
     Harris-Foulkes estimate   =  -12742.25546913 Ry
     estimated scf accuracy    <      20.32962757 Ry

     iteration # 26     ecut=    80.00 Ry     beta=0.70
     Davidson diagonalization with overlap
     ethr =  5.11E-04,  avg # of iterations =  7.3

     negative rho (up, down):  2.395E-01 0.000E+00

     total cpu time spent up to now is     8501.5 secs

     total energy              =  -12741.84384730 Ry
     Harris-Foulkes estimate   =  -12742.12731858 Ry
     estimated scf accuracy    <      35.68080738 Ry

     iteration # 27     ecut=    80.00 Ry     beta=0.70
     Davidson diagonalization with overlap
     ethr =  5.11E-04,  avg # of iterations =  1.0

     negative rho (up, down):  2.748E-03 0.000E+00

     total cpu time spent up to now is     8671.2 secs

     total energy              =  -12741.36522973 Ry
     Harris-Foulkes estimate   =  -12741.99202473 Ry
     estimated scf accuracy    <      51.40393206 Ry

     iteration # 28     ecut=    80.00 Ry     beta=0.70
     Davidson diagonalization with overlap
     ethr =  5.11E-04,  avg # of iterations =  1.0

     negative rho (up, down):  3.198E-01 0.000E+00

     total cpu time spent up to now is     8841.0 secs

     total energy              =  -12739.59198159 Ry
     Harris-Foulkes estimate   =  -12741.40782231 Ry
     estimated scf accuracy    <      38.44203084 Ry

     iteration # 29     ecut=    80.00 Ry     beta=0.70
     Davidson diagonalization with overlap
     ethr =  5.11E-04,  avg # of iterations =  3.5

     negative rho (up, down):  2.930E-01 0.000E+00

     total cpu time spent up to now is     9039.0 secs

     total energy              =  -12739.23170607 Ry
     Harris-Foulkes estimate   =  -12739.99850834 Ry
     estimated scf accuracy    <       4.98984925 Ry

     iteration # 30     ecut=    80.00 Ry     beta=0.70
     Davidson diagonalization with overlap
     ethr =  3.84E-04,  avg # of iterations =  4.2

     negative rho (up, down):  6.685E-01 0.000E+00

     total cpu time spent up to now is     9247.0 secs

     total energy              =  -12738.88505780 Ry
     Harris-Foulkes estimate   =  -12739.36399098 Ry
     estimated scf accuracy    <       3.34915637 Ry

     iteration # 31     ecut=    80.00 Ry     beta=0.70
     Davidson diagonalization with overlap
     ethr =  2.58E-04,  avg # of iterations =  7.5

     negative rho (up, down):  6.208E-01 0.000E+00

     total cpu time spent up to now is     9516.2 secs

     total energy              =  -12738.92356966 Ry
     Harris-Foulkes estimate   =  -12738.99924027 Ry
     estimated scf accuracy    <       0.96258917 Ry

     iteration # 32     ecut=    80.00 Ry     beta=0.70
     Davidson diagonalization with overlap
     ethr =  7.42E-05,  avg # of iterations =  6.5

     negative rho (up, down):  5.512E-01 0.000E+00

     total cpu time spent up to now is     9752.2 secs

     total energy              =  -12738.88962560 Ry
     Harris-Foulkes estimate   =  -12738.94867105 Ry
     estimated scf accuracy    <       0.59290636 Ry

     iteration # 33     ecut=    80.00 Ry     beta=0.70
     Davidson diagonalization with overlap
     ethr =  4.57E-05,  avg # of iterations =  5.5

     negative rho (up, down):  3.514E-01 0.000E+00

     total cpu time spent up to now is     9974.6 secs

     total energy              =  -12738.84728720 Ry
     Harris-Foulkes estimate   =  -12738.90346600 Ry
     estimated scf accuracy    <       0.26748716 Ry

     iteration # 34     ecut=    80.00 Ry     beta=0.70
     Davidson diagonalization with overlap
     c_bands:  1 eigenvalues not converged
     ethr =  2.06E-05,  avg # of iterations = 14.3

     negative rho (up, down):  2.115E-01 0.000E+00

     total cpu time spent up to now is    10316.8 secs

     total energy              =  -12738.83510624 Ry
     Harris-Foulkes estimate   =  -12738.86222355 Ry
     estimated scf accuracy    <       0.16265279 Ry

     iteration # 35     ecut=    80.00 Ry     beta=0.70
     Davidson diagonalization with overlap
     c_bands:  1 eigenvalues not converged
     c_bands:  1 eigenvalues not converged
     ethr =  1.25E-05,  avg # of iterations = 11.7

     negative rho (up, down):  9.450E-02 0.000E+00

     total cpu time spent up to now is    10622.8 secs

     total energy              =  -12738.82865718 Ry
     Harris-Foulkes estimate   =  -12738.84174936 Ry
     estimated scf accuracy    <       0.10064802 Ry

     iteration # 36     ecut=    80.00 Ry     beta=0.70
     Davidson diagonalization with overlap
     c_bands:  1 eigenvalues not converged
     ethr =  7.75E-06,  avg # of iterations = 12.5

     negative rho (up, down):  6.598E-02 0.000E+00

     total cpu time spent up to now is    10944.2 secs

     total energy              =  -12738.83086189 Ry
     Harris-Foulkes estimate   =  -12738.83412234 Ry
     estimated scf accuracy    <       0.03670307 Ry

     iteration # 37     ecut=    80.00 Ry     beta=0.70
     Davidson diagonalization with overlap
     c_bands:  1 eigenvalues not converged
     c_bands:  2 eigenvalues not converged
     ethr =  2.83E-06,  avg # of iterations = 13.8

     negative rho (up, down):  3.983E-02 0.000E+00

     total cpu time spent up to now is    11282.9 secs

     total energy              =  -12738.83083024 Ry
     Harris-Foulkes estimate   =  -12738.83252387 Ry
     estimated scf accuracy    <       0.00916992 Ry

     iteration # 38     ecut=    80.00 Ry     beta=0.70
     Davidson diagonalization with overlap
     c_bands:  1 eigenvalues not converged
     c_bands:  1 eigenvalues not converged
     ethr =  7.06E-07,  avg # of iterations = 14.5

     negative rho (up, down):  1.726E-02 0.000E+00

     total cpu time spent up to now is    11652.3 secs

     total energy              =  -12738.83061277 Ry
     Harris-Foulkes estimate   =  -12738.83202504 Ry
     estimated scf accuracy    <       0.00477940 Ry

     iteration # 39     ecut=    80.00 Ry     beta=0.70
     Davidson diagonalization with overlap
     c_bands:  1 eigenvalues not converged
     ethr =  3.68E-07,  avg # of iterations = 14.0

     negative rho (up, down):  1.007E-02 0.000E+00

     total cpu time spent up to now is    11998.1 secs

     total energy              =  -12738.83096136 Ry
     Harris-Foulkes estimate   =  -12738.83128829 Ry
     estimated scf accuracy    <       0.00143551 Ry

     iteration # 40     ecut=    80.00 Ry     beta=0.70
     Davidson diagonalization with overlap
     c_bands:  1 eigenvalues not converged
     ethr =  1.11E-07,  avg # of iterations = 11.8

     negative rho (up, down):  7.313E-03 0.000E+00

     total cpu time spent up to now is    12302.3 secs

     total energy              =  -12738.83098390 Ry
     Harris-Foulkes estimate   =  -12738.83106160 Ry
     estimated scf accuracy    <       0.00025504 Ry

     iteration # 41     ecut=    80.00 Ry     beta=0.70
     Davidson diagonalization with overlap
     ethr =  1.96E-08,  avg # of iterations =  8.0

     negative rho (up, down):  1.962E-03 0.000E+00

     total cpu time spent up to now is    12560.3 secs

     total energy              =  -12738.83091622 Ry
     Harris-Foulkes estimate   =  -12738.83100443 Ry
     estimated scf accuracy    <       0.00007869 Ry

     iteration # 42     ecut=    80.00 Ry     beta=0.70
     Davidson diagonalization with overlap
     ethr =  6.06E-09,  avg # of iterations =  9.7

     negative rho (up, down):  1.671E-03 0.000E+00

     total cpu time spent up to now is    12846.6 secs

     total energy              =  -12738.83093501 Ry
     Harris-Foulkes estimate   =  -12738.83092289 Ry
     estimated scf accuracy    <       0.00000825 Ry

     iteration # 43     ecut=    80.00 Ry     beta=0.70
     Davidson diagonalization with overlap
     ethr =  6.36E-10,  avg # of iterations =  3.5

     negative rho (up, down):  1.849E-03 0.000E+00

     total cpu time spent up to now is    13063.8 secs

     total energy              =  -12738.83093916 Ry
     Harris-Foulkes estimate   =  -12738.83093596 Ry
     estimated scf accuracy    <       0.00000473 Ry

     iteration # 44     ecut=    80.00 Ry     beta=0.70
     Davidson diagonalization with overlap
     ethr =  3.64E-10,  avg # of iterations =  2.7

     negative rho (up, down):  1.753E-03 0.000E+00

     total cpu time spent up to now is    13255.3 secs

     total energy              =  -12738.83094081 Ry
     Harris-Foulkes estimate   =  -12738.83093964 Ry
     estimated scf accuracy    <       0.00000262 Ry

     iteration # 45     ecut=    80.00 Ry     beta=0.70
     Davidson diagonalization with overlap
     ethr =  2.01E-10,  avg # of iterations =  4.0

     negative rho (up, down):  2.108E-03 0.000E+00

     total cpu time spent up to now is    13469.9 secs

     total energy              =  -12738.83094079 Ry
     Harris-Foulkes estimate   =  -12738.83094107 Ry
     estimated scf accuracy    <       0.00000131 Ry

     iteration # 46     ecut=    80.00 Ry     beta=0.70
     Davidson diagonalization with overlap
     ethr =  1.01E-10,  avg # of iterations =  2.0

     negative rho (up, down):  2.063E-03 0.000E+00

     total cpu time spent up to now is    13653.8 secs

     total energy              =  -12738.83094086 Ry
     Harris-Foulkes estimate   =  -12738.83094089 Ry
     estimated scf accuracy    <       0.00000033 Ry

     iteration # 47     ecut=    80.00 Ry     beta=0.70
     Davidson diagonalization with overlap
     ethr =  2.52E-11,  avg # of iterations =  2.2

     negative rho (up, down):  2.069E-03 0.000E+00

     total cpu time spent up to now is    13842.3 secs

     total energy              =  -12738.83094073 Ry
     Harris-Foulkes estimate   =  -12738.83094090 Ry
     estimated scf accuracy    <       0.00000023 Ry

     iteration # 48     ecut=    80.00 Ry     beta=0.70
     Davidson diagonalization with overlap
     ethr =  1.79E-11,  avg # of iterations =  3.0

     negative rho (up, down):  2.087E-03 0.000E+00

     total cpu time spent up to now is    14047.4 secs

     total energy              =  -12738.83094072 Ry
     Harris-Foulkes estimate   =  -12738.83094075 Ry
     estimated scf accuracy    <       0.00000008 Ry

     iteration # 49     ecut=    80.00 Ry     beta=0.70
     Davidson diagonalization with overlap
     ethr =  6.02E-12,  avg # of iterations =  2.5

     negative rho (up, down):  2.080E-03 0.000E+00

     total cpu time spent up to now is    14243.0 secs

     total energy              =  -12738.83094068 Ry
     Harris-Foulkes estimate   =  -12738.83094073 Ry
     estimated scf accuracy    <       0.00000004 Ry

     iteration # 50     ecut=    80.00 Ry     beta=0.70
     Davidson diagonalization with overlap
     ethr =  3.20E-12,  avg # of iterations =  2.3

     negative rho (up, down):  2.090E-03 0.000E+00

     total cpu time spent up to now is    14430.9 secs

     End of self-consistent calculation

          k = 0.0000 0.0000 0.0000 (256287 PWs)   bands (ev):

   -19.1965 -17.1100 -16.2778 -15.9458 -15.4274 -14.9881 -14.7631 -14.6105
   -14.2976 -14.2419 -14.1628 -13.9890 -13.3887 -13.2371 -13.1810 -13.1657
   -13.1246 -12.5926 -11.5676 -11.5619 -11.4803 -11.3285 -11.0961 -10.3653
    -9.8021  -9.7936  -9.6225  -9.4529  -9.0258  -8.8232  -8.7224  -8.5716
    -8.0725  -7.9453  -7.8017  -7.7143  -7.6520  -7.5992  -7.5698  -7.5208
    -6.4152  -6.3994  -6.2321  -6.0829  -6.0723  -6.0215  -5.9997  -5.9342
    -5.8786  -5.5460  -5.5344  -5.2746  -4.9651  -4.9280  -4.8693  -4.7260
    -4.6439  -4.6207  -4.5328  -4.2997  -4.1590  -4.1412  -4.0415  -4.0386
    -4.0178  -3.7315  -3.6388  -3.5990  -3.5742  -3.4932  -3.4637  -3.4524
    -3.4365  -3.2948  -3.2409  -3.2070  -3.1742  -3.1618  -3.0940  -3.0605
    -3.0559  -3.0479  -3.0406  -2.9074  -2.8760  -2.8572  -2.8329  -2.7938
    -2.7885  -2.7754  -2.7321  -2.6542  -2.5840  -2.4739  -2.4323  -2.3958
    -2.3898  -2.3442  -2.2805  -2.2445  -2.2435  -2.2173  -2.2044  -2.2038
    -2.2036  -2.2030  -2.1985  -2.1388  -2.0750  -2.0744  -2.0716  -2.0709
    -2.0370  -2.0088  -1.8925  -1.8505  -1.8286  -1.7931  -1.7902  -1.7895
    -1.7819  -1.7528  -1.7325  -1.7238  -1.7105  -1.7090  -1.6979  -1.6528
    -1.6460  -1.6223  -1.6160  -1.6140  -1.6062  -1.6022  -1.5892  -1.5796
    -1.5671  -1.5658  -1.5594  -1.5152  -1.4942  -1.4889  -1.4675  -1.4581
    -1.4340  -1.4292  -1.4044  -1.3761  -1.3505  -1.3158  -1.3143  -1.3026
    -1.2851  -1.2636  -1.2624  -1.2435  -1.2410  -1.2274  -1.2181  -1.2156
    -1.1858  -1.1732  -1.1514  -1.1061  -1.1004  -1.0965  -1.0928  -1.0854
    -1.0773  -1.0746  -1.0731  -1.0727  -1.0683  -1.0680  -1.0607  -1.0551
    -1.0500  -1.0280  -1.0146  -1.0036  -0.9865  -0.9837  -0.9778  -0.9712
    -0.9707  -0.9682  -0.9197  -0.9111  -0.9091  -0.9081  -0.9076  -0.9062
    -0.9056  -0.9035  -0.9031  -0.9010  -0.8997  -0.8994  -0.8986  -0.8963
    -0.8937  -0.8934  -0.8882  -0.8799  -0.8782  -0.8575  -0.8374  -0.7423
    -0.7409  -0.7351  -0.7348  -0.7309  -0.7134  -0.7114  -0.6938  -0.6933
    -0.6735  -0.6713  -0.6663  -0.6562  -0.6531  -0.6515  -0.6396  -0.6175
    -0.6163  -0.6127  -0.6123  -0.6056  -0.6051  -0.5945  -0.5936  -0.5601
    -0.5450  -0.5433  -0.4903  -0.4901  -0.4806  -0.4792  -0.4766  -0.4757
    -0.4623  -0.4612  -0.4568  -0.4559  -0.4556  -0.4551  -0.4522  -0.4515
    -0.4367  -0.4365  -0.4353  -0.4283  -0.4273  -0.4032  -0.4025  -0.4022
    -0.3532  -0.3501  -0.3473  -0.3427  -0.3426  -0.3170  -0.3168  -0.3146
    -0.3144  -0.3065  -0.2989  -0.2961  -0.2940  -0.2938  -0.2759  -0.2731
    -0.2706  -0.2693  -0.2671  -0.2665  -0.2655  -0.2628  -0.2614  -0.2601
    -0.2570  -0.2418  -0.2416  -0.2394  -0.2383  -0.2178  -0.1851  -0.1731
    -0.1702  -0.1699  -0.1694  -0.1668  -0.1248  -0.1235  -0.1200  -0.1195
    -0.1141  -0.1138  -0.1133  -0.1127  -0.1121  -0.1009  -0.0958  -0.0831
    -0.0618  -0.0616  -0.0589  -0.0572  -0.0509  -0.0320  -0.0317  -0.0293
    -0.0275  -0.0255  -0.0198  -0.0065  -0.0061  -0.0052  -0.0050  -0.0020
    -0.0015   0.0114   0.0120   0.0123   0.0128   0.0178   0.0227   0.0232
     0.0307   0.0503   0.0519   0.0641   0.0840   0.0845   0.1096   0.1131
     0.1264   0.1376   0.1453   0.1724   0.1831   0.1847   0.1855   0.1910
     0.1928   0.1944   0.2174   0.2196   0.2219   0.2219   0.2236   0.2285
     0.2332   0.2359   0.2757   0.2895   0.2899   0.2922   0.2959   0.2999
     0.3009   0.3257   0.3312   0.3318   0.3326   0.3329   0.3461   0.3551
     0.3641   0.3686   0.3766   0.3822   0.3885   0.3892   0.3901   0.4236
     0.4278   0.4389   0.4414   0.4440   0.4477   0.4482   0.4566   0.4596
     0.4711   0.4770   0.4790   0.4821   0.4831   0.4840   0.4860   0.4880
     0.4925   0.4947   0.4974   0.4989   0.5044   0.5047   0.5086   0.5131
     0.5147   0.5444   0.5545   0.5548   0.5585   0.5685   0.5707   0.5934
     0.5967   0.5972   0.6004   0.6026   0.6029   0.6037   0.6055   0.6072
     0.6173   0.6223   0.6261   0.6278   0.6295   0.6329   0.6364   0.6365
     0.6459   0.6494   0.6536   0.6659   0.6689   0.6712   0.6740   0.6827
     0.6836   0.6911   0.6959   0.6978   0.6979   0.7025   0.7039   0.7047
     0.7070   0.7166   0.7236   0.7543   0.7549   0.7664   0.7675   0.7699
     0.7709   0.7728   0.7743   0.7904   0.8045   0.8048   0.8177   0.8249
     0.8251   0.8258   0.8369   0.8391   0.8400   0.8480   0.8493   0.8512
     0.8530   0.8573   0.8698   0.8860   0.8878   0.8899   0.8905   0.8911
     0.8928   0.9075   0.9148   0.9257   0.9321   0.9345   0.9361   0.9461
     0.9488   0.9601   0.9610   0.9612   0.9619   0.9627   0.9706   0.9724
     0.9756   0.9772   0.9775   0.9786   0.9901   0.9933   0.9943   1.0024
     1.0083   1.0131   1.0138   1.0184   1.0227   1.0321   1.0476   1.0526
     1.0535   1.0569   1.0603   1.0611   1.0648   1.0676   1.0688   1.0692
     1.0694   1.0711   1.0753   1.0839   1.0852   1.0887   1.1095   1.1226
     1.1324   1.1368   1.1463   1.1497   1.1520   1.1536   1.1549   1.1573
     1.1585   1.1708   1.1799   1.1853   1.1873   1.1881   1.1896   1.1915
     1.1928   1.1961   1.1985   1.2037   1.2143   1.2218   1.2222   1.2234
     1.2248   1.2261   1.2272   1.2280   1.2306   1.2430   1.2432   1.2437
     1.2491   1.2587   1.2594   1.2602   1.2607   1.2611   1.2690   1.2730
     1.2747   1.2815   1.2938   1.3030   1.3033   1.3053   1.3068   1.3087
     1.3107   1.3283   1.3318   1.3360   1.3368   1.3407   1.3427   1.3526
     1.3629   1.3650   1.3694   1.3722   1.3726   1.3759   1.3811   1.3835
     1.3839   1.3848   1.3860   1.3875   1.3889   1.3959   1.3991   1.4002
     1.4068   1.4156   1.4158   1.4165   1.4174   1.4193   1.4291   1.4323
     1.4439   1.4622   1.4652   1.4700   1.4884   1.5060   1.5091   1.5108
     1.5143   1.5289   1.5308   1.5334   1.5373   1.5421   1.5549   1.5777
     1.5816   1.5828   1.5845   1.5891   1.5920   1.5929   1.5935   1.8455
     1.9051   2.0547   2.0605   2.0947   2.1154   2.1455   2.1540   2.1567
     2.1572   2.1677   2.1728   2.1764   2.1822   2.3230   2.3577   2.3890
     2.4142   2.4214   2.4246   2.4280   2.4344   2.5382   2.6386   2.6738
     2.6796   2.6846   2.8033   2.9708   3.1439   3.3216   3.4782   3.4841
     3.7468   3.7679   3.7850   3.7990   3.8094   3.8121   3.8662   3.8768
     3.9148   3.9535   3.9562   3.9591   3.9636   3.9655   3.9724   3.9770
     4.0567   4.2041   4.2118   4.2175   4.2623   4.4020   4.5750   4.7148
     4.8369   4.8491   5.0666   5.2491   5.3687   5.3758   5.3990   5.6296
     5.6740   5.6874   5.6927   5.8104   5.8817   5.9417   6.2228   6.3209
     6.3321   6.3600   6.3812   6.4366   6.4438   6.4571   6.4675   6.5555
     6.6512   6.6594   6.7073   6.7391   6.7532   6.8130   6.8974   6.9423
     6.9948   7.0049   7.0547   7.0659   7.1126   7.3049   7.3108   7.5219
     7.5321   7.5815   7.6551   7.6593   7.6630   7.6765   7.7271   8.0662
     8.1243   8.1561   8.1790   8.2494   8.2851   8.2874   8.2913   8.3025
     8.3073   8.3505   8.3606   8.3640   8.3788   8.4361   8.5093   8.5212
     8.6224   8.6277   8.6297   8.6395   8.7547   8.7897   8.7947   8.8008
     8.8069   8.8365   8.8439   9.0420   9.0743   9.0832   9.0849   9.0927
     9.1018   9.1788   9.2674   9.2911   9.2990   9.4099   9.5256   9.5308
     9.6313   9.6454   9.7318   9.7549   9.7799   9.8188   9.9697   9.9930
     9.9980  10.1284  10.1386

          k = 0.0000-0.2165 0.0000 (256176 PWs)   bands (ev):

   -19.1965 -17.1101 -16.2858 -15.9093 -15.4714 -15.0963 -14.6738 -14.3925
   -14.3709 -14.2848 -14.0112 -13.8678 -13.8003 -13.7432 -13.3547 -12.5077
   -12.4275 -12.3875 -12.2677 -12.1145 -11.7814 -10.6700 -10.5697 -10.5070
   -10.3346  -9.4763  -9.4244  -9.3437  -9.1056  -9.0322  -8.9271  -8.4463
    -8.3232  -8.2829  -8.1385  -7.5015  -7.3822  -7.0840  -7.0243  -6.9876
    -6.9338  -6.9167  -6.8794  -6.2510  -6.1417  -5.9397  -5.9357  -5.6079
    -5.5159  -5.3089  -5.2424  -5.1742  -5.0215  -4.9881  -4.9237  -4.8896
    -4.8888  -4.7289  -4.6745  -4.6473  -4.4945  -4.2070  -4.0518  -3.9396
    -3.7726  -3.7028  -3.5907  -3.4222  -3.3912  -3.3641  -3.3566  -3.3537
    -3.3422  -3.2981  -3.2433  -3.1823  -3.1369  -3.1092  -3.0877  -3.0799
    -3.0438  -2.9707  -2.9394  -2.8905  -2.8718  -2.8301  -2.7876  -2.7447
    -2.7219  -2.6550  -2.6323  -2.6305  -2.6296  -2.6289  -2.6213  -2.5392
    -2.4839  -2.4040  -2.3635  -2.3261  -2.2959  -2.2915  -2.2778  -2.2167
    -2.2012  -2.1982  -2.1950  -2.1593  -2.0890  -2.0403  -2.0384  -2.0367
    -2.0126  -2.0124  -1.9426  -1.9216  -1.9136  -1.8865  -1.8388  -1.8192
    -1.8184  -1.8024  -1.8009  -1.7926  -1.7926  -1.7759  -1.7724  -1.7228
    -1.7125  -1.6988  -1.6950  -1.6635  -1.6201  -1.5652  -1.5254  -1.5185
    -1.5133  -1.5118  -1.4580  -1.4367  -1.4229  -1.4220  -1.4127  -1.3689
    -1.3675  -1.3351  -1.3311  -1.3276  -1.3261  -1.3260  -1.3223  -1.3199
    -1.3016  -1.2887  -1.2834  -1.2776  -1.2756  -1.2747  -1.2635  -1.2605
    -1.2159  -1.2001  -1.1936  -1.1873  -1.1852  -1.1405  -1.1400  -1.1023
    -1.1020  -1.0994  -1.0987  -1.0895  -1.0587  -1.0553  -1.0371  -1.0367
    -1.0335  -1.0308  -1.0305  -1.0291  -0.9799  -0.9785  -0.9712  -0.9707
    -0.9631  -0.9627  -0.9527  -0.9524  -0.9466  -0.9446  -0.9288  -0.8816
    -0.8784  -0.8738  -0.8707  -0.8695  -0.8661  -0.8527  -0.8496  -0.8469
    -0.8409  -0.8312  -0.8302  -0.8068  -0.8060  -0.8004  -0.7970  -0.7091
    -0.7090  -0.7034  -0.7024  -0.6848  -0.6845  -0.6594  -0.6586  -0.6568
    -0.6563  -0.6527  -0.6525  -0.6287  -0.6262  -0.5989  -0.5944  -0.5938
    -0.5930  -0.5915  -0.5898  -0.5895  -0.5866  -0.5853  -0.5562  -0.5555
    -0.5453  -0.5360  -0.5353  -0.5352  -0.5046  -0.5013  -0.4994  -0.4981
    -0.4960  -0.4926  -0.4884  -0.4845  -0.4833  -0.4690  -0.4221  -0.4126
    -0.4123  -0.4052  -0.4046  -0.3802  -0.3766  -0.3596  -0.3552  -0.3543
    -0.3489  -0.3476  -0.3459  -0.3395  -0.3254  -0.3225  -0.3204  -0.3182
    -0.3155  -0.3121  -0.3022  -0.3010  -0.2977  -0.2966  -0.2952  -0.2949
    -0.2944  -0.2872  -0.2835  -0.2703  -0.2583  -0.2579  -0.2555  -0.2552
    -0.2048  -0.2009  -0.1928  -0.1923  -0.1891  -0.1866  -0.1839  -0.1818
    -0.1787  -0.1773  -0.1627  -0.1564  -0.1512  -0.1434  -0.1396  -0.1386
    -0.1359  -0.1298  -0.1294  -0.1275  -0.1267  -0.1255  -0.1244  -0.1022
    -0.0923  -0.0690  -0.0680  -0.0672  -0.0665  -0.0482  -0.0471  -0.0457
    -0.0450  -0.0430  -0.0373  -0.0248  -0.0239  -0.0236  -0.0201  -0.0172
    -0.0032   0.0075   0.0085   0.0237   0.0241   0.0241   0.0256   0.0410
     0.0438   0.0590   0.0593   0.0692   0.0698   0.0744   0.0820   0.0835
     0.0840   0.0927   0.1254   0.1257   0.1338   0.1349   0.1427   0.1480
     0.1501   0.1507   0.1762   0.1776   0.2097   0.2135   0.2150   0.2158
     0.2434   0.2547   0.2690   0.2940   0.3309   0.3320   0.3352   0.3374
     0.3408   0.3578   0.3598   0.3603   0.3615   0.3760   0.3929   0.3948
     0.3986   0.4007   0.4024   0.4039   0.4052   0.4069   0.4103   0.4131
     0.4236   0.4258   0.4265   0.4282   0.4302   0.4330   0.4356   0.4379
     0.4636   0.4649   0.4756   0.4759   0.4765   0.4776   0.4852   0.4852
     0.4944   0.5007   0.5043   0.5045   0.5064   0.5073   0.5081   0.5084
     0.5110   0.5267   0.5281   0.5287   0.5317   0.5331   0.5346   0.5361
     0.5362   0.5393   0.5490   0.5542   0.5937   0.5939   0.6056   0.6056
     0.6128   0.6151   0.6169   0.6180   0.6191   0.6227   0.6236   0.6279
     0.6311   0.6316   0.6321   0.6369   0.6710   0.6727   0.6734   0.6737
     0.6825   0.6877   0.6903   0.6909   0.6919   0.6961   0.7073   0.7112
     0.7231   0.7231   0.7271   0.7292   0.7318   0.7342   0.7770   0.7833
     0.7837   0.8348   0.8353   0.8379   0.8406   0.8424   0.8452   0.8512
     0.8540   0.8582   0.8591   0.8648   0.8660   0.8695   0.8719   0.8745
     0.8775   0.8815   0.8857   0.8894   0.8907   0.8915   0.8927   0.8999
     0.9070   0.9106   0.9153   0.9157   0.9158   0.9172   0.9176   0.9196
     0.9230   0.9315   0.9327   0.9385   0.9385   0.9399   0.9422   0.9435
     0.9459   0.9592   0.9603   0.9668   0.9735   0.9746   0.9769   0.9803
     0.9810   0.9867   0.9874   0.9875   0.9881   0.9889   0.9907   1.0316
     1.0395   1.0601   1.0757   1.0764   1.0766   1.0918   1.0938   1.0977
     1.0994   1.1085   1.1152   1.1185   1.1194   1.1317   1.1356   1.1390
     1.1410   1.1414   1.1441   1.1479   1.1484   1.1492   1.1501   1.1504
     1.1518   1.1531   1.1538   1.1585   1.1594   1.1687   1.1781   1.1791
     1.1806   1.1829   1.1851   1.1897   1.1906   1.2141   1.2172   1.2182
     1.2226   1.2246   1.2260   1.2263   1.2284   1.2420   1.2451   1.2489
     1.2504   1.2593   1.2602   1.2607   1.2623   1.2632   1.2653   1.2782
     1.2811   1.2820   1.2823   1.2984   1.2990   1.3019   1.3040   1.3208
     1.3230   1.3266   1.3287   1.3297   1.3304   1.3419   1.3440   1.3446
     1.3454   1.3601   1.3613   1.3732   1.3751   1.3753   1.3757   1.3943
     1.3960   1.3966   1.3968   1.3991   1.3993   1.4005   1.4007   1.4274
     1.4282   1.4343   1.4366   1.4391   1.4422   1.4487   1.4558   1.4668
     1.4679   1.4687   1.4708   1.4745   1.4809   1.4869   1.4926   1.5271
     1.5368   1.5381   1.5419   1.5827   1.6377   1.6457   1.6628   1.6731
     1.6783   1.6816   1.6961   1.7274   1.7376   1.7383   1.7408   1.7510
     1.7609   1.7637   1.7662   1.8013   1.8034   1.8215   1.9535   2.0586
     2.3205   2.3637   2.3734   2.3747   2.3861   2.4459   2.4477   2.5065
     2.5144   2.5217   2.5249   2.5335   2.5445   2.6565   2.6603   2.7124
     2.7196   2.7321   2.7364   2.8716   2.8730   3.1138   3.1191   3.1194
     3.1324   3.2052   3.3794   3.4194   3.6186   3.6237   3.7974   3.8753
     4.0296   4.0353   4.0542   4.0792   4.2212   4.2813   4.2864   4.2874
     4.3150   4.4533   4.4603   4.6381   4.6662   4.7257   4.7465   4.8587
     5.0413   5.0509   5.0524   5.1301   5.3036   5.3082   5.3116   5.3130
     5.3653   5.4200   5.6044   5.6280   5.7003   5.7545   5.9576   6.3253
     6.3665   6.3844   6.3989   6.4155   6.4180   6.4729   6.5071   6.6094
     6.6193   6.6696   6.7818   6.7974   6.9451   6.9804   6.9922   7.0259
     7.0356   7.0508   7.0784   7.0909   7.0925   7.1299   7.2360   7.3040
     7.3194   7.3601   7.4305   7.4498   7.5323   7.7288   7.7353   7.9188
     7.9308   8.0946   8.0976   8.2183   8.3025   8.3176   8.3569   8.4143
     8.4179   8.4329   8.4433   8.4587   8.4635   8.5808   8.6627   8.6660
     8.6712   8.6804   8.7112   8.7177   8.7729   8.8820   8.9106   8.9237
     8.9583   8.9923   9.1071   9.1088   9.1510   9.1942   9.3256   9.3309
     9.3373   9.3466   9.3486   9.3645   9.4236   9.4497   9.4604   9.4680
     9.4730   9.4825   9.5026   9.6307   9.6377   9.7332   9.7366   9.7693
     9.8385   9.8389  10.1670

          k = 0.2500 0.0000 0.0000 (256240 PWs)   bands (ev):

   -19.1937 -17.0595 -16.1695 -15.8523 -15.6692 -15.1695 -14.9946 -14.9526
   -14.6137 -14.0920 -13.8959 -13.7274 -13.2442 -13.1868 -13.0977 -12.7767
   -12.2948 -12.2297 -12.1785 -11.9292 -11.2560 -10.9930 -10.7795 -10.6945
   -10.3414 -10.2505  -9.9739  -9.7991  -9.5329  -9.2860  -9.1623  -8.6907
    -7.9855  -7.8551  -7.7784  -7.6013  -7.5860  -7.4790  -7.1383  -7.0170
    -6.3485  -6.2938  -6.1457  -6.0377  -5.9769  -5.8926  -5.5346  -5.4078
    -5.3644  -5.3597  -5.1354  -4.9755  -4.8360  -4.7644  -4.6499  -4.5641
    -4.5192  -4.4885  -4.4739  -4.4261  -4.3467  -4.1918  -4.0637  -4.0536
    -4.0341  -3.9846  -3.9095  -3.8956  -3.8879  -3.8648  -3.7438  -3.6671
    -3.6274  -3.6034  -3.5417  -3.4768  -3.4461  -3.3676  -3.3239  -3.2868
    -3.2586  -3.1452  -3.0807  -3.0274  -2.9951  -2.8633  -2.8513  -2.8481
    -2.8113  -2.7197  -2.6800  -2.6712  -2.6570  -2.5203  -2.4739  -2.4483
    -2.3930  -2.3684  -2.1698  -2.1531  -2.1490  -2.1416  -2.1336  -2.1263
    -2.0492  -2.0278  -1.9697  -1.9451  -1.9347  -1.8937  -1.8808  -1.8538
    -1.8531  -1.8459  -1.8450  -1.8259  -1.8181  -1.7973  -1.7957  -1.7679
    -1.7640  -1.7427  -1.7314  -1.7012  -1.6885  -1.6552  -1.6360  -1.6351
    -1.6323  -1.6305  -1.6300  -1.6279  -1.5801  -1.5717  -1.5556  -1.5539
    -1.5432  -1.5408  -1.5128  -1.4243  -1.3968  -1.3829  -1.3714  -1.3641
    -1.3241  -1.3188  -1.2964  -1.2948  -1.2903  -1.2892  -1.2814  -1.2653
    -1.2601  -1.2583  -1.2406  -1.2363  -1.2346  -1.2285  -1.2067  -1.1938
    -1.1876  -1.1853  -1.1816  -1.1741  -1.1683  -1.1637  -1.1626  -1.1484
    -1.1270  -1.1152  -1.1069  -1.1015  -1.1003  -1.0863  -1.0821  -1.0706
    -1.0646  -1.0628  -1.0565  -1.0529  -1.0468  -1.0415  -1.0338  -1.0325
    -1.0317  -1.0310  -1.0283  -1.0270  -1.0160  -1.0023  -0.9986  -0.9972
    -0.9917  -0.9654  -0.9547  -0.9533  -0.9483  -0.9057  -0.9034  -0.8680
    -0.8676  -0.8502  -0.8468  -0.8392  -0.8242  -0.8225  -0.8116  -0.8086
    -0.8051  -0.8014  -0.7969  -0.7939  -0.7834  -0.7744  -0.6600  -0.6541
    -0.6519  -0.6504  -0.6259  -0.6203  -0.6184  -0.6132  -0.6021  -0.6013
    -0.6008  -0.6002  -0.5816  -0.5796  -0.5782  -0.5773  -0.5732  -0.5603
    -0.5431  -0.5374  -0.5367  -0.5342  -0.5331  -0.5176  -0.5123  -0.5120
    -0.5098  -0.4571  -0.4513  -0.4507  -0.4499  -0.4443  -0.4435  -0.4406
    -0.4322  -0.4261  -0.4089  -0.4082  -0.3941  -0.3868  -0.3846  -0.3831
    -0.3786  -0.3535  -0.3462  -0.3460  -0.3435  -0.3410  -0.3334  -0.3312
    -0.3236  -0.3221  -0.3144  -0.3059  -0.2987  -0.2839  -0.2819  -0.2747
    -0.2547  -0.2505  -0.2492  -0.2486  -0.2410  -0.2333  -0.2327  -0.2314
    -0.2303  -0.2088  -0.2035  -0.2033  -0.1915  -0.1908  -0.1882  -0.1653
    -0.1632  -0.1624  -0.1480  -0.1187  -0.1155  -0.1145  -0.1116  -0.1076
    -0.0943  -0.0911  -0.0715  -0.0706  -0.0666  -0.0638  -0.0611  -0.0584
    -0.0519  -0.0507  -0.0487  -0.0475  -0.0449  -0.0437  -0.0418  -0.0386
    -0.0208  -0.0177  -0.0176  -0.0139  -0.0105  -0.0056   0.0066   0.0078
     0.0210   0.0259   0.0359   0.0608   0.0622   0.0641   0.0650   0.0664
     0.0688   0.0842   0.0878   0.0893   0.0902   0.0908   0.0923   0.1213
     0.1285   0.1302   0.1635   0.2002   0.2020   0.2040   0.2114   0.2175
     0.2208   0.2214   0.2229   0.2256   0.2300   0.2311   0.2327   0.2367
     0.2379   0.2425   0.2457   0.2539   0.2557   0.2562   0.2622   0.2678
     0.2695   0.2751   0.2788   0.2836   0.2848   0.3013   0.3048   0.3133
     0.3186   0.3392   0.3486   0.3540   0.3702   0.3717   0.3798   0.3907
     0.3913   0.3924   0.3959   0.4053   0.4119   0.4255   0.4279   0.4308
     0.4336   0.4337   0.4391   0.4410   0.4438   0.4453   0.4640   0.4681
     0.4729   0.4811   0.4877   0.4908   0.4933   0.4946   0.4994   0.5003
     0.5037   0.5054   0.5254   0.5277   0.5279   0.5343   0.5404   0.5433
     0.5446   0.5461   0.5574   0.5588   0.5622   0.5653   0.5668   0.5817
     0.5863   0.5887   0.6043   0.6079   0.6123   0.6145   0.6181   0.6196
     0.6245   0.6336   0.6509   0.6538   0.6720   0.6753   0.6887   0.6892
     0.6923   0.6943   0.6977   0.7031   0.7141   0.7192   0.7229   0.7258
     0.7267   0.7333   0.7384   0.7485   0.7508   0.7625   0.7665   0.7717
     0.7728   0.7820   0.7936   0.8011   0.8048   0.8050   0.8066   0.8193
     0.8282   0.8303   0.8384   0.8409   0.8417   0.8430   0.8432   0.8504
     0.8517   0.8554   0.8593   0.8737   0.8947   0.8982   0.9034   0.9038
     0.9136   0.9169   0.9229   0.9305   0.9381   0.9394   0.9409   0.9417
     0.9476   0.9495   0.9509   0.9644   0.9665   0.9672   0.9681   0.9692
     0.9705   0.9719   0.9737   0.9774   0.9809   0.9811   0.9844   0.9904
     0.9946   1.0052   1.0065   1.0098   1.0159   1.0179   1.0199   1.0242
     1.0251   1.0355   1.0391   1.0400   1.0530   1.0555   1.0567   1.0584
     1.0611   1.0705   1.0770   1.0836   1.0854   1.0889   1.0942   1.0987
     1.1039   1.1066   1.1078   1.1163   1.1236   1.1329   1.1380   1.1395
     1.1418   1.1498   1.1758   1.1835   1.1857   1.1900   1.1934   1.1956
     1.2004   1.2018   1.2030   1.2050   1.2108   1.2119   1.2214   1.2264
     1.2276   1.2290   1.2399   1.2461   1.2481   1.2491   1.2497   1.2538
     1.2588   1.2607   1.2626   1.2644   1.2667   1.2682   1.2704   1.2716
     1.2745   1.2823   1.2894   1.2969   1.2989   1.3010   1.3048   1.3071
     1.3078   1.3099   1.3171   1.3289   1.3291   1.3297   1.3494   1.3504
     1.3555   1.3596   1.3667   1.3688   1.3709   1.3720   1.3740   1.3759
     1.3768   1.3820   1.3827   1.3831   1.3889   1.3913   1.3953   1.4103
     1.4124   1.4144   1.4150   1.4170   1.4180   1.4194   1.4319   1.4319
     1.4394   1.4430   1.4502   1.4544   1.4564   1.4578   1.4631   1.4657
     1.4814   1.4947   1.5013   1.5064   1.5302   1.5495   1.5719   1.5738
     1.5765   1.5935   1.6107   1.6561   1.7034   1.7082   1.7113   1.7133
     1.7278   1.7494   1.7858   1.8252   1.9569   1.9795   2.0077   2.0240
     2.0368   2.0408   2.0611   2.1506   2.2075   2.2185   2.5089   2.5114
     2.5156   2.5212   2.9235   2.9242   2.9611   3.1403   3.1412   3.1663
     3.1668   3.1852   3.2411   3.3126   3.4257   3.4679   3.5303   3.5526
     3.5685   3.5864   3.6330   3.6556   3.6694   3.6767   3.7043   3.8139
     3.8277   3.9013   3.9301   3.9780   4.1440   4.1593   4.1767   4.2219
     4.2363   4.4278   4.6041   4.7171   4.7578   4.7842   4.8865   5.1311
     5.1696   5.1716   5.1812   5.3000   5.3247   5.4130   5.4272   5.4517
     5.5066   5.5402   5.5593   5.6003   5.6533   5.6670   5.6872   5.7005
     5.7699   5.7960   5.8299   5.9566   5.9588   5.9695   6.0026   6.3533
     6.4717   6.6414   6.6536   6.6704   6.6898   6.7048   6.7681   6.8513
     6.9325   6.9663   6.9924   7.0054   7.0097   7.0242   7.1837   7.2139
     7.2532   7.2868   7.3905   7.4868   7.5029   7.5114   7.5297   7.7262
     7.7443   7.7657   7.8305   7.8934   7.9624   7.9724   8.0179   8.0329
     8.1889   8.2212   8.2653   8.2665   8.2965   8.3071   8.3654   8.3797
     8.4113   8.4688   8.5133   8.5949   8.5996   8.8972   8.9091   8.9869
     9.0067   9.0427   9.0919   9.1289   9.1445   9.1617   9.1748   9.2006
     9.2180   9.2343   9.2884   9.3718   9.3969   9.4046   9.4159   9.4334
     9.5865   9.6591   9.6753   9.6939   9.7652   9.8538   9.8731   9.8984
     9.9197   9.9272   9.9655

          k = 0.2500-0.2165 0.0000 (256316 PWs)   bands (ev):

   -19.1937 -17.0596 -16.1692 -15.8868 -15.5203 -15.3470 -15.1605 -14.7166
   -14.4594 -14.2056 -14.0202 -13.6449 -13.3061 -13.2290 -13.0158 -12.7966
   -12.5725 -12.0595 -11.8827 -11.5130 -11.4437 -11.2921 -11.1499 -10.7995
   -10.6130  -9.8977  -9.7519  -9.4209  -9.3074  -9.1377  -9.0613  -8.7095
    -8.6299  -8.5241  -8.4258  -7.3360  -7.0543  -6.9099  -6.7414  -6.6409
    -6.5638  -6.5065  -6.3835  -6.1439  -6.0911  -5.7622  -5.7577  -5.5216
    -5.3534  -5.1899  -5.1275  -5.0226  -4.8491  -4.7315  -4.7258  -4.6121
    -4.5633  -4.5372  -4.4058  -4.4003  -4.3565  -4.3085  -4.2618  -4.2221
    -4.0856  -3.9793  -3.9306  -3.8539  -3.7959  -3.6644  -3.6238  -3.5700
    -3.5139  -3.5099  -3.4694  -3.4319  -3.3983  -3.3553  -3.2929  -3.2388
    -3.1719  -3.1079  -3.0178  -2.9871  -2.9691  -2.9620  -2.9598  -2.9185
    -2.8710  -2.7769  -2.7319  -2.6772  -2.6020  -2.4229  -2.3690  -2.3672
    -2.3504  -2.2637  -2.2325  -2.2239  -2.2204  -2.2200  -2.1891  -2.1397
    -2.0631  -2.0615  -2.0556  -2.0191  -2.0117  -1.9768  -1.9382  -1.8924
    -1.8771  -1.8649  -1.8645  -1.8435  -1.8036  -1.8011  -1.7775  -1.7727
    -1.7629  -1.7600  -1.7507  -1.7334  -1.7294  -1.7290  -1.7283  -1.7243
    -1.7194  -1.7183  -1.6359  -1.6316  -1.5381  -1.5212  -1.5104  -1.4276
    -1.4209  -1.4159  -1.3876  -1.3819  -1.3808  -1.3296  -1.3287  -1.3148
    -1.3145  -1.3046  -1.3020  -1.3004  -1.2948  -1.2885  -1.2773  -1.2753
    -1.2684  -1.2668  -1.2623  -1.2557  -1.2521  -1.2445  -1.2420  -1.2359
    -1.2247  -1.2053  -1.1842  -1.1807  -1.1783  -1.1747  -1.1670  -1.1655
    -1.1625  -1.1356  -1.1318  -1.1114  -1.0982  -1.0915  -1.0904  -1.0864
    -1.0779  -1.0749  -1.0504  -1.0479  -1.0464  -1.0279  -1.0250  -1.0136
    -1.0131  -1.0084  -1.0079  -1.0039  -0.9997  -0.9798  -0.9766  -0.9751
    -0.9539  -0.9516  -0.9229  -0.9169  -0.9142  -0.9137  -0.8879  -0.8327
    -0.8317  -0.8288  -0.8273  -0.8230  -0.8223  -0.8187  -0.7767  -0.7735
    -0.7657  -0.7646  -0.7618  -0.7576  -0.7569  -0.7472  -0.7449  -0.7066
    -0.7054  -0.6736  -0.6672  -0.6635  -0.6334  -0.6200  -0.6171  -0.6158
    -0.6151  -0.5932  -0.5865  -0.5848  -0.5761  -0.5701  -0.5622  -0.5539
    -0.5528  -0.5409  -0.5386  -0.5319  -0.5143  -0.5088  -0.4977  -0.4922
    -0.4908  -0.4832  -0.4633  -0.4603  -0.4594  -0.4467  -0.4459  -0.4329
    -0.4315  -0.4198  -0.4190  -0.4149  -0.4146  -0.4111  -0.4093  -0.4040
    -0.4029  -0.3877  -0.3840  -0.3750  -0.3692  -0.3684  -0.3435  -0.3362
    -0.3286  -0.3236  -0.3099  -0.3042  -0.2918  -0.2915  -0.2893  -0.2750
    -0.2706  -0.2690  -0.2658  -0.2623  -0.2510  -0.2290  -0.2186  -0.2057
    -0.2052  -0.1690  -0.1682  -0.1603  -0.1600  -0.1572  -0.1560  -0.1395
    -0.1390  -0.1347  -0.1213  -0.1208  -0.1128  -0.1054  -0.1025  -0.0982
    -0.0954  -0.0933  -0.0924  -0.0909  -0.0736  -0.0675  -0.0642  -0.0588
    -0.0555  -0.0545  -0.0536  -0.0533  -0.0505  -0.0503  -0.0452  -0.0422
    -0.0331  -0.0213  -0.0206  -0.0201  -0.0195   0.0128   0.0136   0.0208
     0.0222   0.0255   0.0273   0.0435   0.0474   0.0527   0.0722   0.0796
     0.0804   0.0860   0.0912   0.0976   0.1002   0.1014   0.1044   0.1067
     0.1156   0.1192   0.1248   0.1281   0.1514   0.1549   0.2133   0.2162
     0.2272   0.2275   0.2291   0.2309   0.2328   0.2342   0.2361   0.2408
     0.2414   0.2427   0.2586   0.2613   0.2672   0.2681   0.2705   0.2737
     0.2794   0.2806   0.2841   0.2856   0.3118   0.3177   0.3209   0.3278
     0.3296   0.3410   0.3442   0.3518   0.3561   0.3877   0.3912   0.3978
     0.3990   0.4017   0.4054   0.4058   0.4170   0.4177   0.4211   0.4266
     0.4274   0.4287   0.4308   0.4322   0.4490   0.4603   0.4615   0.4674
     0.4719   0.4826   0.4834   0.5143   0.5149   0.5157   0.5161   0.5391
     0.5465   0.5482   0.5518   0.5539   0.5555   0.5569   0.5618   0.5645
     0.5712   0.5724   0.5745   0.5788   0.5813   0.5931   0.5954   0.5993
     0.6060   0.6094   0.6157   0.6167   0.6196   0.6200   0.6222   0.6304
     0.6316   0.6355   0.6374   0.6403   0.6502   0.6523   0.6588   0.6598
     0.6643   0.6647   0.6659   0.6672   0.6691   0.6711   0.7012   0.7043
     0.7132   0.7167   0.7238   0.7339   0.7417   0.7552   0.7635   0.7711
     0.7716   0.7732   0.7736   0.7782   0.7784   0.7958   0.8014   0.8020
     0.8025   0.8032   0.8044   0.8054   0.8123   0.8231   0.8314   0.8322
     0.8366   0.8432   0.8460   0.8520   0.8547   0.8765   0.8774   0.8797
     0.8982   0.9025   0.9068   0.9096   0.9123   0.9129   0.9140   0.9173
     0.9224   0.9247   0.9452   0.9497   0.9519   0.9607   0.9666   0.9681
     0.9807   0.9855   0.9895   0.9993   1.0115   1.0234   1.0278   1.0287
     1.0347   1.0365   1.0379   1.0385   1.0396   1.0402   1.0425   1.0436
     1.0451   1.0536   1.0541   1.0605   1.0650   1.0672   1.0705   1.0843
     1.0870   1.1081   1.1125   1.1141   1.1181   1.1212   1.1239   1.1241
     1.1266   1.1304   1.1346   1.1355   1.1389   1.1397   1.1441   1.1481
     1.1504   1.1518   1.1548   1.1595   1.1661   1.1694   1.1708   1.1721
     1.1728   1.1742   1.1776   1.1860   1.1899   1.1932   1.1938   1.2166
     1.2185   1.2261   1.2265   1.2350   1.2407   1.2428   1.2463   1.2506
     1.2586   1.2591   1.2686   1.2728   1.2764   1.2799   1.2804   1.2820
     1.2844   1.2906   1.2954   1.2962   1.2970   1.3069   1.3084   1.3147
     1.3220   1.3270   1.3294   1.3303   1.3312   1.3327   1.3338   1.3406
     1.3412   1.3479   1.3519   1.3523   1.3579   1.3600   1.3647   1.3707
     1.3750   1.3825   1.3836   1.3860   1.3864   1.3904   1.3915   1.3919
     1.3927   1.3967   1.4018   1.4020   1.4102   1.4268   1.4269   1.4331
     1.4367   1.4459   1.4496   1.4576   1.4683   1.4736   1.4756   1.4846
     1.4978   1.4989   1.5055   1.5063   1.5281   1.5332   1.5616   1.5912
     1.6141   1.6171   1.6312   1.6870   1.7036   1.7097   1.7215   1.7275
     1.7378   1.7383   1.7420   1.7480   1.7940   1.8033   1.9709   2.0731
     2.0793   2.1063   2.1156   2.2367   2.2437   2.5303   2.5322   2.7145
     2.7325   2.7374   2.7394   2.7496   2.7532   2.7858   2.7925   2.9302
     2.9312   3.0161   3.0382   3.2931   3.4870   3.4983   3.5594   3.5806
     3.6371   3.6699   3.7730   3.7899   3.7938   3.7989   3.9004   3.9485
     3.9863   4.0173   4.0858   4.1121   4.1538   4.3223   4.3267   4.3842
     4.5036   4.5072   4.5805   4.6162   4.6314   4.6945   4.8739   4.8927
     4.8978   4.9792   5.0093   5.0479   5.1203   5.2326   5.2488   5.3551
     5.3872   5.4033   5.4065   5.4099   5.4543   5.6584   5.7088   5.7292
     5.8314   5.8556   5.8891   5.9225   5.9817   6.4632   6.5375   6.5506
     6.5906   6.6086   6.7009   6.7137   6.7917   6.8313   6.8741   7.0090
     7.0285   7.0398   7.0516   7.0607   7.0837   7.1600   7.1687   7.2670
     7.2772   7.2864   7.2943   7.3371   7.3759   7.3925   7.4170   7.6035
     7.6312   7.7404   7.7553   7.8872   7.9168   7.9576   8.0255   8.1122
     8.1419   8.1650   8.2072   8.2129   8.3792   8.5408   8.5443   8.5959
     8.6014   8.6147   8.6310   8.6639   8.6668   8.8079   8.8779   8.8967
     8.9019   8.9354   8.9606   9.0656   9.0915   9.1089   9.1199   9.1357
     9.1529   9.1707   9.2103   9.2176   9.2318   9.2818   9.3044   9.3129
     9.3687   9.3971   9.4131   9.5279   9.5961   9.6464   9.6641   9.8583
     9.9085   9.9388   9.9757

          k =-0.5000 0.0000 0.0000 (256496 PWs)   bands (ev):

   -19.1908 -16.9979 -16.0313 -15.7865 -15.6516 -15.6029 -15.3850 -14.7679
   -14.5457 -14.5385 -14.1250 -13.1010 -12.9280 -12.8051 -12.7278 -12.4705
   -12.2003 -11.9591 -11.9301 -11.8477 -11.6579 -11.2572 -11.2078 -10.8733
   -10.7063 -10.3522 -10.1928 -10.0408  -9.7922  -9.1929  -9.1382  -8.9853
    -8.9567  -7.7901  -7.6971  -7.6174  -7.4888  -7.4065  -7.3793  -6.3934
    -6.2593  -5.9009  -5.4217  -5.3681  -5.3618  -5.2730  -5.0718  -5.0116
    -4.9619  -4.9032  -4.8743  -4.8577  -4.8517  -4.8473  -4.8288  -4.7843
    -4.7507  -4.7233  -4.6580  -4.5962  -4.5084  -4.4732  -4.4382  -4.3321
    -4.1200  -4.0724  -4.0229  -4.0141  -3.9857  -3.8158  -3.7393  -3.6925
    -3.6807  -3.6261  -3.6047  -3.5323  -3.4751  -3.4729  -3.4713  -3.4678
    -3.4488  -3.4217  -3.4093  -3.1987  -3.1730  -2.9740  -2.8953  -2.8732
    -2.8189  -2.8130  -2.7771  -2.6719  -2.6562  -2.6186  -2.5302  -2.4937
    -2.4720  -2.3601  -2.3544  -2.3491  -2.3476  -2.1399  -2.0407  -1.9315
    -1.9313  -1.9303  -1.9299  -1.9293  -1.9267  -1.8726  -1.8237  -1.8137
    -1.8007  -1.7893  -1.7594  -1.7030  -1.7027  -1.7022  -1.7010  -1.6552
    -1.6544  -1.6524  -1.6518  -1.6020  -1.5612  -1.5526  -1.5400  -1.5394
    -1.5392  -1.4921  -1.4795  -1.4786  -1.4766  -1.4756  -1.4591  -1.4575
    -1.4107  -1.4092  -1.4063  -1.4056  -1.4035  -1.3944  -1.3931  -1.3905
    -1.3887  -1.3825  -1.3454  -1.3436  -1.3428  -1.3412  -1.3219  -1.3201
    -1.3200  -1.3184  -1.2715  -1.2564  -1.2557  -1.2361  -1.2349  -1.2335
    -1.2327  -1.2151  -1.2074  -1.2069  -1.2035  -1.2030  -1.2000  -1.1964
    -1.1616  -1.1597  -1.1589  -1.1584  -1.1570  -1.1384  -1.1368  -1.1080
    -1.1070  -1.0743  -1.0623  -1.0608  -1.0490  -1.0336  -1.0332  -1.0309
    -1.0304  -1.0060  -1.0041  -1.0031  -1.0010  -0.9980  -0.9967  -0.9895
    -0.9841  -0.9823  -0.9813  -0.9805  -0.9569  -0.9537  -0.9363  -0.8933
    -0.8918  -0.8916  -0.8901  -0.8473  -0.8461  -0.7646  -0.7638  -0.7635
    -0.7627  -0.7508  -0.7435  -0.7268  -0.7257  -0.7250  -0.7241  -0.7229
    -0.7166  -0.7121  -0.6899  -0.6846  -0.6835  -0.6801  -0.6749  -0.6685
    -0.6657  -0.6529  -0.6519  -0.6473  -0.6237  -0.5728  -0.5705  -0.5637
    -0.5465  -0.5265  -0.5231  -0.5089  -0.5083  -0.5062  -0.4829  -0.4691
    -0.4665  -0.4641  -0.4592  -0.4574  -0.4567  -0.4548  -0.4468  -0.4226
    -0.4204  -0.4196  -0.4189  -0.4165  -0.3824  -0.3820  -0.3804  -0.3799
    -0.3626  -0.3479  -0.3475  -0.3472  -0.3462  -0.3363  -0.3355  -0.3156
    -0.3029  -0.3026  -0.3014  -0.3007  -0.2994  -0.2930  -0.2744  -0.2681
    -0.2597  -0.2529  -0.2416  -0.1888  -0.1875  -0.1866  -0.1861  -0.1815
    -0.1806  -0.1798  -0.1775  -0.1428  -0.1407  -0.1401  -0.1365  -0.1055
    -0.1044  -0.0879  -0.0776  -0.0765  -0.0756  -0.0753  -0.0740  -0.0733
    -0.0724  -0.0715  -0.0713  -0.0710  -0.0697  -0.0641  -0.0056   0.0033
     0.0085   0.0096   0.0118   0.0171   0.0185   0.0204   0.0216   0.0230
     0.0249   0.0273   0.0282   0.0311   0.0328   0.0340   0.0355   0.0390
     0.0495   0.0507   0.0509   0.0645   0.0656   0.0659   0.0662   0.0664
     0.0671   0.0756   0.0760   0.0764   0.0772   0.0883   0.0902   0.0967
     0.1015   0.1022   0.1025   0.1046   0.1186   0.1270   0.1316   0.1341
     0.1927   0.2323   0.2335   0.2351   0.2365   0.2655   0.2667   0.2679
     0.2683   0.2799   0.2809   0.2825   0.2865   0.2892   0.2909   0.2916
     0.2940   0.2958   0.2971   0.2998   0.3003   0.3019   0.3034   0.3084
     0.3160   0.3174   0.3184   0.3218   0.3295   0.3363   0.3367   0.3446
     0.3451   0.3495   0.3507   0.3627   0.3782   0.4325   0.4367   0.4404
     0.4409   0.4480   0.4519   0.4666   0.4692   0.4705   0.4733   0.4747
     0.4747   0.4771   0.4776   0.4812   0.4820   0.4831   0.4854   0.4859
     0.4869   0.4910   0.4914   0.4927   0.4950   0.5014   0.5090   0.5220
     0.5320   0.5325   0.5411   0.5454   0.5532   0.5637   0.5646   0.5676
     0.5698   0.5776   0.5783   0.5787   0.5810   0.5818   0.5831   0.5891
     0.5950   0.5991   0.6001   0.6140   0.6152   0.6159   0.6168   0.6493
     0.6532   0.6535   0.6551   0.6571   0.6593   0.6663   0.6731   0.6767
     0.6886   0.7081   0.7086   0.7119   0.7144   0.7158   0.7167   0.7187
     0.7452   0.7551   0.7834   0.7840   0.7851   0.7883   0.7887   0.7896
     0.7912   0.7941   0.7971   0.8000   0.8014   0.8066   0.8113   0.8147
     0.8152   0.8325   0.8331   0.8354   0.8360   0.8520   0.8528   0.8541
     0.8544   0.8548   0.8558   0.8646   0.8659   0.8935   0.8954   0.8959
     0.8980   0.9198   0.9597   0.9599   0.9609   0.9626   0.9658   0.9833
     0.9923   0.9940   0.9948   0.9971   1.0088   1.0146   1.0181   1.0247
     1.0253   1.0290   1.0321   1.0397   1.0531   1.0635   1.0644   1.0648
     1.0655   1.0664   1.0719   1.0732   1.0734   1.0762   1.0811   1.0833
     1.0838   1.0844   1.0846   1.0854   1.0868   1.0892   1.1101   1.1227
     1.1244   1.1249   1.1269   1.1316   1.1450   1.1550   1.1604   1.1608
     1.1626   1.1648   1.1715   1.1781   1.1794   1.1840   1.1891   1.1895
     1.1901   1.1916   1.1993   1.2003   1.2008   1.2038   1.2093   1.2116
     1.2235   1.2307   1.2462   1.2474   1.2530   1.2578   1.2627   1.2629
     1.2636   1.2642   1.2644   1.2661   1.2701   1.2740   1.2757   1.2773
     1.2777   1.2795   1.2799   1.2806   1.2841   1.2892   1.2897   1.2903
     1.2908   1.2930   1.2964   1.2980   1.3119   1.3133   1.3285   1.3332
     1.3362   1.3370   1.3382   1.3398   1.3406   1.3416   1.3473   1.3573
     1.3622   1.3629   1.3633   1.3763   1.3771   1.3812   1.3854   1.3949
     1.3973   1.3975   1.3987   1.4033   1.4171   1.4177   1.4205   1.4219
     1.4255   1.4259   1.4270   1.4272   1.4313   1.4389   1.4464   1.4478
     1.4606   1.4611   1.4617   1.4618   1.4625   1.4711   1.4760   1.4763
     1.5177   1.5238   1.5309   1.5537   1.5553   1.5584   1.5601   1.5757
     1.7098   1.9757   1.9820   1.9856   1.9892   2.1778   2.1920   2.2038
     2.2131   2.2317   2.2322   2.2395   2.2408   2.5476   2.5762   2.5772
     2.5841   2.7690   2.7765   2.7815   2.7851   3.1293   3.1325   3.1341
     3.1349   3.3317   3.4211   3.4549   3.6970   3.7162   3.7209   3.7312
     3.8426   3.8732   3.8777   3.8923   3.9954   4.0180   4.0221   4.0238
     4.1528   4.1561   4.2523   4.3622   4.4931   4.6456   4.7049   4.7174
     4.7272   4.7377   4.7722   4.7751   4.7763   4.8378   4.9225   4.9663
     4.9675   4.9941   4.9991   4.9997   5.0048   5.0249   5.0262   5.0509
     5.0689   5.1077   5.3024   5.3803   5.4363   5.4921   5.5578   5.6141
     5.6502   5.6845   5.8202   5.9376   5.9395   5.9527   5.9581   5.9827
     5.9990   6.0055   6.0284   6.1187   6.3901   6.4013   6.4141   6.4211
     6.4317   6.4376   6.7892   7.0399   7.0531   7.0651   7.0723   7.0851
     7.0944   7.4970   7.5436   7.5494   7.5509   7.5554   7.5566   7.5730
     7.5926   7.7541   7.7652   7.8080   7.8368   7.8468   7.8482   7.9414
     8.0009   8.0136   8.0240   8.0611   8.0934   8.1112   8.1210   8.3050
     8.3299   8.4650   8.7659   8.7742   8.7844   8.7880   8.7905   8.7980
     8.8381   8.9871   9.0003   9.0081   9.0282   9.0369   9.0414   9.1035
     9.1813   9.2103   9.2214   9.3841   9.4604   9.4792   9.4832   9.4853
     9.4915   9.4991   9.5118   9.5141   9.5160   9.5283   9.5738   9.8774
     9.9149   9.9244   9.9720

          k =-0.5000-0.2165 0.0000 (256328 PWs)   bands (ev):

   -19.1908 -16.9980 -15.9975 -15.8431 -15.7740 -15.3987 -15.1855 -15.1635
   -14.8007 -13.9429 -13.7538 -13.7339 -13.4936 -12.7098 -12.4143 -12.0488
   -12.0411 -11.8381 -11.7312 -11.6603 -11.6085 -11.5879 -11.5329 -11.4631
   -11.0389 -10.0735  -9.9612  -9.7711  -9.7540  -9.1939  -8.8961  -8.8263
    -8.7867  -8.3154  -8.2492  -8.0494  -8.0341  -6.5771  -6.4039  -6.2378
    -5.9930  -5.9268  -5.6789  -5.4602  -5.3959  -5.3604  -5.2979  -5.2444
    -5.2344  -5.2321  -5.2315  -5.1060  -5.0623  -4.8805  -4.5924  -4.5233
    -4.4934  -4.4009  -4.3866  -4.3598  -4.2935  -4.2608  -4.2510  -4.2494
    -4.2468  -4.2067  -4.1040  -4.0100  -3.9703  -3.9350  -3.9140  -3.8861
    -3.8284  -3.7859  -3.7508  -3.6723  -3.6401  -3.5946  -3.5226  -3.5140
    -3.4350  -3.2217  -3.1452  -3.1132  -3.0704  -2.8583  -2.6888  -2.6405
    -2.6317  -2.6308  -2.6302  -2.6117  -2.5935  -2.5764  -2.5706  -2.5602
    -2.5181  -2.4254  -2.2731  -2.1841  -2.1627  -2.1509  -2.1457  -2.1264
    -2.1025  -2.0702  -2.0654  -2.0632  -2.0613  -2.0056  -1.8906  -1.8567
    -1.8554  -1.8536  -1.8488  -1.7979  -1.7871  -1.6925  -1.6223  -1.5720
    -1.5571  -1.5457  -1.5455  -1.5448  -1.5446  -1.5224  -1.5071  -1.5057
    -1.5050  -1.4869  -1.4857  -1.4843  -1.4843  -1.4685  -1.4380  -1.4374
    -1.4368  -1.4359  -1.4354  -1.4345  -1.4319  -1.4279  -1.4106  -1.4103
    -1.4096  -1.4092  -1.3619  -1.3595  -1.3592  -1.3562  -1.3317  -1.2889
    -1.2866  -1.2821  -1.2778  -1.2432  -1.2425  -1.2421  -1.2418  -1.2274
    -1.2246  -1.2236  -1.2214  -1.1863  -1.1766  -1.1729  -1.1724  -1.1715
    -1.1680  -1.1675  -1.1672  -1.1661  -1.1624  -1.1499  -1.1398  -1.1209
    -1.1115  -1.1111  -1.1070  -1.1047  -1.0945  -1.0942  -1.0913  -1.0904
    -1.0898  -1.0888  -1.0884  -1.0875  -1.0868  -1.0677  -0.9366  -0.9356
    -0.9350  -0.9323  -0.9050  -0.9047  -0.9044  -0.9039  -0.8554  -0.8242
    -0.8239  -0.8218  -0.8207  -0.8192  -0.8168  -0.8150  -0.8142  -0.8137
    -0.8131  -0.8104  -0.7556  -0.7522  -0.7518  -0.7509  -0.7427  -0.7425
    -0.7410  -0.7407  -0.7240  -0.7209  -0.7183  -0.7147  -0.6814  -0.6314
    -0.6276  -0.6237  -0.6212  -0.6209  -0.6195  -0.6105  -0.5528  -0.5509
    -0.5508  -0.5496  -0.5378  -0.5021  -0.5006  -0.5000  -0.4966  -0.4807
    -0.4806  -0.4797  -0.4787  -0.4613  -0.4538  -0.4484  -0.4420  -0.4412
    -0.4406  -0.4396  -0.4356  -0.4073  -0.4050  -0.4015  -0.3650  -0.3272
    -0.3268  -0.3239  -0.3231  -0.3096  -0.3090  -0.3086  -0.3082  -0.2969
    -0.2926  -0.2917  -0.2879  -0.2785  -0.2109  -0.2097  -0.2090  -0.2062
    -0.2056  -0.2050  -0.2035  -0.2032  -0.2017  -0.2003  -0.1983  -0.1884
    -0.1640  -0.1638  -0.1638  -0.1630  -0.1519  -0.1516  -0.1511  -0.1508
    -0.1475  -0.1473  -0.1458  -0.1451  -0.0791  -0.0787  -0.0778  -0.0763
    -0.0540  -0.0524  -0.0515  -0.0493  -0.0080  -0.0073  -0.0006   0.0026
     0.0071   0.0222   0.0245   0.0283   0.0288   0.0300   0.0307   0.0346
     0.0371   0.0380   0.0393   0.0405   0.0415   0.0438   0.0480   0.0486
     0.0497   0.0515   0.0550   0.0551   0.0561   0.0564   0.0637   0.0711
     0.0717   0.0730   0.0744   0.0997   0.0997   0.0998   0.1001   0.1084
     0.1092   0.1107   0.1119   0.1578   0.1588   0.1590   0.1598   0.1688
     0.1909   0.1916   0.1927   0.1943   0.2252   0.2481   0.2621   0.2713
     0.2718   0.2738   0.2765   0.2773   0.2840   0.2881   0.2917   0.2930
     0.2943   0.2974   0.3053   0.3062   0.3080   0.3103   0.3133   0.3143
     0.3160   0.3161   0.3181   0.3186   0.3210   0.3269   0.3323   0.3346
     0.3436   0.3909   0.3939   0.3977   0.4009   0.4030   0.4048   0.4050
     0.4071   0.4178   0.4181   0.4183   0.4188   0.4455   0.4516   0.4559
     0.4565   0.4572   0.4585   0.4617   0.4630   0.4804   0.4929   0.4999
     0.5007   0.5020   0.5037   0.5057   0.5147   0.5150   0.5163   0.5170
     0.5177   0.5229   0.5233   0.5242   0.5262   0.5362   0.5373   0.5382
     0.5408   0.5437   0.5495   0.5547   0.5567   0.5975   0.6062   0.6182
     0.6247   0.6270   0.6288   0.6297   0.6309   0.6314   0.6321   0.6336
     0.6373   0.6405   0.6437   0.6461   0.6580   0.6762   0.6770   0.6773
     0.6778   0.6779   0.6788   0.6794   0.6814   0.6946   0.7202   0.7277
     0.7303   0.7319   0.7479   0.7589   0.7598   0.7606   0.7616   0.7642
     0.7700   0.7957   0.7962   0.7964   0.7979   0.8179   0.8213   0.8221
     0.8230   0.8708   0.8723   0.8732   0.8740   0.8754   0.8852   0.9059
     0.9070   0.9077   0.9131   0.9426   0.9510   0.9584   0.9597   0.9615
     0.9651   0.9750   0.9780   0.9831   0.9866   0.9869   0.9892   0.9922
     0.9924   0.9927   0.9929   0.9942   0.9961   0.9971   0.9977   0.9996
     1.0079   1.0181   1.0213   1.0238   1.0265   1.0274   1.0287   1.0299
     1.0321   1.0337   1.0438   1.0454   1.0465   1.0551   1.0613   1.0676
     1.0709   1.0720   1.0745   1.0771   1.0792   1.0849   1.0898   1.0920
     1.0929   1.1008   1.1304   1.1319   1.1400   1.1430   1.1435   1.1454
     1.1476   1.1561   1.1648   1.1689   1.1700   1.1704   1.1719   1.1822
     1.1845   1.1880   1.1908   1.1941   1.2029   1.2089   1.2164   1.2179
     1.2189   1.2195   1.2256   1.2277   1.2293   1.2298   1.2335   1.2339
     1.2349   1.2362   1.2727   1.2929   1.2980   1.3004   1.3011   1.3020
     1.3020   1.3022   1.3029   1.3034   1.3101   1.3119   1.3160   1.3165
     1.3210   1.3223   1.3258   1.3280   1.3307   1.3320   1.3323   1.3348
     1.3375   1.3416   1.3420   1.3426   1.3435   1.3448   1.3451   1.3522
     1.3553   1.3613   1.3629   1.3645   1.3648   1.3651   1.3960   1.3971
     1.3978   1.3981   1.4051   1.4096   1.4123   1.4137   1.4153   1.4231
     1.4266   1.4300   1.4416   1.4468   1.4490   1.4504   1.4732   1.4915
     1.5023   1.5088   1.5202   1.5208   1.5220   1.5222   1.5418   1.5489
     1.5509   1.5531   1.5565   1.5592   1.5620   1.5633   1.5643   1.5650
     1.5659   1.5671   1.7136   1.7808   1.7836   1.7848   1.7943   2.2765
     2.3003   2.3008   2.3058   2.5032   2.5065   2.5076   2.5138   2.7233
     2.7422   2.7496   2.7506   3.0093   3.0415   3.0519   3.0556   3.3540
     3.3990   3.4008   3.4011   3.4362   3.5847   3.5912   3.5940   3.6153
     3.8662   3.8767   3.8776   3.8814   4.0935   4.1733   4.1750   4.1805
     4.2154   4.2859   4.3032   4.3132   4.3294   4.5128   4.5172   4.5206
     4.5222   4.5451   4.5700   4.6264   4.6675   4.8368   4.8722   4.9225
     4.9706   5.0123   5.0492   5.1176   5.1214   5.1254   5.1438   5.1577
     5.2133   5.2254   5.2682   5.3063   5.3193   5.3253   5.3646   5.3917
     5.6555   5.6899   5.6982   5.6992   5.7022   5.7093   5.8126   5.8541
     5.8640   5.8654   6.0985   6.7109   6.7205   6.7424   6.7467   6.9391
     7.0687   7.0761   7.0814   7.0892   7.1056   7.1133   7.1146   7.1673
     7.2387   7.2547   7.2593   7.2911   7.3154   7.3198   7.3227   7.3514
     7.5499   7.5881   7.5941   7.6323   7.8441   7.9199   7.9386   7.9511
     7.9566   7.9770   8.1038   8.1760   8.1861   8.2018   8.2466   8.3841
     8.3947   8.5021   8.6031   8.8218   8.8432   8.8446   8.8461   8.8687
     8.8800   8.8829   8.8925   8.9066   8.9167   8.9183   8.9198   9.0912
     9.1268   9.1288   9.1426   9.1702   9.4168   9.4374   9.4602   9.4864
     9.4878   9.5116   9.5251   9.5490   9.5519   9.5567   9.5911   9.8157
    10.0116  10.0173  10.0617

     the Fermi energy is     3.2699 ev

!    total energy              =  -12738.83094067 Ry
     Harris-Foulkes estimate   =  -12738.83094069 Ry
     estimated scf accuracy    <          8.3E-09 Ry

     The total energy is the sum of the following terms:

     one-electron contribution = -109179.40697501 Ry
     hartree contribution      =   55951.93757078 Ry
     xc contribution           =   -4454.79722657 Ry
     ewald contribution        =   44949.80283567 Ry
     Dispersion Correction     =      -3.00103089 Ry
     smearing contrib. (-TS)   =      -3.36611465 Ry

     convergence has been achieved in  50 iterations

     Writing output data file gc.save
 
     init_run     :     99.71s CPU    106.66s WALL (       1 calls)
     electrons    :  13402.73s CPU  14324.27s WALL (       1 calls)

     Called by init_run:
     wfcinit      :     97.24s CPU    103.86s WALL (       1 calls)
     potinit      :      0.46s CPU      0.47s WALL (       1 calls)

     Called by electrons:
     c_bands      :  12284.20s CPU  13095.00s WALL (      50 calls)
     sum_band     :    932.90s CPU   1013.84s WALL (      50 calls)
     v_of_rho     :      3.44s CPU      4.10s WALL (      51 calls)
     newd         :     10.03s CPU     16.89s WALL (      51 calls)
     mix_rho      :    172.03s CPU    194.11s WALL (      50 calls)

     Called by c_bands:
     init_us_2    :     42.26s CPU     42.83s WALL (     606 calls)
     cegterg      :  12098.70s CPU  12898.49s WALL (     306 calls)

     Called by sum_band:
     sum_band:bec :      6.06s CPU      6.73s WALL (     300 calls)
     addusdens    :      9.70s CPU     16.59s WALL (      50 calls)

     Called by *egterg:
     h_psi        :   4481.96s CPU   4837.94s WALL (    2102 calls)
     s_psi        :   1109.53s CPU   1121.47s WALL (    2102 calls)
     g_psi        :     11.03s CPU     11.04s WALL (    1790 calls)
     cdiaghg      :   3480.67s CPU   3614.62s WALL (    2090 calls)

     Called by h_psi:
     add_vuspsi   :   1114.86s CPU   1128.60s WALL (    2102 calls)

     General routines
     calbec       :   1558.91s CPU   1570.18s WALL (    2402 calls)
     fft          :      4.13s CPU      4.82s WALL (     662 calls)
     ffts         :    100.47s CPU    113.36s WALL (   26333 calls)
     fftw         :   2558.32s CPU   2848.16s WALL ( 1419988 calls)
     davcio       :      0.26s CPU      2.93s WALL (       6 calls)
 
     Parallel routines
     fft_scatter  :   1658.98s CPU   1817.42s WALL ( 1446983 calls)
 
     PWSCF        :     3h45m CPU        4h 0m WALL

 
   This run was terminated on:   8: 2:34  13Jan2017            

=------------------------------------------------------------------------------=
   JOB DONE.
=------------------------------------------------------------------------------=
