mpirun: INFO: switching to OpenMPI runtime version 1.10.2

     Program PWSCF v.5.4.0 starts on 12Sep2017 at 11:38:19 

     This program is part of the open-source Quantum ESPRESSO suite
     for quantum simulation of materials; please cite
         "P. Giannozzi et al., J. Phys.:Condens. Matter 21 395502 (2009);
          URL http://www.quantum-espresso.org", 
     in publications or presentations arising from this work. More details at
     http://www.quantum-espresso.org/quote

     Parallel version (MPI & OpenMP), running on      28 processor cores
     Number of MPI processes:                28
     Threads/MPI process:                     1
     R & G space division:  proc/nbgrp/npool/nimage =      28
     Waiting for input...
     Reading input from standard input

     Current dimensions of program PWSCF are:
     Max number of different atomic species (ntypx) = 10
     Max number of k-points (npk) =  40000
     Max angular momentum in pseudopotentials (lmaxx) =  3
     WARNING: atomic wfc #  2 for atom type 4 has zero norm
     WARNING: atomic wfc #  4 for atom type 4 has zero norm
     WARNING: atomic wfc #  5 for atom type 4 has zero norm

     -------------------------------------
     Parameters for Dispersion Correction:
     -------------------------------------
       atom      VdW radius       C_6     

        Cu         2.952        374.666
        C_h        2.744         60.710
        C          2.744         60.710
        O          2.536         24.284
        H          1.892          4.857

     Subspace diagonalization in iterative solution of the eigenvalue problem:
     one sub-group per band group will be used
     scalapack distributed-memory algorithm (size of sub-group:  3*  3 procs)

 
     Parallelization info
     --------------------
     sticks:   dense  smooth     PW     G-vecs:    dense   smooth      PW
     Min         408     408    108                73226    73226    9928
     Max         410     410    109                73231    73231    9931
     Sum       11433   11433   3039              2050409  2050409  278033
 


     bravais-lattice index     =            0
     lattice parameter (alat)  =      13.9425  a.u.
     unit-cell volume          =   21209.0878 (a.u.)^3
     number of atoms/cell      =          136
     number of atomic types    =            5
     number of electrons       =      1231.00
     number of Kohn-Sham states=          739
     kinetic-energy cutoff     =      80.0000  Ry
     charge density cutoff     =     320.0000  Ry
     convergence threshold     =      1.0E-08
     mixing beta               =       0.7000
     number of iterations used =            8  local-TF  mixing
     Exchange-correlation      =  SLA  PW   PBE  PBE ( 1  4  3  4 0 0)
     nstep                     =           50


     celldm(1)=  13.942539  celldm(2)=   0.000000  celldm(3)=   0.000000
     celldm(4)=   0.000000  celldm(5)=   0.000000  celldm(6)=   0.000000

     crystal axes: (cart. coord. in units of alat)
               a(1) = (   1.000000   0.000000   0.000000 )  
               a(2) = (   0.000000   2.309401   0.000000 )  
               a(3) = (   0.000000   0.000000   3.388418 )  

     reciprocal axes: (cart. coord. in units 2 pi/alat)
               b(1) = (  1.000000  0.000000  0.000000 )  
               b(2) = (  0.000000  0.433013  0.000000 )  
               b(3) = (  0.000000  0.000000  0.295123 )  


     PseudoPot. # 1 for Cu read from file:
     /home/549/hxw549/Short/pseudopotentials/Cu.pbe-n-van_ak.UPF
     MD5 check sum: 601f7c30f7467666bec936e0661ce3e1
     Pseudo is Ultrasoft + core correction, Zval = 11.0
     Generated by new atomic code, or converted to UPF format
     Using radial grid of  867 points,  6 beta functions with: 
                l(1) =   0
                l(2) =   0
                l(3) =   1
                l(4) =   1
                l(5) =   2
                l(6) =   2
     Q(r) pseudized with  8 coefficients,  rinner =    1.400   1.400   1.400
                                                       1.400   1.400

     PseudoPot. # 2 for C  read from file:
     /home/549/hxw549/Short/pseudopotentials/C.star1s-pbe-mt_gipaw.UPF
     MD5 check sum: ef0cb3dee31bd9e4ba2a832a2c716264
     Pseudo is Norm-conserving, Zval =  5.0
     Generated by new atomic code, or converted to UPF format
     Using radial grid of 1073 points,  1 beta functions with: 
                l(1) =   0

     PseudoPot. # 3 for C  read from file:
     /home/549/hxw549/Short/pseudopotentials/C.pbe-mt_gipaw.UPF
     MD5 check sum: 5ac2f21f2c440b14befe521540822c15
     Pseudo is Norm-conserving, Zval =  4.0
     Generated by new atomic code, or converted to UPF format
     Using radial grid of 1073 points,  1 beta functions with: 
                l(1) =   0

     PseudoPot. # 4 for O  read from file:
     /home/549/hxw549/Short/pseudopotentials/O.pbe-van_gipaw.UPF
     MD5 check sum: 5ce2a047509d4f331db576c963e74b29
     Pseudo is Ultrasoft, Zval =  6.0
     Generated by new atomic code, or converted to UPF format
     Using radial grid of 1095 points,  4 beta functions with: 
                l(1) =   0
                l(2) =   0
                l(3) =   1
                l(4) =   1
     Q(r) pseudized with 0 coefficients 


     PseudoPot. # 5 for H  read from file:
     /home/549/hxw549/Short/pseudopotentials/H.pbe-van_ak.UPF
     MD5 check sum: 077eb6d537518a38cb46c6de387227b7
     Pseudo is Ultrasoft, Zval =  1.0
     Generated by new atomic code, or converted to UPF format
     Using radial grid of  615 points,  1 beta functions with: 
                l(1) =   0
     Q(r) pseudized with  8 coefficients,  rinner =    0.800

     atomic species   valence    mass     pseudopotential
        Cu            11.00    63.54600     Cu( 1.00)
        C_h            5.00    12.01070     C ( 1.00)
        C              4.00    12.01070     C ( 1.00)
        O              6.00    15.99940     O ( 1.00)
        H              1.00     1.00783     H ( 1.00)

     No symmetry found



   Cartesian axes

     site n.     atom                  positions (alat units)
         1           Cu  tau(   1) = (   0.0000000  -0.0001124   1.0011868  )
         2           Cu  tau(   2) = (   0.2499898   0.2314890   1.0028858  )
         3           Cu  tau(   3) = (   0.5000000  -0.0001538   1.0011207  )
         4           Cu  tau(   4) = (   0.7500102   0.2314890   1.0028858  )
         5           Cu  tau(   5) = (   0.0000000   0.4622551   1.0053524  )
         6           Cu  tau(   6) = (   0.2500088   0.6924579   1.0058364  )
         7           Cu  tau(   7) = (   0.5000000   0.4622629   1.0051606  )
         8           Cu  tau(   8) = (   0.7499912   0.6924579   1.0058364  )
         9           Cu  tau(   9) = (   0.0000000   0.9231945   1.0037099  )
        10           Cu  tau(  10) = (   0.2501144   1.1547114   1.0017292  )
        11           Cu  tau(  11) = (   0.5000000   0.9229888   1.0040738  )
        12           Cu  tau(  12) = (   0.7498856   1.1547114   1.0017292  )
        13           Cu  tau(  13) = (   0.0000000   1.3863962   1.0012899  )
        14           Cu  tau(  14) = (   0.2500136   1.6173447   1.0021190  )
        15           Cu  tau(  15) = (   0.5000000   1.3867257   1.0015878  )
        16           Cu  tau(  16) = (   0.7499864   1.6173447   1.0021190  )
        17           Cu  tau(  17) = (   0.0000000   1.8473422   1.0020731  )
        18           Cu  tau(  18) = (   0.2500067   2.0777255   1.0012575  )
        19           Cu  tau(  19) = (   0.5000000   1.8472488   1.0019769  )
        20           Cu  tau(  20) = (   0.7499933   2.0777255   1.0012575  )
        21           Cu  tau(  21) = (   0.0000000   0.2290971   1.2510133  )
        22           Cu  tau(  22) = (   0.2500654  -0.0010279   1.2492517  )
        23           Cu  tau(  23) = (   0.5000000   0.2291363   1.2509787  )
        24           Cu  tau(  24) = (   0.7499346  -0.0010279   1.2492517  )
        25           Cu  tau(  25) = (   0.0000000   0.6932770   1.2534390  )
        26           Cu  tau(  26) = (   0.2500647   0.4607032   1.2532007  )
        27           Cu  tau(  27) = (   0.5000000   0.6927500   1.2537658  )
        28           Cu  tau(  28) = (   0.7499353   0.4607032   1.2532007  )
        29           Cu  tau(  29) = (   0.0000000   1.1559961   1.2495084  )
        30           Cu  tau(  30) = (   0.2500511   0.9251246   1.2516105  )
        31           Cu  tau(  31) = (   0.5000000   1.1560617   1.2496092  )
        32           Cu  tau(  32) = (   0.7499489   0.9251246   1.2516105  )
        33           Cu  tau(  33) = (   0.0000000   1.6169015   1.2499722  )
        34           Cu  tau(  34) = (   0.2500720   1.3863550   1.2492996  )
        35           Cu  tau(  35) = (   0.5000000   1.6173459   1.2506856  )
        36           Cu  tau(  36) = (   0.7499280   1.3863550   1.2492996  )
        37           Cu  tau(  37) = (   0.0000000   2.0785906   1.2492456  )
        38           Cu  tau(  38) = (   0.2500782   1.8481473   1.2503424  )
        39           Cu  tau(  39) = (   0.5000000   2.0786197   1.2492262  )
        40           Cu  tau(  40) = (   0.7499218   1.8481473   1.2503424  )
        41           Cu  tau(  41) = (   0.0000000  -0.0018773   1.5009156  )
        42           Cu  tau(  42) = (   0.2502427   0.2272264   1.5012140  )
        43           Cu  tau(  43) = (   0.5000000  -0.0019371   1.5013637  )
        44           Cu  tau(  44) = (   0.7497573   0.2272264   1.5012140  )
        45           Cu  tau(  45) = (   0.0000000   0.4594394   1.5003477  )
        46           Cu  tau(  46) = (   0.2502570   0.6942932   1.5009157  )
        47           Cu  tau(  47) = (   0.5000000   0.4586584   1.5016837  )
        48           Cu  tau(  48) = (   0.7497430   0.6942932   1.5009157  )
        49           Cu  tau(  49) = (   0.0000000   0.9268538   1.5010944  )
        50           Cu  tau(  50) = (   0.2498040   1.1568891   1.5005333  )
        51           Cu  tau(  51) = (   0.5000000   0.9268357   1.5007380  )
        52           Cu  tau(  52) = (   0.7501960   1.1568891   1.5005333  )
        53           Cu  tau(  53) = (   0.0000000   1.3863456   1.5003872  )
        54           Cu  tau(  54) = (   0.2501219   1.6169806   1.4997659  )
        55           Cu  tau(  55) = (   0.5000000   1.3861347   1.5004185  )
        56           Cu  tau(  56) = (   0.7498781   1.6169806   1.4997659  )
        57           Cu  tau(  57) = (   0.0000000   1.8484356   1.4996601  )
        58           Cu  tau(  58) = (   0.2501193   2.0791885   1.5009757  )
        59           Cu  tau(  59) = (   0.5000000   1.8497941   1.5008599  )
        60           Cu  tau(  60) = (   0.7498807   2.0791885   1.5009757  )
        61           Cu  tau(  61) = (   0.0000000   0.2272141   1.7507006  )
        62           Cu  tau(  62) = (   0.2502201  -0.0034017   1.7557585  )
        63           Cu  tau(  63) = (   0.5000000   0.2232551   1.7551867  )
        64           Cu  tau(  64) = (   0.7497799  -0.0034017   1.7557585  )
        65           Cu  tau(  65) = (   0.0000000   0.6930571   1.7454147  )
        66           Cu  tau(  66) = (   0.2511988   0.4604074   1.7460219  )
        67           Cu  tau(  67) = (   0.5000000   0.6943777   1.7466636  )
        68           Cu  tau(  68) = (   0.7488012   0.4604074   1.7460219  )
        69           Cu  tau(  69) = (   0.0000000   1.1589833   1.7543557  )
        70           Cu  tau(  70) = (   0.2498986   0.9284865   1.7514360  )
        71           Cu  tau(  71) = (   0.5000000   1.1581142   1.7531021  )
        72           Cu  tau(  72) = (   0.7501014   0.9284865   1.7514360  )
        73           Cu  tau(  73) = (   0.0000000   1.6180631   1.7507280  )
        74           Cu  tau(  74) = (   0.2497278   1.3878292   1.7524236  )
        75           Cu  tau(  75) = (   0.5000000   1.6185358   1.7501560  )
        76           Cu  tau(  76) = (   0.7502722   1.3878292   1.7524236  )
        77           Cu  tau(  77) = (   0.0000000   2.0767807   1.7530692  )
        78           Cu  tau(  78) = (   0.2506793   1.8476229   1.7502174  )
        79           Cu  tau(  79) = (   0.5000000   2.0808455   1.7577646  )
        80           Cu  tau(  80) = (   0.7493207   1.8476229   1.7502174  )
        81           Cu  tau(  81) = (   0.0000000  -0.0012284   2.0022710  )
        82           Cu  tau(  82) = (   0.2496273   0.2339959   1.9924918  )
        83           Cu  tau(  83) = (   0.5000000  -0.0044412   2.0226497  )
        84           Cu  tau(  84) = (   0.7503727   0.2339959   1.9924918  )
        85           Cu  tau(  85) = (   0.0000000   0.4635570   1.9910147  )
        86           Cu  tau(  86) = (   0.2506563   0.6918608   1.9912023  )
        87           Cu  tau(  87) = (   0.5000000   0.4630711   1.9929706  )
        88           Cu  tau(  88) = (   0.7493437   0.6918608   1.9912023  )
        89           Cu  tau(  89) = (   0.0000000   0.9209914   1.9923815  )
        90           Cu  tau(  90) = (   0.2486433   1.1594323   2.0034163  )
        91           Cu  tau(  91) = (   0.5000000   0.9237114   1.9939278  )
        92           Cu  tau(  92) = (   0.7513567   1.1594323   2.0034163  )
        93           Cu  tau(  93) = (   0.0000000   1.3927493   2.0020949  )
        94           Cu  tau(  94) = (   0.2515934   1.6194884   2.0009081  )
        95           Cu  tau(  95) = (   0.5000000   1.3906810   1.9975250  )
        96           Cu  tau(  96) = (   0.7484066   1.6194884   2.0009081  )
        97           Cu  tau(  97) = (   0.0000000   1.8437997   2.0030740  )
        98           Cu  tau(  98) = (   0.2472165   2.0727862   2.0006750  )
        99           Cu  tau(  99) = (   0.5000000   1.8474924   2.0031450  )
       100           Cu  tau( 100) = (   0.7527835   2.0727862   2.0006750  )
       101           C   tau( 101) = (   0.0000000   0.0909116   2.3757143  )
       102           C   tau( 102) = (   0.0000000   0.2860842   2.3844548  )
       103           C   tau( 103) = (   0.1667206  -0.0023221   2.3640252  )
       104           C   tau( 104) = (   0.1664100   0.3825093   2.3845947  )
       105           C   tau( 105) = (   0.3323314   0.0914664   2.3568410  )
       106           C   tau( 106) = (   0.3327992   0.2862247   2.3713917  )
       107           C   tau( 107) = (   0.5000000  -0.0021686   2.3289559  )
       108           C   tau( 108) = (   0.5000000   0.3827790   2.3739144  )
       109           C   tau( 109) = (   0.6676686   0.0914664   2.3568410  )
       110           C   tau( 110) = (   0.6672008   0.2862247   2.3713917  )
       111           C   tau( 111) = (   0.8332794  -0.0023221   2.3640252  )
       112           C   tau( 112) = (   0.8335900   0.3825093   2.3845947  )
       113           C   tau( 113) = (   0.0000000   0.6729687   2.3904796  )
       114           C   tau( 114) = (   0.0000000   0.8667256   2.3839038  )
       115           C   tau( 115) = (   0.1664436   0.5763749   2.3885814  )
       116           C   tau( 116) = (   0.1666136   0.9632494   2.3785655  )
       117           C   tau( 117) = (   0.3331423   0.6729953   2.3846639  )
       118           C   tau( 118) = (   0.3331577   0.8667554   2.3808818  )
       119           C   tau( 119) = (   0.5000000   0.5763623   2.3826941  )
       120           C   tau( 120) = (   0.5000000   0.9631968   2.3749681  )
       121           C   tau( 121) = (   0.6668577   0.6729953   2.3846639  )
       122           C   tau( 122) = (   0.6668423   0.8667554   2.3808818  )
       123           C   tau( 123) = (   0.8335564   0.5763749   2.3885814  )
       124           C   tau( 124) = (   0.8333864   0.9632494   2.3785655  )
       125           C   tau( 125) = (   0.0000000   1.2526117   2.3627777  )
       126           C   tau( 126) = (   0.1665410   1.1586079   2.3669448  )
       127           C   tau( 127) = (   0.3335017   1.2516977   2.3567510  )
       128           C   tau( 128) = (   0.5000000   1.1584676   2.3662578  )
       129           C   tau( 129) = (   0.6664983   1.2516977   2.3567510  )
       130           C   tau( 130) = (   0.8334590   1.1586079   2.3669448  )
       131           H   tau( 131) = (   0.1664277  -0.1503820   2.3577150  )
       132           H   tau( 132) = (   0.5000000  -0.1496242   2.3442672  )
       133           H   tau( 133) = (   0.8335723  -0.1503820   2.3577150  )
       134           H   tau( 134) = (   0.0000000   1.4008679   2.3643044  )
       135           O   tau( 135) = (   0.3334167   1.3998201   2.3514427  )
       136           H   tau( 136) = (   0.6665833   1.3998201   2.3514427  )

     number of k points=     6  gaussian smearing, width (Ry)=  0.1000
                       cart. coord. in units 2pi/alat
        k(    1) = (   0.0000000   0.0000000   0.0000000), wk =   0.2500000
        k(    2) = (   0.0000000  -0.2165064   0.0000000), wk =   0.2500000
        k(    3) = (   0.2500000   0.0000000   0.0000000), wk =   0.5000000
        k(    4) = (   0.2500000  -0.2165064   0.0000000), wk =   0.5000000
        k(    5) = (  -0.5000000   0.0000000   0.0000000), wk =   0.2500000
        k(    6) = (  -0.5000000  -0.2165064   0.0000000), wk =   0.2500000

     Dense  grid:  2050409 G-vectors     FFT dimensions: (  80, 192, 270)

     Largest allocated arrays     est. size (Mb)     dimensions
        Kohn-Sham Wavefunctions       103.41 Mb     (    9171,  739)
        NL pseudopotentials           257.91 Mb     (    9171, 1843)
        Each V/rho on FFT grid          2.34 Mb     (  153600)
        Each G-vector array             0.56 Mb     (   73230)
        G-vector shells                 0.27 Mb     (   35784)
     Largest temporary arrays     est. size (Mb)     dimensions
        Auxiliary wavefunctions       413.66 Mb     (    9171, 2956)
        Each subspace H/S matrix       14.80 Mb     (     985,  985)
        Each <psi_i|beta_j> matrix     20.78 Mb     (    1843,  739)
        Arrays for rho mixing          18.75 Mb     (  153600,    8)

     Initial potential from superposition of free atoms
     Check: negative starting charge=   -0.002175

     starting charge 1214.81749, renormalised to 1231.00000

     negative rho (up, down):  2.204E-03 0.000E+00
     Starting wfc are 1149 randomized atomic wfcs

     total cpu time spent up to now is      176.9 secs

     Self-consistent Calculation

     iteration #  1     ecut=    80.00 Ry     beta=0.70
     Davidson diagonalization with overlap
     ethr =  1.00E-04,  avg # of iterations = 20.0

     negative rho (up, down):  3.033E+01 0.000E+00

     total cpu time spent up to now is     3041.4 secs

     total energy              =   -8133.11246202 Ry
     Harris-Foulkes estimate   =  -14806.59756585 Ry
     estimated scf accuracy    <  143848.55061306 Ry

     iteration #  2     ecut=    80.00 Ry     beta=0.70
     Davidson diagonalization with overlap
     c_bands:  1 eigenvalues not converged
     ethr =  1.00E-02,  avg # of iterations = 14.2

     negative rho (up, down):  2.201E+01 0.000E+00

     total cpu time spent up to now is     4680.1 secs

     total energy              =  -12591.62808563 Ry
     Harris-Foulkes estimate   =  -13183.44276289 Ry
     estimated scf accuracy    <    1787.11885938 Ry

     iteration #  3     ecut=    80.00 Ry     beta=0.70
     Davidson diagonalization with overlap
     ethr =  1.00E-02,  avg # of iterations =  5.0

     negative rho (up, down):  1.616E+01 0.000E+00

     total cpu time spent up to now is     5347.7 secs

     total energy              =  -12664.41866327 Ry
     Harris-Foulkes estimate   =  -12753.78759316 Ry
     estimated scf accuracy    <     532.20502784 Ry

     iteration #  4     ecut=    80.00 Ry     beta=0.70
     Davidson diagonalization with overlap
     ethr =  1.00E-02,  avg # of iterations =  3.8

     negative rho (up, down):  1.659E+01 0.000E+00

     total cpu time spent up to now is     5838.2 secs

     total energy              =  -12720.21499776 Ry
     Harris-Foulkes estimate   =  -12706.20004629 Ry
     estimated scf accuracy    <    1225.07312512 Ry

     iteration #  5     ecut=    80.00 Ry     beta=0.70
     Davidson diagonalization with overlap
     ethr =  1.00E-02,  avg # of iterations =  1.0

     negative rho (up, down):  1.337E+01 0.000E+00

     total cpu time spent up to now is     6138.1 secs

     total energy              =  -12699.35161510 Ry
     Harris-Foulkes estimate   =  -12724.44910788 Ry
     estimated scf accuracy    <    2448.59606739 Ry

     iteration #  6     ecut=    80.00 Ry     beta=0.70
     Davidson diagonalization with overlap
     ethr =  1.00E-02,  avg # of iterations =  2.3

     negative rho (up, down):  8.599E+00 0.000E+00

     total cpu time spent up to now is     6463.1 secs

     total energy              =  -12636.78444126 Ry
     Harris-Foulkes estimate   =  -12715.10518254 Ry
     estimated scf accuracy    <    2496.81212786 Ry

     iteration #  7     ecut=    80.00 Ry     beta=0.70
     Davidson diagonalization with overlap
     ethr =  1.00E-02,  avg # of iterations =  3.7

     negative rho (up, down):  6.600E+00 0.000E+00

     total cpu time spent up to now is     6853.8 secs

     total energy              =  -12626.99991652 Ry
     Harris-Foulkes estimate   =  -12673.69044524 Ry
     estimated scf accuracy    <     752.78597759 Ry

     iteration #  8     ecut=    80.00 Ry     beta=0.70
     Davidson diagonalization with overlap
     ethr =  1.00E-02,  avg # of iterations =  4.0

     negative rho (up, down):  5.998E+00 0.000E+00

     total cpu time spent up to now is     7214.2 secs

     total energy              =  -12624.48894750 Ry
     Harris-Foulkes estimate   =  -12638.19580785 Ry
     estimated scf accuracy    <     417.75080417 Ry

     iteration #  9     ecut=    80.00 Ry     beta=0.70
     Davidson diagonalization with overlap
     ethr =  1.00E-02,  avg # of iterations =  1.3

     negative rho (up, down):  4.674E+00 0.000E+00

     total cpu time spent up to now is     7521.4 secs

     total energy              =  -12610.99851970 Ry
     Harris-Foulkes estimate   =  -12629.86556611 Ry
     estimated scf accuracy    <     302.30686188 Ry

     iteration # 10     ecut=    80.00 Ry     beta=0.70
     Davidson diagonalization with overlap
     ethr =  1.00E-02,  avg # of iterations =  1.3

     negative rho (up, down):  2.679E+00 0.000E+00

     total cpu time spent up to now is     7829.6 secs

     total energy              =  -12581.37627401 Ry
     Harris-Foulkes estimate   =  -12615.72287346 Ry
     estimated scf accuracy    <     233.23236601 Ry

     iteration # 11     ecut=    80.00 Ry     beta=0.70
     Davidson diagonalization with overlap
     ethr =  1.00E-02,  avg # of iterations =  2.0

     negative rho (up, down):  3.145E+00 0.000E+00

     total cpu time spent up to now is     8148.7 secs

     total energy              =  -12549.92012194 Ry
     Harris-Foulkes estimate   =  -12594.04549205 Ry
     estimated scf accuracy    <     117.48892379 Ry

     iteration # 12     ecut=    80.00 Ry     beta=0.70
     Davidson diagonalization with overlap
     ethr =  9.54E-03,  avg # of iterations =  2.5

     negative rho (up, down):  6.669E+00 0.000E+00

     total cpu time spent up to now is     8483.3 secs

     total energy              =  -12525.28133441 Ry
     Harris-Foulkes estimate   =  -12566.03714107 Ry
     estimated scf accuracy    <     395.95661149 Ry

     iteration # 13     ecut=    80.00 Ry     beta=0.70
     Davidson diagonalization with overlap
     ethr =  9.54E-03,  avg # of iterations =  2.0

     negative rho (up, down):  3.172E+00 0.000E+00

     total cpu time spent up to now is     8806.0 secs

     total energy              =  -12545.28794838 Ry
     Harris-Foulkes estimate   =  -12555.18419762 Ry
     estimated scf accuracy    <     282.98315215 Ry

     iteration # 14     ecut=    80.00 Ry     beta=0.70
     Davidson diagonalization with overlap
     ethr =  9.54E-03,  avg # of iterations =  1.2

     negative rho (up, down):  4.496E+00 0.000E+00

     total cpu time spent up to now is     9110.5 secs

     total energy              =  -12543.14153454 Ry
     Harris-Foulkes estimate   =  -12551.23863870 Ry
     estimated scf accuracy    <     102.56348424 Ry

     iteration # 15     ecut=    80.00 Ry     beta=0.70
     Davidson diagonalization with overlap
     ethr =  8.33E-03,  avg # of iterations =  1.0

     negative rho (up, down):  3.497E+00 0.000E+00

     total cpu time spent up to now is     9411.8 secs

     total energy              =  -12540.92145993 Ry
     Harris-Foulkes estimate   =  -12545.14848959 Ry
     estimated scf accuracy    <      39.97078173 Ry

     iteration # 16     ecut=    80.00 Ry     beta=0.70
     Davidson diagonalization with overlap
     ethr =  3.25E-03,  avg # of iterations =  1.2

     negative rho (up, down):  3.633E+00 0.000E+00

     total cpu time spent up to now is     9718.7 secs

     total energy              =  -12537.48171433 Ry
     Harris-Foulkes estimate   =  -12542.29945457 Ry
     estimated scf accuracy    <      34.89419556 Ry

     iteration # 17     ecut=    80.00 Ry     beta=0.70
     Davidson diagonalization with overlap
     ethr =  2.83E-03,  avg # of iterations =  1.0

     negative rho (up, down):  3.743E+00 0.000E+00

     total cpu time spent up to now is    10020.1 secs

     total energy              =  -12537.40850172 Ry
     Harris-Foulkes estimate   =  -12539.14889579 Ry
     estimated scf accuracy    <      20.63229620 Ry

     iteration # 18     ecut=    80.00 Ry     beta=0.70
     Davidson diagonalization with overlap
     ethr =  1.68E-03,  avg # of iterations =  4.2

     negative rho (up, down):  2.568E+00 0.000E+00

     total cpu time spent up to now is    10382.2 secs

     total energy              =  -12536.46821228 Ry
     Harris-Foulkes estimate   =  -12538.31720317 Ry
     estimated scf accuracy    <      12.68774238 Ry

     iteration # 19     ecut=    80.00 Ry     beta=0.70
     Davidson diagonalization with overlap
     ethr =  1.03E-03,  avg # of iterations =  6.5

     negative rho (up, down):  1.798E+00 0.000E+00

     total cpu time spent up to now is    10785.1 secs

     total energy              =  -12535.66054028 Ry
     Harris-Foulkes estimate   =  -12536.88122319 Ry
     estimated scf accuracy    <      10.06611362 Ry

     iteration # 20     ecut=    80.00 Ry     beta=0.70
     Davidson diagonalization with overlap
     ethr =  8.18E-04,  avg # of iterations =  3.8

     negative rho (up, down):  2.071E+00 0.000E+00

     total cpu time spent up to now is    11138.0 secs

     total energy              =  -12535.48997447 Ry
     Harris-Foulkes estimate   =  -12535.87940951 Ry
     estimated scf accuracy    <      14.11951153 Ry

     iteration # 21     ecut=    80.00 Ry     beta=0.70
     Davidson diagonalization with overlap
     ethr =  8.18E-04,  avg # of iterations =  1.3

     negative rho (up, down):  1.072E+00 0.000E+00

     total cpu time spent up to now is    11445.4 secs

     total energy              =  -12534.07509538 Ry
     Harris-Foulkes estimate   =  -12535.67384311 Ry
     estimated scf accuracy    <       9.28638708 Ry

     iteration # 22     ecut=    80.00 Ry     beta=0.70
     Davidson diagonalization with overlap
     ethr =  7.54E-04,  avg # of iterations =  2.8

     negative rho (up, down):  1.010E+00 0.000E+00

     total cpu time spent up to now is    11778.6 secs

     total energy              =  -12532.07579274 Ry
     Harris-Foulkes estimate   =  -12534.33007872 Ry
     estimated scf accuracy    <      10.21904985 Ry

     iteration # 23     ecut=    80.00 Ry     beta=0.70
     Davidson diagonalization with overlap
     ethr =  7.54E-04,  avg # of iterations =  5.5

     negative rho (up, down):  1.082E+00 0.000E+00

     total cpu time spent up to now is    12179.9 secs

     total energy              =  -12530.85415517 Ry
     Harris-Foulkes estimate   =  -12533.54684838 Ry
     estimated scf accuracy    <      68.01563460 Ry

     iteration # 24     ecut=    80.00 Ry     beta=0.70
     Davidson diagonalization with overlap
     ethr =  7.54E-04,  avg # of iterations =  1.2

     negative rho (up, down):  9.895E-01 0.000E+00

     total cpu time spent up to now is    12486.8 secs

     total energy              =  -12531.48759048 Ry
     Harris-Foulkes estimate   =  -12532.39056766 Ry
     estimated scf accuracy    <       6.19516467 Ry

     iteration # 25     ecut=    80.00 Ry     beta=0.70
     Davidson diagonalization with overlap
     ethr =  5.03E-04,  avg # of iterations =  2.2

     negative rho (up, down):  9.151E-01 0.000E+00

     total cpu time spent up to now is    12810.2 secs

     total energy              =  -12531.16055844 Ry
     Harris-Foulkes estimate   =  -12531.77102494 Ry
     estimated scf accuracy    <       1.98814916 Ry

     iteration # 26     ecut=    80.00 Ry     beta=0.70
     Davidson diagonalization with overlap
     ethr =  1.62E-04,  avg # of iterations =  8.3

     negative rho (up, down):  8.377E-01 0.000E+00

     total cpu time spent up to now is    13286.7 secs

     total energy              =  -12531.05573000 Ry
     Harris-Foulkes estimate   =  -12531.26364448 Ry
     estimated scf accuracy    <       0.90770744 Ry

     iteration # 27     ecut=    80.00 Ry     beta=0.70
     Davidson diagonalization with overlap
     ethr =  7.37E-05,  avg # of iterations =  6.7

     negative rho (up, down):  5.633E-01 0.000E+00

     total cpu time spent up to now is    13720.6 secs

     total energy              =  -12530.96869649 Ry
     Harris-Foulkes estimate   =  -12531.09737823 Ry
     estimated scf accuracy    <       0.51550808 Ry

     iteration # 28     ecut=    80.00 Ry     beta=0.70
     Davidson diagonalization with overlap
     ethr =  4.19E-05,  avg # of iterations =  9.3

     negative rho (up, down):  5.193E-01 0.000E+00

     total cpu time spent up to now is    14226.0 secs

     total energy              =  -12530.94699859 Ry
     Harris-Foulkes estimate   =  -12530.99595588 Ry
     estimated scf accuracy    <       0.35151455 Ry

     iteration # 29     ecut=    80.00 Ry     beta=0.70
     Davidson diagonalization with overlap
     ethr =  2.86E-05,  avg # of iterations =  6.8

     negative rho (up, down):  3.963E-01 0.000E+00

     total cpu time spent up to now is    14677.0 secs

     total energy              =  -12530.93135875 Ry
     Harris-Foulkes estimate   =  -12530.95936764 Ry
     estimated scf accuracy    <       0.19381824 Ry

     iteration # 30     ecut=    80.00 Ry     beta=0.70
     Davidson diagonalization with overlap
     ethr =  1.57E-05,  avg # of iterations =  5.8

     negative rho (up, down):  1.597E-01 0.000E+00

     total cpu time spent up to now is    15098.0 secs

     total energy              =  -12530.91927918 Ry
     Harris-Foulkes estimate   =  -12530.94294118 Ry
     estimated scf accuracy    <       0.14538954 Ry

     iteration # 31     ecut=    80.00 Ry     beta=0.70
     Davidson diagonalization with overlap
     c_bands:  1 eigenvalues not converged
     ethr =  1.18E-05,  avg # of iterations = 15.7

     negative rho (up, down):  9.085E-02 0.000E+00

     total cpu time spent up to now is    15755.3 secs

     total energy              =  -12530.91940322 Ry
     Harris-Foulkes estimate   =  -12530.92422649 Ry
     estimated scf accuracy    <       0.04702341 Ry

     iteration # 32     ecut=    80.00 Ry     beta=0.70
     Davidson diagonalization with overlap
     ethr =  3.82E-06,  avg # of iterations =  9.7

     negative rho (up, down):  7.348E-02 0.000E+00

     total cpu time spent up to now is    16274.7 secs

     total energy              =  -12530.91518914 Ry
     Harris-Foulkes estimate   =  -12530.92050526 Ry
     estimated scf accuracy    <       0.02392321 Ry

     iteration # 33     ecut=    80.00 Ry     beta=0.70
     Davidson diagonalization with overlap
     ethr =  1.94E-06,  avg # of iterations =  8.5

     negative rho (up, down):  1.481E-02 0.000E+00

     total cpu time spent up to now is    16823.5 secs

     total energy              =  -12530.91609406 Ry
     Harris-Foulkes estimate   =  -12530.91972359 Ry
     estimated scf accuracy    <       0.01374497 Ry

     iteration # 34     ecut=    80.00 Ry     beta=0.70
     Davidson diagonalization with overlap
     c_bands:  1 eigenvalues not converged
     ethr =  1.12E-06,  avg # of iterations = 13.3

     negative rho (up, down):  1.090E-02 0.000E+00

     total cpu time spent up to now is    17452.6 secs

     total energy              =  -12530.91786631 Ry
     Harris-Foulkes estimate   =  -12530.91778055 Ry
     estimated scf accuracy    <       0.00216874 Ry

     iteration # 35     ecut=    80.00 Ry     beta=0.70
     Davidson diagonalization with overlap
     ethr =  1.76E-07,  avg # of iterations =  8.0

     negative rho (up, down):  6.075E-03 0.000E+00

     total cpu time spent up to now is    17943.9 secs

     total energy              =  -12530.91783145 Ry
     Harris-Foulkes estimate   =  -12530.91801367 Ry
     estimated scf accuracy    <       0.00088195 Ry

     iteration # 36     ecut=    80.00 Ry     beta=0.70
     Davidson diagonalization with overlap
     ethr =  7.16E-08,  avg # of iterations =  9.5

     negative rho (up, down):  5.128E-03 0.000E+00

     total cpu time spent up to now is    18456.4 secs

     total energy              =  -12530.91787945 Ry
     Harris-Foulkes estimate   =  -12530.91789712 Ry
     estimated scf accuracy    <       0.00024586 Ry

     iteration # 37     ecut=    80.00 Ry     beta=0.70
     Davidson diagonalization with overlap
     ethr =  2.00E-08,  avg # of iterations =  6.5

     negative rho (up, down):  4.099E-03 0.000E+00

     total cpu time spent up to now is    18887.5 secs

     total energy              =  -12530.91793833 Ry
     Harris-Foulkes estimate   =  -12530.91789718 Ry
     estimated scf accuracy    <       0.00012674 Ry

     iteration # 38     ecut=    80.00 Ry     beta=0.70
     Davidson diagonalization with overlap
     ethr =  1.03E-08,  avg # of iterations = 11.8

     negative rho (up, down):  3.073E-03 0.000E+00

     total cpu time spent up to now is    19448.0 secs

     total energy              =  -12530.91796453 Ry
     Harris-Foulkes estimate   =  -12530.91794836 Ry
     estimated scf accuracy    <       0.00004168 Ry

     iteration # 39     ecut=    80.00 Ry     beta=0.70
     Davidson diagonalization with overlap
     ethr =  3.39E-09,  avg # of iterations =  9.2

     negative rho (up, down):  2.477E-03 0.000E+00

     total cpu time spent up to now is    19960.5 secs

     total energy              =  -12530.91796411 Ry
     Harris-Foulkes estimate   =  -12530.91796954 Ry
     estimated scf accuracy    <       0.00001658 Ry

     iteration # 40     ecut=    80.00 Ry     beta=0.70
     Davidson diagonalization with overlap
     ethr =  1.35E-09,  avg # of iterations =  3.0

     negative rho (up, down):  2.325E-03 0.000E+00

     total cpu time spent up to now is    20324.0 secs

     total energy              =  -12530.91796452 Ry
     Harris-Foulkes estimate   =  -12530.91796519 Ry
     estimated scf accuracy    <       0.00000188 Ry

     iteration # 41     ecut=    80.00 Ry     beta=0.70
     Davidson diagonalization with overlap
     ethr =  1.53E-10,  avg # of iterations =  3.2

     negative rho (up, down):  2.246E-03 0.000E+00

     total cpu time spent up to now is    20719.5 secs

     total energy              =  -12530.91796489 Ry
     Harris-Foulkes estimate   =  -12530.91796483 Ry
     estimated scf accuracy    <       0.00000120 Ry

     iteration # 42     ecut=    80.00 Ry     beta=0.70
     Davidson diagonalization with overlap
     ethr =  9.77E-11,  avg # of iterations =  3.0

     negative rho (up, down):  2.261E-03 0.000E+00

     total cpu time spent up to now is    21078.3 secs

     total energy              =  -12530.91796480 Ry
     Harris-Foulkes estimate   =  -12530.91796506 Ry
     estimated scf accuracy    <       0.00000072 Ry

     iteration # 43     ecut=    80.00 Ry     beta=0.70
     Davidson diagonalization with overlap
     ethr =  5.82E-11,  avg # of iterations =  2.8

     negative rho (up, down):  2.255E-03 0.000E+00

     total cpu time spent up to now is    21432.7 secs

     total energy              =  -12530.91796496 Ry
     Harris-Foulkes estimate   =  -12530.91796485 Ry
     estimated scf accuracy    <       0.00000011 Ry

     iteration # 44     ecut=    80.00 Ry     beta=0.70
     Davidson diagonalization with overlap
     ethr =  8.99E-12,  avg # of iterations =  3.0

     negative rho (up, down):  2.252E-03 0.000E+00

     total cpu time spent up to now is    21802.6 secs

     total energy              =  -12530.91796500 Ry
     Harris-Foulkes estimate   =  -12530.91796497 Ry
     estimated scf accuracy    <       0.00000007 Ry

     iteration # 45     ecut=    80.00 Ry     beta=0.70
     Davidson diagonalization with overlap
     ethr =  5.72E-12,  avg # of iterations =  2.2

     negative rho (up, down):  2.251E-03 0.000E+00

     total cpu time spent up to now is    22135.9 secs

     total energy              =  -12530.91796508 Ry
     Harris-Foulkes estimate   =  -12530.91796500 Ry
     estimated scf accuracy    <       0.00000003 Ry

     iteration # 46     ecut=    80.00 Ry     beta=0.70
     Davidson diagonalization with overlap
     ethr =  2.77E-12,  avg # of iterations =  3.2

     negative rho (up, down):  2.226E-03 0.000E+00

     total cpu time spent up to now is    22482.8 secs

     End of self-consistent calculation

          k = 0.0000 0.0000 0.0000 (256287 PWs)   bands (ev):

   -20.9532 -16.3167 -15.6633 -14.6812 -14.3672 -14.3562 -13.7718 -13.7459
   -13.3828 -12.8833 -12.7561 -11.9838 -11.7281 -11.4326 -10.3704 -10.1554
    -9.2655  -9.0885  -8.9459  -8.3887  -8.2585  -7.6313  -7.5172  -7.2288
    -7.2224  -6.8898  -6.5564  -6.2906  -6.2461  -5.8952  -5.7174  -5.7127
    -5.6180  -5.4053  -5.3359  -5.2884  -5.0012  -4.9170  -4.8086  -4.5862
    -4.3820  -4.3040  -4.2211  -4.2071  -4.0674  -3.8628  -3.6344  -3.6296
    -3.4680  -3.3913  -3.3744  -3.2928  -3.2688  -3.2422  -3.2378  -3.2347
    -3.2299  -3.2292  -3.2137  -3.1417  -3.0195  -2.9883  -2.9407  -2.8824
    -2.8521  -2.8258  -2.7868  -2.7556  -2.6626  -2.5787  -2.5722  -2.5602
    -2.5306  -2.4239  -2.4208  -2.3976  -2.3846  -2.3818  -2.3797  -2.3780
    -2.3732  -2.2585  -2.2565  -2.2499  -2.2485  -2.1976  -2.1941  -2.0797
    -2.0751  -2.0498  -2.0074  -1.9851  -1.9746  -1.9661  -1.9558  -1.9271
    -1.9078  -1.8974  -1.8884  -1.8803  -1.8604  -1.8403  -1.8188  -1.8058
    -1.8048  -1.7952  -1.7886  -1.7773  -1.7484  -1.7413  -1.7195  -1.7156
    -1.6843  -1.6821  -1.6594  -1.6447  -1.6016  -1.5882  -1.5836  -1.5384
    -1.5318  -1.5198  -1.5055  -1.4929  -1.4789  -1.4485  -1.4430  -1.4410
    -1.4264  -1.4165  -1.4021  -1.3909  -1.3480  -1.3157  -1.2896  -1.2852
    -1.2825  -1.2704  -1.2695  -1.2677  -1.2639  -1.2618  -1.2578  -1.2570
    -1.2526  -1.2476  -1.2370  -1.2362  -1.2312  -1.2189  -1.1882  -1.1855
    -1.1755  -1.1724  -1.1604  -1.1555  -1.1524  -1.1477  -1.1031  -1.1013
    -1.0975  -1.0968  -1.0933  -1.0904  -1.0887  -1.0856  -1.0816  -1.0788
    -1.0779  -1.0775  -1.0746  -1.0723  -1.0702  -1.0650  -1.0585  -1.0179
    -0.9375  -0.9298  -0.9218  -0.9140  -0.9125  -0.9096  -0.8976  -0.8775
    -0.8748  -0.8626  -0.8542  -0.8441  -0.8397  -0.8386  -0.8354  -0.8274
    -0.8056  -0.8005  -0.7943  -0.7914  -0.7909  -0.7876  -0.7852  -0.7784
    -0.7644  -0.7318  -0.7236  -0.6770  -0.6739  -0.6699  -0.6675  -0.6667
    -0.6588  -0.6531  -0.6497  -0.6412  -0.6393  -0.6379  -0.6354  -0.6347
    -0.6341  -0.6284  -0.6252  -0.6220  -0.6201  -0.6195  -0.5990  -0.5813
    -0.5778  -0.5470  -0.5369  -0.5356  -0.5336  -0.5331  -0.5278  -0.5119
    -0.5051  -0.5035  -0.5007  -0.4986  -0.4966  -0.4878  -0.4825  -0.4791
    -0.4770  -0.4674  -0.4651  -0.4639  -0.4599  -0.4573  -0.4557  -0.4518
    -0.4489  -0.4445  -0.4443  -0.4340  -0.4311  -0.4291  -0.4220  -0.4178
    -0.4022  -0.3822  -0.3597  -0.3591  -0.3563  -0.3560  -0.3447  -0.3213
    -0.3099  -0.3082  -0.3056  -0.2996  -0.2978  -0.2949  -0.2947  -0.2934
    -0.2916  -0.2691  -0.2566  -0.2530  -0.2463  -0.2437  -0.2372  -0.2339
    -0.2240  -0.2177  -0.2156  -0.2118  -0.2025  -0.1956  -0.1924  -0.1906
    -0.1881  -0.1868  -0.1839  -0.1820  -0.1808  -0.1761  -0.1747  -0.1646
    -0.1527  -0.1502  -0.1439  -0.1372  -0.1288  -0.1075  -0.0989  -0.0756
    -0.0704  -0.0686  -0.0560  -0.0459  -0.0310  -0.0135  -0.0078  -0.0037
     0.0073   0.0138   0.0170   0.0239   0.0243   0.0303   0.0339   0.0385
     0.0397   0.0533   0.0598   0.0936   0.0948   0.0950   0.1033   0.1080
     0.1163   0.1171   0.1259   0.1350   0.1374   0.1405   0.1442   0.1524
     0.1689   0.1741   0.1897   0.1927   0.1980   0.1989   0.2042   0.2053
     0.2335   0.2379   0.2472   0.2489   0.2561   0.2629   0.2651   0.2689
     0.2722   0.2747   0.2805   0.2868   0.2883   0.2930   0.2953   0.2988
     0.3019   0.3058   0.3066   0.3096   0.3119   0.3159   0.3202   0.3243
     0.3287   0.3341   0.3588   0.3605   0.3625   0.3648   0.3713   0.3849
     0.3975   0.4060   0.4070   0.4099   0.4117   0.4136   0.4155   0.4182
     0.4206   0.4354   0.4386   0.4414   0.4453   0.4465   0.4477   0.4511
     0.4544   0.4562   0.4578   0.4715   0.4731   0.4812   0.4881   0.4883
     0.4935   0.5011   0.5013   0.5018   0.5083   0.5143   0.5164   0.5189
     0.5260   0.5370   0.5621   0.5664   0.5704   0.5761   0.5765   0.5806
     0.5880   0.5905   0.6127   0.6169   0.6201   0.6266   0.6361   0.6366
     0.6410   0.6460   0.6497   0.6515   0.6563   0.6593   0.6637   0.6726
     0.6739   0.6815   0.6842   0.6859   0.6954   0.6971   0.7024   0.7040
     0.7197   0.7218   0.7355   0.7402   0.7424   0.7467   0.7535   0.7574
     0.7657   0.7688   0.7699   0.7727   0.7736   0.7785   0.7802   0.7823
     0.7887   0.7923   0.7929   0.7972   0.7983   0.8050   0.8144   0.8155
     0.8202   0.8317   0.8332   0.8417   0.8430   0.8439   0.8538   0.8578
     0.8645   0.8681   0.8693   0.8705   0.8728   0.8738   0.8789   0.8799
     0.8821   0.8914   0.8951   0.8958   0.9036   0.9247   0.9296   0.9343
     0.9515   0.9543   0.9568   0.9623   0.9653   0.9656   0.9665   0.9710
     0.9746   0.9795   0.9868   0.9932   0.9943   0.9987   1.0038   1.0089
     1.0131   1.0138   1.0156   1.0214   1.0282   1.0322   1.0344   1.0387
     1.0405   1.0420   1.0449   1.0473   1.0509   1.0541   1.0611   1.0626
     1.0633   1.0682   1.0700   1.0704   1.0715   1.0731   1.0773   1.0833
     1.0887   1.0988   1.1068   1.1072   1.1093   1.1203   1.1219   1.1324
     1.1339   1.1420   1.1489   1.1508   1.1541   1.1609   1.1640   1.1660
     1.1705   1.1730   1.1776   1.1793   1.1836   1.1854   1.1882   1.1910
     1.1965   1.1980   1.2026   1.2061   1.2100   1.2111   1.2204   1.2235
     1.2280   1.2291   1.2346   1.2365   1.2418   1.2430   1.2455   1.2498
     1.2753   1.2793   1.2999   1.3110   1.3160   1.3241   1.3248   1.3272
     1.3365   1.3454   1.3581   1.3633   1.3713   1.3799   1.3865   1.3890
     1.3974   1.4043   1.4074   1.4105   1.4343   1.4447   1.6579   1.7103
     1.8233   1.8383   1.8550   1.9075   1.9353   1.9512   1.9651   1.9671
     1.9687   1.9716   1.9866   1.9964   2.0520   2.1314   2.2044   2.2161
     2.2206   2.2326   2.2334   2.2572   2.2803   2.3972   2.4760   2.4845
     2.5235   2.6451   2.8860   3.2231   3.2803   3.4109   3.5239   3.5497
     3.5754   3.6050   3.6098   3.6217   3.6538   3.6954   3.7307   3.7386
     3.7414   3.7598   3.7733   3.7908   3.8199   3.8494   3.8770   3.9879
     4.0023   4.0966   4.0986   4.2145   4.5470   4.7196   4.9378   5.0147
     5.0373   5.0909   5.2954   5.3722   5.4319   5.5154   5.5510   5.6282
     5.6766   5.7371   5.9695   5.9988   6.1157   6.1369   6.2032   6.2095
     6.2214   6.2367   6.4156   6.4336   6.4525   6.4752   6.4898   6.5150
     6.6484   6.7382   6.7633   6.8155   6.8350   6.8935   6.9337   7.0965
     7.1110   7.1233   7.1591   7.2584   7.4052   7.4284   7.4353   7.4475
     7.4640   7.4771   7.4977   7.6009   7.7336   7.8163   7.8488   7.9005
     7.9170   7.9335   7.9859   8.0998   8.1090   8.1165   8.1466   8.1650
     8.1716   8.1938   8.2740   8.3091   8.3111   8.3461   8.4076   8.4506
     8.4765   8.5153   8.5467   8.5747   8.5925   8.6400   8.7185   8.7460
     8.7676   8.7761   8.8056   8.8680   8.8907   8.9134   8.9221   8.9738
     9.0918   9.1342   9.3137   9.3242   9.3501   9.3701   9.3891   9.4675
     9.4860   9.5638   9.7034

          k = 0.0000-0.2165 0.0000 (256176 PWs)   bands (ev):

   -20.9532 -16.3167 -15.6633 -14.6812 -14.3672 -14.3562 -13.7718 -13.7459
   -13.3828 -12.8833 -12.7561 -11.9838 -11.7281 -11.4326 -10.3704 -10.1555
    -9.2656  -9.0885  -8.9459  -8.3887  -8.2584  -7.6313  -7.5169  -7.2288
    -7.2223  -6.8898  -6.5563  -6.2912  -6.1210  -6.1026  -5.8950  -5.6214
    -5.4060  -5.3365  -5.2420  -5.1130  -5.0645  -5.0416  -4.9871  -4.7462
    -4.5552  -4.3067  -4.1620  -4.0593  -3.9861  -3.7332  -3.5384  -3.5344
    -3.5228  -3.5176  -3.4201  -3.3775  -3.3285  -3.2969  -3.2650  -3.2512
    -3.2399  -3.2288  -3.1398  -2.9879  -2.9520  -2.8682  -2.8226  -2.8159
    -2.8060  -2.8056  -2.7924  -2.7881  -2.7597  -2.7062  -2.6691  -2.6505
    -2.4950  -2.4792  -2.4652  -2.4172  -2.4085  -2.3855  -2.3784  -2.3631
    -2.3600  -2.3283  -2.2177  -2.2172  -2.1955  -2.1904  -2.1879  -2.1364
    -2.0854  -2.0556  -2.0232  -1.9977  -1.9917  -1.9826  -1.9784  -1.9757
    -1.9733  -1.9549  -1.9481  -1.9203  -1.9089  -1.8809  -1.8681  -1.8532
    -1.8422  -1.7363  -1.6954  -1.6918  -1.6855  -1.6686  -1.6249  -1.6163
    -1.6074  -1.6042  -1.5758  -1.5493  -1.5459  -1.5273  -1.5147  -1.5103
    -1.5061  -1.5029  -1.4989  -1.4974  -1.4792  -1.4698  -1.4662  -1.4606
    -1.4518  -1.4493  -1.4472  -1.4341  -1.3993  -1.3929  -1.3757  -1.3671
    -1.3393  -1.3207  -1.3186  -1.2906  -1.2840  -1.2808  -1.2777  -1.2773
    -1.2458  -1.2319  -1.2248  -1.2203  -1.2189  -1.2119  -1.2105  -1.2016
    -1.1672  -1.1600  -1.1559  -1.1547  -1.1514  -1.1475  -1.1461  -1.1455
    -1.1419  -1.1270  -1.1150  -1.0797  -1.0732  -1.0671  -1.0559  -1.0556
    -1.0477  -1.0429  -1.0342  -1.0331  -1.0219  -1.0095  -0.9914  -0.9904
    -0.9884  -0.9786  -0.9128  -0.8951  -0.8932  -0.8766  -0.8730  -0.8636
    -0.8627  -0.8503  -0.8434  -0.8360  -0.8324  -0.8308  -0.8303  -0.8170
    -0.8147  -0.7952  -0.7861  -0.7825  -0.7764  -0.7736  -0.7721  -0.7694
    -0.7672  -0.7615  -0.7431  -0.7346  -0.7336  -0.7318  -0.7102  -0.6938
    -0.6901  -0.6883  -0.6862  -0.6805  -0.6798  -0.6731  -0.6554  -0.6528
    -0.6139  -0.6054  -0.6032  -0.5943  -0.5799  -0.5784  -0.5660  -0.5594
    -0.5410  -0.5392  -0.5381  -0.5352  -0.5318  -0.5288  -0.5274  -0.5206
    -0.5165  -0.5124  -0.5002  -0.4971  -0.4925  -0.4893  -0.4867  -0.4843
    -0.4831  -0.4796  -0.4775  -0.4736  -0.4673  -0.4522  -0.4483  -0.4472
    -0.4363  -0.4349  -0.4331  -0.3986  -0.3882  -0.3807  -0.3801  -0.3742
    -0.3734  -0.3708  -0.3653  -0.3629  -0.3452  -0.3434  -0.3403  -0.3317
    -0.3255  -0.3224  -0.3194  -0.3189  -0.3166  -0.3147  -0.3062  -0.3041
    -0.2899  -0.2606  -0.2595  -0.2590  -0.2507  -0.2497  -0.2371  -0.2340
    -0.2281  -0.2245  -0.2171  -0.2154  -0.2115  -0.2050  -0.2037  -0.2029
    -0.1918  -0.1806  -0.1753  -0.1682  -0.1656  -0.1650  -0.1562  -0.1415
    -0.1406  -0.1327  -0.1240  -0.1229  -0.1188  -0.1178  -0.1095  -0.1055
    -0.1023  -0.0736  -0.0710  -0.0574  -0.0543  -0.0428  -0.0375  -0.0329
    -0.0322  -0.0282  -0.0158  -0.0136   0.0101   0.0210   0.0298   0.0314
     0.0389   0.0565   0.0852   0.0960   0.1045   0.1298   0.1357   0.1428
     0.1519   0.1531   0.1636   0.1682   0.1785   0.1813   0.1835   0.1932
     0.1953   0.1993   0.2035   0.2079   0.2164   0.2211   0.2246   0.2264
     0.2332   0.2358   0.2372   0.2417   0.2433   0.2440   0.2496   0.2628
     0.2656   0.2752   0.2786   0.2830   0.2844   0.2897   0.2898   0.2932
     0.2946   0.3019   0.3116   0.3125   0.3158   0.3196   0.3221   0.3258
     0.3298   0.3327   0.3342   0.3395   0.3444   0.3463   0.3479   0.3489
     0.3502   0.3597   0.3702   0.3957   0.4016   0.4070   0.4144   0.4159
     0.4177   0.4230   0.4285   0.4286   0.4349   0.4379   0.4395   0.4401
     0.4403   0.4432   0.4501   0.4706   0.4795   0.4827   0.4884   0.4901
     0.4920   0.4976   0.5016   0.5048   0.5139   0.5179   0.5248   0.5281
     0.5298   0.5397   0.5398   0.5457   0.5491   0.5778   0.5917   0.5955
     0.6399   0.6424   0.6433   0.6468   0.6511   0.6550   0.6577   0.6593
     0.6646   0.6682   0.6710   0.6740   0.6781   0.6788   0.6835   0.6842
     0.6877   0.6927   0.6964   0.6980   0.7028   0.7038   0.7091   0.7135
     0.7185   0.7189   0.7198   0.7201   0.7267   0.7273   0.7322   0.7394
     0.7425   0.7429   0.7431   0.7472   0.7486   0.7513   0.7534   0.7563
     0.7615   0.7712   0.7752   0.7838   0.7859   0.7892   0.7909   0.7928
     0.7944   0.7989   0.7993   0.8023   0.8039   0.8101   0.8208   0.8413
     0.8469   0.8867   0.8878   0.8888   0.8999   0.9041   0.9077   0.9082
     0.9207   0.9251   0.9286   0.9300   0.9326   0.9388   0.9405   0.9438
     0.9447   0.9492   0.9561   0.9576   0.9586   0.9648   0.9657   0.9664
     0.9682   0.9691   0.9720   0.9742   0.9816   0.9847   0.9897   0.9905
     0.9945   0.9969   0.9996   1.0039   1.0168   1.0223   1.0252   1.0268
     1.0318   1.0327   1.0358   1.0406   1.0438   1.0514   1.0533   1.0570
     1.0600   1.0630   1.0682   1.0698   1.0762   1.0787   1.0831   1.0894
     1.0971   1.1008   1.1105   1.1132   1.1149   1.1206   1.1292   1.1317
     1.1357   1.1382   1.1440   1.1449   1.1489   1.1494   1.1504   1.1538
     1.1674   1.1714   1.1778   1.1812   1.1824   1.1875   1.1960   1.1985
     1.2042   1.2061   1.2077   1.2080   1.2091   1.2143   1.2163   1.2359
     1.2391   1.2443   1.2451   1.2517   1.2660   1.2684   1.2729   1.2747
     1.2806   1.2852   1.2859   1.2937   1.3011   1.3120   1.3152   1.3395
     1.3556   1.3592   1.3830   1.4117   1.4225   1.4558   1.4905   1.4980
     1.5065   1.5111   1.5272   1.5335   1.5382   1.5468   1.5621   1.5709
     1.5757   1.5768   1.5873   1.6043   1.6071   1.6096   1.9742   2.1441
     2.1484   2.1782   2.2086   2.2339   2.2562   2.2797   2.3255   2.3280
     2.3481   2.3539   2.4131   2.4598   2.4650   2.4715   2.4842   2.5379
     2.5604   2.6263   2.6794   2.6858   2.9153   2.9153   2.9437   2.9643
     3.0968   3.2079   3.3903   3.4323   3.4684   3.7221   3.8292   3.8398
     3.9106   3.9789   4.0806   4.0897   4.0940   4.1054   4.1138   4.1991
     4.2927   4.4836   4.5952   4.6221   4.7888   4.8314   4.8735   4.9555
     5.0321   5.0988   5.1198   5.1249   5.1645   5.2167   5.3216   5.3774
     5.5836   5.9737   6.0052   6.0378   6.0741   6.1787   6.2391   6.2649
     6.2807   6.3382   6.3768   6.4187   6.4603   6.5257   6.5661   6.6375
     6.7029   6.7964   6.8067   6.8483   6.8535   6.8716   6.8852   6.9014
     6.9075   6.9561   7.0381   7.0570   7.1013   7.1740   7.2042   7.2252
     7.3985   7.4440   7.5123   7.5762   7.6138   7.7881   7.8539   7.8613
     7.9429   8.0174   8.0219   8.1041   8.1117   8.1243   8.2274   8.2378
     8.2877   8.3329   8.3851   8.4359   8.4457   8.4508   8.4727   8.5201
     8.5368   8.5920   8.5988   8.6184   8.6941   8.7163   8.7584   8.7617
     8.8254   8.9078   9.0026   9.0449   9.0721   9.1196   9.1442   9.1523
     9.1809   9.1937   9.2357   9.2673   9.3701   9.4344   9.4956   9.5169
     9.5473   9.5530   9.5584

          k = 0.2500 0.0000 0.0000 (256240 PWs)   bands (ev):

   -20.9531 -16.1935 -15.5459 -15.2111 -14.6331 -14.5083 -13.6515 -13.3002
   -13.2409 -12.7093 -12.3894 -11.9049 -11.7449 -11.0227 -10.8588 -10.2139
    -9.8620  -9.3198  -9.1758  -8.9678  -8.5091  -7.9999  -7.3300  -6.9865
    -6.8433  -6.6018  -6.3547  -6.0667  -6.0107  -5.7423  -5.5433  -5.5392
    -5.2798  -5.1378  -5.0304  -4.8531  -4.8120  -4.6887  -4.6578  -4.4511
    -4.3274  -4.3142  -4.2687  -4.2303  -4.2082  -4.0763  -4.0619  -3.9536
    -3.8470  -3.8124  -3.7702  -3.7024  -3.6259  -3.4649  -3.4172  -3.3970
    -3.3037  -3.2570  -3.2316  -3.1906  -3.1770  -3.1236  -3.0299  -3.0268
    -2.9973  -2.9206  -2.8507  -2.8223  -2.6855  -2.6305  -2.6117  -2.5532
    -2.5048  -2.3312  -2.3286  -2.3138  -2.3078  -2.2831  -2.2045  -2.1570
    -2.1330  -2.1074  -2.0790  -2.0635  -2.0383  -2.0335  -2.0308  -2.0232
    -2.0208  -2.0054  -2.0023  -1.9899  -1.9515  -1.9166  -1.8925  -1.8778
    -1.8735  -1.8379  -1.8231  -1.8159  -1.8133  -1.8123  -1.8095  -1.8009
    -1.7833  -1.7769  -1.7414  -1.7368  -1.7317  -1.7281  -1.7125  -1.6685
    -1.6067  -1.5685  -1.5652  -1.5515  -1.5435  -1.5024  -1.4920  -1.4848
    -1.4803  -1.4760  -1.4677  -1.4494  -1.4425  -1.4303  -1.4232  -1.4174
    -1.4095  -1.4043  -1.3808  -1.3774  -1.3705  -1.3661  -1.3606  -1.3532
    -1.3498  -1.3432  -1.3372  -1.3267  -1.3094  -1.2947  -1.2860  -1.2719
    -1.2599  -1.2528  -1.2508  -1.2422  -1.2399  -1.2382  -1.2329  -1.2281
    -1.2249  -1.2244  -1.2190  -1.2141  -1.2114  -1.2095  -1.2072  -1.2032
    -1.1989  -1.1825  -1.1707  -1.1468  -1.1311  -1.1263  -1.1083  -1.0912
    -1.0888  -1.0469  -1.0450  -1.0358  -1.0282  -1.0251  -1.0057  -1.0040
    -0.9974  -0.9901  -0.9855  -0.9817  -0.9788  -0.9728  -0.9693  -0.9606
    -0.9189  -0.8480  -0.8472  -0.8371  -0.8247  -0.8114  -0.8039  -0.8037
    -0.7910  -0.7892  -0.7859  -0.7815  -0.7759  -0.7730  -0.7672  -0.7635
    -0.7603  -0.7334  -0.7295  -0.7272  -0.7228  -0.7208  -0.7136  -0.6981
    -0.6970  -0.6958  -0.6892  -0.6803  -0.6650  -0.6401  -0.6360  -0.6325
    -0.6303  -0.6223  -0.6197  -0.6181  -0.6163  -0.5942  -0.5897  -0.5861
    -0.5773  -0.5763  -0.5639  -0.5514  -0.5369  -0.5362  -0.5267  -0.5246
    -0.5183  -0.5166  -0.5070  -0.5043  -0.4972  -0.4841  -0.4808  -0.4785
    -0.4692  -0.4547  -0.4503  -0.4402  -0.4375  -0.4336  -0.4302  -0.4259
    -0.4195  -0.4181  -0.4061  -0.3952  -0.3933  -0.3872  -0.3730  -0.3566
    -0.3533  -0.3514  -0.3489  -0.3338  -0.3190  -0.3096  -0.3076  -0.3016
    -0.2959  -0.2834  -0.2757  -0.2706  -0.2622  -0.2585  -0.2520  -0.2497
    -0.2478  -0.2386  -0.2344  -0.2321  -0.2310  -0.2284  -0.2253  -0.2229
    -0.2213  -0.2155  -0.2101  -0.2062  -0.2022  -0.1995  -0.1923  -0.1847
    -0.1783  -0.1710  -0.1636  -0.1567  -0.1505  -0.1278  -0.1263  -0.1212
    -0.1204  -0.1124  -0.1103  -0.1031  -0.1001  -0.0966  -0.0946  -0.0900
    -0.0748  -0.0553  -0.0362   0.0003   0.0043   0.0128   0.0160   0.0167
     0.0244   0.0306   0.0337   0.0367   0.0401   0.0457   0.0461   0.0498
     0.0552   0.0575   0.0594   0.0618   0.0657   0.0681   0.0745   0.0806
     0.0858   0.0911   0.0919   0.0982   0.1027   0.1079   0.1159   0.1206
     0.1291   0.1346   0.1640   0.1786   0.1810   0.1843   0.1918   0.1976
     0.2018   0.2050   0.2083   0.2234   0.2270   0.2297   0.2336   0.2365
     0.2445   0.2493   0.2542   0.2566   0.2592   0.2620   0.2681   0.2736
     0.2793   0.2862   0.2899   0.2921   0.2989   0.3096   0.3117   0.3122
     0.3176   0.3214   0.3343   0.3378   0.3412   0.3429   0.3474   0.3525
     0.3551   0.3625   0.3651   0.3687   0.3717   0.3774   0.3811   0.3896
     0.3972   0.3999   0.4104   0.4134   0.4186   0.4220   0.4282   0.4293
     0.4391   0.4474   0.4597   0.4716   0.4806   0.4891   0.4973   0.4999
     0.5032   0.5072   0.5137   0.5191   0.5244   0.5296   0.5368   0.5393
     0.5431   0.5455   0.5499   0.5559   0.5733   0.5788   0.5820   0.5866
     0.5907   0.5948   0.6031   0.6086   0.6182   0.6224   0.6284   0.6357
     0.6417   0.6424   0.6470   0.6486   0.6493   0.6528   0.6553   0.6595
     0.6645   0.6697   0.6770   0.7007   0.7090   0.7114   0.7201   0.7243
     0.7289   0.7361   0.7395   0.7414   0.7477   0.7535   0.7549   0.7594
     0.7608   0.7650   0.7672   0.7727   0.7731   0.7766   0.7769   0.7813
     0.7841   0.7863   0.7901   0.7943   0.7951   0.7975   0.7999   0.8048
     0.8131   0.8177   0.8213   0.8229   0.8264   0.8306   0.8367   0.8394
     0.8448   0.8485   0.8571   0.8612   0.8640   0.8666   0.8687   0.8719
     0.8739   0.8800   0.8858   0.8895   0.8942   0.8972   0.9037   0.9115
     0.9144   0.9189   0.9289   0.9382   0.9461   0.9471   0.9515   0.9586
     0.9648   0.9682   0.9750   0.9874   0.9950   1.0005   1.0056   1.0069
     1.0127   1.0157   1.0169   1.0187   1.0199   1.0294   1.0348   1.0365
     1.0427   1.0466   1.0489   1.0536   1.0552   1.0560   1.0614   1.0633
     1.0647   1.0660   1.0735   1.0783   1.0815   1.0850   1.0873   1.0911
     1.0928   1.1019   1.1084   1.1110   1.1125   1.1173   1.1190   1.1258
     1.1316   1.1365   1.1377   1.1398   1.1547   1.1579   1.1599   1.1654
     1.1758   1.1772   1.1792   1.1813   1.1846   1.1859   1.1871   1.1888
     1.1930   1.1943   1.1969   1.1977   1.2004   1.2072   1.2142   1.2205
     1.2232   1.2285   1.2306   1.2319   1.2387   1.2409   1.2430   1.2478
     1.2493   1.2537   1.2644   1.2661   1.2761   1.2808   1.2872   1.3028
     1.3075   1.3181   1.3357   1.3497   1.3632   1.3766   1.3813   1.3829
     1.3930   1.4212   1.4439   1.4888   1.5172   1.5218   1.5423   1.5519
     1.5575   1.5913   1.6034   1.7881   1.7963   1.8175   1.8346   1.8455
     1.8927   1.9429   1.9797   2.0508   2.2955   2.3089   2.3160   2.3237
     2.5790   2.7324   2.7390   2.7770   2.9430   2.9562   2.9753   2.9758
     2.9921   3.0751   3.1321   3.1807   3.2544   3.3406   3.3872   3.3920
     3.4144   3.4501   3.4625   3.5156   3.5436   3.5816   3.6076   3.6391
     3.7284   3.7538   3.8365   4.0143   4.0249   4.0535   4.2511   4.4676
     4.5211   4.5940   4.6078   4.8238   4.8744   4.9548   4.9827   5.0127
     5.0841   5.1112   5.2210   5.2339   5.2514   5.2682   5.3002   5.3216
     5.4263   5.4553   5.5273   5.5769   5.6132   5.7017   5.7487   5.7716
     5.7813   5.8073   5.9874   6.1584   6.4143   6.4376   6.4896   6.5016
     6.5117   6.5763   6.7335   6.7627   6.7800   6.7924   6.8037   6.8244
     6.8921   6.9940   7.0129   7.0628   7.1165   7.1954   7.2106   7.2801
     7.3137   7.3250   7.3635   7.4921   7.5479   7.5846   7.6201   7.6458
     7.7332   7.7819   7.8084   7.8153   7.8607   7.9561   8.0196   8.0363
     8.0521   8.0941   8.1176   8.1476   8.1893   8.2926   8.3108   8.3578
     8.3759   8.3882   8.5688   8.6266   8.6409   8.7150   8.7571   8.8703
     8.9027   8.9085   8.9235   8.9285   8.9486   8.9525   8.9739   8.9992
     9.0207   9.0457   9.0642   9.0820   9.1619   9.2231   9.2644   9.3626
     9.4277   9.4605   9.4703

          k = 0.2500-0.2165 0.0000 (256316 PWs)   bands (ev):

   -20.9531 -16.1935 -15.5459 -15.2111 -14.6331 -14.5083 -13.6515 -13.3002
   -13.2409 -12.7093 -12.3894 -11.9048 -11.7449 -11.0227 -10.8588 -10.2139
    -9.8620  -9.3198  -9.1759  -8.9678  -8.5090  -7.9999  -7.3296  -6.9865
    -6.8434  -6.6019  -6.3548  -6.0108  -5.9432  -5.9253  -5.7416  -5.2828
    -5.1001  -5.0327  -4.9559  -4.9019  -4.8707  -4.8479  -4.6516  -4.5769
    -4.5574  -4.4399  -4.3178  -4.3024  -4.0505  -3.9398  -3.8761  -3.8129
    -3.7718  -3.7644  -3.6963  -3.6855  -3.6452  -3.6180  -3.5491  -3.4155
    -3.3063  -3.2598  -3.2195  -3.1831  -3.1683  -3.1332  -3.1287  -3.0591
    -2.9980  -2.9418  -2.8573  -2.6941  -2.6107  -2.5481  -2.5354  -2.4289
    -2.4195  -2.4116  -2.3980  -2.3977  -2.3147  -2.2535  -2.2429  -2.2410
    -2.2122  -2.1811  -2.1408  -2.0920  -2.0516  -2.0424  -2.0409  -2.0222
    -1.9789  -1.9638  -1.9537  -1.9445  -1.9371  -1.9327  -1.9244  -1.9127
    -1.9109  -1.9067  -1.9044  -1.9036  -1.8952  -1.8769  -1.8159  -1.8048
    -1.7873  -1.7079  -1.7024  -1.6804  -1.6568  -1.6217  -1.5664  -1.5652
    -1.5526  -1.5152  -1.5102  -1.5091  -1.4948  -1.4939  -1.4862  -1.4840
    -1.4758  -1.4709  -1.4706  -1.4681  -1.4579  -1.4530  -1.4494  -1.4475
    -1.4369  -1.4261  -1.4221  -1.4170  -1.4115  -1.4070  -1.3728  -1.3637
    -1.3593  -1.3484  -1.3463  -1.3429  -1.3412  -1.3257  -1.3102  -1.2994
    -1.2799  -1.2780  -1.2748  -1.2614  -1.2550  -1.2421  -1.2286  -1.2277
    -1.2197  -1.2132  -1.2018  -1.1982  -1.1961  -1.1928  -1.1919  -1.1895
    -1.1828  -1.1653  -1.1568  -1.1530  -1.1378  -1.1081  -1.0959  -1.0946
    -1.0889  -1.0841  -1.0261  -1.0170  -1.0138  -1.0065  -1.0049  -0.9938
    -0.9742  -0.9609  -0.9580  -0.9505  -0.9495  -0.9412  -0.9377  -0.9329
    -0.9271  -0.9037  -0.8872  -0.8839  -0.8540  -0.8474  -0.8422  -0.8089
    -0.8063  -0.7980  -0.7953  -0.7943  -0.7747  -0.7729  -0.7698  -0.7483
    -0.7438  -0.7409  -0.7342  -0.7274  -0.7234  -0.7093  -0.6973  -0.6921
    -0.6841  -0.6727  -0.6638  -0.6563  -0.6493  -0.6470  -0.6455  -0.6326
    -0.6279  -0.6239  -0.6191  -0.6138  -0.6119  -0.6056  -0.6044  -0.5942
    -0.5934  -0.5898  -0.5846  -0.5806  -0.5660  -0.5538  -0.5526  -0.5454
    -0.5288  -0.5220  -0.5137  -0.5002  -0.4967  -0.4868  -0.4828  -0.4784
    -0.4745  -0.4614  -0.4574  -0.4556  -0.4519  -0.4471  -0.4252  -0.4186
    -0.3979  -0.3948  -0.3614  -0.3567  -0.3492  -0.3476  -0.3464  -0.3447
    -0.3350  -0.3295  -0.3262  -0.3131  -0.3089  -0.3063  -0.3028  -0.2958
    -0.2894  -0.2842  -0.2816  -0.2741  -0.2686  -0.2623  -0.2584  -0.2533
    -0.2468  -0.2450  -0.2410  -0.2377  -0.2369  -0.2309  -0.2300  -0.2281
    -0.2243  -0.2156  -0.2120  -0.2085  -0.2071  -0.2053  -0.2011  -0.1766
    -0.1722  -0.1665  -0.1643  -0.1590  -0.1515  -0.1409  -0.1334  -0.1138
    -0.1121  -0.1095  -0.1019  -0.0933  -0.0927  -0.0906  -0.0889  -0.0767
    -0.0732  -0.0702  -0.0619  -0.0588  -0.0400  -0.0333  -0.0264   0.0136
     0.0241   0.0287   0.0330   0.0348   0.0418   0.0451   0.0490   0.0525
     0.0549   0.0627   0.0668   0.0702   0.0723   0.0815   0.0834   0.0893
     0.0904   0.0985   0.1026   0.1056   0.1172   0.1250   0.1302   0.1324
     0.1368   0.1501   0.1525   0.1563   0.1636   0.1673   0.1806   0.1932
     0.2040   0.2047   0.2108   0.2141   0.2153   0.2265   0.2336   0.2363
     0.2384   0.2428   0.2459   0.2492   0.2526   0.2622   0.2728   0.2760
     0.2804   0.2861   0.2896   0.3061   0.3263   0.3281   0.3305   0.3337
     0.3501   0.3532   0.3588   0.3609   0.3647   0.3703   0.3729   0.3748
     0.3813   0.3830   0.3885   0.3994   0.4028   0.4057   0.4108   0.4119
     0.4130   0.4220   0.4237   0.4262   0.4275   0.4324   0.4380   0.4444
     0.4460   0.4490   0.4528   0.4572   0.4614   0.4675   0.4688   0.4708
     0.4738   0.4758   0.4788   0.4829   0.4856   0.5034   0.5133   0.5176
     0.5191   0.5225   0.5396   0.5494   0.5571   0.5706   0.5808   0.5823
     0.5830   0.5874   0.5878   0.5897   0.5928   0.6057   0.6063   0.6106
     0.6135   0.6144   0.6155   0.6217   0.6300   0.6394   0.6445   0.6494
     0.6553   0.6572   0.6586   0.6675   0.6787   0.6812   0.6839   0.6866
     0.6939   0.7079   0.7141   0.7226   0.7237   0.7297   0.7320   0.7357
     0.7438   0.7544   0.7583   0.7657   0.7707   0.7758   0.7846   0.7963
     0.7998   0.8044   0.8118   0.8197   0.8295   0.8370   0.8409   0.8425
     0.8440   0.8444   0.8470   0.8488   0.8497   0.8511   0.8588   0.8601
     0.8633   0.8648   0.8695   0.8762   0.8801   0.8878   0.8894   0.8958
     0.9086   0.9171   0.9184   0.9224   0.9242   0.9274   0.9295   0.9325
     0.9364   0.9415   0.9440   0.9478   0.9519   0.9542   0.9572   0.9591
     0.9619   0.9651   0.9704   0.9757   0.9769   0.9808   0.9823   0.9839
     0.9872   0.9894   0.9990   1.0039   1.0086   1.0198   1.0261   1.0281
     1.0328   1.0354   1.0377   1.0427   1.0494   1.0542   1.0590   1.0659
     1.0679   1.0716   1.0813   1.0853   1.0857   1.0888   1.0925   1.0965
     1.0993   1.1027   1.1094   1.1101   1.1130   1.1173   1.1277   1.1321
     1.1340   1.1370   1.1391   1.1423   1.1454   1.1495   1.1500   1.1527
     1.1593   1.1602   1.1625   1.1652   1.1709   1.1754   1.1799   1.1902
     1.1927   1.1934   1.1951   1.1984   1.2005   1.2024   1.2056   1.2108
     1.2126   1.2142   1.2152   1.2331   1.2346   1.2404   1.2472   1.2536
     1.2602   1.2624   1.2682   1.2758   1.2831   1.2845   1.3055   1.3062
     1.3096   1.3156   1.3171   1.3435   1.3525   1.3711   1.4030   1.4195
     1.4361   1.4433   1.4827   1.5056   1.5089   1.5212   1.5318   1.5397
     1.5520   1.5753   1.6099   1.6417   1.7118   1.8796   1.8843   1.9086
     1.9142   2.0186   2.0555   2.3361   2.3430   2.4795   2.4941   2.5223
     2.5450   2.5523   2.5596   2.5645   2.5871   2.6439   2.7340   2.7682
     2.8035   2.8891   3.1923   3.3110   3.3330   3.3495   3.3875   3.4618
     3.4778   3.5787   3.5994   3.6165   3.6585   3.7370   3.7612   3.8278
     3.8535   3.9180   3.9266   4.1304   4.1409   4.2209   4.2613   4.2901
     4.3917   4.4333   4.4574   4.5813   4.6773   4.7947   4.8838   4.9099
     4.9567   5.0322   5.0715   5.0953   5.1687   5.1876   5.2409   5.2633
     5.3767   5.5084   5.5394   5.5886   5.6359   5.6505   5.7636   5.9548
     6.1104   6.2692   6.3131   6.3525   6.3873   6.4495   6.4648   6.5652
     6.5872   6.6397   6.7001   6.7761   6.8057   6.8445   6.8738   6.9132
     6.9534   6.9789   7.0026   7.0731   7.1093   7.1389   7.1447   7.1787
     7.1928   7.2143   7.2912   7.3896   7.4578   7.5316   7.5937   7.6562
     7.6870   7.7485   7.8007   7.9124   7.9256   7.9429   7.9712   8.0382
     8.1047   8.2240   8.2543   8.3109   8.3513   8.3845   8.3909   8.4145
     8.4388   8.4681   8.5053   8.5461   8.5659   8.5947   8.6485   8.7020
     8.7702   8.7821   8.8069   8.8493   8.8621   8.8941   8.9617   8.9827
     8.9993   9.0185   9.0524   9.0585   9.0793   9.0985   9.1380   9.1502
     9.2155   9.2684   9.2980

          k =-0.5000 0.0000 0.0000 (256496 PWs)   bands (ev):

   -20.9529 -15.8404 -15.8095 -15.2340 -15.1317 -14.3051 -14.1082 -13.0738
   -12.7763 -12.0380 -12.0279 -11.6673 -11.5594 -11.5432 -11.3503 -10.4414
   -10.2455  -9.4430  -9.2485  -9.0227  -8.6722  -8.2706  -8.0588  -7.2524
    -6.7284  -5.6817  -5.5401  -5.5358  -5.4110  -5.3919  -5.0912  -5.0811
    -5.0492  -5.0337  -5.0323  -5.0256  -4.8705  -4.8251  -4.7992  -4.5822
    -4.5255  -4.4675  -4.3832  -4.2390  -4.1920  -4.1701  -4.1192  -4.0119
    -3.9427  -3.9129  -3.8409  -3.7504  -3.6571  -3.6503  -3.6476  -3.6456
    -3.6199  -3.5859  -3.5159  -3.4303  -3.4212  -3.3064  -2.9990  -2.9063
    -2.8979  -2.8828  -2.8714  -2.8296  -2.8169  -2.6739  -2.6072  -2.5618
    -2.5296  -2.5016  -2.4830  -2.3749  -2.3177  -2.2251  -2.1120  -2.1111
    -2.1091  -2.1079  -2.1052  -2.1023  -2.0503  -2.0187  -1.9793  -1.9245
    -1.8861  -1.8843  -1.8837  -1.8764  -1.8373  -1.8307  -1.8303  -1.8281
    -1.7762  -1.7416  -1.7328  -1.7218  -1.7062  -1.6957  -1.6721  -1.6595
    -1.6542  -1.6498  -1.6417  -1.6359  -1.6004  -1.5954  -1.5948  -1.5920
    -1.5899  -1.5794  -1.5783  -1.5772  -1.5720  -1.5622  -1.5375  -1.5335
    -1.5322  -1.5175  -1.5037  -1.5024  -1.4975  -1.4961  -1.4614  -1.4374
    -1.4359  -1.4192  -1.4183  -1.4130  -1.4105  -1.4057  -1.3878  -1.3823
    -1.3774  -1.3767  -1.3692  -1.3590  -1.3453  -1.3423  -1.3414  -1.3384
    -1.3154  -1.3118  -1.2897  -1.2866  -1.2627  -1.2499  -1.2452  -1.2440
    -1.2216  -1.2165  -1.2149  -1.2107  -1.2071  -1.1966  -1.1848  -1.1801
    -1.1756  -1.1740  -1.1725  -1.1669  -1.1614  -1.1566  -1.1492  -1.1442
    -1.1408  -1.1370  -1.0816  -1.0784  -1.0737  -1.0702  -1.0694  -1.0332
    -1.0300  -0.9465  -0.9440  -0.9427  -0.9419  -0.9154  -0.9132  -0.9107
    -0.9100  -0.9063  -0.9025  -0.8908  -0.8760  -0.8718  -0.8676  -0.8637
    -0.8513  -0.8493  -0.8455  -0.8443  -0.8417  -0.8314  -0.8147  -0.8097
    -0.7957  -0.7392  -0.7008  -0.6975  -0.6960  -0.6938  -0.6909  -0.6789
    -0.6730  -0.6685  -0.6637  -0.6526  -0.6478  -0.6446  -0.6425  -0.6309
    -0.6195  -0.6187  -0.6106  -0.6094  -0.5907  -0.5783  -0.5721  -0.5696
    -0.5675  -0.5641  -0.5470  -0.5349  -0.5338  -0.5321  -0.5299  -0.5282
    -0.5185  -0.5168  -0.5126  -0.4885  -0.4872  -0.4820  -0.4814  -0.4663
    -0.4542  -0.4442  -0.4415  -0.4327  -0.3823  -0.3794  -0.3773  -0.3754
    -0.3704  -0.3698  -0.3676  -0.3644  -0.3345  -0.3325  -0.3248  -0.3189
    -0.2962  -0.2939  -0.2714  -0.2702  -0.2695  -0.2676  -0.2646  -0.2637
    -0.2611  -0.2607  -0.2598  -0.2580  -0.2554  -0.2536  -0.2024  -0.1908
    -0.1849  -0.1826  -0.1756  -0.1712  -0.1691  -0.1661  -0.1630  -0.1605
    -0.1588  -0.1574  -0.1571  -0.1545  -0.1520  -0.1483  -0.1455  -0.1433
    -0.1413  -0.1392  -0.1298  -0.1285  -0.1268  -0.1261  -0.1231  -0.1219
    -0.1157  -0.1128  -0.1100  -0.1100  -0.1094  -0.1046  -0.0986  -0.0957
    -0.0910  -0.0888  -0.0867  -0.0852  -0.0716  -0.0703  -0.0559  -0.0529
    -0.0230   0.0340   0.0393   0.0439   0.0453   0.0692   0.0754   0.0769
     0.0812   0.0855   0.0875   0.0891   0.0923   0.0960   0.1038   0.1051
     0.1099   0.1136   0.1141   0.1236   0.1239   0.1257   0.1260   0.1283
     0.1289   0.1305   0.1387   0.1406   0.1416   0.1429   0.1465   0.1536
     0.1599   0.1667   0.1708   0.1739   0.1865   0.2164   0.2357   0.2506
     0.2527   0.2565   0.2570   0.2607   0.2746   0.2778   0.2790   0.2799
     0.2815   0.2834   0.2847   0.2879   0.2922   0.2954   0.2980   0.2992
     0.3010   0.3044   0.3052   0.3070   0.3138   0.3183   0.3234   0.3329
     0.3434   0.3454   0.3493   0.3617   0.3649   0.3666   0.3812   0.3838
     0.3903   0.3905   0.3949   0.3971   0.3996   0.4006   0.4045   0.4085
     0.4089   0.4098   0.4220   0.4236   0.4252   0.4346   0.4357   0.4520
     0.4572   0.4644   0.4682   0.4708   0.4726   0.4757   0.4878   0.4925
     0.4989   0.5128   0.5146   0.5173   0.5229   0.5323   0.5428   0.5538
     0.5673   0.5778   0.5781   0.5898   0.5911   0.5924   0.5948   0.5980
     0.6007   0.6034   0.6053   0.6091   0.6123   0.6131   0.6295   0.6305
     0.6396   0.6426   0.6491   0.6499   0.6618   0.6633   0.6638   0.6655
     0.6671   0.6687   0.6808   0.6941   0.6967   0.7104   0.7128   0.7254
     0.7514   0.7645   0.7694   0.7720   0.7775   0.7786   0.7830   0.7994
     0.8019   0.8069   0.8119   0.8198   0.8204   0.8309   0.8349   0.8365
     0.8402   0.8431   0.8634   0.8644   0.8657   0.8695   0.8708   0.8739
     0.8780   0.8796   0.8839   0.8855   0.8889   0.8903   0.8907   0.8923
     0.8951   0.8982   0.9017   0.9028   0.9080   0.9202   0.9298   0.9309
     0.9320   0.9361   0.9391   0.9511   0.9545   0.9591   0.9663   0.9703
     0.9727   0.9789   0.9884   0.9924   0.9947   0.9969   1.0008   1.0015
     1.0022   1.0042   1.0053   1.0092   1.0153   1.0217   1.0313   1.0396
     1.0500   1.0550   1.0567   1.0601   1.0678   1.0691   1.0739   1.0764
     1.0772   1.0780   1.0799   1.0807   1.0865   1.0877   1.0883   1.0896
     1.0909   1.0933   1.0939   1.0952   1.0982   1.0988   1.1026   1.1057
     1.1083   1.1099   1.1112   1.1214   1.1230   1.1272   1.1380   1.1425
     1.1460   1.1543   1.1597   1.1650   1.1714   1.1729   1.1744   1.1754
     1.1776   1.1835   1.1893   1.1902   1.1939   1.1965   1.2011   1.2039
     1.2050   1.2071   1.2254   1.2273   1.2307   1.2317   1.2346   1.2372
     1.2374   1.2393   1.2479   1.2528   1.2588   1.2628   1.2686   1.2699
     1.2701   1.2709   1.2734   1.2839   1.2886   1.2976   1.3139   1.3283
     1.3407   1.3459   1.3621   1.3629   1.3663   1.3675   1.3755   1.7716
     1.7815   1.7833   1.7939   1.9566   1.9930   2.0179   2.0197   2.0431
     2.0480   2.0499   2.0527   2.3284   2.3355   2.3436   2.4049   2.5783
     2.5816   2.5849   2.5940   2.6123   2.9375   2.9413   2.9444   2.9719
     3.1741   3.2581   3.3690   3.4397   3.4811   3.5092   3.6144   3.6551
     3.6750   3.6777   3.7203   3.8146   3.8175   3.8671   3.8876   3.9178
     3.9784   4.3652   4.3947   4.4759   4.5068   4.5181   4.5731   4.5817
     4.6017   4.6680   4.6729   4.7284   4.7595   4.7717   4.7746   4.7808
     4.8119   4.8209   4.8231   4.8642   4.9021   4.9929   5.0967   5.1433
     5.2050   5.2395   5.2669   5.2803   5.3765   5.4088   5.4122   5.6891
     5.7297   5.7437   5.7507   5.8049   5.8073   5.8181   5.8831   6.0460
     6.0885   6.2524   6.3274   6.4238   6.7282   6.7978   6.8223   6.8580
     6.9075   6.9531   7.0491   7.2640   7.3140   7.3411   7.3451   7.3584
     7.3659   7.4145   7.4447   7.5625   7.5762   7.5826   7.6045   7.6077
     7.6253   7.6501   7.6629   7.6991   7.7257   7.7479   7.7653   7.8084
     7.8237   7.8456   7.9757   7.9934   8.0573   8.0849   8.1341   8.1472
     8.1623   8.4527   8.4868   8.5199   8.5275   8.5452   8.6054   8.6150
     8.6685   8.7042   8.7345   8.7763   8.7818   8.8025   8.8140   8.8673
     9.0147   9.0214   9.0776   9.1019   9.1248   9.1625   9.1888   9.2295
     9.2551   9.3175   9.3537

          k =-0.5000-0.2165 0.0000 (256328 PWs)   bands (ev):

   -20.9529 -15.8404 -15.8095 -15.2340 -15.1317 -14.3051 -14.1082 -13.0738
   -12.7763 -12.0380 -12.0279 -11.6672 -11.5594 -11.5432 -11.3503 -10.4414
   -10.2455  -9.4430  -9.2485  -9.0227  -8.6721  -8.2706  -8.0588  -7.2520
    -6.7285  -5.6818  -5.4322  -5.4235  -5.4192  -5.4082  -5.3811  -5.3793
    -5.0894  -5.0796  -4.8699  -4.8418  -4.7988  -4.5470  -4.5199  -4.4971
    -4.4372  -4.4268  -4.4210  -4.3969  -4.3819  -4.3668  -4.2630  -4.2094
    -4.0308  -3.9948  -3.9381  -3.7750  -3.7136  -3.6464  -3.6127  -3.5596
    -3.5166  -3.4687  -3.4299  -3.4175  -3.3524  -3.1920  -2.8645  -2.8348
    -2.8105  -2.8093  -2.8056  -2.7937  -2.7883  -2.7745  -2.7502  -2.6725
    -2.6083  -2.3997  -2.3664  -2.3287  -2.3190  -2.3085  -2.3061  -2.2940
    -2.2596  -2.2391  -2.1837  -2.0728  -2.0400  -2.0345  -2.0292  -2.0239
    -1.8586  -1.8312  -1.8154  -1.7898  -1.7671  -1.7561  -1.7273  -1.7265
    -1.7236  -1.7227  -1.6993  -1.6837  -1.6810  -1.6793  -1.6710  -1.6666
    -1.6632  -1.6407  -1.6243  -1.6217  -1.6131  -1.6093  -1.6090  -1.6072
    -1.6055  -1.5987  -1.5974  -1.5953  -1.5932  -1.5870  -1.5460  -1.5431
    -1.5419  -1.5413  -1.4842  -1.4740  -1.4703  -1.4684  -1.4575  -1.4247
    -1.4232  -1.4229  -1.4220  -1.4135  -1.4016  -1.3974  -1.3877  -1.3796
    -1.3689  -1.3625  -1.3594  -1.3585  -1.3565  -1.3547  -1.3544  -1.3511
    -1.3465  -1.3282  -1.2967  -1.2943  -1.2819  -1.2816  -1.2785  -1.2779
    -1.2770  -1.2751  -1.2716  -1.2681  -1.2640  -1.2584  -1.2413  -1.2173
    -1.2078  -1.1276  -1.1233  -1.1167  -1.1112  -1.0849  -1.0839  -1.0835
    -1.0824  -1.0612  -1.0242  -1.0141  -1.0127  -1.0101  -1.0015  -0.9989
    -0.9987  -0.9955  -0.9939  -0.9934  -0.9679  -0.9404  -0.9375  -0.9330
    -0.9313  -0.9297  -0.9259  -0.9220  -0.9160  -0.9093  -0.9069  -0.8932
    -0.8896  -0.8268  -0.8237  -0.8192  -0.8100  -0.8092  -0.7904  -0.7814
    -0.7757  -0.7404  -0.7393  -0.7355  -0.7348  -0.7064  -0.6892  -0.6874
    -0.6855  -0.6815  -0.6712  -0.6705  -0.6622  -0.6622  -0.6479  -0.6426
    -0.6317  -0.6287  -0.6261  -0.6243  -0.6219  -0.6207  -0.5823  -0.5709
    -0.5550  -0.5179  -0.5158  -0.5083  -0.5015  -0.5008  -0.4934  -0.4924
    -0.4895  -0.4883  -0.4817  -0.4798  -0.4773  -0.4664  -0.4151  -0.4086
    -0.3990  -0.3957  -0.3950  -0.3927  -0.3911  -0.3886  -0.3884  -0.3867
    -0.3851  -0.3705  -0.3570  -0.3561  -0.3550  -0.3517  -0.3455  -0.3445
    -0.3412  -0.3379  -0.3309  -0.3294  -0.3270  -0.3258  -0.2734  -0.2667
    -0.2640  -0.2613  -0.2506  -0.2492  -0.2325  -0.2258  -0.1987  -0.1897
    -0.1879  -0.1779  -0.1753  -0.1707  -0.1639  -0.1634  -0.1625  -0.1601
    -0.1558  -0.1543  -0.1535  -0.1497  -0.1479  -0.1474  -0.1416  -0.1391
    -0.1387  -0.1384  -0.1358  -0.1350  -0.1334  -0.1283  -0.1253  -0.1209
    -0.1186  -0.1149  -0.1119  -0.1112  -0.0926  -0.0918  -0.0912  -0.0911
    -0.0835  -0.0801  -0.0743  -0.0739  -0.0530  -0.0471  -0.0319  -0.0274
    -0.0267  -0.0215  -0.0109   0.0046   0.0096   0.0102   0.0139   0.0741
     0.0777   0.0847   0.0849   0.0883   0.0929   0.0993   0.1017   0.1059
     0.1112   0.1170   0.1220   0.1257   0.1287   0.1297   0.1326   0.1349
     0.1389   0.1414   0.1436   0.1445   0.1480   0.1504   0.1538   0.1856
     0.1867   0.2039   0.2093   0.2126   0.2156   0.2175   0.2184   0.2199
     0.2208   0.2240   0.2265   0.2348   0.2510   0.2554   0.2574   0.2618
     0.2651   0.2678   0.2691   0.2754   0.2873   0.2931   0.2981   0.3055
     0.3120   0.3132   0.3170   0.3207   0.3240   0.3248   0.3261   0.3341
     0.3348   0.3376   0.3387   0.3398   0.3445   0.3493   0.3553   0.3592
     0.3635   0.3692   0.3741   0.3777   0.3906   0.3949   0.4049   0.4201
     0.4318   0.4326   0.4373   0.4455   0.4459   0.4463   0.4485   0.4492
     0.4536   0.4563   0.4641   0.4746   0.4814   0.4838   0.4867   0.4868
     0.4884   0.4898   0.4938   0.5002   0.5064   0.5193   0.5375   0.5438
     0.5470   0.5557   0.5684   0.5703   0.5729   0.5734   0.5869   0.6002
     0.6011   0.6078   0.6088   0.6132   0.6309   0.6363   0.6401   0.6438
     0.6837   0.6848   0.6864   0.6872   0.7063   0.7121   0.7158   0.7202
     0.7241   0.7307   0.7391   0.7419   0.7539   0.7651   0.7673   0.7703
     0.7737   0.7737   0.7878   0.7916   0.7922   0.7981   0.8001   0.8004
     0.8015   0.8017   0.8046   0.8052   0.8075   0.8102   0.8116   0.8156
     0.8198   0.8206   0.8266   0.8300   0.8343   0.8372   0.8472   0.8480
     0.8510   0.8575   0.8583   0.8657   0.8675   0.8679   0.8721   0.8827
     0.8852   0.8868   0.8905   0.8949   0.8962   0.9018   0.9069   0.9239
     0.9306   0.9383   0.9427   0.9438   0.9477   0.9481   0.9520   0.9532
     0.9668   0.9703   0.9725   0.9764   0.9801   0.9913   1.0038   1.0088
     1.0115   1.0172   1.0192   1.0229   1.0248   1.0267   1.0297   1.0317
     1.0366   1.0374   1.0402   1.0419   1.0453   1.0455   1.0493   1.0519
     1.0779   1.0854   1.0932   1.0946   1.1005   1.1036   1.1041   1.1100
     1.1118   1.1121   1.1126   1.1129   1.1161   1.1204   1.1221   1.1272
     1.1341   1.1373   1.1409   1.1428   1.1446   1.1466   1.1467   1.1471
     1.1488   1.1505   1.1561   1.1566   1.1595   1.1624   1.1655   1.1715
     1.1737   1.1748   1.1823   1.1915   1.1980   1.2009   1.2094   1.2125
     1.2178   1.2208   1.2236   1.2272   1.2321   1.2366   1.2401   1.2436
     1.2478   1.2521   1.2623   1.2639   1.2788   1.2835   1.3012   1.3182
     1.3215   1.3266   1.3293   1.3305   1.3331   1.3527   1.3539   1.3622
     1.3655   1.3701   1.3723   1.3730   1.3769   1.3812   1.3843   1.4109
     1.4455   1.5865   1.5914   1.5937   1.6006   2.0514   2.0569   2.1257
     2.1300   2.2530   2.3102   2.3223   2.3256   2.5043   2.5190   2.5396
     2.5565   2.5925   2.8095   2.8288   2.8573   2.9223   3.2003   3.2056
     3.2141   3.2151   3.3048   3.3948   3.3979   3.4425   3.5857   3.6923
     3.6940   3.6967   3.7108   3.9200   3.9639   3.9802   3.9828   3.9857
     4.0128   4.1064   4.1437   4.2634   4.2706   4.2879   4.3530   4.3825
     4.3983   4.4459   4.4573   4.6924   4.7021   4.7949   4.8766   4.8979
     4.8995   4.9160   4.9515   4.9772   4.9830   5.0101   5.0374   5.0852
     5.1099   5.1666   5.2852   5.3382   5.4054   5.4690   5.4780   5.4836
     5.5249   5.5902   5.6593   5.6968   5.7818   6.3745   6.4591   6.5772
     6.5908   6.6209   6.7709   6.7770   6.7955   6.8307   6.8579   6.8733
     6.8866   6.9146   6.9226   6.9498   7.0075   7.0896   7.0934   7.1006
     7.1036   7.1087   7.1410   7.2957   7.3148   7.3398   7.4713   7.5747
     7.6890   7.6918   7.7172   7.7244   7.7569   7.8086   7.9626   7.9780
     7.9845   8.0079   8.0452   8.1720   8.2437   8.2727   8.2740   8.4051
     8.4225   8.5334   8.5722   8.5958   8.6043   8.6223   8.6399   8.6896
     8.7019   8.7044   8.7122   8.7372   8.7447   8.7750   8.7884   8.8800
     8.9001   8.9051   8.9275   9.0259   9.0485   9.0589   9.1299   9.1599
     9.1877   9.2774   9.2859

     the Fermi energy is     3.0853 ev

!    total energy              =  -12530.91796512 Ry
     Harris-Foulkes estimate   =  -12530.91796508 Ry
     estimated scf accuracy    <          8.3E-09 Ry

     The total energy is the sum of the following terms:

[...]
     4.4387   4.4657   4.5099   4.6969   4.7102   4.8102   4.8723   4.9125
     4.9296   4.9636   4.9710   4.9983   5.0083   5.0254   5.0625   5.1132
     5.1287   5.2008   5.2798   5.3512   5.3898   5.4886   5.4945   5.5021
     5.5346   5.6443   5.7331   5.7671   5.8891   6.3622   6.4232   6.5994
     6.6115   6.6207   6.6579   6.7914   6.8066   6.8657   6.8915   6.9116
     6.9244   6.9425   6.9727   7.0031   7.0150   7.1037   7.1155   7.1221
     7.1294   7.1339   7.2037   7.3179   7.3639   7.4208   7.5109   7.6156
     7.6613   7.7045   7.7200   7.7411   7.7848   7.8925   7.9466   8.0004
     8.0109   8.0181   8.0592   8.1726   8.2116   8.2820   8.2858   8.4115
     8.4248   8.5343   8.5922   8.6081   8.6226   8.6449   8.6551   8.7091
     8.7266   8.7327   8.7431   8.7441   8.7628   8.7890   8.7973   8.8736
     8.8827   8.9061   8.9262   8.9660   9.0189   9.0496   9.0829   9.1754
     9.2347   9.2886   9.2998

     the Fermi energy is     3.1055 ev

!    total energy              =  -12531.06281920 Ry
     Harris-Foulkes estimate   =  -12531.06281928 Ry
     estimated scf accuracy    <          8.8E-09 Ry

     The total energy is the sum of the following terms:

     one-electron contribution = -110656.13944407 Ry
     hartree contribution      =   56659.91757366 Ry
     xc contribution           =   -4393.91854158 Ry
     ewald contribution        =   45865.16091056 Ry
     Dispersion Correction     =      -2.79866651 Ry
     smearing contrib. (-TS)   =      -3.28465126 Ry

     convergence has been achieved in  12 iterations

     negative rho (up, down):  2.204E-03 0.000E+00

     Forces acting on atoms (Ry/au):

     atom    1 type  1   force =     0.00002461   -0.00009447    0.00008044
     atom    2 type  1   force =    -0.00012024    0.00029660    0.00061047
     atom    3 type  1   force =    -0.00005049   -0.00023495   -0.00001595
     atom    4 type  1   force =     0.00006379   -0.00006636    0.00032497
     atom    5 type  1   force =    -0.00009588    0.00004932    0.00076139
     atom    6 type  1   force =    -0.00003758   -0.00025748    0.00024787
     atom    7 type  1   force =     0.00000844    0.00003325    0.00076516
     atom    8 type  1   force =    -0.00006768   -0.00009774    0.00061869
     atom    9 type  1   force =    -0.00005123   -0.00014588    0.00011235
     atom   10 type  1   force =    -0.00006235    0.00001309    0.00009840
     atom   11 type  1   force =    -0.00003825   -0.00026024    0.00011994
     atom   12 type  1   force =    -0.00002203    0.00014900    0.00023653
     atom   13 type  1   force =    -0.00013246    0.00020531    0.00043766
     atom   14 type  1   force =    -0.00004816    0.00011213    0.00044976
     atom   15 type  1   force =     0.00005934    0.00021329    0.00053375
     atom   16 type  1   force =    -0.00001025    0.00007222    0.00048978
     atom   17 type  1   force =    -0.00001359   -0.00027922    0.00043439
     atom   18 type  1   force =    -0.00003335   -0.00034877    0.00016675
     atom   19 type  1   force =    -0.00002382   -0.00015881    0.00029868
     atom   20 type  1   force =     0.00001351   -0.00037791    0.00018247
     atom   21 type  1   force =    -0.00002227   -0.00008067    0.00013446
     atom   22 type  1   force =    -0.00006155   -0.00034953   -0.00026480
     atom   23 type  1   force =    -0.00008396   -0.00003913   -0.00005823
     atom   24 type  1   force =    -0.00002311   -0.00007310   -0.00010701
     atom   25 type  1   force =    -0.00017910    0.00012327   -0.00008457
     atom   26 type  1   force =    -0.00003416   -0.00013183   -0.00002071
     atom   27 type  1   force =     0.00016033    0.00015192    0.00003295
     atom   28 type  1   force =    -0.00006329    0.00004999    0.00010224
     atom   29 type  1   force =     0.00007287   -0.00000883   -0.00019831
     atom   30 type  1   force =     0.00001591    0.00026810    0.00001526
     atom   31 type  1   force =    -0.00014394    0.00001446   -0.00035552
     atom   32 type  1   force =    -0.00001920    0.00012452   -0.00018186
     atom   33 type  1   force =    -0.00006515    0.00003051    0.00009560
     atom   34 type  1   force =     0.00007710   -0.00005742   -0.00017041
     atom   35 type  1   force =    -0.00002280   -0.00006119    0.00018218
     atom   36 type  1   force =    -0.00012657    0.00003688    0.00007538
     atom   37 type  1   force =    -0.00002801   -0.00011417   -0.00006500
     atom   38 type  1   force =    -0.00004436   -0.00005256    0.00010504
     atom   39 type  1   force =    -0.00003882   -0.00010186    0.00010502
     atom   40 type  1   force =    -0.00004961    0.00011508    0.00008680
     atom   41 type  1   force =    -0.00023342   -0.00024093   -0.00026127
     atom   42 type  1   force =    -0.00003681   -0.00045013   -0.00031112
     atom   43 type  1   force =     0.00005402    0.00001069   -0.00030658
     atom   44 type  1   force =    -0.00007654    0.00006161   -0.00016997
     atom   45 type  1   force =     0.00004868   -0.00001997   -0.00015176
     atom   46 type  1   force =     0.00020030   -0.00049727   -0.00099947
     atom   47 type  1   force =     0.00006334    0.00003451   -0.00001908
     atom   48 type  1   force =     0.00003703    0.00004973    0.00007140
     atom   49 type  1   force =    -0.00023980   -0.00013900   -0.00081628
     atom   50 type  1   force =     0.00002792    0.00029710    0.00033925
     atom   51 type  1   force =     0.00024122    0.00003286   -0.00062470
     atom   52 type  1   force =    -0.00019463    0.00065425   -0.00047251
     atom   53 type  1   force =     0.00005205    0.00010613   -0.00045869
     atom   54 type  1   force =     0.00004148   -0.00000716   -0.00003661
     atom   55 type  1   force =    -0.00020810    0.00002446    0.00017701
     atom   56 type  1   force =    -0.00015136    0.00023450   -0.00036656
     atom   57 type  1   force =     0.00003494   -0.00018330   -0.00026923
     atom   58 type  1   force =    -0.00004682    0.00010740   -0.00010328
     atom   59 type  1   force =    -0.00029642    0.00000870   -0.00018785
     atom   60 type  1   force =    -0.00018701   -0.00004586   -0.00013667
     atom   61 type  1   force =    -0.00008392   -0.00008953   -0.00010379
     atom   62 type  1   force =    -0.00019894    0.00007328    0.00054989
     atom   63 type  1   force =     0.00013870   -0.00025356   -0.00007418
     atom   64 type  1   force =    -0.00008863   -0.00001260    0.00058751
     atom   65 type  1   force =    -0.00020666   -0.00036308   -0.00028431
     atom   66 type  1   force =     0.00015927   -0.00012277    0.00001301
     atom   67 type  1   force =     0.00018736   -0.00008200   -0.00017942
     atom   68 type  1   force =     0.00020685   -0.00031516   -0.00028597
     atom   69 type  1   force =    -0.00065504   -0.00074294   -0.00012014
     atom   70 type  1   force =    -0.00035813   -0.00024621   -0.00031012
     atom   71 type  1   force =     0.00005071   -0.00062332    0.00024849
     atom   72 type  1   force =    -0.00047396   -0.00007732    0.00009891
     atom   73 type  1   force =    -0.00024614    0.00012304   -0.00009630
     atom   74 type  1   force =    -0.00073940   -0.00019026   -0.00011164
     atom   75 type  1   force =    -0.00035110    0.00062226   -0.00069754
     atom   76 type  1   force =    -0.00010074    0.00045254    0.00020854
     atom   77 type  1   force =    -0.00045471    0.00039131   -0.00033976
     atom   78 type  1   force =    -0.00044754    0.00092654   -0.00037529
     atom   79 type  1   force =    -0.00013175    0.00026608   -0.00002316
     atom   80 type  1   force =    -0.00017036    0.00048226   -0.00027816
     atom   81 type  1   force =    -0.00001301    0.00024900    0.00051407
     atom   82 type  1   force =     0.00031614    0.00054232    0.00013220
     atom   83 type  1   force =    -0.00037359   -0.00014177    0.00012352
     atom   84 type  1   force =    -0.00019008    0.00034652    0.00014348
     atom   85 type  1   force =    -0.00011419   -0.00002952    0.00052512
     atom   86 type  1   force =    -0.00028630    0.00004525    0.00025377
     atom   87 type  1   force =     0.00015549    0.00009772    0.00004638
     atom   88 type  1   force =    -0.00047202   -0.00103287    0.00034766
     atom   89 type  1   force =    -0.00030147   -0.00066048   -0.00001950
     atom   90 type  1   force =     0.00017515    0.00101547    0.00043609
     atom   91 type  1   force =    -0.00049200   -0.00072806    0.00053674
     atom   92 type  1   force =     0.00003784    0.00018414    0.00043274
     atom   93 type  1   force =     0.00008274   -0.00033108    0.00124175
     atom   94 type  1   force =     0.00044309   -0.00022958   -0.00001822
     atom   95 type  1   force =    -0.00075819    0.00062318   -0.00008178
     atom   96 type  1   force =     0.00001980    0.00049693   -0.00025019
     atom   97 type  1   force =    -0.00001846    0.00066350   -0.00009661
     atom   98 type  1   force =    -0.00013707   -0.00002245    0.00069204
     atom   99 type  1   force =    -0.00059207   -0.00023923   -0.00000228
     atom  100 type  1   force =    -0.00079559   -0.00001374    0.00058755
     atom  101 type  3   force =     0.00061611    0.00135789    0.00033688
     atom  102 type  3   force =     0.00078381    0.00148361   -0.00011916
     atom  103 type  3   force =     0.00044234   -0.00071817    0.00023286
     atom  104 type  3   force =    -0.00084650    0.00128774   -0.00019623
     atom  105 type  3   force =    -0.00068506    0.00030258    0.00039783
     atom  106 type  3   force =     0.00126043    0.00063644   -0.00012397
     atom  107 type  3   force =     0.00050593   -0.00075297   -0.00065667
     atom  108 type  3   force =     0.00026870    0.00122203   -0.00037338
     atom  109 type  3   force =     0.00102027    0.00095895    0.00031273
     atom  110 type  3   force =    -0.00117451    0.00106469    0.00017812
     atom  111 type  3   force =    -0.00081443   -0.00163127    0.00019959
     atom  112 type  3   force =     0.00114758   -0.00025341    0.00125576
     atom  113 type  3   force =    -0.00066559   -0.00076620   -0.00049321
     atom  114 type  3   force =     0.00069966   -0.00217003   -0.00033342
     atom  115 type  3   force =     0.00099948    0.00111583    0.00057166
     atom  116 type  3   force =    -0.00005505   -0.00124004    0.00046873
     atom  117 type  3   force =     0.00011485   -0.00114866    0.00127352
     atom  118 type  3   force =     0.00060973   -0.00251016   -0.00134813
     atom  119 type  3   force =     0.00056203    0.00059597    0.00111161
     atom  120 type  3   force =     0.00069054    0.00045733   -0.00031093
     atom  121 type  3   force =     0.00147002   -0.00000618   -0.00022227
     atom  122 type  3   force =     0.00050550   -0.00213019   -0.00096586
     atom  123 type  3   force =    -0.00012725   -0.00024225    0.00119512
     atom  124 type  3   force =     0.00020853    0.00145154   -0.00022434
     atom  125 type  3   force =     0.00048300    0.00042382   -0.00148593
     atom  126 type  3   force =     0.00081607   -0.00186989    0.00116791
     atom  127 type  3   force =    -0.00030841    0.00261914   -0.00159028
     atom  128 type  3   force =    -0.00029094   -0.00180815    0.00070776
     atom  129 type  3   force =    -0.00016059    0.00097174   -0.00138318
     atom  130 type  3   force =     0.00060418    0.00014688   -0.00147454
     atom  131 type  5   force =     0.00000084   -0.00172526   -0.00020843
     atom  132 type  5   force =     0.00031129   -0.00143796   -0.00045084
     atom  133 type  5   force =     0.00021469   -0.00191246   -0.00023639
     atom  134 type  5   force =    -0.00000434    0.00145698   -0.00088343
     atom  135 type  4   force =    -0.00088662    0.00364575   -0.00013187
     atom  136 type  5   force =     0.00114888    0.00136532   -0.00144677

     Total force =     0.012209     Total SCF correction =     0.000533

     number of scf cycles    =  29
     number of bfgs steps    =  28

     energy   old            =  -12531.0625706262 Ry
     energy   new            =  -12531.0628192049 Ry

     CASE: energy  _new < energy  _old

     new trust radius        =       0.0116272797 bohr
     new conv_thr            =       0.0000000100 Ry


ATOMIC_POSITIONS (angstrom)
Cu      -0.002337509  -0.010316124   7.418800315
Cu       1.845590534   1.693677538   7.417058935
Cu       3.692098024  -0.010455793   7.419374304
Cu       5.532683030   1.702093990   7.417471116
Cu       0.002814370   3.410489623   7.419669266
Cu       1.843289620   5.124220721   7.425905103
Cu       3.685660674   3.412758174   7.420772436
Cu       5.533447248   5.119804546   7.423916840
Cu      -0.002020412   6.830347086   7.422585326
Cu       1.844494050   8.534072050   7.414653012
Cu       3.689360576   6.828347673   7.421962113
Cu       5.532154683   8.534619731   7.412248372
Cu      -0.000010133  10.236831689   7.407286644
Cu       1.844173365  11.937230966   7.410377527
Cu       3.688241864  10.238355896   7.408615363
Cu       5.533936196  11.938558143   7.409976286
Cu       0.001397825  13.634842110   7.415067550
Cu       1.845121238  15.332535543   7.418688233
Cu       3.688320783  13.633848548   7.414952261
Cu       5.533825967  15.326606985   7.419826588
Cu      -0.000288397   1.693929151   9.244214631
Cu       1.844591887  -0.013507292   9.255539347
Cu       3.688218645   1.693627646   9.244396033
Cu       5.533756193  -0.011747293   9.249281333
Cu      -0.002174230   5.122201997   9.252520901
Cu       1.843445630   3.404907670   9.247552930
Cu       3.686299265   5.123227211   9.256462142
Cu       5.531471185   3.406192240   9.249214254
Cu      -0.003375641   8.542862452   9.249345715
Cu       1.842318598   6.837233121   9.251869750
Cu       3.687818249   8.540793326   9.247646588
Cu       5.530543720   6.836549067   9.250653893
Cu      -0.001059954  11.933955002   9.253401694
Cu       1.842382184  10.239798615   9.246714983
Cu       3.688703231  11.936588465   9.254541858
Cu       5.532199042  10.239502007   9.246356813
Cu       0.000731741  15.324454048   9.260182667
Cu       1.844497301  13.629494997   9.258755887
Cu       3.689004129  15.323495902   9.259571879
Cu       5.533766433  13.626928546   9.263481179
Cu       0.002808604  -0.013560480  11.094643629
Cu       1.843804719   1.687822178  11.087972549
Cu       3.685385086  -0.013257782  11.094797847
Cu       5.530255862   1.682933557  11.086191505
Cu      -0.005362799   3.397507932  11.075214476
Cu       1.841879783   5.123170066  11.072241342
Cu       3.686400321   3.391652718  11.080219327
Cu       5.525846303   5.130233359  11.076510131
Cu      -0.005737874   6.845584019  11.086700048
Cu       1.839952968   8.551905467  11.096165482
Cu       3.684181787   6.852991245  11.096629193
Cu       5.527109604   8.547863229  11.098038524
Cu      -0.005071230  10.239270028  11.105687661
Cu       1.843580374  11.925922184  11.104765248
Cu       3.684170068  10.236452826  11.099185879
Cu       5.530582626  11.921952225  11.110843985
Cu       0.000176821  13.622766427  11.114392472
Cu       1.846147086  15.318305314  11.115091351
Cu       3.688085324  13.626951397  11.121380695
Cu       5.532473970  15.331387387  11.103850450
Cu      -0.004044997   1.686595865  12.921251104
Cu       1.847251919  -0.014084949  12.950403100
Cu       3.685073474   1.669012907  12.948104791
Cu       5.527747987  -0.014181575  12.949392581
Cu      -0.010102973   5.116978796  12.880599316
Cu       1.844173754   3.409347423  12.888211382
Cu       3.684717145   5.114581760  12.891097302
Cu       5.521454718   3.407657453  12.885798685
Cu      -0.012434836   8.543435412  12.940770068
Cu       1.840927565   6.824670548  12.898666831
Cu       3.672670337   8.568927852  12.975777673
Cu       5.517869878   6.849734849  12.924276833
Cu       0.000567073  11.923839865  12.966813498
Cu       1.838309510  10.246036794  12.981106064
Cu       3.679642718  11.917717331  12.971818532
Cu       5.511413782  10.234982514  12.974052855
Cu       0.004217919  15.327008723  12.946938067
Cu       1.848577314  13.598987108  12.970462729
Cu       3.684619614  15.347873629  12.970306918
Cu       5.526900660  13.625464337  12.934570996
Cu      -0.004836955  -0.001897112  14.776148864
Cu       1.833406956   1.732906104  14.697137515
Cu       3.689341418  -0.012431163  14.892114281
Cu       5.533730800   1.738873090  14.697625037
Cu      -0.004237727   3.428223377  14.689867668
Cu       1.837794915   5.112122658  14.699608142
Cu       3.677575116   3.418753887  14.713391996
Cu       5.517672570   5.100570022  14.698561146
Cu      -0.037534463   6.777429112  14.697043323
Cu       1.802086282   8.453208259  14.726737395
Cu       3.685597395   6.793896062  14.708697655
Cu       5.505669442   8.530848362  14.794894070
Cu      -0.032027856  10.212458160  14.784768434
Cu       1.779139869  11.945483064  14.884034130
Cu       3.673288089  10.297227050  14.856189998
Cu       5.552238165  11.959746981  14.786600300
Cu      -0.012981393  13.645795379  14.799184262
Cu       1.835576711  15.310179772  14.763075414
Cu       3.688751037  13.630428454  14.785095562
Cu       5.538928541  15.311971682  14.757876632
C        0.005871003   0.664045558  17.473350452
C        0.006891772   2.101325673  17.556729878
C        1.235546752  -0.024632488  17.400557650
C        1.235133037   2.811500944  17.576595683
C        2.459104894   0.665798077  17.374420941
C        2.463166615   2.100188586  17.479678835
C        3.695201444  -0.024199761  17.193900040
C        3.695922392   2.814439338  17.500851636
C        4.931466064   0.667754415  17.370726463
C        4.929385846   2.103025913  17.474914600
C        6.153971208  -0.024610419  17.395792005
C        6.158727909   2.814859528  17.571672738
C        0.012738067   4.959744020  17.647646687
C        0.017898156   6.391553784  17.592201530
C        1.238048823   4.241839286  17.622093530
C        1.246830685   7.109407772  17.522229389
C        2.466471988   4.958565268  17.598947184
C        2.468898194   6.388261830  17.568455502
C        3.697292071   4.242604979  17.576619009
C        3.701786675   7.097554838  17.527436055
C        4.929842039   4.957373547  17.611212185
C        4.933631093   6.386779524  17.592701258
C        6.160537013   4.244843115  17.626939501
C        6.164253041   7.100162312  17.548233828
C        0.016898899   9.237071623  17.306272217
C        1.242362036   8.542079865  17.326118882
C        2.490502914   9.237733214  17.132025858
C        3.715657419   8.520873454  17.377529468
C        4.935536255   9.215193007  17.322090210
C        6.169519874   8.534819733  17.415015331
H        1.234900179  -1.115149637  17.362287714
H        3.693966857  -1.111597169  17.284435003
H        6.154360492  -1.115042258  17.358005735
H        0.021361691  10.330643353  17.309034602
O        2.553935888  10.494752227  16.716436707
H        4.920772716  10.304172137  17.272141337



     Writing output data file gc.save
     Check: negative starting charge=   -0.002166
     NEW-OLD atomic charge density approx. for the potential
     Check: negative starting charge=   -0.002166

     negative rho (up, down):  2.207E-03 0.000E+00

     total cpu time spent up to now is   171945.0 secs

     Self-consistent Calculation

     iteration #  1     ecut=    80.00 Ry     beta=0.70
     Davidson diagonalization with overlap
     ethr =  1.00E-06,  avg # of iterations =  3.0

     negative rho (up, down):  2.153E-03 0.000E+00

     total cpu time spent up to now is   172536.2 secs

     total energy              =  -12531.06284002 Ry
     Harris-Foulkes estimate   =  -12531.06301325 Ry
     estimated scf accuracy    <       0.00131643 Ry

     iteration #  2     ecut=    80.00 Ry     beta=0.70
     Davidson diagonalization with overlap
     ethr =  1.07E-07,  avg # of iterations =  2.0
