
     Program PWSCF v.5.4.0 starts on 26Mar2017 at 16:13:28 

     This program is part of the open-source Quantum ESPRESSO suite
     for quantum simulation of materials; please cite
         "P. Giannozzi et al., J. Phys.:Condens. Matter 21 395502 (2009);
          URL http://www.quantum-espresso.org", 
     in publications or presentations arising from this work. More details at
     http://www.quantum-espresso.org/quote

     Parallel version (MPI & OpenMP), running on      56 processor cores
     Number of MPI processes:                56
     Threads/MPI process:                     1
     R & G space division:  proc/nbgrp/npool/nimage =      56
     Waiting for input...
     Reading input from standard input

     Current dimensions of program PWSCF are:
     Max number of different atomic species (ntypx) = 10
     Max number of k-points (npk) =  40000
     Max angular momentum in pseudopotentials (lmaxx) =  3
     WARNING: atomic wfc #  2 for atom type 3 has zero norm
     WARNING: atomic wfc #  4 for atom type 3 has zero norm
     WARNING: atomic wfc #  5 for atom type 3 has zero norm

     -------------------------------------
     Parameters for Dispersion Correction:
     -------------------------------------
       atom      VdW radius       C_6     

        Cu         2.952        374.666
        C          2.744         60.710
        O          2.536         24.284

     Subspace diagonalization in iterative solution of the eigenvalue problem:
     one sub-group per band group will be used
     scalapack distributed-memory algorithm (size of sub-group:  5*  5 procs)

 
     Parallelization info
     --------------------
     sticks:   dense  smooth     PW     G-vecs:    dense   smooth      PW
     Min         204     204     54                36612    36612    4962
     Max         205     205     55                36617    36617    4968
     Sum       11433   11433   3039              2050409  2050409  278033
 


     bravais-lattice index     =            0
     lattice parameter (alat)  =      13.9425  a.u.
     unit-cell volume          =   21209.0878 (a.u.)^3
     number of atoms/cell      =          149
     number of atomic types    =            3
     number of electrons       =      1298.00
     number of Kohn-Sham states=          779
     kinetic-energy cutoff     =      80.0000  Ry
     charge density cutoff     =     320.0000  Ry
     convergence threshold     =      1.0E-08
     mixing beta               =       0.7000
     number of iterations used =            8  local-TF  mixing
     Exchange-correlation      =  SLA  PW   PBX  PBC ( 1  4  3  4 0 0)
     nstep                     =           50


     celldm(1)=  13.942539  celldm(2)=   0.000000  celldm(3)=   0.000000
     celldm(4)=   0.000000  celldm(5)=   0.000000  celldm(6)=   0.000000

     crystal axes: (cart. coord. in units of alat)
               a(1) = (   1.000000   0.000000   0.000000 )  
               a(2) = (   0.000000   2.309401   0.000000 )  
               a(3) = (   0.000000   0.000000   3.388418 )  

     reciprocal axes: (cart. coord. in units 2 pi/alat)
               b(1) = (  1.000000  0.000000  0.000000 )  
               b(2) = (  0.000000  0.433013  0.000000 )  
               b(3) = (  0.000000  0.000000  0.295123 )  


     PseudoPot. # 1 for Cu read from file:
     /home/549/hxw549/Short/pseudopotentials/Cu.pbe-n-van_ak.UPF
     MD5 check sum: 601f7c30f7467666bec936e0661ce3e1
     Pseudo is Ultrasoft + core correction, Zval = 11.0
     Generated by new atomic code, or converted to UPF format
     Using radial grid of  867 points,  6 beta functions with: 
                l(1) =   0
                l(2) =   0
                l(3) =   1
                l(4) =   1
                l(5) =   2
                l(6) =   2
     Q(r) pseudized with  8 coefficients,  rinner =    1.400   1.400   1.400
                                                       1.400   1.400

     PseudoPot. # 2 for C  read from file:
     /home/549/hxw549/Short/pseudopotentials/C.pbe-mt_gipaw.UPF
     MD5 check sum: 5ac2f21f2c440b14befe521540822c15
     Pseudo is Norm-conserving, Zval =  4.0
     Generated by new atomic code, or converted to UPF format
     Using radial grid of 1073 points,  1 beta functions with: 
                l(1) =   0

     PseudoPot. # 3 for O  read from file:
     /home/549/hxw549/Short/pseudopotentials/O.pbe-van_gipaw.UPF
     MD5 check sum: 5ce2a047509d4f331db576c963e74b29
     Pseudo is Ultrasoft, Zval =  6.0
     Generated by new atomic code, or converted to UPF format
     Using radial grid of 1095 points,  4 beta functions with: 
                l(1) =   0
                l(2) =   0
                l(3) =   1
                l(4) =   1
     Q(r) pseudized with 0 coefficients 


     atomic species   valence    mass     pseudopotential
        Cu            11.00    63.54600     Cu( 1.00)
        C              4.00    12.01070     C ( 1.00)
        O              6.00    15.99940     O ( 1.00)

     No symmetry found



   Cartesian axes

     site n.     atom                  positions (alat units)
         1           Cu  tau(   1) = (  -0.0000238   0.0002260   0.9981099  )
         2           Cu  tau(   2) = (   0.2499947   0.2311897   0.9981251  )
         3           Cu  tau(   3) = (   0.4999831   0.0002149   0.9981112  )
         4           Cu  tau(   4) = (   0.7499867   0.2311755   0.9980969  )
         5           Cu  tau(   5) = (   0.0000096   0.4619621   0.9979929  )
         6           Cu  tau(   6) = (   0.2499866   0.6927622   0.9976668  )
         7           Cu  tau(   7) = (   0.4999954   0.4619607   0.9978826  )
         8           Cu  tau(   8) = (   0.7500352   0.6927595   0.9976649  )
         9           Cu  tau(   9) = (   0.0000207   0.9236739   0.9975506  )
        10           Cu  tau(  10) = (   0.2500191   1.1545746   0.9977166  )
        11           Cu  tau(  11) = (   0.5000073   0.9236479   0.9975325  )
        12           Cu  tau(  12) = (   0.7500006   1.1545685   0.9977093  )
        13           Cu  tau(  13) = (  -0.0000077   1.3853811   0.9980180  )
        14           Cu  tau(  14) = (   0.2499983   1.6161561   0.9982689  )
        15           Cu  tau(  15) = (   0.5000058   1.3853977   0.9980617  )
        16           Cu  tau(  16) = (   0.7499748   1.6162250   0.9982107  )
        17           Cu  tau(  17) = (   0.0000111   1.8471800   0.9982106  )
        18           Cu  tau(  18) = (   0.2499546   2.0784395   0.9981263  )
        19           Cu  tau(  19) = (   0.4999426   1.8471932   0.9981807  )
        20           Cu  tau(  20) = (   0.7499939   2.0783919   0.9980742  )
        21           Cu  tau(  21) = (   0.0000246   0.2312923   1.2465770  )
        22           Cu  tau(  22) = (   0.2500152   0.0001959   1.2463274  )
        23           Cu  tau(  23) = (   0.5000376   0.2314189   1.2465958  )
        24           Cu  tau(  24) = (   0.7500000   0.0001950   1.2463142  )
        25           Cu  tau(  25) = (   0.0000827   0.6931388   1.2463864  )
        26           Cu  tau(  26) = (   0.2500664   0.4623549   1.2466171  )
        27           Cu  tau(  27) = (   0.5000572   0.6930470   1.2462509  )
        28           Cu  tau(  28) = (   0.7500411   0.4623422   1.2465521  )
        29           Cu  tau(  29) = (   0.0000681   1.1542431   1.2462983  )
        30           Cu  tau(  30) = (   0.2500759   0.9236520   1.2461665  )
        31           Cu  tau(  31) = (   0.5000727   1.1541906   1.2462971  )
        32           Cu  tau(  32) = (   0.7500739   0.9236488   1.2461145  )
        33           Cu  tau(  33) = (   0.0000255   1.6159538   1.2466510  )
        34           Cu  tau(  34) = (   0.2500808   1.3849494   1.2466751  )
        35           Cu  tau(  35) = (   0.5000239   1.6159648   1.2467738  )
        36           Cu  tau(  36) = (   0.7500209   1.3849686   1.2466224  )
        37           Cu  tau(  37) = (  -0.0000006   2.0784084   1.2462016  )
        38           Cu  tau(  38) = (   0.2500070   1.8471735   1.2464092  )
        39           Cu  tau(  39) = (   0.4999934   2.0783847   1.2461611  )
        40           Cu  tau(  40) = (   0.7499989   1.8471657   1.2463958  )
        41           Cu  tau(  41) = (   0.0000727  -0.0000699   1.4957572  )
        42           Cu  tau(  42) = (   0.2501971   0.2312781   1.4959154  )
        43           Cu  tau(  43) = (   0.5000731  -0.0000326   1.4956150  )
        44           Cu  tau(  44) = (   0.7500313   0.2313791   1.4959792  )
        45           Cu  tau(  45) = (   0.0001223   0.4626521   1.4961335  )
        46           Cu  tau(  46) = (   0.2502671   0.6936639   1.4965887  )
        47           Cu  tau(  47) = (   0.5001834   0.4629489   1.4965587  )
        48           Cu  tau(  48) = (   0.7500912   0.6936629   1.4965339  )
        49           Cu  tau(  49) = (   0.0001477   0.9239200   1.4966566  )
        50           Cu  tau(  50) = (   0.2502448   1.1537321   1.4966077  )
        51           Cu  tau(  51) = (   0.5002303   0.9236122   1.4966541  )
        52           Cu  tau(  52) = (   0.7501356   1.1536869   1.4966011  )
        53           Cu  tau(  53) = (   0.0001578   1.3844686   1.4964117  )
        54           Cu  tau(  54) = (   0.2501253   1.6158314   1.4960637  )
        55           Cu  tau(  55) = (   0.5001704   1.3841729   1.4966340  )
        56           Cu  tau(  56) = (   0.7501021   1.6157601   1.4960776  )
        57           Cu  tau(  57) = (   0.0000507   1.8472305   1.4956921  )
        58           Cu  tau(  58) = (   0.2500430   2.0783767   1.4956521  )
        59           Cu  tau(  59) = (   0.5000853   1.8474164   1.4957796  )
        60           Cu  tau(  60) = (   0.7500622   2.0783804   1.4956079  )
        61           Cu  tau(  61) = (   0.0001758   0.2310631   1.7443204  )
        62           Cu  tau(  62) = (   0.2502701  -0.0002760   1.7450507  )
        63           Cu  tau(  63) = (   0.5002205   0.2306708   1.7449083  )
        64           Cu  tau(  64) = (   0.7500503  -0.0002822   1.7449479  )
        65           Cu  tau(  65) = (   0.0001734   0.6935574   1.7460313  )
        66           Cu  tau(  66) = (   0.2508141   0.4625860   1.7451573  )
        67           Cu  tau(  67) = (   0.5003470   0.6943495   1.7480244  )
        68           Cu  tau(  68) = (   0.7496512   0.4627947   1.7454468  )
        69           Cu  tau(  69) = (   0.0002508   1.1538224   1.7475279  )
        70           Cu  tau(  70) = (   0.2506815   0.9239401   1.7478873  )
        71           Cu  tau(  71) = (   0.5003652   1.1528240   1.7479385  )
        72           Cu  tau(  72) = (   0.7498723   0.9238599   1.7482008  )
        73           Cu  tau(  73) = (   0.0002104   1.6161280   1.7449434  )
        74           Cu  tau(  74) = (   0.2501998   1.3842922   1.7457316  )
        75           Cu  tau(  75) = (   0.5002703   1.6161325   1.7443434  )
        76           Cu  tau(  76) = (   0.7504093   1.3841599   1.7457932  )
        77           Cu  tau(  77) = (   0.0001506   2.0781311   1.7452865  )
        78           Cu  tau(  78) = (   0.2500097   1.8474974   1.7448616  )
        79           Cu  tau(  79) = (   0.5001324   2.0785967   1.7453644  )
        80           Cu  tau(  80) = (   0.7503294   1.8475096   1.7448333  )
        81           Cu  tau(  81) = (   0.0002518   0.0002436   1.9906255  )
        82           Cu  tau(  82) = (   0.2500314   0.2307221   1.9904158  )
        83           Cu  tau(  83) = (   0.5001560   0.0000089   1.9925585  )
        84           Cu  tau(  84) = (   0.7503877   0.2307906   1.9902625  )
        85           Cu  tau(  85) = (   0.0003474   0.4618961   1.9891037  )
        86           Cu  tau(  86) = (   0.2523131   0.6922172   1.9929625  )
        87           Cu  tau(  87) = (   0.5000719   0.4597816   1.9923649  )
        88           Cu  tau(  88) = (   0.7480671   0.6920637   1.9937815  )
        89           Cu  tau(  89) = (   0.0002096   0.9219937   1.9931446  )
        90           Cu  tau(  90) = (   0.2502604   1.1549268   1.9950080  )
        91           Cu  tau(  91) = (   0.5003003   0.9247802   2.0010315  )
        92           Cu  tau(  92) = (   0.7503717   1.1550813   1.9953115  )
        93           Cu  tau(  93) = (   0.0004663   1.3862293   1.9924773  )
        94           Cu  tau(  94) = (   0.2499331   1.6166027   1.9901566  )
        95           Cu  tau(  95) = (   0.5002923   1.3862627   1.9904135  )
        96           Cu  tau(  96) = (   0.7507311   1.6164302   1.9900510  )
        97           Cu  tau(  97) = (   0.0001748   1.8473016   1.9922058  )
        98           Cu  tau(  98) = (   0.2502041   2.0781745   1.9915883  )
        99           Cu  tau(  99) = (   0.5003262   1.8468119   1.9903860  )
       100           Cu  tau( 100) = (   0.7502108   2.0783129   1.9914789  )
       101           C   tau( 101) = (  -0.0003149   0.0965100   2.3881220  )
       102           C   tau( 102) = (  -0.0001965   0.2887396   2.3863387  )
       103           C   tau( 103) = (   0.1663155   0.0004359   2.3886855  )
       104           C   tau( 104) = (   0.1662439   0.3848407   2.3828061  )
       105           C   tau( 105) = (   0.3328713   0.0965696   2.3863787  )
       106           C   tau( 106) = (   0.3328917   0.2888101   2.3828783  )
       107           C   tau( 107) = (   0.4996643   0.0002673   2.3855551  )
       108           C   tau( 108) = (   0.4998058   0.3856635   2.3806266  )
       109           C   tau( 109) = (   0.6665294   0.0965879   2.3852494  )
       110           C   tau( 110) = (   0.6666849   0.2888526   2.3822988  )
       111           C   tau( 111) = (   0.8330068   0.0004097   2.3879424  )
       112           C   tau( 112) = (   0.8334435   0.3848189   2.3826253  )
       113           C   tau( 113) = (  -0.0000108   0.6734180   2.3761591  )
       114           C   tau( 114) = (  -0.0000193   0.8659152   2.3711379  )
       115           C   tau( 115) = (   0.1661894   0.5770487   2.3775110  )
       116           C   tau( 116) = (   0.1669571   0.9618721   2.3771840  )
       117           C   tau( 117) = (   0.3326286   0.6740461   2.3782287  )
       118           C   tau( 118) = (   0.3309500   0.8648892   2.3836210  )
       119           C   tau( 119) = (   0.4999201   0.5773268   2.3803618  )
       120           C   tau( 120) = (   0.5001047   0.9620977   2.4384090  )
       121           O   tau( 121) = (   0.5017283   0.9601426   2.6301633  )
       122           C   tau( 122) = (   0.6672628   0.6739780   2.3777119  )
       123           C   tau( 123) = (   0.6689827   0.8649033   2.3825772  )
       124           C   tau( 124) = (   0.8337206   0.5770576   2.3773198  )
       125           C   tau( 125) = (   0.8330459   0.9619034   2.3767209  )
       126           C   tau( 126) = (  -0.0000747   1.2509098   2.3791404  )
       127           C   tau( 127) = (  -0.0002185   1.4440550   2.3780961  )
       128           C   tau( 128) = (   0.1666185   1.1551756   2.3797271  )
       129           C   tau( 129) = (   0.1664632   1.5404836   2.3809450  )
       130           C   tau( 130) = (   0.3338644   1.2520710   2.3821606  )
       131           C   tau( 131) = (   0.3332198   1.4446490   2.3817343  )
       132           C   tau( 132) = (   0.4998777   1.1584205   2.3884480  )
       133           C   tau( 133) = (   0.4997169   1.5406150   2.3848059  )
       134           C   tau( 134) = (   0.6658678   1.2520782   2.3823541  )
       135           C   tau( 135) = (   0.6662775   1.4446333   2.3815164  )
       136           C   tau( 136) = (   0.8332462   1.1551883   2.3796632  )
       137           C   tau( 137) = (   0.8329891   1.5405003   2.3802353  )
       138           C   tau( 138) = (  -0.0003525   1.8290905   2.3841460  )
       139           C   tau( 139) = (  -0.0003780   2.0214157   2.3874067  )
       140           C   tau( 140) = (   0.1664672   1.7328546   2.3846486  )
       141           C   tau( 141) = (   0.1662477   2.1174983   2.3880837  )
       142           C   tau( 142) = (   0.3330006   1.8289262   2.3877366  )
       143           C   tau( 143) = (   0.3330139   2.0212634   2.3883003  )
       144           C   tau( 144) = (   0.4996241   1.7329494   2.3871833  )
       145           C   tau( 145) = (   0.4996037   2.1173492   2.3885064  )
       146           C   tau( 146) = (   0.6662286   1.8289388   2.3873898  )
       147           C   tau( 147) = (   0.6661888   2.0212694   2.3879381  )
       148           C   tau( 148) = (   0.8328102   1.7328971   2.3841097  )
       149           C   tau( 149) = (   0.8329945   2.1174691   2.3877494  )

     number of k points=     6  gaussian smearing, width (Ry)=  0.1000
                       cart. coord. in units 2pi/alat
        k(    1) = (   0.0000000   0.0000000   0.0000000), wk =   0.2500000
        k(    2) = (   0.0000000  -0.2165064   0.0000000), wk =   0.2500000
        k(    3) = (   0.2500000   0.0000000   0.0000000), wk =   0.5000000
        k(    4) = (   0.2500000  -0.2165064   0.0000000), wk =   0.5000000
        k(    5) = (  -0.5000000   0.0000000   0.0000000), wk =   0.2500000
        k(    6) = (  -0.5000000  -0.2165064   0.0000000), wk =   0.2500000

     Dense  grid:  2050409 G-vectors     FFT dimensions: (  80, 192, 270)

     Largest allocated arrays     est. size (Mb)     dimensions
        Kohn-Sham Wavefunctions        54.73 Mb     (    4604,  779)
        NL pseudopotentials           130.39 Mb     (    4604, 1856)
        Each V/rho on FFT grid          1.17 Mb     (   76800)
        Each G-vector array             0.28 Mb     (   36616)
        G-vector shells                 0.14 Mb     (   17932)
     Largest temporary arrays     est. size (Mb)     dimensions
        Auxiliary wavefunctions       218.90 Mb     (    4604, 3116)
        Each subspace H/S matrix        5.92 Mb     (     623,  623)
        Each <psi_i|beta_j> matrix     22.06 Mb     (    1856,  779)
        Arrays for rho mixing           9.38 Mb     (   76800,    8)

     Initial potential from superposition of free atoms
     Check: negative starting charge=   -0.001790

     starting charge 1272.81751, renormalised to 1298.00000

     negative rho (up, down):  1.825E-03 0.000E+00
     Starting wfc are 1288 randomized atomic wfcs

     total cpu time spent up to now is      106.5 secs

     Self-consistent Calculation

     iteration #  1     ecut=    80.00 Ry     beta=0.70
     Davidson diagonalization with overlap
     c_bands:  3 eigenvalues not converged
     ethr =  1.00E-04,  avg # of iterations = 20.8

     negative rho (up, down):  2.700E+01 0.000E+00

     total cpu time spent up to now is     1846.4 secs

     total energy              =   -9584.16169000 Ry
     Harris-Foulkes estimate   =  -17082.42068059 Ry
     estimated scf accuracy    <  176126.36941248 Ry

     iteration #  2     ecut=    80.00 Ry     beta=0.70
     Davidson diagonalization with overlap
     ethr =  1.00E-02,  avg # of iterations = 10.7

     negative rho (up, down):  2.893E+01 0.000E+00

     total cpu time spent up to now is     2767.0 secs

     total energy              =  -12397.20849640 Ry
     Harris-Foulkes estimate   =  -13596.29698130 Ry
     estimated scf accuracy    <   16071.03705496 Ry

     iteration #  3     ecut=    80.00 Ry     beta=0.70
     Davidson diagonalization with overlap
     ethr =  1.00E-02,  avg # of iterations =  7.0

     negative rho (up, down):  3.106E+01 0.000E+00

     total cpu time spent up to now is     3366.8 secs

     total energy              =  -12507.57791534 Ry
     Harris-Foulkes estimate   =  -13325.39343113 Ry
     estimated scf accuracy    <    6133.68425717 Ry

     iteration #  4     ecut=    80.00 Ry     beta=0.70
     Davidson diagonalization with overlap
     ethr =  1.00E-02,  avg # of iterations =  5.2

     negative rho (up, down):  2.791E+01 0.000E+00

     total cpu time spent up to now is     3899.9 secs

     total energy              =  -12852.53972046 Ry
     Harris-Foulkes estimate   =  -13153.11840660 Ry
     estimated scf accuracy    <    6582.46601500 Ry

     iteration #  5     ecut=    80.00 Ry     beta=0.70
     Davidson diagonalization with overlap
     ethr =  1.00E-02,  avg # of iterations =  5.2

     negative rho (up, down):  1.886E+01 0.000E+00

     total cpu time spent up to now is     4300.7 secs

     total energy              =  -12867.16345138 Ry
     Harris-Foulkes estimate   =  -13046.03307929 Ry
     estimated scf accuracy    <     997.87396228 Ry

     iteration #  6     ecut=    80.00 Ry     beta=0.70
     Davidson diagonalization with overlap
     ethr =  1.00E-02,  avg # of iterations =  3.0

     negative rho (up, down):  1.148E+01 0.000E+00

     total cpu time spent up to now is     4543.2 secs

     total energy              =  -12859.34042749 Ry
     Harris-Foulkes estimate   =  -12930.17247696 Ry
     estimated scf accuracy    <     760.08340789 Ry

     iteration #  7     ecut=    80.00 Ry     beta=0.70
     Davidson diagonalization with overlap
     ethr =  1.00E-02,  avg # of iterations =  2.0

     negative rho (up, down):  8.335E+00 0.000E+00

     total cpu time spent up to now is     4725.9 secs

     total energy              =  -12839.78998914 Ry
     Harris-Foulkes estimate   =  -12870.18508581 Ry
     estimated scf accuracy    <     629.43029670 Ry

     iteration #  8     ecut=    80.00 Ry     beta=0.70
     Davidson diagonalization with overlap
     ethr =  1.00E-02,  avg # of iterations =  1.2

     negative rho (up, down):  6.958E+00 0.000E+00

     total cpu time spent up to now is     4892.4 secs

     total energy              =  -12825.44368188 Ry
     Harris-Foulkes estimate   =  -12842.79980075 Ry
     estimated scf accuracy    <     382.50359155 Ry

     iteration #  9     ecut=    80.00 Ry     beta=0.70
     Davidson diagonalization with overlap
     ethr =  1.00E-02,  avg # of iterations =  1.2

     negative rho (up, down):  4.709E+00 0.000E+00

     total cpu time spent up to now is     5059.5 secs

     total energy              =  -12800.34744840 Ry
     Harris-Foulkes estimate   =  -12829.13708523 Ry
     estimated scf accuracy    <     388.47073145 Ry

     iteration # 10     ecut=    80.00 Ry     beta=0.70
     Davidson diagonalization with overlap
     ethr =  1.00E-02,  avg # of iterations =  1.5

     negative rho (up, down):  8.487E-01 0.000E+00

     total cpu time spent up to now is     5230.0 secs

     total energy              =  -12759.76811276 Ry
     Harris-Foulkes estimate   =  -12805.25023064 Ry
     estimated scf accuracy    <     205.63222655 Ry

     iteration # 11     ecut=    80.00 Ry     beta=0.70
     Davidson diagonalization with overlap
     ethr =  1.00E-02,  avg # of iterations =  3.5

     negative rho (up, down):  3.901E+00 0.000E+00

     total cpu time spent up to now is     5426.3 secs

     total energy              =  -12747.37844015 Ry
     Harris-Foulkes estimate   =  -12767.49236540 Ry
     estimated scf accuracy    <      71.67524649 Ry

     iteration # 12     ecut=    80.00 Ry     beta=0.70
     Davidson diagonalization with overlap
     ethr =  5.52E-03,  avg # of iterations =  3.7

     negative rho (up, down):  1.034E+00 0.000E+00

     total cpu time spent up to now is     5624.6 secs

     total energy              =  -12744.49176883 Ry
     Harris-Foulkes estimate   =  -12753.48248472 Ry
     estimated scf accuracy    <     114.32094313 Ry

     iteration # 13     ecut=    80.00 Ry     beta=0.70
     Davidson diagonalization with overlap
     ethr =  5.52E-03,  avg # of iterations =  2.2

     negative rho (up, down):  3.401E+00 0.000E+00

     total cpu time spent up to now is     5802.7 secs

     total energy              =  -12740.00180686 Ry
     Harris-Foulkes estimate   =  -12753.79701472 Ry
     estimated scf accuracy    <      63.49285053 Ry

     iteration # 14     ecut=    80.00 Ry     beta=0.70
     Davidson diagonalization with overlap
     ethr =  4.89E-03,  avg # of iterations =  1.2

     negative rho (up, down):  4.727E+00 0.000E+00

     total cpu time spent up to now is     5970.1 secs

     total energy              =  -12737.85743168 Ry
     Harris-Foulkes estimate   =  -12742.96786324 Ry
     estimated scf accuracy    <      23.83111436 Ry

     iteration # 15     ecut=    80.00 Ry     beta=0.70
     Davidson diagonalization with overlap
     ethr =  1.84E-03,  avg # of iterations =  6.2

     negative rho (up, down):  5.677E+00 0.000E+00

     total cpu time spent up to now is     6199.8 secs

     total energy              =  -12737.88788179 Ry
     Harris-Foulkes estimate   =  -12739.92575653 Ry
     estimated scf accuracy    <      20.16913330 Ry

     iteration # 16     ecut=    80.00 Ry     beta=0.70
     Davidson diagonalization with overlap
     ethr =  1.55E-03,  avg # of iterations =  4.0

     negative rho (up, down):  4.052E+00 0.000E+00

     total cpu time spent up to now is     6400.0 secs

     total energy              =  -12737.03238343 Ry
     Harris-Foulkes estimate   =  -12738.40090161 Ry
     estimated scf accuracy    <      10.21136683 Ry

     iteration # 17     ecut=    80.00 Ry     beta=0.70
     Davidson diagonalization with overlap
     ethr =  7.87E-04,  avg # of iterations =  4.3

     negative rho (up, down):  3.295E+00 0.000E+00

     total cpu time spent up to now is     6603.4 secs

     total energy              =  -12736.30309933 Ry
     Harris-Foulkes estimate   =  -12737.27769859 Ry
     estimated scf accuracy    <      10.90636291 Ry

     iteration # 18     ecut=    80.00 Ry     beta=0.70
     Davidson diagonalization with overlap
     ethr =  7.87E-04,  avg # of iterations =  1.8

     negative rho (up, down):  2.357E+00 0.000E+00

     total cpu time spent up to now is     6779.1 secs

     total energy              =  -12735.21452526 Ry
     Harris-Foulkes estimate   =  -12736.42470322 Ry
     estimated scf accuracy    <       8.62984521 Ry

     iteration # 19     ecut=    80.00 Ry     beta=0.70
     Davidson diagonalization with overlap
     ethr =  6.65E-04,  avg # of iterations =  2.3

     negative rho (up, down):  1.399E+00 0.000E+00

     total cpu time spent up to now is     6960.3 secs

     total energy              =  -12734.26345034 Ry
     Harris-Foulkes estimate   =  -12735.43862912 Ry
     estimated scf accuracy    <       7.90529787 Ry

     iteration # 20     ecut=    80.00 Ry     beta=0.70
     Davidson diagonalization with overlap
     ethr =  6.09E-04,  avg # of iterations =  1.3

     negative rho (up, down):  1.679E+00 0.000E+00

     total cpu time spent up to now is     7129.4 secs

     total energy              =  -12732.36137557 Ry
     Harris-Foulkes estimate   =  -12734.37483444 Ry
     estimated scf accuracy    <       6.09991214 Ry

     iteration # 21     ecut=    80.00 Ry     beta=0.70
     Davidson diagonalization with overlap
     ethr =  4.70E-04,  avg # of iterations =  7.2

     negative rho (up, down):  5.393E-01 0.000E+00

     total cpu time spent up to now is     7382.7 secs

     total energy              =  -12731.37563173 Ry
     Harris-Foulkes estimate   =  -12732.72384658 Ry
     estimated scf accuracy    <      10.27524947 Ry

     iteration # 22     ecut=    80.00 Ry     beta=0.70
     Davidson diagonalization with overlap
     ethr =  4.70E-04,  avg # of iterations = 11.8

     negative rho (up, down):  8.054E-01 0.000E+00

     total cpu time spent up to now is     7675.0 secs

     total energy              =  -12731.06532012 Ry
     Harris-Foulkes estimate   =  -12731.65844692 Ry
     estimated scf accuracy    <       2.78182495 Ry

     iteration # 23     ecut=    80.00 Ry     beta=0.70
     Davidson diagonalization with overlap
     ethr =  2.14E-04,  avg # of iterations =  6.8

     negative rho (up, down):  1.045E+00 0.000E+00

     total cpu time spent up to now is     7909.2 secs

     total energy              =  -12730.78275365 Ry
     Harris-Foulkes estimate   =  -12731.19580184 Ry
     estimated scf accuracy    <       2.10546002 Ry

     iteration # 24     ecut=    80.00 Ry     beta=0.70
     Davidson diagonalization with overlap
     ethr =  1.62E-04,  avg # of iterations =  8.8

     negative rho (up, down):  9.801E-01 0.000E+00

     total cpu time spent up to now is     8187.4 secs

     total energy              =  -12730.64749790 Ry
     Harris-Foulkes estimate   =  -12730.85533121 Ry
     estimated scf accuracy    <       1.18145192 Ry

     iteration # 25     ecut=    80.00 Ry     beta=0.70
     Davidson diagonalization with overlap
     ethr =  9.10E-05,  avg # of iterations =  9.0

     negative rho (up, down):  7.667E-01 0.000E+00

     total cpu time spent up to now is     8465.7 secs

     total energy              =  -12730.57478001 Ry
     Harris-Foulkes estimate   =  -12730.70715838 Ry
     estimated scf accuracy    <       0.62712031 Ry

     iteration # 26     ecut=    80.00 Ry     beta=0.70
     Davidson diagonalization with overlap
     ethr =  4.83E-05,  avg # of iterations =  6.2

     negative rho (up, down):  2.777E-01 0.000E+00

     total cpu time spent up to now is     8706.7 secs

     total energy              =  -12730.57649615 Ry
     Harris-Foulkes estimate   =  -12730.62104713 Ry
     estimated scf accuracy    <       0.24294450 Ry

     iteration # 27     ecut=    80.00 Ry     beta=0.70
     Davidson diagonalization with overlap
     ethr =  1.87E-05,  avg # of iterations = 11.8

     negative rho (up, down):  2.647E-01 0.000E+00

     total cpu time spent up to now is     9023.9 secs

     total energy              =  -12730.58825808 Ry
     Harris-Foulkes estimate   =  -12730.59330894 Ry
     estimated scf accuracy    <       0.04849853 Ry

     iteration # 28     ecut=    80.00 Ry     beta=0.70
     Davidson diagonalization with overlap
     ethr =  3.74E-06,  avg # of iterations =  9.0

     negative rho (up, down):  1.398E-01 0.000E+00

     total cpu time spent up to now is     9305.6 secs

     total energy              =  -12730.58964790 Ry
     Harris-Foulkes estimate   =  -12730.59339059 Ry
     estimated scf accuracy    <       0.02069312 Ry

     iteration # 29     ecut=    80.00 Ry     beta=0.70
     Davidson diagonalization with overlap
     c_bands:  3 eigenvalues not converged
     c_bands:  2 eigenvalues not converged
     ethr =  1.59E-06,  avg # of iterations = 14.3

     negative rho (up, down):  5.436E-02 0.000E+00

     total cpu time spent up to now is     9657.9 secs

     total energy              =  -12730.58990824 Ry
     Harris-Foulkes estimate   =  -12730.59094871 Ry
     estimated scf accuracy    <       0.00445036 Ry

     iteration # 30     ecut=    80.00 Ry     beta=0.70
     Davidson diagonalization with overlap
     ethr =  3.43E-07,  avg # of iterations = 14.0

     negative rho (up, down):  4.926E-02 0.000E+00

     total cpu time spent up to now is    10022.5 secs

     total energy              =  -12730.59030348 Ry
     Harris-Foulkes estimate   =  -12730.59035580 Ry
     estimated scf accuracy    <       0.00263209 Ry

     iteration # 31     ecut=    80.00 Ry     beta=0.70
     Davidson diagonalization with overlap
     c_bands:  1 eigenvalues not converged
     ethr =  2.03E-07,  avg # of iterations =  8.7

     negative rho (up, down):  2.742E-02 0.000E+00

     total cpu time spent up to now is    10291.3 secs

     total energy              =  -12730.58995838 Ry
     Harris-Foulkes estimate   =  -12730.59056510 Ry
     estimated scf accuracy    <       0.00109353 Ry

     iteration # 32     ecut=    80.00 Ry     beta=0.70
     Davidson diagonalization with overlap
     c_bands:  1 eigenvalues not converged
     ethr =  8.42E-08,  avg # of iterations = 11.7

     negative rho (up, down):  1.452E-02 0.000E+00

     total cpu time spent up to now is    10600.9 secs

     total energy              =  -12730.58997529 Ry
     Harris-Foulkes estimate   =  -12730.59002622 Ry
     estimated scf accuracy    <       0.00029145 Ry

     iteration # 33     ecut=    80.00 Ry     beta=0.70
     Davidson diagonalization with overlap
     ethr =  2.25E-08,  avg # of iterations =  8.7

     negative rho (up, down):  6.927E-03 0.000E+00

     total cpu time spent up to now is    10875.1 secs

     total energy              =  -12730.58989866 Ry
     Harris-Foulkes estimate   =  -12730.58999701 Ry
     estimated scf accuracy    <       0.00021007 Ry

     iteration # 34     ecut=    80.00 Ry     beta=0.70
     Davidson diagonalization with overlap
     ethr =  1.62E-08,  avg # of iterations =  8.0

     negative rho (up, down):  4.568E-03 0.000E+00

     total cpu time spent up to now is    11141.5 secs

     total energy              =  -12730.58986492 Ry
     Harris-Foulkes estimate   =  -12730.58990893 Ry
     estimated scf accuracy    <       0.00005388 Ry

     iteration # 35     ecut=    80.00 Ry     beta=0.70
     Davidson diagonalization with overlap
     ethr =  4.15E-09,  avg # of iterations =  7.5

     negative rho (up, down):  1.957E-03 0.000E+00

     total cpu time spent up to now is    11392.2 secs

     total energy              =  -12730.58984104 Ry
     Harris-Foulkes estimate   =  -12730.58986855 Ry
     estimated scf accuracy    <       0.00001513 Ry

     iteration # 36     ecut=    80.00 Ry     beta=0.70
     Davidson diagonalization with overlap
     c_bands:  2 eigenvalues not converged
     ethr =  1.17E-09,  avg # of iterations =  9.8

     negative rho (up, down):  1.874E-03 0.000E+00

     total cpu time spent up to now is    11684.1 secs

     total energy              =  -12730.58984164 Ry
     Harris-Foulkes estimate   =  -12730.58984253 Ry
     estimated scf accuracy    <       0.00000500 Ry

     iteration # 37     ecut=    80.00 Ry     beta=0.70
     Davidson diagonalization with overlap
     c_bands:  1 eigenvalues not converged
     ethr =  3.85E-10,  avg # of iterations =  5.0

     negative rho (up, down):  1.686E-03 0.000E+00

     total cpu time spent up to now is    11899.6 secs

     total energy              =  -12730.58984238 Ry
     Harris-Foulkes estimate   =  -12730.58984234 Ry
     estimated scf accuracy    <       0.00000229 Ry

     iteration # 38     ecut=    80.00 Ry     beta=0.70
     Davidson diagonalization with overlap
     ethr =  1.76E-10,  avg # of iterations =  2.7

     negative rho (up, down):  1.722E-03 0.000E+00

     total cpu time spent up to now is    12092.0 secs

     total energy              =  -12730.58984283 Ry
     Harris-Foulkes estimate   =  -12730.58984259 Ry
     estimated scf accuracy    <       0.00000046 Ry

     iteration # 39     ecut=    80.00 Ry     beta=0.70
     Davidson diagonalization with overlap
     ethr =  3.57E-11,  avg # of iterations =  3.0

     negative rho (up, down):  1.767E-03 0.000E+00

     total cpu time spent up to now is    12296.5 secs

     total energy              =  -12730.58984292 Ry
     Harris-Foulkes estimate   =  -12730.58984288 Ry
     estimated scf accuracy    <       0.00000020 Ry

     iteration # 40     ecut=    80.00 Ry     beta=0.70
     Davidson diagonalization with overlap
     ethr =  1.54E-11,  avg # of iterations =  3.0

     negative rho (up, down):  1.854E-03 0.000E+00

     total cpu time spent up to now is    12502.2 secs

     total energy              =  -12730.58984282 Ry
     Harris-Foulkes estimate   =  -12730.58984295 Ry
     estimated scf accuracy    <       0.00000021 Ry

     iteration # 41     ecut=    80.00 Ry     beta=0.70
     Davidson diagonalization with overlap
     ethr =  1.54E-11,  avg # of iterations =  3.0

     negative rho (up, down):  1.884E-03 0.000E+00

     total cpu time spent up to now is    12699.8 secs

     total energy              =  -12730.58984271 Ry
     Harris-Foulkes estimate   =  -12730.58984283 Ry
     estimated scf accuracy    <       0.00000004 Ry

     iteration # 42     ecut=    80.00 Ry     beta=0.70
     Davidson diagonalization with overlap
     ethr =  3.38E-12,  avg # of iterations =  2.8

     negative rho (up, down):  1.898E-03 0.000E+00

     total cpu time spent up to now is    12895.3 secs

     total energy              =  -12730.58984264 Ry
     Harris-Foulkes estimate   =  -12730.58984271 Ry
     estimated scf accuracy    <       0.00000002 Ry

     iteration # 43     ecut=    80.00 Ry     beta=0.70
     Davidson diagonalization with overlap
     ethr =  1.77E-12,  avg # of iterations =  2.3

     negative rho (up, down):  1.914E-03 0.000E+00

     total cpu time spent up to now is    13074.9 secs

     End of self-consistent calculation

          k = 0.0000 0.0000 0.0000 (256287 PWs)   bands (ev):

   -16.5925 -16.0695 -15.7866 -15.3824 -14.6587 -14.5147 -14.1849 -14.1200
   -13.8360 -13.8306 -13.7701 -13.4397 -12.8572 -12.8334 -12.7497 -12.7329
   -12.7244 -12.2022 -11.0531 -11.0381 -11.0354 -10.9218 -10.6384  -9.8065
    -9.1713  -9.1480  -9.1472  -9.0142  -8.2977  -8.2925  -8.2331  -8.1744
    -7.2967  -7.2753  -7.2274  -7.2178  -7.2146  -7.1592  -7.1325  -7.1233
    -5.8389  -5.6700  -5.6577  -5.6442  -5.6213  -5.5098  -5.4941  -5.4644
    -5.4504  -5.3064  -5.3021  -4.8936  -4.4373  -4.4162  -4.3585  -4.3443
    -4.3130  -4.0312  -4.0272  -3.9198  -3.8447  -3.8084  -3.8047  -3.2563
    -3.2351  -3.2273  -3.2248  -3.2187  -3.2105  -3.1005  -3.0854  -3.0514
    -3.0167  -2.9886  -2.9778  -2.8319  -2.8283  -2.8276  -2.8240  -2.7583
    -2.7159  -2.6488  -2.6112  -2.5592  -2.5435  -2.4922  -2.4820  -2.4122
    -2.4089  -2.3777  -2.3653  -2.1905  -2.1850  -2.1765  -2.1746  -2.1239
    -2.1035  -2.0117  -2.0109  -1.9709  -1.9706  -1.9705  -1.9701  -1.9232
    -1.9092  -1.8544  -1.8453  -1.8415  -1.8414  -1.8373  -1.8371  -1.7768
    -1.6874  -1.6589  -1.5941  -1.5932  -1.5628  -1.5570  -1.5563  -1.5525
    -1.5140  -1.5054  -1.4891  -1.4765  -1.4723  -1.4375  -1.4181  -1.4032
    -1.3873  -1.3817  -1.3803  -1.3677  -1.3474  -1.3460  -1.3348  -1.3326
    -1.3306  -1.2908  -1.2520  -1.2424  -1.2337  -1.2112  -1.1900  -1.1851
    -1.1693  -1.1434  -1.1152  -1.1007  -1.0812  -1.0802  -1.0663  -1.0282
    -1.0274  -1.0124  -1.0085  -1.0054  -0.9837  -0.9804  -0.9301  -0.9249
    -0.9184  -0.9125  -0.8792  -0.8666  -0.8599  -0.8541  -0.8454  -0.8428
    -0.8385  -0.8383  -0.8379  -0.8377  -0.8329  -0.8309  -0.8158  -0.8102
    -0.7695  -0.7686  -0.7569  -0.7451  -0.7373  -0.7365  -0.7338  -0.7325
    -0.6931  -0.6776  -0.6753  -0.6742  -0.6726  -0.6724  -0.6719  -0.6707
    -0.6694  -0.6673  -0.6662  -0.6645  -0.6643  -0.6622  -0.6602  -0.6580
    -0.6552  -0.6468  -0.6434  -0.6019  -0.5795  -0.5403  -0.5069  -0.5068
    -0.4992  -0.4987  -0.4787  -0.4785  -0.4586  -0.4584  -0.4386  -0.4369
    -0.4259  -0.4252  -0.4165  -0.4159  -0.4061  -0.3826  -0.3814  -0.3782
    -0.3771  -0.3769  -0.3716  -0.3708  -0.3605  -0.3598  -0.3160  -0.3097
    -0.3091  -0.2552  -0.2549  -0.2462  -0.2462  -0.2438  -0.2406  -0.2293
    -0.2278  -0.2235  -0.2221  -0.2211  -0.2205  -0.2174  -0.2171  -0.2133
    -0.2018  -0.2016  -0.1917  -0.1885  -0.1846  -0.1677  -0.1670  -0.1187
    -0.1168  -0.1135  -0.1087  -0.1085  -0.0824  -0.0822  -0.0807  -0.0800
    -0.0746  -0.0656  -0.0640  -0.0594  -0.0592  -0.0490  -0.0379  -0.0375
    -0.0349  -0.0320  -0.0313  -0.0311  -0.0304  -0.0291  -0.0272  -0.0140
    -0.0088  -0.0080  -0.0052  -0.0049   0.0147   0.0484   0.0623   0.0638
     0.0649   0.0662   0.0831   0.1110   0.1134   0.1139   0.1158   0.1201
     0.1214   0.1222   0.1231   0.1235   0.1367   0.1588   0.1715   0.1749
     0.1766   0.1830   0.1850   0.2021   0.2027   0.2029   0.2042   0.2095
     0.2155   0.2274   0.2290   0.2294   0.2303   0.2320   0.2379   0.2407
     0.2441   0.2464   0.2469   0.2485   0.2491   0.2578   0.2654   0.2819
     0.2841   0.2980   0.2987   0.3189   0.3196   0.3471   0.3487   0.3571
     0.3699   0.3778   0.4038   0.4185   0.4196   0.4210   0.4261   0.4297
     0.4309   0.4538   0.4540   0.4555   0.4561   0.4595   0.4647   0.4658
     0.4672   0.5115   0.5222   0.5226   0.5316   0.5333   0.5342   0.5352
     0.5606   0.5636   0.5647   0.5676   0.5682   0.5897   0.5982   0.6035
     0.6109   0.6130   0.6169   0.6208   0.6250   0.6257   0.6369   0.6623
     0.6664   0.6762   0.6781   0.6818   0.6823   0.6830   0.6907   0.7092
     0.7095   0.7138   0.7170   0.7178   0.7194   0.7195   0.7209   0.7252
     0.7278   0.7316   0.7379   0.7386   0.7422   0.7423   0.7485   0.7504
     0.7797   0.7867   0.7869   0.7928   0.8029   0.8302   0.8305   0.8322
     0.8347   0.8359   0.8369   0.8379   0.8385   0.8456   0.8471   0.8551
     0.8612   0.8625   0.8643   0.8651   0.8699   0.8702   0.8788   0.8812
     0.9018   0.9031   0.9041   0.9077   0.9115   0.9162   0.9234   0.9271
     0.9289   0.9289   0.9302   0.9345   0.9368   0.9383   0.9443   0.9504
     0.9837   0.9882   0.9887   0.9981   1.0011   1.0038   1.0044   1.0065
     1.0077   1.0127   1.0151   1.0386   1.0396   1.0549   1.0556   1.0593
     1.0597   1.0728   1.0736   1.0825   1.0830   1.0833   1.0847   1.0918
     1.1032   1.1205   1.1220   1.1240   1.1248   1.1264   1.1266   1.1436
     1.1516   1.1599   1.1604   1.1692   1.1694   1.1810   1.1935   1.1939
     1.1942   1.1961   1.1980   1.2001   1.2048   1.2078   1.2101   1.2112
     1.2117   1.2122   1.2175   1.2222   1.2249   1.2274   1.2444   1.2461
     1.2480   1.2512   1.2524   1.2586   1.2868   1.2877   1.2884   1.2936
     1.2956   1.2961   1.2975   1.2984   1.2997   1.3007   1.3017   1.3029
     1.3053   1.3090   1.3174   1.3176   1.3383   1.3497   1.3658   1.3704
     1.3825   1.3830   1.3856   1.3872   1.3881   1.3900   1.3943   1.4095
     1.4160   1.4208   1.4218   1.4231   1.4233   1.4261   1.4273   1.4281
     1.4286   1.4385   1.4447   1.4551   1.4561   1.4575   1.4582   1.4595
     1.4608   1.4611   1.4640   1.4768   1.4773   1.4780   1.4832   1.4853
     1.4931   1.4931   1.4942   1.4947   1.4994   1.5033   1.5083   1.5138
     1.5250   1.5362   1.5377   1.5378   1.5429   1.5442   1.5505   1.5544
     1.5631   1.5661   1.5699   1.5718   1.5748   1.5838   1.5975   1.5976
     1.5980   1.6054   1.6056   1.6158   1.6167   1.6179   1.6186   1.6192
     1.6205   1.6209   1.6214   1.6226   1.6310   1.6320   1.6328   1.6482
     1.6490   1.6496   1.6511   1.6537   1.6622   1.6639   1.6702   1.6985
     1.7000   1.7029   1.7131   1.7387   1.7402   1.7445   1.7465   1.7644
     1.7645   1.7646   1.7699   1.7737   1.7902   1.8110   1.8147   1.8154
     1.8158   1.8178   1.8258   1.8261   1.8278   2.0812   2.1379   2.2076
     2.2738   2.3016   2.3213   2.3362   2.3502   2.3701   2.3893   2.3900
     2.3908   2.3980   2.4089   2.4318   2.4428   2.4618   2.5923   2.5938
     2.6526   2.6538   2.6614   2.6656   2.6691   2.6846   2.9013   2.9034
     2.9230   2.9279   3.3214   3.3414   3.4228   3.4297   3.7057   3.7099
     3.9337   4.0012   4.0081   4.0318   4.0368   4.0430   4.0684   4.1224
     4.1477   4.1613   4.1781   4.1886   4.1901   4.1939   4.2001   4.2009
     4.2307   4.4352   4.4356   4.4378   4.4683   4.6213   4.9046   4.9463
     5.1826   5.2726   5.2847   5.4793   5.5895   5.6005   5.6209   5.8345
     5.8923   5.8973   5.9136   5.9633   6.1153   6.1202   6.5245   6.5321
     6.5906   6.5909   6.6574   6.6610   6.6633   6.6745   6.8276   6.8433
     6.8571   6.8769   6.9903   6.9910   7.0335   7.0429   7.1459   7.2295
     7.2341   7.2833   7.2935   7.3332   7.3412   7.5388   7.5389   7.5448
     7.7295   7.7315   7.8476   7.8719   7.8747   7.8833   7.9615   7.9926
     8.0676   8.2895   8.3205   8.3849   8.4254   8.4832   8.4857   8.5178
     8.5181   8.5313   8.5624   8.5786   8.5913   8.6082   8.6411   8.7315
     8.8106   8.8191   8.8368   8.8385   8.8406   8.8729   8.8735   8.9088
     9.0124   9.0151   9.0334   9.0390   9.2555   9.2890   9.2921   9.2967
     9.3019   9.3222   9.3946   9.4202   9.4486   9.5247   9.5258   9.6331
     9.6909   9.7312   9.7601   9.7630  10.0099  10.0997  10.1130  10.1972
    10.2075  10.2230  10.2416

          k = 0.0000-0.2165 0.0000 (256176 PWs)   bands (ev):

   -16.5902 -16.0954 -15.7510 -15.3077 -15.0003 -14.1351 -14.1330 -14.0333
   -13.9472 -13.8357 -13.6766 -13.3735 -13.3680 -13.3371 -12.8652 -11.9724
   -11.9489 -11.9461 -11.8431 -11.7347 -11.3923 -10.0618 -10.0444 -10.0400
    -9.8531  -8.8137  -8.7562  -8.6763  -8.6510  -8.6018  -8.5170  -7.8272
    -7.8178  -7.7676  -7.7262  -6.6768  -6.6640  -6.5892  -6.5752  -6.4970
    -6.4691  -6.4504  -6.4184  -5.7068  -5.7014  -5.6636  -5.6472  -4.8551
    -4.8528  -4.8165  -4.7887  -4.7843  -4.7421  -4.6591  -4.6567  -4.3010
    -4.2860  -4.2744  -4.2660  -4.2399  -4.1800  -3.8314  -3.7748  -3.3742
    -3.3123  -3.1270  -3.1250  -3.1249  -3.1181  -3.0191  -2.9706  -2.8898
    -2.8704  -2.8544  -2.8505  -2.7704  -2.7611  -2.7349  -2.7050  -2.5901
    -2.5864  -2.5423  -2.5245  -2.4880  -2.4512  -2.4162  -2.4104  -2.4056
    -2.3997  -2.3994  -2.3977  -2.3964  -2.3574  -2.2751  -2.2647  -2.1432
    -2.1146  -2.0668  -2.0658  -2.0606  -2.0530  -2.0372  -1.9738  -1.9643
    -1.9631  -1.9622  -1.9341  -1.8350  -1.8045  -1.8044  -1.7785  -1.7784
    -1.7507  -1.6858  -1.6841  -1.6406  -1.5869  -1.5829  -1.5821  -1.5682
    -1.5680  -1.5674  -1.5619  -1.5598  -1.5598  -1.5418  -1.5370  -1.4646
    -1.4595  -1.4338  -1.3802  -1.3478  -1.3395  -1.2856  -1.2824  -1.2804
    -1.2793  -1.1995  -1.1964  -1.1887  -1.1883  -1.1343  -1.1320  -1.0976
    -1.0961  -1.0915  -1.0912  -1.0911  -1.0859  -1.0708  -1.0614  -1.0486
    -1.0436  -1.0431  -1.0412  -1.0406  -1.0346  -1.0290  -1.0237  -0.9921
    -0.9565  -0.9535  -0.9533  -0.9518  -0.9054  -0.9050  -0.9017  -0.8670
    -0.8668  -0.8639  -0.8633  -0.8257  -0.8224  -0.8028  -0.8020  -0.7983
    -0.7976  -0.7964  -0.7947  -0.7459  -0.7435  -0.7373  -0.7361  -0.7320
    -0.7286  -0.7275  -0.7143  -0.7142  -0.7123  -0.6705  -0.6484  -0.6456
    -0.6364  -0.6360  -0.6303  -0.6255  -0.6212  -0.6152  -0.6143  -0.6016
    -0.5970  -0.5718  -0.5717  -0.5706  -0.5673  -0.5095  -0.4741  -0.4735
    -0.4671  -0.4664  -0.4491  -0.4488  -0.4243  -0.4217  -0.4214  -0.4208
    -0.4174  -0.4173  -0.3948  -0.3926  -0.3610  -0.3595  -0.3594  -0.3575
    -0.3555  -0.3539  -0.3529  -0.3510  -0.3221  -0.3212  -0.3188  -0.3019
    -0.3019  -0.2990  -0.2702  -0.2669  -0.2643  -0.2639  -0.2597  -0.2592
    -0.2534  -0.2525  -0.2494  -0.2492  -0.1784  -0.1779  -0.1703  -0.1702
    -0.1612  -0.1455  -0.1431  -0.1215  -0.1195  -0.1156  -0.1146  -0.1110
    -0.1098  -0.0905  -0.0880  -0.0844  -0.0842  -0.0822  -0.0728  -0.0684
    -0.0683  -0.0657  -0.0638  -0.0613  -0.0605  -0.0604  -0.0532  -0.0526
    -0.0505  -0.0280  -0.0238  -0.0237  -0.0216  -0.0206  -0.0090   0.0408
     0.0415   0.0421   0.0440   0.0496   0.0513   0.0550   0.0556   0.0667
     0.0738   0.0823   0.0899   0.0942   0.0950   0.0966   0.1009   0.1038
     0.1048   0.1079   0.1080   0.1090   0.1117   0.1212   0.1648   0.1650
     0.1661   0.1670   0.1744   0.1825   0.1893   0.1898   0.1924   0.1950
     0.1997   0.2077   0.2104   0.2117   0.2179   0.2230   0.2285   0.2408
     0.2437   0.2574   0.2577   0.2581   0.2595   0.2664   0.2788   0.2827
     0.2862   0.2945   0.2949   0.3022   0.3044   0.3142   0.3172   0.3173
     0.3177   0.3598   0.3600   0.3687   0.3705   0.3768   0.3814   0.3859
     0.3864   0.4098   0.4119   0.4417   0.4486   0.4487   0.4526   0.4788
     0.4906   0.5155   0.5577   0.5657   0.5660   0.5702   0.5744   0.5796
     0.5936   0.5942   0.5949   0.5950   0.6221   0.6320   0.6344   0.6365
     0.6372   0.6391   0.6392   0.6422   0.6440   0.6502   0.6542   0.6595
     0.6597   0.6610   0.6629   0.6636   0.6716   0.6719   0.6738   0.6975
     0.6997   0.7055   0.7082   0.7089   0.7097   0.7100   0.7168   0.7169
     0.7384   0.7395   0.7399   0.7408   0.7428   0.7435   0.7438   0.7445
     0.7619   0.7620   0.7636   0.7648   0.7658   0.7661   0.7666   0.7708
     0.7736   0.7807   0.7875   0.8288   0.8292   0.8391   0.8397   0.8460
     0.8503   0.8513   0.8536   0.8551   0.8580   0.8590   0.8602   0.8636
     0.8636   0.8654   0.8680   0.9017   0.9072   0.9076   0.9086   0.9114
     0.9248   0.9251   0.9259   0.9271   0.9284   0.9407   0.9425   0.9563
     0.9566   0.9580   0.9639   0.9647   0.9663   1.0157   1.0173   1.0649
     1.0694   1.0721   1.0745   1.0768   1.0787   1.0838   1.0874   1.0920
     1.0936   1.0976   1.0990   1.0996   1.1077   1.1080   1.1091   1.1117
     1.1203   1.1216   1.1231   1.1241   1.1243   1.1306   1.1391   1.1470
     1.1471   1.1493   1.1499   1.1522   1.1528   1.1532   1.1578   1.1604
     1.1671   1.1697   1.1699   1.1745   1.1747   1.1763   1.1771   1.1917
     1.1946   1.1983   1.2066   1.2098   1.2100   1.2142   1.2142   1.2207
     1.2211   1.2218   1.2219   1.2226   1.2250   1.2644   1.2729   1.2958
     1.3106   1.3109   1.3142   1.3220   1.3271   1.3332   1.3359   1.3391
     1.3438   1.3523   1.3539   1.3646   1.3652   1.3689   1.3746   1.3761
     1.3786   1.3812   1.3815   1.3826   1.3833   1.3849   1.3849   1.3862
     1.3869   1.3928   1.3938   1.4038   1.4059   1.4115   1.4134   1.4143
     1.4152   1.4223   1.4227   1.4418   1.4512   1.4517   1.4522   1.4581
     1.4586   1.4597   1.4603   1.4722   1.4815   1.4821   1.4823   1.4890
     1.4935   1.4951   1.4957   1.4968   1.4991   1.5126   1.5135   1.5149
     1.5162   1.5256   1.5329   1.5331   1.5366   1.5530   1.5535   1.5609
     1.5619   1.5631   1.5634   1.5752   1.5754   1.5769   1.5787   1.5915
     1.5941   1.5944   1.6084   1.6091   1.6100   1.6127   1.6281   1.6299
     1.6302   1.6310   1.6328   1.6328   1.6349   1.6356   1.6604   1.6620
     1.6696   1.6701   1.6772   1.6833   1.6935   1.7004   1.7012   1.7014
     1.7038   1.7094   1.7167   1.7221   1.7249   1.7277   1.7691   1.7698
     1.7722   1.7851   1.8721   1.8756   1.8943   1.9092   1.9152   1.9182
     1.9199   1.9466   1.9682   1.9730   1.9759   1.9787   1.9960   1.9962
     1.9976   2.0172   2.0344   2.0358   2.1560   2.2135   2.3928   2.5595
     2.5965   2.6000   2.6010   2.6299   2.6331   2.6794   2.6837   2.7443
     2.7484   2.7531   2.7549   2.7809   2.7860   2.8875   2.8900   2.9398
     2.9476   2.9594   2.9734   3.1023   3.1047   3.1811   3.3433   3.3433
     3.3951   3.4265   3.5674   3.6097   3.8501   3.8603   4.2146   4.2284
     4.2443   4.2565   4.3263   4.3863   4.3879   4.5065   4.5122   4.5140
     4.5154   4.6789   4.6837   4.8581   4.8734   4.9104   4.9520   5.0234
     5.2824   5.2915   5.3020   5.3731   5.5381   5.5409   5.5429   5.5432
     5.6059   5.7124   5.8585   5.9545   6.0699   6.1166   6.1586   6.5608
     6.5810   6.5887   6.6013   6.6147   6.6233   6.7117   6.7318   6.8465
     6.8499   6.8802   6.9896   6.9953   7.2069   7.2230   7.2564   7.2572
     7.2669   7.2737   7.2943   7.3065   7.3091   7.3330   7.5257   7.5411
     7.5699   7.6024   7.6198   7.6295   7.6933   7.8782   8.0075   8.0577
     8.0801   8.1059   8.1910   8.3199   8.3215   8.4111   8.5394   8.5425
     8.5938   8.5945   8.6370   8.6489   8.7220   8.8137   8.8437   8.8847
     8.8906   8.8908   8.8996   8.9402   8.9416   8.9657   8.9836   9.0976
     9.1152   9.1278   9.1949   9.1996   9.2676   9.2819   9.3315   9.3423
     9.4520   9.4593   9.4944   9.5586   9.5590   9.5724   9.5737   9.6627
     9.6641   9.6781   9.6896   9.8424   9.8526   9.9686   9.9697  10.0288
    10.0362  10.0686  10.2404

          k = 0.2500 0.0000 0.0000 (256240 PWs)   bands (ev):

   -16.5557 -15.9579 -15.6631 -15.3619 -14.9873 -14.6807 -14.5949 -14.5338
   -14.1394 -13.5713 -13.3923 -13.0772 -12.7647 -12.7409 -12.7263 -12.4141
   -11.8154 -11.7614 -11.7109 -11.4512 -10.6865 -10.4627 -10.4150 -10.1982
    -9.8273  -9.6842  -9.4148  -9.3861  -9.0001  -8.7784  -8.6947  -8.1849
    -7.2244  -7.2206  -7.1886  -7.1650  -7.0813  -7.0410  -6.6165  -6.3535
    -5.7830  -5.6593  -5.6153  -5.6020  -5.5793  -5.5078  -5.1338  -5.1292
    -4.8677  -4.8308  -4.7274  -4.3613  -4.2872  -4.2673  -4.2591  -4.1811
    -4.0533  -4.0511  -4.0227  -4.0044  -3.8218  -3.8190  -3.7792  -3.7088
    -3.6615  -3.6595  -3.5975  -3.4761  -3.3058  -3.3035  -3.2490  -3.2310
    -3.2246  -3.2163  -3.1405  -3.1187  -3.0635  -3.0620  -2.9549  -2.9003
    -2.8761  -2.8470  -2.8149  -2.6756  -2.6251  -2.6187  -2.6177  -2.5043
    -2.4942  -2.4343  -2.4225  -2.2207  -2.1959  -2.1606  -2.1524  -2.1369
    -1.9190  -1.9188  -1.9017  -1.9008  -1.8500  -1.8268  -1.8073  -1.7813
    -1.7208  -1.7158  -1.7116  -1.6690  -1.6551  -1.6195  -1.6192  -1.6115
    -1.6113  -1.5915  -1.5853  -1.5632  -1.5431  -1.5296  -1.5284  -1.4977
    -1.4671  -1.4640  -1.4206  -1.4013  -1.4010  -1.4005  -1.3976  -1.3973
    -1.3969  -1.3582  -1.3437  -1.3387  -1.3244  -1.3213  -1.3184  -1.3087
    -1.3084  -1.2377  -1.1902  -1.1530  -1.1486  -1.1296  -1.0917  -1.0890
    -1.0678  -1.0616  -1.0601  -1.0543  -1.0417  -1.0367  -1.0260  -1.0241
    -1.0078  -1.0017  -0.9992  -0.9938  -0.9790  -0.9526  -0.9502  -0.9496
    -0.9474  -0.9457  -0.9306  -0.9283  -0.9246  -0.8992  -0.8914  -0.8689
    -0.8683  -0.8654  -0.8636  -0.8536  -0.8382  -0.8319  -0.8304  -0.8259
    -0.8207  -0.8117  -0.8094  -0.8004  -0.7998  -0.7978  -0.7973  -0.7939
    -0.7927  -0.7843  -0.7821  -0.7637  -0.7564  -0.7466  -0.7338  -0.7219
    -0.7177  -0.7145  -0.7129  -0.6715  -0.6692  -0.6624  -0.6329  -0.6319
    -0.6163  -0.6121  -0.6104  -0.5985  -0.5879  -0.5856  -0.5730  -0.5723
    -0.5685  -0.5660  -0.5615  -0.5580  -0.5408  -0.4284  -0.4196  -0.4179
    -0.4174  -0.3880  -0.3856  -0.3841  -0.3795  -0.3683  -0.3663  -0.3660
    -0.3651  -0.3455  -0.3448  -0.3443  -0.3355  -0.3328  -0.3219  -0.3035
    -0.3032  -0.3009  -0.3000  -0.2992  -0.2778  -0.2776  -0.2740  -0.2718
    -0.2211  -0.2165  -0.2163  -0.2162  -0.2089  -0.2052  -0.1980  -0.1927
    -0.1881  -0.1750  -0.1744  -0.1710  -0.1512  -0.1509  -0.1449  -0.1427
    -0.1129  -0.1125  -0.1085  -0.1075  -0.0994  -0.0988  -0.0884  -0.0871
    -0.0798  -0.0722  -0.0686  -0.0527  -0.0482  -0.0399  -0.0248  -0.0165
    -0.0154  -0.0139  -0.0119  -0.0062   0.0007   0.0017   0.0021   0.0098
     0.0305   0.0306   0.0329   0.0419   0.0452   0.0690   0.0701   0.0716
     0.0729   0.1074   0.1148   0.1181   0.1211   0.1259   0.1290   0.1353
     0.1445   0.1623   0.1629   0.1696   0.1711   0.1765   0.1818   0.1824
     0.1873   0.1879   0.1887   0.1901   0.1921   0.1948   0.1959   0.2148
     0.2157   0.2162   0.2196   0.2240   0.2254   0.2413   0.2416   0.2573
     0.2608   0.2802   0.2959   0.2965   0.2992   0.2999   0.3021   0.3138
     0.3182   0.3213   0.3231   0.3241   0.3249   0.3262   0.3601   0.3622
     0.4045   0.4210   0.4348   0.4353   0.4389   0.4504   0.4532   0.4545
     0.4562   0.4571   0.4602   0.4652   0.4679   0.4708   0.4721   0.4730
     0.4791   0.4893   0.4897   0.4911   0.4954   0.5029   0.5037   0.5093
     0.5122   0.5137   0.5172   0.5192   0.5346   0.5388   0.5493   0.5503
     0.5880   0.5900   0.5961   0.5999   0.6061   0.6070   0.6245   0.6249
     0.6258   0.6292   0.6386   0.6453   0.6572   0.6603   0.6627   0.6686
     0.6688   0.6730   0.6746   0.6792   0.6800   0.6993   0.7021   0.7091
     0.7191   0.7268   0.7283   0.7307   0.7325   0.7335   0.7365   0.7380
     0.7420   0.7572   0.7626   0.7631   0.7683   0.7744   0.7768   0.7786
     0.7806   0.7892   0.7920   0.7938   0.7995   0.8018   0.8098   0.8198
     0.8219   0.8403   0.8426   0.8457   0.8466   0.8521   0.8533   0.8563
     0.8750   0.8852   0.8889   0.9055   0.9102   0.9232   0.9238   0.9274
     0.9293   0.9335   0.9480   0.9525   0.9566   0.9574   0.9615   0.9644
     0.9763   0.9780   0.9861   0.9875   0.9971   1.0055   1.0068   1.0069
     1.0194   1.0246   1.0381   1.0391   1.0400   1.0427   1.0617   1.0635
     1.0723   1.0749   1.0753   1.0765   1.0794   1.0857   1.0860   1.0905
     1.0941   1.1256   1.1336   1.1337   1.1371   1.1382   1.1412   1.1459
     1.1517   1.1534   1.1706   1.1713   1.1722   1.1759   1.1821   1.1826
     1.1856   1.1980   1.1989   1.2009   1.2015   1.2033   1.2041   1.2055
     1.2071   1.2095   1.2145   1.2148   1.2165   1.2239   1.2271   1.2323
     1.2420   1.2433   1.2474   1.2500   1.2517   1.2553   1.2578   1.2587
     1.2730   1.2739   1.2827   1.2874   1.2893   1.2911   1.2930   1.2980
     1.3053   1.3160   1.3186   1.3224   1.3298   1.3338   1.3378   1.3403
     1.3483   1.3516   1.3589   1.3639   1.3654   1.3708   1.3753   1.3769
     1.4121   1.4155   1.4195   1.4262   1.4269   1.4299   1.4345   1.4357
     1.4367   1.4372   1.4448   1.4472   1.4558   1.4598   1.4618   1.4624
     1.4724   1.4804   1.4806   1.4831   1.4837   1.4872   1.4919   1.4936
     1.4959   1.4965   1.4988   1.5005   1.5055   1.5060   1.5138   1.5146
     1.5212   1.5288   1.5318   1.5350   1.5396   1.5400   1.5408   1.5417
     1.5528   1.5622   1.5625   1.5631   1.5746   1.5845   1.5862   1.5935
     1.5970   1.6036   1.6055   1.6059   1.6073   1.6094   1.6104   1.6154
     1.6165   1.6174   1.6185   1.6235   1.6261   1.6440   1.6462   1.6472
     1.6481   1.6509   1.6516   1.6523   1.6649   1.6653   1.6722   1.6759
     1.6778   1.6889   1.6892   1.6978   1.6985   1.7033   1.7087   1.7282
     1.7290   1.7368   1.7637   1.7690   1.8020   1.8055   1.8079   1.8132
     1.8431   1.8687   1.9219   1.9385   1.9438   1.9451   1.9629   1.9633
     1.9886   2.0186   2.1420   2.2121   2.2243   2.2505   2.2623   2.2679
     2.2813   2.3513   2.4156   2.4331   2.4742   2.5265   2.7418   2.7445
     2.7497   2.7590   3.1279   3.1565   3.1593   3.2141   3.3732   3.3740
     3.3984   3.3985   3.4645   3.4717   3.6459   3.6530   3.7667   3.7710
     3.8135   3.8156   3.8853   3.8882   3.9005   3.9050   3.9536   4.0528
     4.0577   4.1551   4.1624   4.3398   4.3635   4.3757   4.4423   4.4592
     4.5929   4.7185   4.8775   4.9637   5.0097   5.0366   5.1589   5.3472
     5.4006   5.4018   5.4109   5.5446   5.6084   5.6470   5.6531   5.6817
     5.7227   5.7629   5.7763   5.8333   5.8725   5.8801   5.9185   5.9394
     6.0069   6.0093   6.1202   6.1878   6.1913   6.2198   6.2673   6.4852
     6.8681   6.8731   6.9001   6.9112   6.9430   7.0338   7.0451   7.0587
     7.1781   7.1978   7.2104   7.2129   7.2231   7.2572   7.4189   7.4427
     7.4646   7.5199   7.6251   7.6862   7.7086   7.7247   7.7372   7.7654
     7.9310   7.9445   7.9741   8.1466   8.1668   8.1879   8.2060   8.2335
     8.2406   8.2936   8.4316   8.4591   8.4627   8.4902   8.4908   8.5468
     8.5695   8.6035   8.6315   8.7057   8.7520   8.8201   8.8224   9.0281
     9.0743   9.1190   9.1536   9.2424   9.3253   9.3567   9.3679   9.3887
     9.4048   9.4239   9.4543   9.5102   9.5542   9.5557   9.5731   9.5877
     9.5915   9.6169   9.6227   9.6799   9.7639   9.8338   9.9001   9.9027
     9.9511  10.0979  10.1455

          k = 0.2500-0.2165 0.0000 (256316 PWs)   bands (ev):

   -16.5546 -15.9713 -15.6717 -15.1856 -15.0502 -14.9849 -14.6400 -14.2086
   -14.0088 -13.7166 -13.5072 -13.0588 -12.9009 -12.7667 -12.5990 -12.3111
   -12.0949 -11.6271 -11.4965 -11.0065 -10.9095 -10.7470 -10.6123 -10.4103
   -10.1510  -9.3169  -9.2449  -8.8018  -8.7614  -8.6687  -8.6354  -8.1612
    -8.0927  -8.0540  -7.9691  -6.3554  -6.3238  -6.2997  -6.2677  -6.2367
    -6.0944  -5.9860  -5.9091  -5.6245  -5.6058  -5.5285  -5.5228  -4.8404
    -4.8235  -4.6312  -4.5860  -4.5096  -4.4996  -4.4929  -4.4829  -4.1699
    -4.1660  -4.1363  -4.0468  -3.9061  -3.8560  -3.8339  -3.8312  -3.6664
    -3.6418  -3.5368  -3.4851  -3.3882  -3.3275  -3.2859  -3.2797  -3.2780
    -3.2570  -3.2144  -3.1502  -2.9654  -2.9525  -2.8848  -2.8777  -2.7642
    -2.7569  -2.7442  -2.7292  -2.7288  -2.7258  -2.6430  -2.6137  -2.5685
    -2.5361  -2.3249  -2.3093  -2.2316  -2.1851  -2.1359  -2.1311  -2.0652
    -2.0475  -1.9959  -1.9920  -1.9874  -1.9873  -1.8288  -1.8285  -1.8044
    -1.7900  -1.7749  -1.7664  -1.6742  -1.6404  -1.6355  -1.6317  -1.6308
    -1.5767  -1.5716  -1.5511  -1.5442  -1.5370  -1.5291  -1.5266  -1.5227
    -1.5137  -1.4967  -1.4955  -1.4944  -1.4941  -1.4857  -1.4854  -1.4727
    -1.4359  -1.4017  -1.3960  -1.3076  -1.2873  -1.2831  -1.1793  -1.1784
    -1.1667  -1.1479  -1.1473  -1.1253  -1.0949  -1.0934  -1.0878  -1.0800
    -1.0797  -1.0675  -1.0671  -1.0558  -1.0534  -1.0443  -1.0429  -1.0322
    -1.0299  -1.0264  -1.0191  -1.0139  -1.0129  -1.0070  -1.0000  -0.9922
    -0.9505  -0.9464  -0.9440  -0.9388  -0.9342  -0.9306  -0.9302  -0.9012
    -0.8980  -0.8957  -0.8921  -0.8579  -0.8575  -0.8524  -0.8463  -0.8431
    -0.8420  -0.8128  -0.8127  -0.7947  -0.7913  -0.7797  -0.7791  -0.7745
    -0.7741  -0.7696  -0.7659  -0.7445  -0.7424  -0.7408  -0.7201  -0.7128
    -0.6878  -0.6809  -0.6794  -0.6790  -0.6320  -0.5988  -0.5953  -0.5936
    -0.5893  -0.5887  -0.5866  -0.5738  -0.5408  -0.5397  -0.5308  -0.5303
    -0.5235  -0.5227  -0.5149  -0.5116  -0.4911  -0.4726  -0.4705  -0.4585
    -0.4324  -0.4316  -0.4301  -0.4009  -0.3855  -0.3826  -0.3806  -0.3803
    -0.3579  -0.3525  -0.3512  -0.3417  -0.3352  -0.3201  -0.3184  -0.3074
    -0.3053  -0.3007  -0.2754  -0.2715  -0.2707  -0.2625  -0.2559  -0.2421
    -0.2264  -0.2261  -0.2128  -0.2115  -0.2037  -0.1982  -0.1957  -0.1866
    -0.1864  -0.1817  -0.1809  -0.1759  -0.1753  -0.1703  -0.1694  -0.1539
    -0.1501  -0.1419  -0.1352  -0.1344  -0.1280  -0.1119  -0.1069  -0.0917
    -0.0853  -0.0823  -0.0750  -0.0578  -0.0573  -0.0542  -0.0400  -0.0361
    -0.0355  -0.0322  -0.0288  -0.0102   0.0066   0.0282   0.0284   0.0559
     0.0647   0.0666   0.0736   0.0738   0.0778   0.0780   0.0946   0.0948
     0.1065   0.1125   0.1132   0.1189   0.1294   0.1319   0.1355   0.1382
     0.1408   0.1417   0.1431   0.1552   0.1677   0.1710   0.1784   0.1794
     0.1806   0.1807   0.1850   0.1855   0.1860   0.1905   0.1931   0.2028
     0.2126   0.2130   0.2137   0.2139   0.2469   0.2480   0.2556   0.2569
     0.2642   0.2674   0.2829   0.2844   0.2988   0.3112   0.3127   0.3136
     0.3242   0.3255   0.3325   0.3335   0.3366   0.3396   0.3408   0.3503
     0.3545   0.3616   0.3628   0.3858   0.3901   0.4463   0.4499   0.4624
     0.4628   0.4637   0.4652   0.4673   0.4690   0.4706   0.4754   0.4768
     0.4782   0.4884   0.4964   0.5005   0.5033   0.5062   0.5147   0.5154
     0.5172   0.5209   0.5219   0.5393   0.5489   0.5504   0.5623   0.5629
     0.5751   0.5766   0.5871   0.5890   0.6232   0.6275   0.6311   0.6368
     0.6400   0.6408   0.6476   0.6520   0.6529   0.6596   0.6610   0.6617
     0.6625   0.6664   0.6680   0.6916   0.6933   0.6990   0.7022   0.7125
     0.7161   0.7183   0.7490   0.7499   0.7510   0.7518   0.7807   0.7848
     0.7882   0.7892   0.7905   0.7916   0.7959   0.7967   0.8057   0.8077
     0.8123   0.8161   0.8172   0.8187   0.8206   0.8288   0.8336   0.8383
     0.8430   0.8489   0.8491   0.8506   0.8521   0.8613   0.8628   0.8638
     0.8708   0.8715   0.8717   0.8869   0.8909   0.8924   0.8928   0.8983
     0.8993   0.9003   0.9009   0.9031   0.9055   0.9372   0.9398   0.9475
     0.9487   0.9611   0.9778   0.9853   0.9892   1.0057   1.0058   1.0073
     1.0077   1.0113   1.0128   1.0149   1.0344   1.0346   1.0359   1.0370
     1.0379   1.0397   1.0477   1.0598   1.0651   1.0661   1.0668   1.0766
     1.0781   1.0855   1.0874   1.1083   1.1088   1.1131   1.1376   1.1387
     1.1422   1.1460   1.1464   1.1478   1.1488   1.1521   1.1578   1.1651
     1.1800   1.1828   1.1841   1.1992   1.2000   1.2119   1.2171   1.2193
     1.2200   1.2338   1.2455   1.2481   1.2551   1.2625   1.2629   1.2689
     1.2694   1.2706   1.2713   1.2726   1.2739   1.2747   1.2763   1.2861
     1.2880   1.2897   1.2991   1.3004   1.3025   1.3139   1.3205   1.3326
     1.3449   1.3468   1.3541   1.3562   1.3568   1.3591   1.3604   1.3658
     1.3686   1.3721   1.3729   1.3735   1.3798   1.3817   1.3847   1.3867
     1.3871   1.3898   1.3963   1.3994   1.4033   1.4047   1.4054   1.4073
     1.4081   1.4177   1.4222   1.4272   1.4274   1.4381   1.4529   1.4538
     1.4604   1.4606   1.4746   1.4781   1.4795   1.4856   1.4922   1.4924
     1.5027   1.5065   1.5087   1.5111   1.5129   1.5164   1.5175   1.5232
     1.5291   1.5298   1.5323   1.5405   1.5418   1.5479   1.5566   1.5593
     1.5636   1.5639   1.5653   1.5672   1.5688   1.5707   1.5746   1.5762
     1.5861   1.5866   1.5920   1.5924   1.6030   1.6085   1.6088   1.6136
     1.6185   1.6189   1.6193   1.6246   1.6256   1.6257   1.6269   1.6283
     1.6355   1.6356   1.6402   1.6598   1.6599   1.6661   1.6703   1.6723
     1.6835   1.6856   1.7038   1.7064   1.7097   1.7109   1.7310   1.7325
     1.7392   1.7393   1.7637   1.7684   1.8213   1.8300   1.8405   1.8479
     1.8495   1.9239   1.9328   1.9405   1.9503   1.9593   1.9683   1.9686
     1.9713   1.9906   2.0044   2.0203   2.0330   2.3037   2.3061   2.3312
     2.3332   2.4058   2.4566   2.4705   2.5027   2.7637   2.7672   2.9149
     2.9677   2.9680   2.9710   2.9811   2.9904   3.0119   3.0227   3.1512
     3.1667   3.1952   3.2564   3.2965   3.7165   3.7280   3.7919   3.8005
     3.8291   3.8684   4.0150   4.0232   4.0269   4.0305   4.1749   4.1822
     4.2432   4.2491   4.3431   4.3458   4.5548   4.5564   4.6038   4.7293
     4.7305   4.7519   4.8463   4.8498   4.9367   5.0351   5.0920   5.0984
     5.1131   5.1928   5.2402   5.3018   5.3853   5.4382   5.4528   5.5736
     5.6186   5.6360   5.6371   5.6436   5.6686   5.9211   5.9464   5.9901
     6.0666   6.0839   6.1279   6.1859   6.2914   6.6124   6.7805   6.7922
     6.7989   6.8038   6.9161   6.9261   7.0338   7.0479   7.2010   7.2446
     7.2594   7.2603   7.2935   7.3065   7.3934   7.3942   7.4124   7.5012
     7.5117   7.5166   7.5312   7.5720   7.6030   7.6058   7.6104   7.7373
     7.8413   7.8599   7.9613   7.9752   8.0418   8.1499   8.1760   8.2802
     8.2897   8.3659   8.3694   8.3867   8.4285   8.4464   8.7104   8.7691
     8.7725   8.8110   8.8128   8.8751   8.8782   8.9033   8.9723   9.0607
     9.0685   9.1138   9.1255   9.1306   9.1324   9.2237   9.2561   9.3000
     9.3077   9.3512   9.3540   9.3721   9.3737   9.3942   9.4196   9.4440
     9.4618   9.4788   9.5314   9.5332   9.5650   9.6114   9.6723   9.6734
     9.7809  10.1204  10.1484

          k =-0.5000 0.0000 0.0000 (256496 PWs)   bands (ev):

   -16.5155 -15.6645 -15.5783 -15.3060 -15.2831 -15.2608 -14.7629 -14.1947
   -14.1791 -14.1542 -13.6449 -12.4127 -12.4026 -12.3643 -12.1890 -11.8276
   -11.7875 -11.5148 -11.5083 -11.4380 -11.2352 -10.8359 -10.6738 -10.4335
   -10.2120  -9.8152  -9.7740  -9.4516  -9.3425  -8.6089  -8.5890  -8.5494
    -8.4930  -7.0908  -7.0901  -7.0509  -7.0342  -6.9614  -6.9474  -5.5794
    -5.5683  -5.1316  -5.1279  -4.8710  -4.8580  -4.6259  -4.6250  -4.6245
    -4.6190  -4.4627  -4.4603  -4.4240  -4.4203  -4.3633  -4.3595  -4.3573
    -4.3459  -4.2437  -4.2205  -4.0852  -4.0614  -4.0547  -4.0465  -3.8170
    -3.8014  -3.7955  -3.7876  -3.7527  -3.6539  -3.3612  -3.3538  -3.3477
    -3.2451  -3.2411  -3.2406  -3.2401  -3.2154  -3.0731  -3.0655  -3.0489
    -3.0471  -3.0435  -3.0130  -2.5888  -2.5859  -2.5804  -2.5716  -2.4811
    -2.4773  -2.4678  -2.4517  -2.4130  -2.4118  -2.2180  -2.1943  -2.1817
    -2.1621  -2.1155  -2.1138  -2.1076  -2.1058  -1.6982  -1.6981  -1.6974
    -1.6972  -1.6954  -1.6934  -1.5935  -1.5736  -1.5704  -1.5661  -1.4703
    -1.4697  -1.4696  -1.4689  -1.4213  -1.4205  -1.4202  -1.4185  -1.3982
    -1.3844  -1.3212  -1.3198  -1.3070  -1.3065  -1.2548  -1.2460  -1.2449
    -1.2438  -1.2249  -1.2243  -1.2186  -1.2008  -1.1889  -1.1758  -1.1756
    -1.1710  -1.1692  -1.1618  -1.1601  -1.1569  -1.1561  -1.1506  -1.1393
    -1.1380  -1.1171  -1.1101  -1.1096  -1.1082  -1.0879  -1.0861  -1.0856
    -1.0855  -1.0609  -1.0216  -1.0214  -1.0017  -0.9997  -0.9988  -0.9982
    -0.9716  -0.9701  -0.9689  -0.9685  -0.9665  -0.9661  -0.9612  -0.9279
    -0.9259  -0.9248  -0.9240  -0.9113  -0.9025  -0.9010  -0.8725  -0.8720
    -0.8287  -0.8274  -0.8073  -0.7988  -0.7979  -0.7956  -0.7950  -0.7691
    -0.7686  -0.7681  -0.7675  -0.7628  -0.7615  -0.7502  -0.7500  -0.7470
    -0.7459  -0.7430  -0.7224  -0.7218  -0.7188  -0.6915  -0.6602  -0.6586
    -0.6571  -0.6565  -0.6127  -0.6119  -0.5295  -0.5286  -0.5280  -0.5273
    -0.4966  -0.4919  -0.4914  -0.4897  -0.4891  -0.4880  -0.4756  -0.4733
    -0.4568  -0.4492  -0.4487  -0.4484  -0.4458  -0.4428  -0.4345  -0.4321
    -0.4162  -0.4142  -0.4072  -0.3968  -0.3171  -0.3140  -0.2941  -0.2885
    -0.2875  -0.2805  -0.2745  -0.2744  -0.2712  -0.2557  -0.2258  -0.2248
    -0.2231  -0.2219  -0.2212  -0.2207  -0.2054  -0.1904  -0.1896  -0.1874
    -0.1873  -0.1851  -0.1849  -0.1561  -0.1485  -0.1473  -0.1463  -0.1461
    -0.1133  -0.1131  -0.1129  -0.1126  -0.1010  -0.1002  -0.0683  -0.0681
    -0.0665  -0.0656  -0.0487  -0.0467  -0.0403  -0.0361  -0.0198  -0.0093
     0.0058   0.0454   0.0459   0.0473   0.0475   0.0518   0.0529   0.0542
     0.0544   0.0848   0.0920   0.0931   0.0966   0.1195   0.1297   0.1314
     0.1558   0.1572   0.1573   0.1585   0.1588   0.1598   0.1608   0.1610
     0.1614   0.1621   0.1632   0.1655   0.2264   0.2323   0.2373   0.2459
     0.2487   0.2498   0.2515   0.2523   0.2540   0.2543   0.2573   0.2594
     0.2604   0.2629   0.2635   0.2677   0.2691   0.2699   0.2715   0.2818
     0.2837   0.2839   0.2976   0.2977   0.2979   0.2980   0.2993   0.2997
     0.3102   0.3104   0.3105   0.3106   0.3226   0.3235   0.3346   0.3348
     0.3356   0.3357   0.3422   0.3506   0.3657   0.3688   0.4633   0.4664
     0.4671   0.4687   0.4698   0.4700   0.4817   0.5023   0.5038   0.5041
     0.5050   0.5147   0.5169   0.5180   0.5235   0.5270   0.5275   0.5283
     0.5308   0.5339   0.5342   0.5353   0.5373   0.5388   0.5426   0.5443
     0.5517   0.5537   0.5695   0.5699   0.5706   0.5715   0.5798   0.5800
     0.5832   0.5865   0.5964   0.6186   0.6507   0.6680   0.6725   0.6760
     0.6763   0.6886   0.6894   0.7023   0.7029   0.7079   0.7085   0.7109
     0.7119   0.7134   0.7142   0.7146   0.7151   0.7159   0.7187   0.7208
     0.7211   0.7269   0.7288   0.7291   0.7322   0.7497   0.7526   0.7658
     0.7661   0.7825   0.7848   0.7948   0.8008   0.8024   0.8029   0.8093
     0.8096   0.8119   0.8125   0.8128   0.8159   0.8166   0.8193   0.8291
     0.8325   0.8345   0.8350   0.8473   0.8508   0.8519   0.8538   0.8835
     0.8876   0.8887   0.8899   0.8928   0.8959   0.9058   0.9090   0.9265
     0.9464   0.9465   0.9474   0.9482   0.9484   0.9489   0.9512   0.9659
     0.9976   1.0170   1.0175   1.0201   1.0212   1.0220   1.0235   1.0294
     1.0321   1.0336   1.0353   1.0371   1.0379   1.0466   1.0488   1.0657
     1.0677   1.0694   1.0708   1.0866   1.0873   1.0878   1.0885   1.0903
     1.0908   1.0949   1.0976   1.1274   1.1274   1.1284   1.1294   1.1789
     1.1885   1.1949   1.1952   1.1964   1.1976   1.2189   1.2279   1.2284
     1.2295   1.2308   1.2412   1.2477   1.2479   1.2550   1.2581   1.2608
     1.2753   1.2770   1.2869   1.2940   1.2944   1.2973   1.2975   1.2990
     1.2995   1.3037   1.3055   1.3061   1.3084   1.3151   1.3152   1.3166
     1.3173   1.3181   1.3195   1.3226   1.3242   1.3555   1.3566   1.3573
     1.3576   1.3632   1.3850   1.3917   1.3950   1.3952   1.3953   1.3986
     1.4085   1.4123   1.4148   1.4220   1.4225   1.4233   1.4237   1.4293
     1.4336   1.4344   1.4347   1.4385   1.4442   1.4512   1.4591   1.4700
     1.4710   1.4806   1.4819   1.4902   1.4971   1.4976   1.4978   1.4981
     1.4983   1.4989   1.5006   1.5049   1.5117   1.5119   1.5132   1.5133
     1.5142   1.5144   1.5160   1.5225   1.5228   1.5232   1.5242   1.5259
     1.5298   1.5310   1.5312   1.5455   1.5476   1.5652   1.5675   1.5699
     1.5713   1.5723   1.5732   1.5741   1.5746   1.5907   1.5931   1.5969
     1.5978   1.6112   1.6115   1.6126   1.6188   1.6251   1.6299   1.6303
     1.6306   1.6379   1.6500   1.6502   1.6539   1.6552   1.6598   1.6601
     1.6610   1.6611   1.6639   1.6694   1.6802   1.6807   1.6876   1.6942
     1.6948   1.6950   1.6955   1.7026   1.7049   1.7106   1.7207   1.7557
     1.7625   1.7688   1.7878   1.7885   1.7914   1.7937   1.8483   2.2012
     2.2062   2.2115   2.2150   2.3565   2.3802   2.4232   2.4289   2.4339
     2.4589   2.4645   2.4649   2.4826   2.4844   2.7688   2.8024   2.8072
     2.8100   2.9702   3.0099   3.0167   3.0187   3.1509   3.3640   3.3654
     3.3695   3.3729   3.6548   3.6646   3.9395   3.9404   3.9428   3.9511
     4.1007   4.1027   4.1059   4.1163   4.2493   4.2499   4.2552   4.2567
     4.3593   4.3617   4.6608   4.8101   4.8225   4.9122   4.9221   4.9260
     4.9290   4.9969   5.0051   5.0056   5.0630   5.0790   5.1971   5.1982
     5.2263   5.2293   5.2335   5.2458   5.2541   5.2544   5.2854   5.2868
     5.3895   5.3991   5.4742   5.6047   5.7360   5.7402   5.7784   5.8144
     5.8630   5.9033   6.1549   6.1668   6.1712   6.1904   6.1934   6.2110
     6.2186   6.2220   6.2373   6.4298   6.6165   6.6177   6.6597   6.6768
     6.7295   6.7464   6.8319   7.2469   7.2717   7.2722   7.2901   7.3051
     7.3064   7.6802   7.7662   7.7667   7.7676   7.7722   7.7775   7.7815
     7.8359   7.9642   7.9979   8.0216   8.0578   8.0602   8.0620   8.1210
     8.1939   8.2230   8.2444   8.2448   8.2555   8.2859   8.3190   8.3268
     8.3362   8.6607   8.6872   8.6902   8.7038   8.7500   8.8621   8.9865
     8.9995   9.0082   9.0085   9.0503   9.2237   9.2296   9.2398   9.2443
     9.2476   9.2477   9.2507   9.3242   9.4381   9.4407   9.5538   9.5854
     9.6752   9.6931   9.6983   9.7002   9.7030   9.7166   9.7301   9.7371
     9.7428  10.0331  10.0460

          k =-0.5000-0.2165 0.0000 (256328 PWs)   bands (ev):

   -16.5152 -15.6049 -15.5958 -15.5272 -15.2351 -14.8355 -14.8134 -14.8032
   -14.2229 -13.3833 -13.3712 -13.3372 -12.9852 -11.7878 -11.7870 -11.6746
   -11.6096 -11.3167 -11.3032 -11.2744 -11.1980 -11.1401 -11.1280 -11.0791
   -10.5622  -9.4464  -9.4210  -9.3383  -9.2907  -8.4816  -8.4442  -8.4146
    -8.3213  -7.7023  -7.6944  -7.6338  -7.5717  -5.6226  -5.6154  -5.5910
    -5.5639  -5.0184  -5.0127  -5.0047  -5.0045  -4.9971  -4.9959  -4.9515
    -4.9297  -4.8067  -4.8027  -4.7128  -4.6833  -4.1675  -4.1526  -4.1487
    -4.0734  -4.0209  -4.0194  -4.0186  -4.0124  -3.8938  -3.8914  -3.8828
    -3.8731  -3.6811  -3.6809  -3.6444  -3.5616  -3.4194  -3.3926  -3.3732
    -3.3665  -3.3661  -3.3430  -3.3216  -3.3188  -3.2633  -3.1799  -3.1778
    -3.1498  -2.8494  -2.8225  -2.8182  -2.7383  -2.3992  -2.3991  -2.3987
    -2.3981  -2.3441  -2.3436  -2.3340  -2.3326  -2.0781  -2.0499  -2.0238
    -2.0139  -1.9254  -1.9161  -1.9154  -1.9076  -1.8570  -1.8329  -1.8318
    -1.8298  -1.7924  -1.7578  -1.7553  -1.7280  -1.6234  -1.6221  -1.6197
    -1.6162  -1.5492  -1.5241  -1.5037  -1.4817  -1.3750  -1.3115  -1.3111
    -1.3108  -1.3106  -1.2970  -1.2866  -1.2847  -1.2746  -1.2744  -1.2688
    -1.2660  -1.2527  -1.2524  -1.2505  -1.2500  -1.2035  -1.2028  -1.2021
    -1.2016  -1.2012  -1.2004  -1.1960  -1.1924  -1.1768  -1.1765  -1.1760
    -1.1759  -1.1282  -1.1268  -1.1261  -1.1258  -1.0657  -1.0510  -1.0486
    -1.0469  -1.0083  -1.0081  -1.0072  -1.0070  -0.9930  -0.9900  -0.9895
    -0.9877  -0.9606  -0.9402  -0.9389  -0.9383  -0.9360  -0.9343  -0.9342
    -0.9341  -0.9313  -0.9264  -0.9003  -0.8981  -0.8768  -0.8766  -0.8711
    -0.8691  -0.8595  -0.8594  -0.8563  -0.8552  -0.8549  -0.8538  -0.8538
    -0.8521  -0.7789  -0.7761  -0.7216  -0.7032  -0.7018  -0.7017  -0.7011
    -0.6979  -0.6702  -0.6699  -0.6692  -0.6690  -0.6619  -0.5890  -0.5885
    -0.5877  -0.5866  -0.5803  -0.5800  -0.5799  -0.5788  -0.5777  -0.5749
    -0.5622  -0.5291  -0.5173  -0.5168  -0.5146  -0.5120  -0.5081  -0.5074
    -0.5050  -0.4879  -0.4869  -0.4837  -0.4829  -0.4790  -0.3927  -0.3925
    -0.3890  -0.3881  -0.3865  -0.3848  -0.3821  -0.3729  -0.3180  -0.3173
    -0.3159  -0.3139  -0.2672  -0.2665  -0.2660  -0.2648  -0.2465  -0.2464
    -0.2454  -0.2451  -0.2207  -0.2199  -0.2146  -0.2133  -0.2078  -0.2071
    -0.2063  -0.2050  -0.1680  -0.1663  -0.1658  -0.1599  -0.0923  -0.0920
    -0.0887  -0.0877  -0.0747  -0.0746  -0.0740  -0.0735  -0.0588  -0.0584
    -0.0582  -0.0572   0.0240   0.0249   0.0260   0.0264   0.0273   0.0285
     0.0295   0.0311   0.0318   0.0326   0.0332   0.0357   0.0692   0.0693
     0.0694   0.0701   0.0815   0.0818   0.0822   0.0824   0.0862   0.0869
     0.0875   0.0887   0.1546   0.1552   0.1553   0.1578   0.1801   0.1818
     0.1831   0.1848   0.2247   0.2319   0.2341   0.2404   0.2457   0.2479
     0.2606   0.2612   0.2619   0.2631   0.2684   0.2692   0.2703   0.2713
     0.2721   0.2737   0.2751   0.2765   0.2816   0.2828   0.2834   0.2840
     0.2849   0.2871   0.2872   0.2878   0.2883   0.3050   0.3054   0.3057
     0.3062   0.3168   0.3324   0.3324   0.3326   0.3327   0.3418   0.3434
     0.3439   0.3465   0.3933   0.3936   0.3937   0.3939   0.4262   0.4268
     0.4272   0.4281   0.4949   0.4980   0.5054   0.5091   0.5113   0.5124
     0.5137   0.5258   0.5264   0.5272   0.5286   0.5315   0.5364   0.5412
     0.5413   0.5421   0.5478   0.5483   0.5498   0.5502   0.5525   0.5529
     0.5534   0.5612   0.5619   0.5652   0.5678   0.5828   0.5884   0.6054
     0.6097   0.6331   0.6358   0.6375   0.6376   0.6395   0.6410   0.6424
     0.6433   0.6475   0.6484   0.6515   0.6530   0.6856   0.6905   0.6907
     0.6922   0.6930   0.6958   0.6976   0.6989   0.7347   0.7356   0.7368
     0.7381   0.7494   0.7499   0.7504   0.7515   0.7520   0.7548   0.7567
     0.7578   0.7581   0.7586   0.7626   0.7627   0.7726   0.7731   0.7761
     0.7764   0.7805   0.7891   0.7925   0.7950   0.8499   0.8592   0.8599
     0.8631   0.8645   0.8659   0.8675   0.8687   0.8692   0.8726   0.8746
     0.8757   0.8873   0.8933   0.8986   0.9040   0.9079   0.9095   0.9098
     0.9111   0.9116   0.9131   0.9138   0.9175   0.9591   0.9643   0.9650
     0.9692   0.9936   0.9939   0.9955   0.9964   1.0134   1.0174   1.0269
     1.0281   1.0287   1.0299   1.0344   1.0416   1.0547   1.0552   1.0584
     1.0607   1.1065   1.1080   1.1088   1.1096   1.1394   1.1396   1.1408
     1.1411   1.1612   1.1920   1.1931   1.1936   1.1976   1.2090   1.2109
     1.2147   1.2200   1.2217   1.2221   1.2234   1.2254   1.2258   1.2261
     1.2265   1.2292   1.2293   1.2320   1.2327   1.2410   1.2554   1.2571
     1.2578   1.2600   1.2613   1.2624   1.2632   1.2667   1.2671   1.2715
     1.2733   1.2801   1.2803   1.2829   1.2839   1.3041   1.3048   1.3055
     1.3063   1.3108   1.3139   1.3157   1.3215   1.3227   1.3255   1.3280
     1.3316   1.3667   1.3704   1.3736   1.3742   1.3765   1.3771   1.3786
     1.3835   1.4021   1.4030   1.4036   1.4043   1.4102   1.4208   1.4212
     1.4275   1.4333   1.4406   1.4425   1.4500   1.4514   1.4522   1.4530
     1.4552   1.4613   1.4617   1.4621   1.4628   1.4682   1.4695   1.4698
     1.4734   1.5243   1.5329   1.5341   1.5348   1.5351   1.5356   1.5358
     1.5366   1.5367   1.5455   1.5465   1.5497   1.5517   1.5544   1.5560
     1.5597   1.5598   1.5652   1.5654   1.5661   1.5681   1.5717   1.5736
     1.5741   1.5753   1.5759   1.5777   1.5778   1.5798   1.5898   1.5916
     1.5958   1.5970   1.5981   1.5989   1.5997   1.6300   1.6304   1.6306
     1.6307   1.6439   1.6442   1.6457   1.6477   1.6535   1.6609   1.6633
     1.6659   1.6777   1.6835   1.6844   1.6854   1.7102   1.7391   1.7431
     1.7478   1.7540   1.7548   1.7550   1.7557   1.7811   1.7847   1.7849
     1.7882   1.7924   1.7935   1.7943   1.7948   1.7972   1.7982   1.7995
     1.8004   2.0129   2.0141   2.0154   2.0166   2.3775   2.4024   2.5148
     2.5196   2.5229   2.5509   2.7152   2.7387   2.7391   2.7495   2.9084
     2.9774   2.9811   2.9844   3.1196   3.2746   3.2776   3.2800   3.3328
     3.6319   3.6339   3.6342   3.6377   3.8202   3.8206   3.8291   3.8400
     4.1087   4.1091   4.1106   4.1111   4.4017   4.4071   4.4085   4.4104
     4.4920   4.4934   4.5237   4.5274   4.7406   4.7434   4.7453   4.7460
     4.7871   4.7892   4.8091   4.8229   5.0778   5.0822   5.1833   5.1971
[...]
     atom   28 type  1   force =     0.00000286   -0.00002243   -0.00002410
     atom   29 type  1   force =     0.00000115   -0.00002081    0.00010022
     atom   30 type  1   force =    -0.00000167   -0.00002643    0.00006607
     atom   31 type  1   force =    -0.00000707   -0.00002350    0.00005771
     atom   32 type  1   force =     0.00000133   -0.00002996    0.00003005
     atom   33 type  1   force =    -0.00001533   -0.00004309    0.00000519
     atom   34 type  1   force =    -0.00000311   -0.00003594    0.00006418
     atom   35 type  1   force =    -0.00000776   -0.00005043    0.00000260
     atom   36 type  1   force =    -0.00000323   -0.00002444    0.00002321
     atom   37 type  1   force =    -0.00001889   -0.00004188    0.00004284
     atom   38 type  1   force =    -0.00001692   -0.00003754   -0.00001067
     atom   39 type  1   force =    -0.00000963   -0.00005474   -0.00000372
     atom   40 type  1   force =    -0.00001894   -0.00005565   -0.00002699
     atom   41 type  1   force =    -0.00002028   -0.00005786    0.00004070
     atom   42 type  1   force =     0.00001001   -0.00006711   -0.00002318
     atom   43 type  1   force =    -0.00000322   -0.00003315   -0.00001938
     atom   44 type  1   force =     0.00000566   -0.00002217    0.00001873
     atom   45 type  1   force =     0.00001682   -0.00005022   -0.00000790
     atom   46 type  1   force =     0.00003899   -0.00004721    0.00006373
     atom   47 type  1   force =     0.00002815   -0.00001551    0.00004372
     atom   48 type  1   force =     0.00000090   -0.00004352    0.00005719
     atom   49 type  1   force =    -0.00000450   -0.00006146    0.00003477
     atom   50 type  1   force =     0.00002932   -0.00001542    0.00004825
     atom   51 type  1   force =     0.00005212   -0.00008238    0.00003946
     atom   52 type  1   force =    -0.00000974   -0.00003171    0.00004797
     atom   53 type  1   force =     0.00002416   -0.00000512    0.00005946
     atom   54 type  1   force =    -0.00001806    0.00000980    0.00002915
     atom   55 type  1   force =    -0.00000752   -0.00001078    0.00009736
     atom   56 type  1   force =    -0.00000155   -0.00002598    0.00003397
     atom   57 type  1   force =    -0.00005254   -0.00005147    0.00002464
     atom   58 type  1   force =    -0.00002295   -0.00007113    0.00004957
     atom   59 type  1   force =    -0.00002127   -0.00001794   -0.00001382
     atom   60 type  1   force =    -0.00004317   -0.00004379   -0.00000532
     atom   61 type  1   force =    -0.00000084   -0.00003996    0.00003307
     atom   62 type  1   force =    -0.00001915   -0.00001562   -0.00000493
     atom   63 type  1   force =     0.00003951   -0.00004756    0.00004847
     atom   64 type  1   force =     0.00000106   -0.00003439   -0.00003679
     atom   65 type  1   force =     0.00000223   -0.00008656    0.00002060
     atom   66 type  1   force =     0.00005360   -0.00015888   -0.00004679
     atom   67 type  1   force =     0.00003135    0.00000288    0.00017897
     atom   68 type  1   force =    -0.00000715   -0.00004665    0.00007313
     atom   69 type  1   force =     0.00003445    0.00001215   -0.00000636
     atom   70 type  1   force =     0.00001831    0.00001062   -0.00006153
     atom   71 type  1   force =     0.00001640   -0.00012036    0.00012603
     atom   72 type  1   force =     0.00003107   -0.00004542    0.00011314
     atom   73 type  1   force =     0.00000735   -0.00000383    0.00010449
     atom   74 type  1   force =     0.00002122    0.00002645    0.00004430
     atom   75 type  1   force =     0.00002709    0.00002338    0.00007332
     atom   76 type  1   force =     0.00002602   -0.00001945    0.00004176
     atom   77 type  1   force =     0.00000785   -0.00007208    0.00004141
     atom   78 type  1   force =    -0.00001553   -0.00004576    0.00007881
     atom   79 type  1   force =    -0.00005473   -0.00004638   -0.00000066
     atom   80 type  1   force =    -0.00001714   -0.00002182    0.00001943
     atom   81 type  1   force =    -0.00000250   -0.00008642   -0.00007644
     atom   82 type  1   force =    -0.00001837   -0.00007698    0.00006613
     atom   83 type  1   force =    -0.00002413   -0.00004615   -0.00006816
     atom   84 type  1   force =     0.00003639   -0.00007816    0.00001142
     atom   85 type  1   force =     0.00005505   -0.00003023    0.00001293
     atom   86 type  1   force =    -0.00004461   -0.00004361   -0.00035814
     atom   87 type  1   force =    -0.00005054   -0.00008346    0.00012876
     atom   88 type  1   force =    -0.00002849   -0.00007001    0.00010465
     atom   89 type  1   force =    -0.00000959   -0.00002014   -0.00003685
     atom   90 type  1   force =    -0.00004220    0.00001306   -0.00002184
     atom   91 type  1   force =    -0.00003509   -0.00000979    0.00043622
     atom   92 type  1   force =     0.00005530    0.00001241    0.00005188
     atom   93 type  1   force =     0.00004409   -0.00001483    0.00005156
     atom   94 type  1   force =     0.00001690   -0.00000556    0.00009399
     atom   95 type  1   force =    -0.00002196   -0.00002341   -0.00001732
     atom   96 type  1   force =     0.00003096   -0.00003877    0.00008009
     atom   97 type  1   force =    -0.00002007   -0.00000205    0.00000024
     atom   98 type  1   force =    -0.00000496   -0.00003411    0.00008171
     atom   99 type  1   force =     0.00002862    0.00001010    0.00005381
     atom  100 type  1   force =    -0.00000746    0.00002196   -0.00006491
     atom  101 type  2   force =    -0.00011360    0.00024449   -0.00055153
     atom  102 type  2   force =    -0.00003709    0.00015846    0.00001434
     atom  103 type  2   force =     0.00010496   -0.00017438   -0.00005549
     atom  104 type  2   force =    -0.00022830   -0.00004751    0.00005213
     atom  105 type  2   force =    -0.00016609    0.00024119   -0.00010134
     atom  106 type  2   force =     0.00012603    0.00014027   -0.00003800
     atom  107 type  2   force =    -0.00000907   -0.00006617   -0.00032233
     atom  108 type  2   force =     0.00009189   -0.00007708    0.00020955
     atom  109 type  2   force =    -0.00008164    0.00020750   -0.00009458
     atom  110 type  2   force =    -0.00004268    0.00007023    0.00000919
     atom  111 type  2   force =    -0.00012968   -0.00020406    0.00013614
     atom  112 type  2   force =    -0.00003940    0.00006395   -0.00032261
     atom  113 type  2   force =     0.00002824    0.00004503   -0.00024285
     atom  114 type  2   force =     0.00005234    0.00005359   -0.00004873
     atom  115 type  2   force =     0.00019432    0.00017190    0.00035290
     atom  116 type  2   force =    -0.00001974    0.00015286   -0.00110949
     atom  117 type  2   force =     0.00007955    0.00003745   -0.00070265
     atom  118 type  2   force =     0.00008759    0.00009540   -0.00018803
     atom  119 type  2   force =     0.00023157    0.00012460    0.00024276
     atom  120 type  2   force =     0.00022241    0.00018478    0.00017565
     atom  121 type  3   force =     0.00043067    0.00037010    0.00020989
     atom  122 type  2   force =     0.00008314    0.00006656   -0.00058768
     atom  123 type  2   force =    -0.00004301    0.00014142    0.00055749
     atom  124 type  2   force =    -0.00006954    0.00029689   -0.00016472
     atom  125 type  2   force =     0.00007699    0.00007495   -0.00048116
     atom  126 type  2   force =    -0.00015313    0.00001749    0.00001922
     atom  127 type  2   force =    -0.00011923    0.00004924    0.00034468
     atom  128 type  2   force =    -0.00004076    0.00006601    0.00013546
     atom  129 type  2   force =     0.00014021   -0.00005798    0.00001090
     atom  130 type  2   force =     0.00023098   -0.00011309   -0.00051889
     atom  131 type  2   force =    -0.00016249   -0.00007641   -0.00030712
     atom  132 type  2   force =     0.00009246   -0.00011671    0.00029452
     atom  133 type  2   force =     0.00014552   -0.00004360    0.00011514
     atom  134 type  2   force =     0.00017770    0.00000786   -0.00059848
     atom  135 type  2   force =    -0.00013392   -0.00001233    0.00000188
     atom  136 type  2   force =     0.00001554   -0.00012098   -0.00005674
     atom  137 type  2   force =    -0.00021198   -0.00014679    0.00019104
     atom  138 type  2   force =    -0.00013092   -0.00004743   -0.00024123
     atom  139 type  2   force =    -0.00026365    0.00016129   -0.00025388
     atom  140 type  2   force =    -0.00023709    0.00006042    0.00015514
     atom  141 type  2   force =     0.00005561    0.00027473    0.00072683
     atom  142 type  2   force =     0.00006648    0.00007759    0.00011713
     atom  143 type  2   force =    -0.00000264    0.00015454    0.00042500
     atom  144 type  2   force =    -0.00004040    0.00012637    0.00002091
     atom  145 type  2   force =    -0.00018977    0.00023823   -0.00060425
     atom  146 type  2   force =    -0.00013814   -0.00008534   -0.00004282
     atom  147 type  2   force =     0.00010888    0.00013111   -0.00078221
     atom  148 type  2   force =    -0.00006538    0.00003297    0.00047418
     atom  149 type  2   force =    -0.00014627    0.00045677    0.00027770

     Total force =     0.003142     Total SCF correction =     0.000112

     number of scf cycles    =  15
     number of bfgs steps    =  14

     energy   old            =  -12730.5901252272 Ry
     energy   new            =  -12730.5901404578 Ry

     CASE: energy  _new < energy  _old

     new trust radius        =       0.0093174174 bohr
     new conv_thr            =       0.0000000015 Ry


ATOMIC_POSITIONS (angstrom)
Cu       0.000869043   0.001291866   7.371727893
Cu       1.844995559   1.708605262   7.372820225
Cu       3.689841186   0.002083398   7.371812704
Cu       5.534623643   1.708746170   7.373420543
Cu       0.000687928   3.412109395   7.372501851
Cu       1.845285579   5.113306286   7.368915498
Cu       3.689807546   3.411848624   7.372518109
Cu       5.534226265   5.113338374   7.369314086
Cu       0.000669009   6.814533041   7.366081317
Cu       1.845488657   8.515782310   7.366840195
Cu       3.689837656   6.814478189   7.366348247
Cu       5.534127729   8.515803393   7.367253008
Cu       0.000892490  10.216498108   7.370205736
Cu       1.845312579  11.917903421   7.373243354
Cu       3.689786352  10.216592092   7.371516556
Cu       5.534532878  11.917513174   7.373765963
Cu       0.000616600  13.622274783   7.372670712
Cu       1.845949343  15.330573203   7.371383660
Cu       3.690265464  13.621711109   7.373128233
Cu       5.533923522  15.330794868   7.371349356
Cu       0.000886048   1.708400359   9.203453980
Cu       1.845475472   0.000687715   9.199044700
Cu       3.689763373   1.708658223   9.203419099
Cu       5.534582327   0.000272220   9.198972285
Cu       0.000617344   5.117277405   9.204907696
Cu       1.845134093   3.414565190   9.205533249
Cu       3.689574631   5.116869987   9.204623000
Cu       5.534235162   3.414545002   9.205922774
Cu       0.000769713   8.513288575   9.203337581
Cu       1.845064493   6.815683678   9.202778222
Cu       3.689611478   8.512630355   9.204286090
Cu       5.534181451   6.815721637   9.203187045
Cu       0.001028461  11.915841211   9.206068764
Cu       1.845347432  10.212438546   9.206568563
Cu       3.689996973  11.916278482   9.206997257
Cu       5.534341991  10.212537351   9.206719733
Cu       0.001256652  15.330793025   9.197638703
Cu       1.845667507  13.622685728   9.201945405
Cu       3.690054138  15.330960509   9.197993818
Cu       5.534701152  13.622950606   9.202189744
Cu       0.001151401  -0.003106480  11.035465407
Cu       1.845658357   1.706474260  11.039989657
Cu       3.689939388  -0.002562153  11.035280508
Cu       5.533862045   1.705630960  11.039389741
Cu       0.000588286   3.415406553  11.044910647
Cu       1.844993942   5.120069225  11.050161419
Cu       3.689367227   3.415984001  11.045882581
Cu       5.533712523   5.119931573  11.049880907
Cu       0.000569577   6.817524427  11.053291137
Cu       1.844620661   8.509330756  11.053703743
Cu       3.689023256   6.815095999  11.053650781
Cu       5.534217852   8.509907837  11.053090319
Cu       0.000629764  10.209255076  11.050700902
Cu       1.845117187  11.916491980  11.044763844
Cu       3.689564695  10.208745841  11.050284348
Cu       5.534671111  11.916778780  11.044760347
Cu       0.001214915  13.625571364  11.038474188
Cu       1.845619477  15.331692691  11.035381561
Cu       3.690130831  13.626840695  11.039406753
Cu       5.534881265  15.331702834  11.035763087
Cu       0.001058261   1.699842706  12.867769269
Cu       1.846466387  -0.005459826  12.873096198
Cu       3.689453203   1.698374750  12.872378671
Cu       5.533532684  -0.005264260  12.873489836
Cu       0.000549363   5.117258413  12.891100525
Cu       1.848738879   3.412272435  12.880197728
Cu       3.689276972   5.118701525  12.900594553
Cu       5.530436594   3.410763656  12.878271489
Cu       0.000478685   8.510124954  12.908477794
Cu       1.847463854   6.814104598  12.910156962
Cu       3.689039917   8.506898639  12.904373747
Cu       5.531205214   6.815032261  12.907323844
Cu       0.000631084  11.922717875  12.879004701
Cu       1.842700963  10.210725578  12.889626034
Cu       3.689493591  11.922063475  12.873536479
Cu       5.536082694  10.211187517  12.889372149
Cu       0.000736047  15.331505743  12.876499304
Cu       1.843924581  13.630664173  12.874360780
Cu       3.690335457  15.334446992  12.877104636
Cu       5.535809607  13.630525694  12.874788028
Cu       0.000673623  -0.001362329  14.686904943
Cu       1.843786390   1.696725237  14.682157158
Cu       3.690331601  -0.002251223  14.700334943
Cu       5.536171159   1.696554395  14.682391543
Cu       0.000111036   3.400803450  14.671077509
Cu       1.863941986   5.098904355  14.715962778
Cu       3.690702416   3.383222706  14.697857512
Cu       5.516221654   5.099404598  14.710668021
Cu       0.000198826   6.797272059  14.717690112
Cu       1.845708297   8.521527023  14.730263359
Cu       3.690164533   6.820001952  14.758975161
Cu       5.533216342   8.521074263  14.728732326
Cu      -0.000126199  10.229567364  14.709545700
Cu       1.841877585  11.928792224  14.684247977
Cu       3.689890111  10.230325475  14.691457468
Cu       5.537038447  11.929716196  14.684726749
Cu       0.001071647  13.632060309  14.699061045
Cu       1.846342222  15.333848674  14.693397204
Cu       3.689187601  13.626596252  14.684712232
Cu       5.533456947  15.333061909  14.694487538
C       -0.000022734   0.716442531  17.618412462
C       -0.000386846   2.134363512  17.593500356
C        1.229674128   0.007743738  17.619446743
C        1.226961246   2.843403887  17.560272707
C        2.458124363   0.717038945  17.599910485
C        2.457172622   2.135260810  17.565840134
C        3.689037994   0.006530839  17.602990981
C        3.688296634   2.849420268  17.544631122
C        4.919819520   0.717053032  17.601962021
C        4.919903657   2.135321042  17.568557283
C        6.148375288   0.007682614  17.622190849
C        6.149872876   2.843447364  17.563132598
C       -0.001295228   4.972910126  17.511389597
C       -0.001545977   6.393270343  17.475961103
C        1.225107964   4.261401980  17.516860421
C        1.230258862   7.101401826  17.521801596
C        2.453115441   4.976755702  17.514278982
C        2.440288062   6.385228695  17.558708650
C        3.687849850   4.263509658  17.530783364
C        3.686746131   7.098914675  17.970539840
O        3.679475964   7.063708628  19.384806405
C        4.922500541   4.976794758  17.518075186
C        4.934520250   6.385380095  17.560143443
C        6.150655840   4.261307213  17.520360456
C        6.144765247   7.101463429  17.523167168
C       -0.000904522   9.233636581  17.545692838
C       -0.000427585  10.658612557  17.535718925
C        1.228905550   8.527341934  17.548652209
C        1.230008760  11.370226882  17.552193693
C        2.463381799   9.242333643  17.574283443
C        2.460050737  10.663240513  17.568855618
C        3.687785032   8.551049021  17.617473608
C        3.688560550  11.371379489  17.592004791
C        4.912483691   9.242136175  17.574845629
C        4.917077346  10.663235482  17.568574563
C        6.147013766   8.527497233  17.549638721
C        6.147257049  11.370349668  17.551257531
C        0.000132081  13.500098414  17.575183948
C        0.000203786  14.918898526  17.609551788
C        1.230990859  12.789830433  17.574981547
C        1.229602611  15.627791142  17.612919819
C        2.459780054  13.498624583  17.606406507
C        2.459954337  14.917641841  17.614637583
C        3.688978969  12.790484564  17.608573633
C        3.689158106  15.626626950  17.626351360
C        4.918269818  13.498762291  17.609598274
C        4.918043089  14.917624705  17.620972564
C        6.147224115  12.789992636  17.575850592
C        6.148788133  15.627518431  17.618041360



     Writing output data file gc.save
     Check: negative starting charge=   -0.001788
     NEW-OLD atomic charge density approx. for the potential
     Check: negative starting charge=   -0.001788

     negative rho (up, down):  1.917E-03 0.000E+00

     total cpu time spent up to now is    51784.3 secs

     Self-consistent Calculation

     iteration #  1     ecut=    80.00 Ry     beta=0.70
     Davidson diagonalization with overlap
     ethr =  1.00E-06,  avg # of iterations =  3.0

     negative rho (up, down):  1.651E-03 0.000E+00

     total cpu time spent up to now is    52092.9 secs

     total energy              =  -12730.58985659 Ry
     Harris-Foulkes estimate   =  -12730.59031324 Ry
     estimated scf accuracy    <       0.00502309 Ry

     iteration #  2     ecut=    80.00 Ry     beta=0.70
     Davidson diagonalization with overlap
     ethr =  3.87E-07,  avg # of iterations =  2.0

     negative rho (up, down):  1.564E-03 0.000E+00

     total cpu time spent up to now is    52282.3 secs

     total energy              =  -12730.58996632 Ry
     Harris-Foulkes estimate   =  -12730.59024786 Ry
     estimated scf accuracy    <       0.00101362 Ry

     iteration #  3     ecut=    80.00 Ry     beta=0.70
     Davidson diagonalization with overlap
     ethr =  7.81E-08,  avg # of iterations =  2.7

     negative rho (up, down):  1.453E-03 0.000E+00

     total cpu time spent up to now is    52510.8 secs

     total energy              =  -12730.59011211 Ry
     Harris-Foulkes estimate   =  -12730.59023364 Ry
     estimated scf accuracy    <       0.00141026 Ry

     iteration #  4     ecut=    80.00 Ry     beta=0.70
     Davidson diagonalization with overlap
     ethr =  7.81E-08,  avg # of iterations =  2.0

     negative rho (up, down):  1.424E-03 0.000E+00

     total cpu time spent up to now is    52699.0 secs

     total energy              =  -12730.59015340 Ry
     Harris-Foulkes estimate   =  -12730.59016554 Ry
     estimated scf accuracy    <       0.00009095 Ry

     iteration #  5     ecut=    80.00 Ry     beta=0.70
     Davidson diagonalization with overlap
     ethr =  7.01E-09,  avg # of iterations =  3.0

     negative rho (up, down):  1.447E-03 0.000E+00

     total cpu time spent up to now is    52899.3 secs

     total energy              =  -12730.59015339 Ry
     Harris-Foulkes estimate   =  -12730.59016069 Ry
     estimated scf accuracy    <       0.00003980 Ry

     iteration #  6     ecut=    80.00 Ry     beta=0.70
     Davidson diagonalization with overlap
     ethr =  3.07E-09,  avg # of iterations =  2.0

     negative rho (up, down):  1.543E-03 0.000E+00

     total cpu time spent up to now is    53097.1 secs

     total energy              =  -12730.59015672 Ry
     Harris-Foulkes estimate   =  -12730.59015767 Ry
     estimated scf accuracy    <       0.00001337 Ry

     iteration #  7     ecut=    80.00 Ry     beta=0.70
     Davidson diagonalization with overlap
