
     Program PWSCF v.5.4.0 starts on 26Apr2017 at 20:37: 0 

     This program is part of the open-source Quantum ESPRESSO suite
     for quantum simulation of materials; please cite
         "P. Giannozzi et al., J. Phys.:Condens. Matter 21 395502 (2009);
          URL http://www.quantum-espresso.org", 
     in publications or presentations arising from this work. More details at
     http://www.quantum-espresso.org/quote

     Parallel version (MPI & OpenMP), running on      56 processor cores
     Number of MPI processes:                56
     Threads/MPI process:                     1
     R & G space division:  proc/nbgrp/npool/nimage =      56
     Waiting for input...
     Reading input from standard input
Warning: card &IONS ignored
Warning: card / ignored

     Current dimensions of program PWSCF are:
     Max number of different atomic species (ntypx) = 10
     Max number of k-points (npk) =  40000
     Max angular momentum in pseudopotentials (lmaxx) =  3

     -------------------------------------
     Parameters for Dispersion Correction:
     -------------------------------------
       atom      VdW radius       C_6     

        Cu         2.952        374.666
        C_h        2.744         60.710
        C          2.744         60.710
        H          1.892          4.857

     Subspace diagonalization in iterative solution of the eigenvalue problem:
     one sub-group per band group will be used
     scalapack distributed-memory algorithm (size of sub-group:  5*  5 procs)

 
     Parallelization info
     --------------------
     sticks:   dense  smooth     PW     G-vecs:    dense   smooth      PW
     Min         204     204     54                36612    36612    4962
     Max         205     205     55                36617    36617    4968
     Sum       11433   11433   3039              2050409  2050409  278033
 


     bravais-lattice index     =            0
     lattice parameter (alat)  =      13.9425  a.u.
     unit-cell volume          =   21209.0878 (a.u.)^3
     number of atoms/cell      =          154
     number of atomic types    =            4
     number of electrons       =      1304.00
     number of Kohn-Sham states=          782
     kinetic-energy cutoff     =      80.0000  Ry
     charge density cutoff     =     320.0000  Ry
     convergence threshold     =      1.0E-08
     mixing beta               =       0.7000
     number of iterations used =            8  local-TF  mixing
     Exchange-correlation      =  SLA  PW   PBE  PBE ( 1  4  3  4 0 0)

     celldm(1)=  13.942539  celldm(2)=   0.000000  celldm(3)=   0.000000
     celldm(4)=   0.000000  celldm(5)=   0.000000  celldm(6)=   0.000000

     crystal axes: (cart. coord. in units of alat)
               a(1) = (   1.000000   0.000000   0.000000 )  
               a(2) = (   0.000000   2.309401   0.000000 )  
               a(3) = (   0.000000   0.000000   3.388418 )  

     reciprocal axes: (cart. coord. in units 2 pi/alat)
               b(1) = (  1.000000  0.000000  0.000000 )  
               b(2) = (  0.000000  0.433013  0.000000 )  
               b(3) = (  0.000000  0.000000  0.295123 )  


     PseudoPot. # 1 for Cu read from file:
     /home/549/hxw549/Short/pseudopotentials/Cu.pbe-n-van_ak.UPF
     MD5 check sum: 601f7c30f7467666bec936e0661ce3e1
     Pseudo is Ultrasoft + core correction, Zval = 11.0
     Generated by new atomic code, or converted to UPF format
     Using radial grid of  867 points,  6 beta functions with: 
                l(1) =   0
                l(2) =   0
                l(3) =   1
                l(4) =   1
                l(5) =   2
                l(6) =   2
     Q(r) pseudized with  8 coefficients,  rinner =    1.400   1.400   1.400
                                                       1.400   1.400

     PseudoPot. # 2 for C  read from file:
     /home/549/hxw549/Short/pseudopotentials/C.star1s-pbe-mt_gipaw.UPF
     MD5 check sum: ef0cb3dee31bd9e4ba2a832a2c716264
     Pseudo is Norm-conserving, Zval =  5.0
     Generated by new atomic code, or converted to UPF format
     Using radial grid of 1073 points,  1 beta functions with: 
                l(1) =   0

     PseudoPot. # 3 for C  read from file:
     /home/549/hxw549/Short/pseudopotentials/C.pbe-mt_gipaw.UPF
     MD5 check sum: 5ac2f21f2c440b14befe521540822c15
     Pseudo is Norm-conserving, Zval =  4.0
     Generated by new atomic code, or converted to UPF format
     Using radial grid of 1073 points,  1 beta functions with: 
                l(1) =   0

     PseudoPot. # 4 for H  read from file:
     /home/549/hxw549/Short/pseudopotentials/H.pbe-van_ak.UPF
     MD5 check sum: 077eb6d537518a38cb46c6de387227b7
     Pseudo is Ultrasoft, Zval =  1.0
     Generated by new atomic code, or converted to UPF format
     Using radial grid of  615 points,  1 beta functions with: 
                l(1) =   0
     Q(r) pseudized with  8 coefficients,  rinner =    0.800

     atomic species   valence    mass     pseudopotential
        Cu            11.00    63.54600     Cu( 1.00)
        C_h            5.00    12.01070     C ( 1.00)
        C              4.00    12.01070     C ( 1.00)
        H              1.00     1.00783     H ( 1.00)

     No symmetry found



   Cartesian axes

     site n.     atom                  positions (alat units)
         1           Cu  tau(   1) = (   0.0002043  -0.0025717   0.9942108  )
         2           Cu  tau(   2) = (   0.2502613   0.2244800   0.9935968  )
         3           Cu  tau(   3) = (   0.5002401  -0.0038862   0.9924746  )
         4           Cu  tau(   4) = (   0.7502060   0.2245063   0.9935693  )
         5           Cu  tau(   5) = (   0.0002385   0.4557669   0.9935004  )
         6           Cu  tau(   6) = (   0.2507651   0.6896551   0.9949714  )
         7           Cu  tau(   7) = (   0.5002412   0.4563759   0.9953699  )
         8           Cu  tau(   8) = (   0.7497243   0.6896526   0.9949528  )
         9           Cu  tau(   9) = (   0.0002741   0.9239688   0.9944310  )
        10           Cu  tau(  10) = (   0.2507484   1.1588995   0.9942913  )
        11           Cu  tau(  11) = (   0.5002229   0.9239521   0.9954916  )
        12           Cu  tau(  12) = (   0.7497205   1.1588751   0.9942577  )
        13           Cu  tau(  13) = (   0.0002005   1.3941797   0.9917183  )
        14           Cu  tau(  14) = (   0.2501890   1.6270419   0.9911099  )
        15           Cu  tau(  15) = (   0.5002472   1.3936651   0.9934814  )
        16           Cu  tau(  16) = (   0.7502464   1.6270434   0.9911362  )
        17           Cu  tau(  17) = (   0.0002210   1.8550921   0.9925404  )
        18           Cu  tau(  18) = (   0.2495825   2.0811673   0.9931877  )
        19           Cu  tau(  19) = (   0.5001965   1.8563988   0.9902085  )
        20           Cu  tau(  20) = (   0.7508427   2.0811476   0.9932235  )
        21           Cu  tau(  21) = (   0.0002482   0.2242931   1.2447837  )
        22           Cu  tau(  22) = (   0.2498761  -0.0033647   1.2471709  )
        23           Cu  tau(  23) = (   0.5002534   0.2222256   1.2422400  )
        24           Cu  tau(  24) = (   0.7506131  -0.0032893   1.2472346  )
        25           Cu  tau(  25) = (   0.0002667   0.6880630   1.2386669  )
        26           Cu  tau(  26) = (   0.2499562   0.4537637   1.2405942  )
        27           Cu  tau(  27) = (   0.5002943   0.6886442   1.2414404  )
        28           Cu  tau(  28) = (   0.7505742   0.4537472   1.2405793  )
        29           Cu  tau(  29) = (   0.0002476   1.1616965   1.2368574  )
        30           Cu  tau(  30) = (   0.2501502   0.9246196   1.2399440  )
        31           Cu  tau(  31) = (   0.5002819   1.1610726   1.2392902  )
        32           Cu  tau(  32) = (   0.7504072   0.9246098   1.2398995  )
        33           Cu  tau(  33) = (   0.0002198   1.6276529   1.2413369  )
        34           Cu  tau(  34) = (   0.2500613   1.3973758   1.2371512  )
        35           Cu  tau(  35) = (   0.5002401   1.6298765   1.2389540  )
        36           Cu  tau(  36) = (   0.7504172   1.3973475   1.2371744  )
        37           Cu  tau(  37) = (   0.0002075   2.0807183   1.2476202  )
        38           Cu  tau(  38) = (   0.2497642   1.8554798   1.2448912  )
        39           Cu  tau(  39) = (   0.5002618   2.0801741   1.2465346  )
        40           Cu  tau(  40) = (   0.7507077   1.8554268   1.2449327  )
        41           Cu  tau(  41) = (   0.0002334  -0.0025479   1.5022411  )
        42           Cu  tau(  42) = (   0.2492996   0.2254476   1.4970463  )
        43           Cu  tau(  43) = (   0.5003214  -0.0027157   1.4992700  )
        44           Cu  tau(  44) = (   0.7512954   0.2255017   1.4971177  )
        45           Cu  tau(  45) = (   0.0003236   0.4551980   1.4912380  )
        46           Cu  tau(  46) = (   0.2489867   0.6863144   1.4839175  )
        47           Cu  tau(  47) = (   0.5002861   0.4519356   1.4867713  )
        48           Cu  tau(  48) = (   0.7516492   0.6862933   1.4839869  )
        49           Cu  tau(  49) = (   0.0002891   0.9256767   1.4809594  )
        50           Cu  tau(  50) = (   0.2492486   1.1657936   1.4807251  )
        51           Cu  tau(  51) = (   0.5003544   0.9256491   1.4819086  )
        52           Cu  tau(  52) = (   0.7513260   1.1657516   1.4807751  )
        53           Cu  tau(  53) = (   0.0002539   1.3977035   1.4865052  )
        54           Cu  tau(  54) = (   0.2494736   1.6273793   1.4925966  )
        55           Cu  tau(  55) = (   0.5002895   1.4001490   1.4829612  )
        56           Cu  tau(  56) = (   0.7510670   1.6273340   1.4927039  )
        57           Cu  tau(  57) = (   0.0002574   1.8538138   1.5005000  )
        58           Cu  tau(  58) = (   0.2505253   2.0800732   1.5028238  )
        59           Cu  tau(  59) = (   0.5002697   1.8533783   1.4989645  )
        60           Cu  tau(  60) = (   0.7500065   2.0800441   1.5027965  )
        61           Cu  tau(  61) = (   0.0002937   0.2304988   1.7509922  )
        62           Cu  tau(  62) = (   0.2500863   0.0006243   1.7553958  )
        63           Cu  tau(  63) = (   0.5003616   0.2277639   1.7456260  )
        64           Cu  tau(  64) = (   0.7505373   0.0005627   1.7554292  )
        65           Cu  tau(  65) = (   0.0004664   0.6922260   1.7324316  )
        66           Cu  tau(  66) = (   0.2495677   0.4596615   1.7423903  )
        67           Cu  tau(  67) = (   0.5003916   0.6843092   1.7208806  )
        68           Cu  tau(  68) = (   0.7511618   0.4598404   1.7425480  )
        69           Cu  tau(  69) = (   0.0003083   1.1637444   1.7266669  )
        70           Cu  tau(  70) = (   0.2482537   0.9279368   1.7172561  )
        71           Cu  tau(  71) = (   0.5003366   1.1707054   1.7175919  )
        72           Cu  tau(  72) = (   0.7523780   0.9278273   1.7174595  )
        73           Cu  tau(  73) = (   0.0002651   1.6217586   1.7491300  )
        74           Cu  tau(  74) = (   0.2494393   1.3965543   1.7355819  )
        75           Cu  tau(  75) = (   0.5003389   1.6217397   1.7455006  )
        76           Cu  tau(  76) = (   0.7511621   1.3963967   1.7358119  )
        77           Cu  tau(  77) = (   0.0003291   2.0792459   1.7574384  )
        78           Cu  tau(  78) = (   0.2504323   1.8496511   1.7542337  )
        79           Cu  tau(  79) = (   0.5002783   2.0803316   1.7561957  )
        80           Cu  tau(  80) = (   0.7501861   1.8497038   1.7542225  )
        81           Cu  tau(  81) = (   0.0003184   0.0041178   2.0034186  )
        82           Cu  tau(  82) = (   0.2487642   0.2367193   2.0013239  )
        83           Cu  tau(  83) = (   0.5003358   0.0055922   2.0032012  )
        84           Cu  tau(  84) = (   0.7519720   0.2368324   2.0013947  )
        85           Cu  tau(  85) = (   0.0005168   0.4719240   1.9933684  )
        86           Cu  tau(  86) = (   0.2511744   0.7019439   1.9732905  )
        87           Cu  tau(  87) = (   0.5003937   0.4613158   1.9840152  )
        88           Cu  tau(  88) = (   0.7499376   0.7020931   1.9731588  )
        89           Cu  tau(  89) = (   0.0006719   0.9309442   1.9670230  )
        90           Cu  tau(  90) = (   0.2472093   1.1617877   1.9664531  )
        91           Cu  tau(  91) = (   0.5003359   0.9344534   1.9351709  )
        92           Cu  tau(  92) = (   0.7534211   1.1612543   1.9666763  )
        93           Cu  tau(  93) = (   0.0002357   1.3850550   1.9949752  )
        94           Cu  tau(  94) = (   0.2507924   1.6139028   2.0000820  )
        95           Cu  tau(  95) = (   0.5003821   1.3850011   1.9865794  )
        96           Cu  tau(  96) = (   0.7498026   1.6139192   2.0001243  )
        97           Cu  tau(  97) = (   0.0002643   1.8448113   2.0041961  )
        98           Cu  tau(  98) = (   0.2503795   2.0793699   2.0038159  )
        99           Cu  tau(  99) = (   0.5003582   1.8452819   2.0008624  )
       100           Cu  tau( 100) = (   0.7502529   2.0794083   2.0038345  )
       101           C   tau( 101) = (  -0.0000820   0.0994921   2.4176984  )
       102           C   tau( 102) = (  -0.0000762   0.2913254   2.4480389  )
       103           C   tau( 103) = (   0.1666439   0.0023668   2.4080360  )
       104           C   tau( 104) = (   0.1667082   0.3864411   2.4688191  )
       105           C   tau( 105) = (   0.3333383   0.0990832   2.4193349  )
       106           C   tau( 106) = (   0.3334728   0.2909126   2.4500476  )
       107           C_h tau( 107) = (   0.4999784   0.0017143   2.4092302  )
       108           C   tau( 108) = (   0.4999661   0.3868195   2.4710727  )
       109           C   tau( 109) = (   0.6666262   0.0992659   2.4189926  )
       110           C   tau( 110) = (   0.6664596   0.2910804   2.4501051  )
       111           C   tau( 111) = (   0.8332539   0.0023779   2.4079829  )
       112           C   tau( 112) = (   0.8332277   0.3866350   2.4687918  )
       113           C   tau( 113) = (   0.0000403   0.6720196   2.5268195  )
       114           C   tau( 114) = (  -0.0000986   0.8652796   2.5438154  )
       115           C   tau( 115) = (   0.1668103   0.5757926   2.5119236  )
       116           C   tau( 116) = (   0.1665600   0.9627473   2.5465274  )
       117           C   tau( 117) = (   0.3330312   0.6712277   2.5370352  )
       118           C   tau( 118) = (   0.3329260   0.8649803   2.5584709  )
       119           C   tau( 119) = (   0.4999678   0.5758834   2.5165222  )
       120           C   tau( 120) = (   0.4998989   0.9628021   2.5587465  )
       121           C   tau( 121) = (   0.6668989   0.6713415   2.5368545  )
       122           C   tau( 122) = (   0.6667893   0.8649923   2.5586673  )
       123           C   tau( 123) = (   0.8331901   0.5761062   2.5113005  )
       124           C   tau( 124) = (   0.8331969   0.9626897   2.5461120  )
       125           C   tau( 125) = (  -0.0000243   1.2500548   2.4972855  )
       126           C   tau( 126) = (  -0.0000698   1.4397649   2.4566319  )
       127           C   tau( 127) = (   0.1667246   1.1549732   2.5191366  )
       128           C   tau( 128) = (   0.1668110   1.5354076   2.4386302  )
       129           C   tau( 129) = (   0.3337215   1.2505483   2.5022062  )
       130           C   tau( 130) = (   0.3335665   1.4402136   2.4597849  )
       131           C   tau( 131) = (   0.5000231   1.1549272   2.5262646  )
       132           C   tau( 132) = (   0.4999542   1.5364756   2.4422660  )
       133           C   tau( 133) = (   0.6663535   1.2507838   2.5026745  )
       134           C   tau( 134) = (   0.6663273   1.4403280   2.4596502  )
       135           C   tau( 135) = (   0.8332364   1.1550018   2.5191954  )
       136           C   tau( 136) = (   0.8330873   1.5356002   2.4386624  )
       137           C   tau( 137) = (   0.0000116   1.8253202   2.4018558  )
       138           C   tau( 138) = (   0.0000196   2.0197421   2.3966618  )
       139           C   tau( 139) = (   0.1668197   1.7277230   2.4111725  )
       140           C   tau( 140) = (   0.1665746   2.1176017   2.3972421  )
       141           C   tau( 141) = (   0.3331845   1.8256422   2.4066204  )
       142           C   tau( 142) = (   0.3332534   2.0196932   2.3984457  )
       143           C   tau( 143) = (   0.4999370   1.7289126   2.4167529  )
       144           C   tau( 144) = (   0.5000099   2.1170870   2.4001936  )
       145           C   tau( 145) = (   0.6667327   1.8257007   2.4067262  )
       146           C   tau( 146) = (   0.6667417   2.0197320   2.3984131  )
       147           C   tau( 147) = (   0.8331274   1.7279717   2.4117050  )
       148           C   tau( 148) = (   0.8334572   2.1176137   2.3974753  )
       149           H   tau( 149) = (   0.3319518   0.9970929   2.2372295  )
       150           H   tau( 150) = (   0.3375949   0.7492820   2.2231231  )
       151           C   tau( 151) = (   0.4041456   0.8783738   2.1864677  )
       152           C   tau( 152) = (   0.5984102   0.8800587   2.1857443  )
       153           H   tau( 153) = (   0.6686529   0.9999537   2.2365904  )
       154           H   tau( 154) = (   0.6674899   0.7523297   2.2227089  )

     number of k points=     6  gaussian smearing, width (Ry)=  0.1000
                       cart. coord. in units 2pi/alat
        k(    1) = (   0.0000000   0.0000000   0.0000000), wk =   0.2500000
        k(    2) = (   0.0000000  -0.2165064   0.0000000), wk =   0.2500000
        k(    3) = (   0.2500000   0.0000000   0.0000000), wk =   0.5000000
        k(    4) = (   0.2500000  -0.2165064   0.0000000), wk =   0.5000000
        k(    5) = (  -0.5000000   0.0000000   0.0000000), wk =   0.2500000
        k(    6) = (  -0.5000000  -0.2165064   0.0000000), wk =   0.2500000

     Dense  grid:  2050409 G-vectors     FFT dimensions: (  80, 192, 270)

     Largest allocated arrays     est. size (Mb)     dimensions
        Kohn-Sham Wavefunctions        54.94 Mb     (    4604,  782)
        NL pseudopotentials           130.25 Mb     (    4604, 1854)
        Each V/rho on FFT grid          1.17 Mb     (   76800)
        Each G-vector array             0.28 Mb     (   36616)
        G-vector shells                 0.14 Mb     (   17932)
     Largest temporary arrays     est. size (Mb)     dimensions
        Auxiliary wavefunctions       219.75 Mb     (    4604, 3128)
        Each subspace H/S matrix        5.96 Mb     (     625,  625)
        Each <psi_i|beta_j> matrix     22.12 Mb     (    1854,  782)
        Arrays for rho mixing           9.38 Mb     (   76800,    8)

     Initial potential from superposition of free atoms
     Check: negative starting charge=   -0.001697

     starting charge 1277.81747, renormalised to 1304.00000

     negative rho (up, down):  1.732E-03 0.000E+00
     Starting wfc are 1304 randomized atomic wfcs

     total cpu time spent up to now is      109.4 secs

     Self-consistent Calculation

     iteration #  1     ecut=    80.00 Ry     beta=0.70
     Davidson diagonalization with overlap
     c_bands:  4 eigenvalues not converged
     c_bands:  3 eigenvalues not converged
     c_bands:  4 eigenvalues not converged
     c_bands:  5 eigenvalues not converged
     ethr =  1.00E-04,  avg # of iterations = 41.3

     negative rho (up, down):  2.487E+01 0.000E+00

     total cpu time spent up to now is     2375.3 secs

     total energy              =   -9910.49506155 Ry
     Harris-Foulkes estimate   =  -18012.64099110 Ry
     estimated scf accuracy    <  200668.58690077 Ry

     iteration #  2     ecut=    80.00 Ry     beta=0.70
     Davidson diagonalization with overlap
     ethr =  1.00E-02,  avg # of iterations = 14.2

     negative rho (up, down):  2.949E+01 0.000E+00

     total cpu time spent up to now is     3392.0 secs

     total energy              =  -11414.05807732 Ry
     Harris-Foulkes estimate   =  -13844.25108602 Ry
     estimated scf accuracy    <   44777.26784053 Ry

     iteration #  3     ecut=    80.00 Ry     beta=0.70
     Davidson diagonalization with overlap
     c_bands:  3 eigenvalues not converged
     ethr =  1.00E-02,  avg # of iterations = 21.0

     negative rho (up, down):  2.936E+01 0.000E+00

     total cpu time spent up to now is     4895.3 secs

     total energy              =  -11897.12755206 Ry
     Harris-Foulkes estimate   =  -13991.59115879 Ry
     estimated scf accuracy    <    7943.04831875 Ry

     iteration #  4     ecut=    80.00 Ry     beta=0.70
     Davidson diagonalization with overlap
     ethr =  1.00E-02,  avg # of iterations =  4.3

     negative rho (up, down):  2.031E+01 0.000E+00

     total cpu time spent up to now is     5386.3 secs

     total energy              =  -12864.47130908 Ry
     Harris-Foulkes estimate   =  -13042.95965747 Ry
     estimated scf accuracy    <     928.06064610 Ry

     iteration #  5     ecut=    80.00 Ry     beta=0.70
     Davidson diagonalization with overlap
     ethr =  1.00E-02,  avg # of iterations =  3.0

     negative rho (up, down):  1.801E+01 0.000E+00

     total cpu time spent up to now is     5627.6 secs

     total energy              =  -12863.08128367 Ry
     Harris-Foulkes estimate   =  -12941.36068147 Ry
     estimated scf accuracy    <    3411.74869277 Ry

     iteration #  6     ecut=    80.00 Ry     beta=0.70
     Davidson diagonalization with overlap
     ethr =  1.00E-02,  avg # of iterations =  2.2

     negative rho (up, down):  1.523E+01 0.000E+00

     total cpu time spent up to now is     5813.4 secs

     total energy              =  -12839.91555591 Ry
     Harris-Foulkes estimate   =  -12901.49480620 Ry
     estimated scf accuracy    <     997.58483947 Ry

     iteration #  7     ecut=    80.00 Ry     beta=0.70
     Davidson diagonalization with overlap
     ethr =  1.00E-02,  avg # of iterations =  2.0

     negative rho (up, down):  8.185E+00 0.000E+00

     total cpu time spent up to now is     5998.7 secs

     total energy              =  -12816.85498795 Ry
     Harris-Foulkes estimate   =  -12875.11313501 Ry
     estimated scf accuracy    <     602.63092470 Ry

     iteration #  8     ecut=    80.00 Ry     beta=0.70
     Davidson diagonalization with overlap
     ethr =  1.00E-02,  avg # of iterations =  2.2

     negative rho (up, down):  7.022E+00 0.000E+00

     total cpu time spent up to now is     6181.1 secs

     total energy              =  -12808.81052513 Ry
     Harris-Foulkes estimate   =  -12829.84524472 Ry
     estimated scf accuracy    <     383.72428162 Ry

     iteration #  9     ecut=    80.00 Ry     beta=0.70
     Davidson diagonalization with overlap
     ethr =  1.00E-02,  avg # of iterations =  1.3

     negative rho (up, down):  5.812E+00 0.000E+00

     total cpu time spent up to now is     6354.0 secs

     total energy              =  -12802.43959315 Ry
     Harris-Foulkes estimate   =  -12816.68444257 Ry
     estimated scf accuracy    <     232.28711031 Ry

     iteration # 10     ecut=    80.00 Ry     beta=0.70
     Davidson diagonalization with overlap
     ethr =  1.00E-02,  avg # of iterations =  1.0

     negative rho (up, down):  1.401E+00 0.000E+00

     total cpu time spent up to now is     6522.7 secs

     total energy              =  -12766.65248000 Ry
     Harris-Foulkes estimate   =  -12805.06699039 Ry
     estimated scf accuracy    <     214.04680912 Ry

     iteration # 11     ecut=    80.00 Ry     beta=0.70
     Davidson diagonalization with overlap
     ethr =  1.00E-02,  avg # of iterations =  1.0

     negative rho (up, down):  5.698E-01 0.000E+00

     total cpu time spent up to now is     6691.2 secs

     total energy              =  -12752.38837001 Ry
     Harris-Foulkes estimate   =  -12774.56776611 Ry
     estimated scf accuracy    <     312.33883820 Ry

     iteration # 12     ecut=    80.00 Ry     beta=0.70
     Davidson diagonalization with overlap
     ethr =  1.00E-02,  avg # of iterations =  2.0

     negative rho (up, down):  2.365E-01 0.000E+00

     total cpu time spent up to now is     6871.2 secs

     total energy              =  -12753.66549856 Ry
     Harris-Foulkes estimate   =  -12763.13341922 Ry
     estimated scf accuracy    <     146.95882745 Ry

     iteration # 13     ecut=    80.00 Ry     beta=0.70
     Davidson diagonalization with overlap
     ethr =  1.00E-02,  avg # of iterations =  1.5

     negative rho (up, down):  1.549E+00 0.000E+00

     total cpu time spent up to now is     7046.6 secs

     total energy              =  -12746.42915403 Ry
     Harris-Foulkes estimate   =  -12760.18056369 Ry
     estimated scf accuracy    <      71.50847169 Ry

     iteration # 14     ecut=    80.00 Ry     beta=0.70
     Davidson diagonalization with overlap
     ethr =  5.48E-03,  avg # of iterations =  2.2

     negative rho (up, down):  4.151E+00 0.000E+00

     total cpu time spent up to now is     7229.3 secs

     total energy              =  -12741.58015450 Ry
     Harris-Foulkes estimate   =  -12750.08884909 Ry
     estimated scf accuracy    <      36.20076977 Ry

     iteration # 15     ecut=    80.00 Ry     beta=0.70
     Davidson diagonalization with overlap
     ethr =  2.78E-03,  avg # of iterations =  3.8

     negative rho (up, down):  5.091E+00 0.000E+00

     total cpu time spent up to now is     7434.0 secs

     total energy              =  -12741.70444870 Ry
     Harris-Foulkes estimate   =  -12744.15737662 Ry
     estimated scf accuracy    <      24.80219571 Ry

     iteration # 16     ecut=    80.00 Ry     beta=0.70
     Davidson diagonalization with overlap
     ethr =  1.90E-03,  avg # of iterations =  3.0

     negative rho (up, down):  3.953E+00 0.000E+00

     total cpu time spent up to now is     7625.8 secs

     total energy              =  -12740.90054737 Ry
     Harris-Foulkes estimate   =  -12742.52729616 Ry
     estimated scf accuracy    <      13.95753248 Ry

     iteration # 17     ecut=    80.00 Ry     beta=0.70
     Davidson diagonalization with overlap
     ethr =  1.07E-03,  avg # of iterations =  1.7

     negative rho (up, down):  3.797E+00 0.000E+00

     total cpu time spent up to now is     7802.9 secs

     total energy              =  -12739.51617232 Ry
     Harris-Foulkes estimate   =  -12741.34196664 Ry
     estimated scf accuracy    <      10.99228648 Ry

     iteration # 18     ecut=    80.00 Ry     beta=0.70
     Davidson diagonalization with overlap
     ethr =  8.43E-04,  avg # of iterations =  5.7

     negative rho (up, down):  3.820E+00 0.000E+00

     total cpu time spent up to now is     8027.8 secs

     total energy              =  -12739.10334260 Ry
     Harris-Foulkes estimate   =  -12739.96573317 Ry
     estimated scf accuracy    <       9.52700518 Ry

     iteration # 19     ecut=    80.00 Ry     beta=0.70
     Davidson diagonalization with overlap
     ethr =  7.31E-04,  avg # of iterations =  4.0

     negative rho (up, down):  2.874E+00 0.000E+00

     total cpu time spent up to now is     8233.9 secs

     total energy              =  -12738.38350782 Ry
     Harris-Foulkes estimate   =  -12739.32030102 Ry
     estimated scf accuracy    <       7.22740407 Ry

     iteration # 20     ecut=    80.00 Ry     beta=0.70
     Davidson diagonalization with overlap
     ethr =  5.54E-04,  avg # of iterations =  1.3

     negative rho (up, down):  2.476E+00 0.000E+00

     total cpu time spent up to now is     8406.2 secs

     total energy              =  -12737.90695113 Ry
     Harris-Foulkes estimate   =  -12738.44183739 Ry
     estimated scf accuracy    <       6.62341912 Ry

     iteration # 21     ecut=    80.00 Ry     beta=0.70
     Davidson diagonalization with overlap
     ethr =  5.08E-04,  avg # of iterations =  1.0

     negative rho (up, down):  1.404E+00 0.000E+00

     total cpu time spent up to now is     8574.9 secs

     total energy              =  -12735.92709406 Ry
     Harris-Foulkes estimate   =  -12737.99572970 Ry
     estimated scf accuracy    <       6.76390194 Ry

     iteration # 22     ecut=    80.00 Ry     beta=0.70
     Davidson diagonalization with overlap
     ethr =  5.08E-04,  avg # of iterations =  4.3

     negative rho (up, down):  1.268E+00 0.000E+00

     total cpu time spent up to now is     8783.5 secs

     total energy              =  -12735.21334021 Ry
     Harris-Foulkes estimate   =  -12736.06683962 Ry
     estimated scf accuracy    <       3.83493554 Ry

     iteration # 23     ecut=    80.00 Ry     beta=0.70
     Davidson diagonalization with overlap
     ethr =  2.94E-04,  avg # of iterations = 10.0

     negative rho (up, down):  1.297E+00 0.000E+00

     total cpu time spent up to now is     9071.3 secs

     total energy              =  -12734.82798579 Ry
     Harris-Foulkes estimate   =  -12735.34870537 Ry
     estimated scf accuracy    <       2.00958363 Ry

     iteration # 24     ecut=    80.00 Ry     beta=0.70
     Davidson diagonalization with overlap
     ethr =  1.54E-04,  avg # of iterations =  6.3

     negative rho (up, down):  1.141E+00 0.000E+00

     total cpu time spent up to now is     9317.6 secs

     total energy              =  -12734.72067314 Ry
     Harris-Foulkes estimate   =  -12734.89177677 Ry
     estimated scf accuracy    <       0.90493410 Ry

     iteration # 25     ecut=    80.00 Ry     beta=0.70
     Davidson diagonalization with overlap
     ethr =  6.94E-05,  avg # of iterations =  7.7

     negative rho (up, down):  8.753E-01 0.000E+00

     total cpu time spent up to now is     9569.8 secs

     total energy              =  -12734.59915598 Ry
     Harris-Foulkes estimate   =  -12734.76495785 Ry
     estimated scf accuracy    <       0.62471086 Ry

     iteration # 26     ecut=    80.00 Ry     beta=0.70
     Davidson diagonalization with overlap
     ethr =  4.79E-05,  avg # of iterations =  7.7

     negative rho (up, down):  7.722E-01 0.000E+00

     total cpu time spent up to now is     9829.7 secs

     total energy              =  -12734.54677771 Ry
     Harris-Foulkes estimate   =  -12734.62945579 Ry
     estimated scf accuracy    <       0.26366338 Ry

     iteration # 27     ecut=    80.00 Ry     beta=0.70
     Davidson diagonalization with overlap
     ethr =  2.02E-05,  avg # of iterations =  7.0

     negative rho (up, down):  2.952E-01 0.000E+00

     total cpu time spent up to now is    10101.9 secs

     total energy              =  -12734.50583496 Ry
     Harris-Foulkes estimate   =  -12734.57577318 Ry
     estimated scf accuracy    <       0.19647355 Ry

     iteration # 28     ecut=    80.00 Ry     beta=0.70
     Davidson diagonalization with overlap
     c_bands:  1 eigenvalues not converged
     c_bands:  1 eigenvalues not converged
     ethr =  1.51E-05,  avg # of iterations = 17.3

     negative rho (up, down):  1.723E-01 0.000E+00

     total cpu time spent up to now is    10505.9 secs

     total energy              =  -12734.51806087 Ry
     Harris-Foulkes estimate   =  -12734.52389676 Ry
     estimated scf accuracy    <       0.05255579 Ry

     iteration # 29     ecut=    80.00 Ry     beta=0.70
     Davidson diagonalization with overlap
     c_bands:  1 eigenvalues not converged
     ethr =  4.03E-06,  avg # of iterations = 14.7

     negative rho (up, down):  7.089E-02 0.000E+00

     total cpu time spent up to now is    10863.0 secs

     total energy              =  -12734.52048447 Ry
     Harris-Foulkes estimate   =  -12734.52111072 Ry
     estimated scf accuracy    <       0.01166089 Ry

     iteration # 30     ecut=    80.00 Ry     beta=0.70
     Davidson diagonalization with overlap
     c_bands:  1 eigenvalues not converged
     c_bands:  1 eigenvalues not converged
     ethr =  8.94E-07,  avg # of iterations = 16.2

     negative rho (up, down):  7.104E-02 0.000E+00

     total cpu time spent up to now is    11259.8 secs

     total energy              =  -12734.52137435 Ry
     Harris-Foulkes estimate   =  -12734.52142346 Ry
     estimated scf accuracy    <       0.00680926 Ry

     iteration # 31     ecut=    80.00 Ry     beta=0.70
     Davidson diagonalization with overlap
     ethr =  5.22E-07,  avg # of iterations =  5.7

     negative rho (up, down):  2.738E-02 0.000E+00

     total cpu time spent up to now is    11490.4 secs

     total energy              =  -12734.52049210 Ry
     Harris-Foulkes estimate   =  -12734.52175695 Ry
     estimated scf accuracy    <       0.00255391 Ry

     iteration # 32     ecut=    80.00 Ry     beta=0.70
     Davidson diagonalization with overlap
     c_bands:  2 eigenvalues not converged
     c_bands:  1 eigenvalues not converged
     ethr =  1.96E-07,  avg # of iterations = 15.2

     negative rho (up, down):  2.163E-02 0.000E+00

     total cpu time spent up to now is    11861.4 secs

     total energy              =  -12734.52055870 Ry
     Harris-Foulkes estimate   =  -12734.52067708 Ry
     estimated scf accuracy    <       0.00092912 Ry

     iteration # 33     ecut=    80.00 Ry     beta=0.70
     Davidson diagonalization with overlap
     ethr =  7.13E-08,  avg # of iterations =  5.2

     negative rho (up, down):  1.345E-02 0.000E+00

     total cpu time spent up to now is    12084.0 secs

     total energy              =  -12734.52052859 Ry
     Harris-Foulkes estimate   =  -12734.52060343 Ry
     estimated scf accuracy    <       0.00027438 Ry

     iteration # 34     ecut=    80.00 Ry     beta=0.70
     Davidson diagonalization with overlap
     ethr =  2.10E-08,  avg # of iterations = 10.2

     negative rho (up, down):  7.040E-03 0.000E+00

     total cpu time spent up to now is    12379.6 secs

     total energy              =  -12734.52041319 Ry
     Harris-Foulkes estimate   =  -12734.52054862 Ry
     estimated scf accuracy    <       0.00011179 Ry

     iteration # 35     ecut=    80.00 Ry     beta=0.70
     Davidson diagonalization with overlap
     ethr =  8.57E-09,  avg # of iterations =  8.7

     negative rho (up, down):  3.884E-03 0.000E+00

     total cpu time spent up to now is    12660.1 secs

     total energy              =  -12734.52036210 Ry
     Harris-Foulkes estimate   =  -12734.52041952 Ry
     estimated scf accuracy    <       0.00003710 Ry

     iteration # 36     ecut=    80.00 Ry     beta=0.70
     Davidson diagonalization with overlap
     c_bands:  1 eigenvalues not converged
     ethr =  2.85E-09,  avg # of iterations =  9.8

     negative rho (up, down):  1.739E-03 0.000E+00

     total cpu time spent up to now is    12952.8 secs

     total energy              =  -12734.52034022 Ry
     Harris-Foulkes estimate   =  -12734.52036671 Ry
     estimated scf accuracy    <       0.00002162 Ry

     iteration # 37     ecut=    80.00 Ry     beta=0.70
     Davidson diagonalization with overlap
     ethr =  1.66E-09,  avg # of iterations =  7.3

     negative rho (up, down):  1.671E-03 0.000E+00

     total cpu time spent up to now is    13210.5 secs

     total energy              =  -12734.52034249 Ry
     Harris-Foulkes estimate   =  -12734.52034198 Ry
     estimated scf accuracy    <       0.00000206 Ry

     iteration # 38     ecut=    80.00 Ry     beta=0.70
     Davidson diagonalization with overlap
     ethr =  1.58E-10,  avg # of iterations =  2.7

     negative rho (up, down):  1.638E-03 0.000E+00

     total cpu time spent up to now is    13429.4 secs

     total energy              =  -12734.52034288 Ry
     Harris-Foulkes estimate   =  -12734.52034288 Ry
     estimated scf accuracy    <       0.00000116 Ry

     iteration # 39     ecut=    80.00 Ry     beta=0.70
     Davidson diagonalization with overlap
     ethr =  8.89E-11,  avg # of iterations =  2.3

     negative rho (up, down):  1.733E-03 0.000E+00

     total cpu time spent up to now is    13621.3 secs

     total energy              =  -12734.52034321 Ry
     Harris-Foulkes estimate   =  -12734.52034301 Ry
     estimated scf accuracy    <       0.00000023 Ry

     iteration # 40     ecut=    80.00 Ry     beta=0.70
     Davidson diagonalization with overlap
     ethr =  1.77E-11,  avg # of iterations =  3.0

     negative rho (up, down):  1.779E-03 0.000E+00

     total cpu time spent up to now is    13825.1 secs

     total energy              =  -12734.52034322 Ry
     Harris-Foulkes estimate   =  -12734.52034324 Ry
     estimated scf accuracy    <       0.00000010 Ry

     iteration # 41     ecut=    80.00 Ry     beta=0.70
     Davidson diagonalization with overlap
     ethr =  7.92E-12,  avg # of iterations =  3.0

     negative rho (up, down):  1.818E-03 0.000E+00

     total cpu time spent up to now is    14028.4 secs

     total energy              =  -12734.52034317 Ry
     Harris-Foulkes estimate   =  -12734.52034324 Ry
     estimated scf accuracy    <       0.00000004 Ry

     iteration # 42     ecut=    80.00 Ry     beta=0.70
     Davidson diagonalization with overlap
     ethr =  3.43E-12,  avg # of iterations =  2.5

     negative rho (up, down):  1.827E-03 0.000E+00

     total cpu time spent up to now is    14219.4 secs

     total energy              =  -12734.52034314 Ry
     Harris-Foulkes estimate   =  -12734.52034318 Ry
     estimated scf accuracy    <       0.00000001 Ry

     iteration # 43     ecut=    80.00 Ry     beta=0.70
     Davidson diagonalization with overlap
     ethr =  9.93E-13,  avg # of iterations =  3.0

     negative rho (up, down):  1.832E-03 0.000E+00

     total cpu time spent up to now is    14416.3 secs

     End of self-consistent calculation

          k = 0.0000 0.0000 0.0000 (256287 PWs)   bands (ev):

   -16.9892 -15.8618 -15.7530 -15.1049 -14.7245 -14.4833 -14.3792 -13.8755
   -13.8274 -13.8023 -13.7881 -13.1582 -13.0220 -12.8280 -12.8123 -12.7851
   -12.7643 -12.2670 -11.3879 -11.2358 -11.2070 -11.0975 -11.0085 -10.0314
    -9.5083  -9.4941  -9.3393  -9.2775  -8.6527  -8.4602  -8.3417  -8.2726
    -8.0214  -7.7813  -7.5573  -7.5143  -7.3449  -7.2674  -7.2472  -7.2210
    -7.1837  -6.0779  -6.0744  -5.9048  -5.8389  -5.7354  -5.6776  -5.6326
    -5.6151  -5.5946  -5.3999  -5.3804  -5.1865  -5.0016  -4.7322  -4.6067
    -4.5983  -4.5575  -4.4330  -4.3072  -4.2573  -4.2539  -3.9638  -3.8706
    -3.8432  -3.7857  -3.6816  -3.4963  -3.3859  -3.3644  -3.3166  -3.2909
    -3.2885  -3.2028  -3.1776  -3.1625  -3.0368  -2.9431  -2.9175  -2.8977
    -2.8965  -2.8856  -2.8783  -2.8254  -2.7149  -2.7039  -2.6772  -2.6304
    -2.5977  -2.5493  -2.5278  -2.4995  -2.4904  -2.4690  -2.4444  -2.3502
    -2.2575  -2.1885  -2.1773  -2.1491  -2.1220  -2.1094  -2.0778  -2.0542
    -2.0521  -2.0511  -2.0464  -2.0301  -1.9250  -1.9225  -1.8939  -1.8930
    -1.8332  -1.8321  -1.7683  -1.7327  -1.7265  -1.6906  -1.6724  -1.6711
    -1.6359  -1.6289  -1.6224  -1.6105  -1.6042  -1.5972  -1.5783  -1.5388
    -1.5372  -1.5146  -1.5044  -1.4699  -1.4608  -1.4596  -1.4541  -1.4434
    -1.4420  -1.4341  -1.4250  -1.4141  -1.4130  -1.4061  -1.3595  -1.3447
    -1.3041  -1.2580  -1.2557  -1.2347  -1.2309  -1.1965  -1.1899  -1.1768
    -1.1721  -1.1630  -1.1386  -1.1174  -1.1162  -1.1105  -1.0923  -1.0821
    -1.0519  -1.0416  -1.0124  -0.9986  -0.9667  -0.9653  -0.9577  -0.9504
    -0.9466  -0.9363  -0.9357  -0.9302  -0.9159  -0.9106  -0.9101  -0.8979
    -0.8960  -0.8890  -0.8840  -0.8793  -0.8761  -0.8472  -0.8437  -0.8330
    -0.8235  -0.8207  -0.8054  -0.7961  -0.7888  -0.7831  -0.7695  -0.7671
    -0.7552  -0.7510  -0.7501  -0.7452  -0.7440  -0.7402  -0.7373  -0.7349
    -0.7315  -0.7308  -0.7245  -0.7195  -0.7077  -0.6892  -0.6636  -0.6621
    -0.6451  -0.6068  -0.6019  -0.5911  -0.5842  -0.5827  -0.5653  -0.5609
    -0.5376  -0.5341  -0.5336  -0.5285  -0.5192  -0.5078  -0.5022  -0.4878
    -0.4815  -0.4659  -0.4626  -0.4613  -0.4600  -0.4542  -0.4535  -0.4454
    -0.4401  -0.4319  -0.4187  -0.3995  -0.3892  -0.3766  -0.3720  -0.3634
    -0.3535  -0.3294  -0.3243  -0.3149  -0.3127  -0.3058  -0.3028  -0.3008
    -0.2990  -0.2972  -0.2957  -0.2907  -0.2893  -0.2858  -0.2812  -0.2773
    -0.2731  -0.2515  -0.2445  -0.2401  -0.2337  -0.2105  -0.2047  -0.2042
    -0.1832  -0.1796  -0.1790  -0.1778  -0.1645  -0.1612  -0.1527  -0.1455
    -0.1443  -0.1392  -0.1369  -0.1300  -0.1265  -0.1237  -0.1182  -0.1143
    -0.1112  -0.1065  -0.1038  -0.0852  -0.0836  -0.0826  -0.0818  -0.0745
    -0.0683  -0.0538  -0.0450  -0.0417  -0.0275  -0.0201  -0.0140   0.0011
     0.0053   0.0091   0.0116   0.0186   0.0264   0.0456   0.0463   0.0501
     0.0566   0.0619   0.0662   0.0764   0.0785   0.0904   0.0973   0.1083
     0.1116   0.1165   0.1186   0.1268   0.1303   0.1345   0.1357   0.1471
     0.1499   0.1504   0.1610   0.1649   0.1667   0.1693   0.1719   0.1826
     0.1864   0.1950   0.2018   0.2097   0.2204   0.2264   0.2328   0.2345
     0.2444   0.2568   0.2613   0.2656   0.2755   0.2767   0.2796   0.3078
     0.3120   0.3162   0.3237   0.3241   0.3562   0.3581   0.3726   0.3768
     0.3830   0.3842   0.3972   0.4000   0.4045   0.4195   0.4332   0.4454
     0.4474   0.4636   0.4639   0.4664   0.4700   0.4755   0.4785   0.4871
     0.4941   0.4984   0.4986   0.5060   0.5184   0.5224   0.5322   0.5332
     0.5532   0.5660   0.5660   0.5728   0.5735   0.5841   0.5881   0.5900
     0.5934   0.5976   0.6059   0.6110   0.6233   0.6244   0.6353   0.6408
     0.6412   0.6460   0.6470   0.6501   0.6561   0.6620   0.6627   0.6708
     0.6713   0.6724   0.6746   0.6801   0.6902   0.7072   0.7084   0.7101
     0.7124   0.7195   0.7244   0.7291   0.7295   0.7463   0.7483   0.7500
     0.7538   0.7564   0.7657   0.7746   0.7775   0.7839   0.7858   0.7883
     0.7917   0.7942   0.7957   0.8073   0.8121   0.8163   0.8198   0.8208
     0.8324   0.8354   0.8423   0.8459   0.8528   0.8536   0.8543   0.8579
     0.8592   0.8709   0.8790   0.8853   0.8923   0.9007   0.9042   0.9102
     0.9253   0.9375   0.9444   0.9447   0.9500   0.9535   0.9563   0.9585
     0.9635   0.9689   0.9726   0.9807   0.9845   0.9866   0.9917   0.9967
     1.0020   1.0023   1.0086   1.0158   1.0165   1.0292   1.0332   1.0374
     1.0380   1.0448   1.0547   1.0632   1.0705   1.0726   1.0851   1.0855
     1.0907   1.0911   1.0966   1.0967   1.1034   1.1132   1.1146   1.1169
     1.1204   1.1222   1.1259   1.1264   1.1366   1.1432   1.1448   1.1506
     1.1517   1.1571   1.1588   1.1629   1.1675   1.1724   1.1769   1.1800
     1.1842   1.1893   1.1936   1.1995   1.2017   1.2163   1.2183   1.2197
     1.2224   1.2246   1.2256   1.2265   1.2322   1.2331   1.2413   1.2445
     1.2465   1.2568   1.2607   1.2696   1.2720   1.2826   1.2912   1.2962
     1.2995   1.3064   1.3099   1.3130   1.3194   1.3281   1.3355   1.3376
     1.3378   1.3401   1.3511   1.3516   1.3531   1.3584   1.3616   1.3648
     1.3687   1.3691   1.3743   1.3761   1.3782   1.3784   1.3907   1.3943
     1.3948   1.4041   1.4075   1.4106   1.4112   1.4144   1.4145   1.4165
     1.4207   1.4238   1.4253   1.4296   1.4359   1.4399   1.4421   1.4438
     1.4473   1.4532   1.4584   1.4718   1.4737   1.4741   1.4790   1.4918
     1.4971   1.5016   1.5030   1.5089   1.5140   1.5154   1.5181   1.5210
     1.5227   1.5281   1.5317   1.5362   1.5364   1.5394   1.5403   1.5440
     1.5445   1.5491   1.5569   1.5592   1.5636   1.5657   1.5694   1.5731
     1.5797   1.5808   1.5881   1.5934   1.6108   1.6165   1.6223   1.6267
     1.6340   1.6533   1.6585   1.6589   1.6654   1.6719   1.6920   1.7077
     1.7129   1.7175   1.7247   1.7283   1.7364   1.7392   1.7411   1.7535
     1.7603   1.9020   1.9908   2.0614   2.1886   2.1934   2.1997   2.2569
     2.2868   2.2962   2.2998   2.3046   2.3127   2.3264   2.3298   2.3910
     2.4717   2.4768   2.5279   2.5338   2.5520   2.5546   2.5815   2.7177
     2.7525   2.7764   2.8422   2.9272   2.9657   3.1874   3.2190   3.2695
     3.2718   3.5885   3.6700   3.7683   3.8383   3.8744   3.8941   3.9546
     3.9617   3.9754   4.0327   4.0477   4.0573   4.0706   4.0956   4.1017
     4.1130   4.1187   4.2288   4.2704   4.2808   4.2933   4.3626   4.5807
     4.7941   4.8595   4.9534   5.0816   5.1015   5.1528   5.2930   5.3898
     5.4292   5.5192   5.6130   5.7019   5.7177   5.9273   6.0184   6.1140
     6.1307   6.3166   6.3347   6.4020   6.4673   6.4858   6.5051   6.5503
     6.6421   6.6758   6.7157   6.7682   6.8305   6.8347   6.8494   6.8931
     6.9146   6.9430   6.9588   7.0995   7.1166   7.1271   7.1986   7.2277
     7.3945   7.4647   7.5335   7.6043   7.6407   7.7016   7.7186   7.7844
     7.8621   7.9547   8.0592   8.1175   8.1204   8.1848   8.2419   8.2465
     8.2853   8.3728   8.3824   8.4120   8.4135   8.4176   8.4338   8.4572
     8.5897   8.6336   8.6365   8.6813   8.6886   8.7022   8.7085   8.7574
     8.7625   8.8983   8.8987   8.9159   8.9850   9.0041   9.0138   9.0943
     9.0957   9.1145   9.1919   9.2593   9.2824   9.3732   9.4312   9.4470
     9.4639   9.5187   9.5652   9.6299   9.6717   9.7752   9.7832   9.8524
     9.9359   9.9677   9.9894  10.1408  10.1450  10.1557

          k = 0.0000-0.2165 0.0000 (256176 PWs)   bands (ev):

   -16.9889 -15.9372 -15.5598 -15.3194 -14.7704 -14.3712 -14.0163 -13.9720
   -13.9337 -13.9171 -13.4986 -13.4370 -13.3741 -13.3511 -12.3543 -12.2410
   -12.1253 -12.0767 -12.0045 -11.8980 -11.7982 -10.3815 -10.2774 -10.2737
   -10.1119  -9.2181  -9.1653  -8.9917  -8.8334  -8.6713  -8.6280  -8.1079
    -7.9939  -7.9504  -7.8653  -7.8120  -7.2214  -7.0512  -6.6788  -6.6773
    -6.5926  -6.5742  -6.5506  -6.5204  -5.9968  -5.9000  -5.7778  -5.7662
    -5.2699  -5.2327  -5.1511  -4.9906  -4.9419  -4.8593  -4.7490  -4.6947
    -4.6883  -4.6618  -4.6087  -4.5382  -4.5293  -4.4213  -4.4051  -3.9703
    -3.6648  -3.6480  -3.5058  -3.4793  -3.4171  -3.2830  -3.1949  -3.1909
    -3.1841  -3.1806  -3.0984  -3.0227  -2.9944  -2.9215  -2.9066  -2.8926
    -2.8245  -2.8086  -2.7224  -2.7111  -2.6929  -2.6754  -2.6283  -2.6103
    -2.6032  -2.5986  -2.4818  -2.4752  -2.4718  -2.4626  -2.4020  -2.3903
    -2.3455  -2.3286  -2.3139  -2.2911  -2.2240  -2.1937  -2.1668  -2.1263
    -2.0710  -2.0375  -2.0292  -2.0157  -1.9814  -1.9446  -1.8988  -1.8764
    -1.8634  -1.8583  -1.8520  -1.8113  -1.7901  -1.7858  -1.7273  -1.6835
    -1.6597  -1.6542  -1.6449  -1.6389  -1.6306  -1.6168  -1.6019  -1.5640
    -1.5601  -1.5558  -1.5540  -1.5359  -1.5292  -1.5241  -1.4321  -1.3890
    -1.3887  -1.3489  -1.3181  -1.2711  -1.2691  -1.2602  -1.2460  -1.2346
    -1.2192  -1.2138  -1.2072  -1.1992  -1.1975  -1.1883  -1.1814  -1.1789
    -1.1675  -1.1559  -1.1493  -1.1487  -1.1391  -1.1260  -1.1177  -1.1171
    -1.0968  -1.0904  -1.0836  -1.0751  -1.0675  -1.0496  -1.0371  -0.9955
    -0.9840  -0.9741  -0.9730  -0.9557  -0.9534  -0.9466  -0.9434  -0.9289
    -0.9195  -0.8886  -0.8869  -0.8771  -0.8669  -0.8636  -0.8634  -0.8606
    -0.8568  -0.8252  -0.8194  -0.8142  -0.8139  -0.8093  -0.7997  -0.7926
    -0.7791  -0.7705  -0.7521  -0.7419  -0.7370  -0.7257  -0.7215  -0.7120
    -0.7104  -0.6959  -0.6813  -0.6784  -0.6664  -0.6637  -0.6497  -0.6445
    -0.6435  -0.6098  -0.5815  -0.5808  -0.5514  -0.5362  -0.5297  -0.5189
    -0.5187  -0.5138  -0.5089  -0.5073  -0.5017  -0.4997  -0.4987  -0.4947
    -0.4816  -0.4753  -0.4487  -0.4443  -0.4429  -0.4350  -0.4260  -0.4258
    -0.4243  -0.4112  -0.3892  -0.3816  -0.3791  -0.3784  -0.3771  -0.3705
    -0.3580  -0.3572  -0.3472  -0.3452  -0.3413  -0.3389  -0.3099  -0.2972
    -0.2948  -0.2881  -0.2606  -0.2601  -0.2304  -0.2186  -0.2166  -0.2140
    -0.2069  -0.2016  -0.2014  -0.1999  -0.1993  -0.1949  -0.1792  -0.1753
    -0.1642  -0.1633  -0.1564  -0.1505  -0.1501  -0.1452  -0.1436  -0.1414
    -0.1402  -0.1371  -0.1230  -0.1180  -0.1171  -0.1112  -0.1093  -0.1042
    -0.0936  -0.0933  -0.0907  -0.0890  -0.0854  -0.0603  -0.0521  -0.0499
    -0.0375  -0.0278  -0.0210  -0.0171  -0.0135  -0.0113  -0.0042   0.0019
     0.0124   0.0137   0.0161   0.0256   0.0315   0.0348   0.0442   0.0453
     0.0489   0.0520   0.0544   0.0632   0.0730   0.0874   0.0920   0.0982
     0.1094   0.1113   0.1292   0.1326   0.1334   0.1406   0.1497   0.1547
     0.1617   0.1617   0.1701   0.1749   0.1773   0.1829   0.1847   0.1870
     0.1875   0.1949   0.2025   0.2060   0.2171   0.2197   0.2259   0.2293
     0.2408   0.2449   0.2486   0.2512   0.2563   0.2566   0.2637   0.2785
     0.2882   0.2962   0.3067   0.3090   0.3093   0.3262   0.3263   0.3428
     0.3467   0.3528   0.3659   0.3895   0.3911   0.3967   0.4029   0.4160
     0.4365   0.4573   0.4583   0.4614   0.4788   0.4938   0.5012   0.5042
     0.5157   0.5275   0.5277   0.5346   0.5406   0.5443   0.5508   0.5513
     0.5595   0.5642   0.5660   0.5750   0.5777   0.5874   0.5876   0.5893
     0.5948   0.6023   0.6033   0.6090   0.6176   0.6188   0.6212   0.6262
     0.6276   0.6348   0.6395   0.6412   0.6416   0.6443   0.6468   0.6519
     0.6583   0.6600   0.6619   0.6712   0.6719   0.6738   0.6766   0.6863
     0.6899   0.6912   0.6934   0.7017   0.7068   0.7127   0.7244   0.7248
     0.7291   0.7307   0.7335   0.7492   0.7551   0.7658   0.7668   0.7742
     0.7748   0.7783   0.7829   0.7836   0.7869   0.7956   0.7991   0.8013
     0.8035   0.8171   0.8221   0.8325   0.8350   0.8458   0.8505   0.8554
     0.8663   0.8667   0.8760   0.8832   0.8871   0.8906   0.8950   0.8973
     0.8996   0.9056   0.9352   0.9385   0.9495   0.9765   0.9841   0.9850
     0.9902   0.9933   0.9949   0.9972   1.0023   1.0033   1.0125   1.0168
     1.0221   1.0239   1.0254   1.0261   1.0312   1.0365   1.0388   1.0405
     1.0412   1.0455   1.0470   1.0552   1.0616   1.0682   1.0690   1.0693
     1.0696   1.0822   1.0867   1.0896   1.0902   1.0913   1.0923   1.0961
     1.1011   1.1023   1.1096   1.1120   1.1132   1.1180   1.1202   1.1228
     1.1327   1.1360   1.1363   1.1376   1.1426   1.1459   1.1465   1.1494
     1.1527   1.1593   1.1818   1.1871   1.1886   1.1963   1.2209   1.2235
     1.2336   1.2380   1.2414   1.2495   1.2603   1.2696   1.2750   1.2811
     1.2823   1.2863   1.2874   1.2901   1.2902   1.2937   1.2969   1.2971
     1.2987   1.3046   1.3083   1.3092   1.3110   1.3217   1.3224   1.3250
     1.3285   1.3301   1.3316   1.3344   1.3362   1.3409   1.3512   1.3582
     1.3595   1.3633   1.3706   1.3722   1.3753   1.3760   1.3843   1.3921
     1.3932   1.3968   1.3976   1.4093   1.4100   1.4131   1.4147   1.4197
     1.4263   1.4265   1.4313   1.4332   1.4372   1.4425   1.4519   1.4559
     1.4617   1.4691   1.4750   1.4757   1.4837   1.4851   1.4867   1.4897
     1.4943   1.4953   1.5031   1.5061   1.5089   1.5117   1.5286   1.5323
     1.5334   1.5384   1.5442   1.5504   1.5532   1.5532   1.5541   1.5550
     1.5617   1.5662   1.5759   1.5842   1.5858   1.5910   1.5938   1.5992
     1.6009   1.6060   1.6114   1.6160   1.6188   1.6210   1.6261   1.6328
     1.6669   1.6733   1.6757   1.6794   1.6850   1.7018   1.7633   1.7793
     1.7921   1.8313   1.8445   1.8484   1.8496   1.8539   1.8755   1.8876
     1.9030   1.9091   1.9186   1.9229   1.9277   1.9388   1.9763   2.0238
     2.1774   2.2032   2.2424   2.2526   2.4730   2.4779   2.5192   2.5353
     2.5751   2.5909   2.5946   2.6268   2.6735   2.6885   2.6963   2.7020
     2.8052   2.8096   2.8188   2.8279   2.8949   3.0179   3.0241   3.1037
     3.1423   3.2720   3.2739   3.2806   3.3926   3.6307   3.7795   3.8297
     3.8605   4.0533   4.0754   4.1064   4.1527   4.1909   4.2237   4.2451
     4.3245   4.3807   4.4041   4.4361   4.5134   4.5979   4.6246   4.7278
     4.8231   4.9875   5.0372   5.1967   5.2694   5.3700   5.3785   5.4290
     5.4502   5.4747   5.4848   5.6207   5.7436   5.7932   5.8755   5.9155
     5.9975   6.0005   6.0449   6.3411   6.3529   6.3900   6.3912   6.4845
     6.4857   6.6429   6.6729   6.7514   6.8388   6.8926   6.9527   7.0621
     7.0988   7.1066   7.1268   7.1425   7.1503   7.2027   7.2339   7.3049
     7.3369   7.3440   7.4131   7.4437   7.4731   7.5201   7.6765   7.7024
     7.7698   7.7833   7.8314   7.9136   8.2075   8.2325   8.2709   8.3597
     8.3664   8.3958   8.4034   8.4632   8.4653   8.4943   8.5348   8.5414
     8.5815   8.6132   8.7345   8.7597   8.7724   8.7871   8.7931   8.8174
     8.8834   8.9526   8.9976   9.1209   9.1287   9.1421   9.1542   9.2345
     9.3008   9.3040   9.3230   9.3377   9.3724   9.4215   9.4282   9.4578
     9.4726   9.5179   9.5389   9.5437   9.5909   9.5940   9.6032   9.6674
     9.8789   9.8948   9.9413   9.9750   9.9909  10.0120

          k = 0.2500 0.0000 0.0000 (256240 PWs)   bands (ev):

   -16.9382 -15.7597 -15.6300 -15.3477 -14.7853 -14.6682 -14.6028 -14.5745
   -13.7873 -13.6333 -13.4611 -12.9435 -12.8739 -12.7509 -12.7114 -12.2819
   -12.0519 -11.9408 -11.8221 -11.7537 -11.0133 -10.8659 -10.4754 -10.3063
   -10.1506  -9.9083  -9.6451  -9.6208  -9.1801  -8.9198  -8.8294  -8.4644
    -8.0283  -7.7378  -7.5257  -7.4717  -7.3064  -7.2705  -7.1703  -6.7832
    -6.6729  -6.0334  -5.9156  -5.7352  -5.7243  -5.6679  -5.5882  -5.2732
    -5.2100  -5.2016  -5.1237  -5.0634  -4.8782  -4.6732  -4.5949  -4.4994
    -4.3522  -4.3426  -4.3121  -4.2747  -4.1443  -4.1062  -4.1018  -3.9231
    -3.8950  -3.8828  -3.8261  -3.7246  -3.7079  -3.6946  -3.5684  -3.5278
    -3.4207  -3.4138  -3.3924  -3.2631  -3.2118  -3.1655  -3.1624  -3.1444
    -3.0593  -3.0122  -2.9652  -2.9515  -2.8474  -2.8360  -2.7637  -2.7214
    -2.7057  -2.6858  -2.6271  -2.5939  -2.5421  -2.4668  -2.3759  -2.3221
    -2.2884  -2.2081  -2.2052  -2.1709  -2.1597  -2.0219  -1.9879  -1.9851
    -1.9744  -1.9679  -1.8970  -1.8508  -1.8219  -1.7906  -1.7517  -1.7190
    -1.7057  -1.6980  -1.6933  -1.6896  -1.6839  -1.6726  -1.6678  -1.6483
    -1.6388  -1.6269  -1.6013  -1.5715  -1.5444  -1.5345  -1.5242  -1.5016
    -1.4814  -1.4776  -1.4721  -1.4660  -1.4645  -1.4603  -1.4534  -1.4235
    -1.4118  -1.4027  -1.3973  -1.3888  -1.3833  -1.2831  -1.2666  -1.2597
    -1.2428  -1.2154  -1.2033  -1.1903  -1.1599  -1.1475  -1.1399  -1.1304
    -1.1237  -1.1181  -1.0978  -1.0923  -1.0867  -1.0806  -1.0742  -1.0655
    -1.0630  -1.0559  -1.0303  -1.0267  -1.0181  -1.0115  -1.0098  -1.0004
    -0.9947  -0.9926  -0.9841  -0.9724  -0.9496  -0.9359  -0.9304  -0.9261
    -0.9179  -0.9146  -0.9089  -0.9069  -0.9051  -0.8976  -0.8929  -0.8889
    -0.8857  -0.8816  -0.8721  -0.8682  -0.8646  -0.8578  -0.8553  -0.8524
    -0.8373  -0.8176  -0.8039  -0.7967  -0.7820  -0.7758  -0.7609  -0.7492
    -0.7393  -0.7161  -0.7103  -0.7064  -0.7016  -0.6898  -0.6698  -0.6645
    -0.6580  -0.6438  -0.6411  -0.6332  -0.6300  -0.6155  -0.6107  -0.5796
    -0.5739  -0.5560  -0.5187  -0.5124  -0.4987  -0.4846  -0.4755  -0.4687
    -0.4664  -0.4568  -0.4484  -0.4466  -0.4441  -0.4300  -0.4240  -0.4198
    -0.4121  -0.4055  -0.3971  -0.3872  -0.3779  -0.3722  -0.3718  -0.3679
    -0.3651  -0.3612  -0.3590  -0.3483  -0.3341  -0.3146  -0.3031  -0.2926
    -0.2889  -0.2866  -0.2800  -0.2727  -0.2677  -0.2628  -0.2560  -0.2513
    -0.2372  -0.2324  -0.2227  -0.2149  -0.2033  -0.2014  -0.1997  -0.1925
    -0.1904  -0.1839  -0.1813  -0.1730  -0.1656  -0.1591  -0.1493  -0.1454
    -0.1409  -0.1380  -0.1243  -0.1179  -0.1093  -0.1034  -0.0963  -0.0937
    -0.0887  -0.0791  -0.0754  -0.0730  -0.0569  -0.0534  -0.0485  -0.0442
    -0.0342  -0.0220  -0.0186  -0.0130  -0.0038   0.0018   0.0029   0.0218
     0.0254   0.0367   0.0433   0.0515   0.0549   0.0671   0.0808   0.0815
     0.0858   0.0917   0.0964   0.1027   0.1066   0.1110   0.1148   0.1209
     0.1260   0.1265   0.1285   0.1313   0.1382   0.1401   0.1517   0.1568
     0.1587   0.1639   0.1654   0.1702   0.1730   0.1868   0.1943   0.2080
     0.2100   0.2122   0.2170   0.2270   0.2287   0.2349   0.2406   0.2433
     0.2547   0.2567   0.2671   0.2802   0.2934   0.3038   0.3165   0.3275
     0.3299   0.3446   0.3536   0.3593   0.3703   0.3762   0.3812   0.3820
     0.3909   0.3921   0.4003   0.4041   0.4066   0.4117   0.4161   0.4163
     0.4231   0.4254   0.4348   0.4388   0.4430   0.4456   0.4556   0.4597
     0.4662   0.4674   0.4726   0.4818   0.4843   0.4949   0.5004   0.5118
     0.5197   0.5295   0.5346   0.5383   0.5424   0.5444   0.5540   0.5598
     0.5631   0.5708   0.5785   0.5819   0.5921   0.5943   0.5961   0.6039
     0.6080   0.6093   0.6124   0.6191   0.6259   0.6332   0.6409   0.6428
     0.6491   0.6520   0.6558   0.6627   0.6660   0.6707   0.6766   0.6849
     0.6868   0.6895   0.6946   0.7007   0.7061   0.7092   0.7203   0.7304
     0.7316   0.7367   0.7385   0.7411   0.7461   0.7508   0.7611   0.7617
     0.7625   0.7645   0.7739   0.7851   0.7909   0.8029   0.8095   0.8182
     0.8262   0.8356   0.8408   0.8441   0.8453   0.8530   0.8592   0.8630
     0.8711   0.8737   0.8797   0.8836   0.8872   0.8950   0.8993   0.9061
     0.9140   0.9227   0.9262   0.9285   0.9376   0.9505   0.9537   0.9563
     0.9634   0.9692   0.9746   0.9805   0.9822   0.9862   0.9876   0.9959
     0.9987   0.9997   1.0024   1.0104   1.0167   1.0264   1.0310   1.0354
     1.0393   1.0432   1.0504   1.0638   1.0667   1.0747   1.0818   1.0850
     1.0912   1.0932   1.0981   1.1036   1.1072   1.1127   1.1153   1.1154
     1.1202   1.1213   1.1220   1.1259   1.1313   1.1332   1.1367   1.1385
     1.1433   1.1537   1.1550   1.1602   1.1628   1.1665   1.1685   1.1713
     1.1753   1.1773   1.1852   1.1897   1.1920   1.1951   1.2037   1.2079
     1.2101   1.2111   1.2189   1.2227   1.2255   1.2267   1.2311   1.2320
     1.2381   1.2403   1.2417   1.2469   1.2513   1.2644   1.2748   1.2850
     1.2891   1.2913   1.2939   1.2967   1.3052   1.3154   1.3253   1.3322
     1.3436   1.3464   1.3475   1.3492   1.3531   1.3553   1.3589   1.3628
     1.3658   1.3704   1.3749   1.3752   1.3787   1.3857   1.3930   1.3955
     1.3960   1.3989   1.4025   1.4032   1.4061   1.4104   1.4142   1.4166
     1.4213   1.4232   1.4267   1.4299   1.4340   1.4398   1.4424   1.4522
     1.4532   1.4568   1.4639   1.4663   1.4756   1.4797   1.4844   1.4911
     1.4940   1.5022   1.5028   1.5054   1.5098   1.5131   1.5174   1.5190
     1.5258   1.5289   1.5313   1.5371   1.5386   1.5432   1.5459   1.5497
     1.5528   1.5566   1.5579   1.5629   1.5645   1.5663   1.5701   1.5713
     1.5808   1.5852   1.5878   1.5930   1.5966   1.5987   1.6055   1.6079
     1.6103   1.6154   1.6263   1.6480   1.6536   1.6565   1.6662   1.6732
     1.6811   1.7222   1.7235   1.7353   1.7381   1.7427   1.7791   1.8377
     1.8534   1.8622   1.8652   1.8775   1.9417   1.9811   2.0300   2.1119
     2.1317   2.1406   2.1662   2.1846   2.1909   2.2328   2.2743   2.2978
     2.5498   2.6344   2.6489   2.6676   2.8330   3.0708   3.0761   3.0911
     3.2802   3.2847   3.3152   3.3168   3.3231   3.3912   3.4601   3.4894
     3.5499   3.6161   3.6874   3.7516   3.7712   3.7758   3.7871   3.8006
     3.8557   3.8837   3.9458   3.9689   4.0700   4.0867   4.1759   4.2590
     4.3149   4.4159   4.5849   4.6594   4.6896   4.7632   4.7950   4.8228
     4.9174   5.1017   5.1707   5.3073   5.3179   5.3545   5.4023   5.4307
     5.4895   5.5318   5.5589   5.5864   5.6041   5.6169   5.6364   5.6995
     5.7905   5.8026   5.8588   5.8960   5.9774   5.9963   6.0888   6.1149
     6.1293   6.3905   6.4964   6.6078   6.7432   6.7634   6.8059   6.8175
     6.8506   6.8648   6.8978   6.9408   7.0052   7.0933   7.1355   7.1569
     7.1872   7.2009   7.2291   7.2909   7.4008   7.4363   7.4709   7.5443
     7.6474   7.6684   7.6997   7.7302   7.7761   7.8188   7.9819   8.0787
     8.1163   8.1297   8.1865   8.2045   8.2430   8.2579   8.3031   8.3124
     8.3422   8.3668   8.4200   8.4739   8.5565   8.5673   8.7353   8.8074
     8.9233   9.0164   9.0652   9.0676   9.0909   9.1096   9.1752   9.2027
     9.2184   9.2272   9.2943   9.3146   9.3729   9.3838   9.4304   9.4677
     9.5261   9.5300   9.5663   9.5992   9.6610   9.6842   9.7600   9.7954
     9.8295   9.8418   9.8767   9.9073   9.9787  10.0099

          k = 0.2500-0.2165 0.0000 (256316 PWs)   bands (ev):

   -16.9380 -15.8135 -15.5484 -15.2047 -15.1386 -14.8234 -14.3744 -14.2218
   -13.9499 -13.8091 -13.4199 -12.9452 -12.8983 -12.8513 -12.4549 -12.3187
   -12.2570 -11.9122 -11.7452 -11.2127 -11.1208 -11.0302 -10.8415 -10.6577
   -10.2436  -9.5508  -9.4782  -9.1529  -9.0838  -8.8268  -8.7779  -8.4219
    -8.3171  -8.1828  -8.1195  -8.0129  -7.0061  -6.7701  -6.5763  -6.3790
    -6.3202  -6.2069  -6.0638  -6.0174  -5.8772  -5.8387  -5.5994  -5.5890
    -5.2097  -5.1438  -4.9597  -4.8724  -4.8074  -4.6920  -4.6057  -4.5395
    -4.4990  -4.4918  -4.4079  -4.3298  -4.2318  -4.2195  -4.2119  -3.9715
    -3.9035  -3.8676  -3.8476  -3.5690  -3.5283  -3.5258  -3.4969  -3.3531
    -3.3464  -3.3335  -3.3114  -3.2664  -3.2167  -3.1824  -3.1304  -3.1154
    -3.0443  -2.9425  -2.8839  -2.8699  -2.8574  -2.8152  -2.8013  -2.7618
    -2.7472  -2.7298  -2.7214  -2.5788  -2.5172  -2.4935  -2.4658  -2.3948
    -2.2249  -2.2058  -2.1955  -2.1220  -2.0757  -2.0686  -2.0638  -2.0502
    -2.0169  -1.9587  -1.9066  -1.9013  -1.8812  -1.8781  -1.8053  -1.7691
    -1.7324  -1.7147  -1.7091  -1.7079  -1.6791  -1.6552  -1.6296  -1.6169
    -1.6115  -1.6058  -1.5964  -1.5915  -1.5883  -1.5825  -1.5720  -1.5666
    -1.5640  -1.5603  -1.5461  -1.5402  -1.4835  -1.4746  -1.4579  -1.3930
    -1.3615  -1.3591  -1.2992  -1.2886  -1.2510  -1.2302  -1.2264  -1.2088
    -1.1801  -1.1785  -1.1719  -1.1652  -1.1610  -1.1590  -1.1527  -1.1506
    -1.1312  -1.1264  -1.1228  -1.1204  -1.1113  -1.1045  -1.0978  -1.0913
    -1.0844  -1.0723  -1.0609  -1.0566  -1.0422  -1.0391  -1.0244  -1.0064
    -1.0028  -1.0017  -0.9980  -0.9915  -0.9805  -0.9541  -0.9425  -0.9387
    -0.9246  -0.9205  -0.9148  -0.8980  -0.8925  -0.8888  -0.8822  -0.8764
    -0.8746  -0.8597  -0.8576  -0.8506  -0.8477  -0.8335  -0.8304  -0.8221
    -0.8081  -0.8049  -0.7922  -0.7887  -0.7638  -0.7566  -0.7533  -0.7348
    -0.7212  -0.7053  -0.6984  -0.6902  -0.6791  -0.6571  -0.6513  -0.6396
    -0.6335  -0.6265  -0.6184  -0.6057  -0.6026  -0.5924  -0.5914  -0.5826
    -0.5688  -0.5584  -0.5379  -0.5235  -0.5194  -0.5068  -0.4951  -0.4917
    -0.4790  -0.4717  -0.4603  -0.4547  -0.4463  -0.4437  -0.4336  -0.4216
    -0.4165  -0.3986  -0.3927  -0.3857  -0.3847  -0.3783  -0.3728  -0.3589
    -0.3498  -0.3374  -0.3336  -0.3239  -0.3120  -0.3091  -0.3019  -0.2927
    -0.2905  -0.2843  -0.2788  -0.2692  -0.2657  -0.2618  -0.2561  -0.2547
    -0.2515  -0.2493  -0.2424  -0.2333  -0.2300  -0.2203  -0.2172  -0.2104
    -0.2057  -0.1985  -0.1825  -0.1804  -0.1730  -0.1642  -0.1547  -0.1458
    -0.1422  -0.1375  -0.1350  -0.1208  -0.1178  -0.1063  -0.1025  -0.0987
    -0.0847  -0.0738  -0.0704  -0.0606  -0.0571  -0.0360  -0.0299  -0.0191
    -0.0075  -0.0062  -0.0011   0.0063   0.0077   0.0123   0.0146   0.0332
     0.0367   0.0405   0.0448   0.0540   0.0545   0.0646   0.0652   0.0725
     0.0792   0.0889   0.0936   0.0948   0.0985   0.1008   0.1042   0.1053
     0.1108   0.1134   0.1167   0.1181   0.1230   0.1308   0.1329   0.1417
     0.1498   0.1539   0.1680   0.1714   0.1770   0.1798   0.1865   0.2010
     0.2032   0.2136   0.2265   0.2355   0.2411   0.2459   0.2529   0.2542
     0.2616   0.2666   0.2709   0.2748   0.2783   0.2860   0.2879   0.2912
     0.2962   0.3144   0.3310   0.3399   0.3585   0.3616   0.3706   0.3743
     0.3800   0.3866   0.3912   0.4000   0.4059   0.4118   0.4157   0.4198
     0.4276   0.4367   0.4397   0.4447   0.4457   0.4504   0.4527   0.4674
     0.4754   0.4779   0.4803   0.4811   0.4919   0.5009   0.5084   0.5139
     0.5190   0.5231   0.5257   0.5425   0.5521   0.5607   0.5630   0.5706
     0.5768   0.5797   0.5832   0.5907   0.5923   0.5968   0.6018   0.6064
     0.6100   0.6126   0.6155   0.6304   0.6354   0.6385   0.6510   0.6685
     0.6733   0.6808   0.6865   0.6913   0.6931   0.7019   0.7040   0.7088
     0.7106   0.7164   0.7214   0.7230   0.7262   0.7327   0.7354   0.7465
     0.7497   0.7579   0.7593   0.7652   0.7690   0.7723   0.7774   0.7782
     0.7818   0.7838   0.7885   0.7915   0.7961   0.7980   0.8067   0.8077
     0.8109   0.8175   0.8183   0.8208   0.8242   0.8322   0.8378   0.8409
     0.8431   0.8585   0.8634   0.8673   0.8705   0.8774   0.8888   0.8936
     0.9014   0.9105   0.9169   0.9251   0.9295   0.9337   0.9372   0.9406
     0.9432   0.9540   0.9567   0.9574   0.9594   0.9617   0.9634   0.9670
     0.9801   0.9865   0.9927   0.9989   1.0039   1.0096   1.0117   1.0147
     1.0193   1.0239   1.0345   1.0373   1.0403   1.0456   1.0560   1.0595
     1.0641   1.0682   1.0731   1.0756   1.0914   1.1010   1.1027   1.1074
     1.1101   1.1214   1.1296   1.1324   1.1386   1.1533   1.1624   1.1646
     1.1745   1.1828   1.1837   1.1863   1.1897   1.1919   1.1952   1.2007
     1.2020   1.2040   1.2048   1.2076   1.2097   1.2121   1.2164   1.2210
     1.2230   1.2349   1.2390   1.2421   1.2495   1.2543   1.2545   1.2637
     1.2686   1.2748   1.2771   1.2799   1.2836   1.2863   1.2877   1.2949
     1.2971   1.2985   1.3012   1.3052   1.3073   1.3092   1.3117   1.3179
     1.3198   1.3221   1.3267   1.3303   1.3335   1.3376   1.3424   1.3461
     1.3506   1.3641   1.3699   1.3703   1.3745   1.3762   1.3787   1.3824
     1.3878   1.3919   1.4015   1.4062   1.4106   1.4189   1.4252   1.4283
     1.4293   1.4334   1.4366   1.4397   1.4436   1.4473   1.4504   1.4542
     1.4568   1.4649   1.4689   1.4723   1.4745   1.4774   1.4827   1.4873
     1.4889   1.4918   1.4966   1.4984   1.5037   1.5084   1.5094   1.5108
     1.5120   1.5137   1.5174   1.5221   1.5348   1.5358   1.5384   1.5439
     1.5448   1.5472   1.5509   1.5570   1.5619   1.5630   1.5728   1.5758
     1.5806   1.5828   1.5841   1.6001   1.6060   1.6078   1.6100   1.6169
     1.6209   1.6245   1.6297   1.6491   1.6504   1.6514   1.6660   1.6727
     1.6835   1.7066   1.7265   1.7556   1.7713   1.8020   1.8217   1.8429
     1.8477   1.8594   1.8660   1.8685   1.8754   1.8801   1.8950   1.9061
     2.0346   2.2099   2.2179   2.2431   2.2514   2.3094   2.3597   2.4449
     2.6671   2.6821   2.8288   2.8487   2.8495   2.8597   2.8788   2.8871
     2.9520   3.0372   3.0650   3.0916   3.1015   3.3087   3.5734   3.5740
     3.6405   3.6462   3.6828   3.8195   3.8593   3.9047   3.9477   3.9626
     3.9927   4.0853   4.1409   4.1761   4.2167   4.2503   4.2754   4.4185
     4.4540   4.5389   4.6023   4.6309   4.6796   4.6824   4.7493   4.8444
     4.9028   4.9709   4.9831   5.0157   5.0269   5.0868   5.1634   5.2316
     5.2376   5.4043   5.4354   5.4982   5.5226   5.5291   5.5625   5.7128
     5.7976   5.8446   5.8794   5.9276   6.0605   6.0842   6.2064   6.2211
     6.3174   6.5576   6.6357   6.6855   6.7686   6.8147   6.8393   6.8743
     6.9356   6.9391   6.9826   7.0321   7.0921   7.1431   7.2002   7.2258
     7.2674   7.2914   7.3092   7.3406   7.3767   7.4467   7.4770   7.4972
     7.5367   7.5903   7.6684   7.6882   7.8218   7.8402   7.8888   7.9046
     7.9614   8.0264   8.2111   8.2216   8.2772   8.3162   8.3526   8.4663
     8.5431   8.6214   8.6310   8.6628   8.6806   8.7042   8.7134   8.7587
     8.7942   8.8107   8.8809   8.9071   8.9889   9.0159   9.0560   9.1262
     9.1535   9.1779   9.2329   9.2450   9.2649   9.2918   9.3116   9.3505
     9.3674   9.3889   9.4280   9.4605   9.5153   9.5348   9.6026   9.6401
     9.7008   9.7051   9.8257   9.8874  10.0061  10.0371

          k =-0.5000 0.0000 0.0000 (256496 PWs)   bands (ev):

   -16.8777 -15.6901 -15.3751 -15.3006 -15.2395 -15.2173 -14.4812 -14.3036
   -14.1855 -14.1554 -12.9241 -12.6342 -12.4773 -12.4133 -12.2802 -12.1606
   -12.1213 -11.5296 -11.5223 -11.4678 -11.4450 -10.8924 -10.8693 -10.7791
   -10.5596 -10.0162 -10.0047  -9.7604  -9.4286  -8.8607  -8.8574  -8.6822
    -8.6687  -8.0350  -7.5810  -7.3976  -7.3643  -7.2062  -7.1378  -7.1174
    -6.0006  -5.9558  -5.5357  -5.2135  -5.1958  -5.1844  -4.9982  -4.8925
    -4.7632  -4.6849  -4.6782  -4.6777  -4.6324  -4.6053  -4.6019  -4.5057
    -4.4480  -4.4104  -4.3943  -4.3699  -4.3597  -4.2899  -4.2809  -4.1774
    -4.1435  -4.1419  -4.0895  -3.8637  -3.7084  -3.7004  -3.6533  -3.5989
    -3.4485  -3.4075  -3.3395  -3.3299  -3.3153  -3.3124  -3.3065  -3.2925
    -3.2517  -3.1817  -3.1799  -3.1255  -3.1158  -3.0688  -2.7809  -2.6695
    -2.6518  -2.6430  -2.5818  -2.5510  -2.5479  -2.5230  -2.5205  -2.5198
    -2.4418  -2.4162  -2.3147  -2.2629  -2.2550  -2.2146  -2.0621  -2.0460
    -1.9368  -1.8068  -1.7838  -1.7797  -1.7756  -1.7670  -1.7653  -1.7612
    -1.6714  -1.6707  -1.6668  -1.6358  -1.6123  -1.5591  -1.5546  -1.5540
    -1.5394  -1.5101  -1.4994  -1.4940  -1.4884  -1.4831  -1.4816  -1.4213
    -1.3976  -1.3956  -1.3799  -1.3234  -1.3213  -1.3194  -1.3085  -1.3046
    -1.3013  -1.3001  -1.2844  -1.2653  -1.2518  -1.2504  -1.2465  -1.2386
    -1.2356  -1.2340  -1.2280  -1.2261  -1.2200  -1.1995  -1.1966  -1.1899
    -1.1846  -1.1647  -1.1640  -1.1613  -1.1598  -1.1540  -1.1288  -1.1024
    -1.1003  -1.0801  -1.0787  -1.0699  -1.0670  -1.0600  -1.0586  -1.0337
    -1.0315  -1.0257  -1.0172  -1.0034  -1.0006  -0.9956  -0.9886  -0.9828
    -0.9714  -0.9654  -0.9627  -0.9588  -0.9380  -0.8979  -0.8881  -0.8800
    -0.8753  -0.8698  -0.8627  -0.8563  -0.8525  -0.8443  -0.8428  -0.8299
    -0.8265  -0.8206  -0.8200  -0.8173  -0.8127  -0.8088  -0.8064  -0.7968
    -0.7824  -0.7657  -0.7639  -0.7353  -0.7250  -0.7175  -0.7014  -0.6864
    -0.6723  -0.6705  -0.6200  -0.6051  -0.6030  -0.6006  -0.5736  -0.5694
    -0.5677  -0.5657  -0.5580  -0.5564  -0.5299  -0.5148  -0.5127  -0.5110
    -0.5032  -0.4976  -0.4969  -0.4942  -0.4919  -0.4781  -0.4758  -0.4681
    -0.4585  -0.4274  -0.4222  -0.3742  -0.3642  -0.3428  -0.3332  -0.3297
    -0.3256  -0.3124  -0.3087  -0.3045  -0.3007  -0.3005  -0.2994  -0.2887
    -0.2825  -0.2709  -0.2662  -0.2645  -0.2602  -0.2581  -0.2382  -0.2357
    -0.2283  -0.2226  -0.2206  -0.2193  -0.2054  -0.2014  -0.1945  -0.1910
    -0.1822  -0.1797  -0.1753  -0.1471  -0.1446  -0.1403  -0.1400  -0.1364
    -0.1320  -0.1218  -0.1146  -0.1035  -0.0989  -0.0792  -0.0583  -0.0575
    -0.0519  -0.0513  -0.0343  -0.0329  -0.0323  -0.0273  -0.0160  -0.0113
    -0.0029   0.0019   0.0170   0.0265   0.0324   0.0395   0.0672   0.0682
     0.0728   0.0768   0.0779   0.0838   0.0862   0.0875   0.0889   0.0894
     0.0932   0.1093   0.1101   0.1375   0.1561   0.1576   0.1590   0.1619
     0.1669   0.1678   0.1682   0.1721   0.1781   0.1785   0.1800   0.1922
     0.1932   0.1960   0.1985   0.2016   0.2024   0.2068   0.2118   0.2167
     0.2201   0.2237   0.2271   0.2291   0.2323   0.2386   0.2407   0.2446
     0.2488   0.2581   0.2653   0.2744   0.2770   0.2808   0.2832   0.2838
     0.2882   0.2914   0.2978   0.3272   0.3584   0.3675   0.3698   0.3742
     0.3826   0.3948   0.3981   0.4065   0.4194   0.4231   0.4274   0.4276
     0.4391   0.4413   0.4545   0.4548   0.4588   0.4690   0.4721   0.4747
     0.4789   0.4854   0.4868   0.4892   0.4931   0.4962   0.5026   0.5058
     0.5092   0.5096   0.5137   0.5189   0.5212   0.5310   0.5476   0.5727
     0.5838   0.5863   0.5917   0.5986   0.5988   0.6032   0.6171   0.6195
     0.6251   0.6292   0.6308   0.6391   0.6414   0.6468   0.6475   0.6490
     0.6497   0.6544   0.6549   0.6581   0.6663   0.6695   0.6740   0.6763
     0.6770   0.6827   0.6923   0.6960   0.6974   0.7164   0.7185   0.7331
     0.7350   0.7373   0.7412   0.7420   0.7460   0.7485   0.7492   0.7534
     0.7572   0.7579   0.7608   0.7654   0.7660   0.7676   0.7700   0.7803
     0.7852   0.7974   0.8081   0.8128   0.8140   0.8236   0.8257   0.8276
     0.8302   0.8312   0.8361   0.8366   0.8548   0.8607   0.8640   0.8653
     0.8759   0.8813   0.9022   0.9102   0.9103   0.9216   0.9281   0.9331
     0.9358   0.9393   0.9420   0.9433   0.9453   0.9484   0.9576   0.9612
     0.9616   0.9682   0.9689   0.9701   0.9870   0.9875   0.9936   0.9947
     1.0012   1.0028   1.0050   1.0084   1.0149   1.0170   1.0183   1.0229
     1.0442   1.0468   1.0521   1.0549   1.0703   1.0997   1.1066   1.1089
     1.1181   1.1220   1.1254   1.1351   1.1404   1.1432   1.1514   1.1578
     1.1662   1.1685   1.1691   1.1835   1.1853   1.1866   1.1869   1.1942
     1.1955   1.2032   1.2123   1.2164   1.2198   1.2212   1.2225   1.2240
     1.2307   1.2308   1.2328   1.2344   1.2377   1.2423   1.2435   1.2490
     1.2544   1.2548   1.2676   1.2677   1.2691   1.2749   1.2771   1.2819
     1.2977   1.2984   1.3022   1.3112   1.3144   1.3202   1.3233   1.3318
     1.3328   1.3354   1.3408   1.3425   1.3435   1.3460   1.3466   1.3485
     1.3514   1.3540   1.3585   1.3672   1.3728   1.3929   1.3981   1.4001
     1.4020   1.4027   1.4037   1.4069   1.4080   1.4113   1.4124   1.4126
     1.4138   1.4178   1.4233   1.4244   1.4264   1.4308   1.4346   1.4351
     1.4394   1.4401   1.4426   1.4456   1.4514   1.4526   1.4552   1.4579
     1.4585   1.4705   1.4707   1.4808   1.4813   1.4848   1.4911   1.4933
     1.4979   1.5000   1.5104   1.5142   1.5155   1.5213   1.5228   1.5268
     1.5301   1.5310   1.5343   1.5460   1.5472   1.5482   1.5507   1.5550
     1.5583   1.5658   1.5661   1.5744   1.5803   1.5807   1.5837   1.5839
     1.5851   1.5932   1.6016   1.6110   1.6128   1.6162   1.6182   1.6203
     1.6233   1.6304   1.6398   1.6694   1.6746   1.6822   1.6966   1.7049
     1.7059   1.7091   1.7198   1.8749   2.0972   2.1248   2.1363   2.1947
     2.2686   2.3122   2.3288   2.3685   2.3822   2.3861   2.3898   2.4413
     2.6505   2.6545   2.6857   2.8647   2.8972   2.9263   2.9313   3.1934
     3.2165   3.2757   3.2883   3.2998   3.4897   3.5608   3.7691   3.8151
     3.8181   3.8859   3.8982   3.9739   3.9756   4.0355   4.0942   4.0956
     4.1634   4.1678   4.1732   4.2146   4.4263   4.6256   4.6390   4.6930
     4.7039   4.7134   4.7481   4.7896   4.8940   4.9395   4.9478   4.9962
     5.0238   5.0800   5.1019   5.1255   5.1282   5.1513   5.1536   5.1686
     5.2182   5.2611   5.3066   5.3663   5.4320   5.4495   5.4825   5.5298
     5.5718   5.6162   5.6175   5.6429   5.9508   5.9835   5.9901   6.0109
     6.0339   6.0646   6.0674   6.0800   6.1362   6.3042   6.3312   6.3350
     6.3947   6.4306   6.5363   6.5577   6.6221   6.6829   6.7693   7.1251
     7.1474   7.1725   7.1803   7.2971   7.3529   7.5614   7.6428   7.6492
     7.6701   7.6776   7.6898   7.7532   7.8031   7.8428   7.8844   7.9374
     7.9471   7.9913   8.0107   8.0430   8.0719   8.0739   8.0994   8.1120
     8.2031   8.2540   8.2719   8.4556   8.7064   8.7408   8.7490   8.8014
     8.8813   8.8875   8.8888   8.9310   8.9423   9.0489   9.0661   9.0718
     9.0982   9.1261   9.1318   9.3036   9.3301   9.3955   9.4401   9.4557
     9.4736   9.5014   9.5071   9.5250   9.5646   9.5707   9.5730   9.5748
     9.6218   9.7230   9.7636   9.8775   9.9189   9.9410

          k =-0.5000-0.2165 0.0000 (256328 PWs)   bands (ev):

   -16.8776 -15.6697 -15.4634 -15.4189 -15.0593 -14.8781 -14.8145 -14.7680
   -13.7558 -13.5346 -13.3993 -13.3635 -12.4003 -12.2862 -12.1436 -11.6984
   -11.6356 -11.5919 -11.4753 -11.4303 -11.3118 -11.2304 -11.2117 -11.0585
   -11.0426  -9.7699  -9.7352  -9.4389  -9.4079  -8.9951  -8.6159  -8.5510
    -8.4781  -8.0558  -8.0145  -7.9969  -7.7440  -7.7302  -6.3236  -6.0512
    -5.9103  -5.7322  -5.6033  -5.4037  -5.2107  -5.1317  -5.0905  -5.0637
    -5.0511  -5.0503  -5.0177  -5.0085  -4.8952  -4.6856  -4.6169  -4.6132
    -4.4268  -4.1812  -4.1389  -4.0811  -4.0796  -4.0780  -4.0741  -4.0404
    -4.0156  -3.9689  -3.9576  -3.9229  -3.8826  -3.8315  -3.7476  -3.6614
    -3.5788  -3.5237  -3.4700  -3.4509  -3.4193  -3.3684  -3.3454  -3.3448
    -3.2290  -3.1554  -3.1334  -3.1229  -2.9705  -2.8745  -2.8278  -2.7791
    -2.5546  -2.5316  -2.4769  -2.4712  -2.4683  -2.4624  -2.4503  -2.4431
    -2.4187  -2.3605  -2.3539  -2.2184  -2.1500  -2.0890  -1.9746  -1.9712
    -1.9701  -1.9532  -1.9408  -1.9320  -1.9110  -1.8967  -1.8571  -1.8045
    -1.7314  -1.7200  -1.7055  -1.6953  -1.6798  -1.6796  -1.5344  -1.4976
    -1.4895  -1.4814  -1.4356  -1.4218  -1.4000  -1.3949  -1.3890  -1.3845
    -1.3772  -1.3714  -1.3468  -1.3357  -1.3287  -1.3073  -1.3071  -1.2984
    -1.2939  -1.2822  -1.2801  -1.2726  -1.2705  -1.2654  -1.2624  -1.2577
    -1.2521  -1.2518  -1.2485  -1.2454  -1.2374  -1.2135  -1.2072  -1.2022
    -1.1863  -1.1758  -1.1534  -1.1187  -1.1145  -1.0942  -1.0936  -1.0891
    -1.0834  -1.0831  -1.0800  -1.0755  -1.0535  -1.0490  -1.0370  -1.0362
    -1.0304  -1.0278  -1.0172  -1.0140  -1.0099  -1.0089  -0.9946  -0.9903
    -0.9747  -0.9725  -0.9708  -0.9655  -0.9575  -0.9565  -0.9496  -0.9469
    -0.9333  -0.9318  -0.9191  -0.9149  -0.9133  -0.9104  -0.8895  -0.8840
    -0.8180  -0.8014  -0.7890  -0.7867  -0.7747  -0.7648  -0.7571  -0.7549
    -0.7527  -0.7414  -0.7311  -0.6949  -0.6820  -0.6658  -0.6620  -0.6595
    -0.6592  -0.6506  -0.6498  -0.6461  -0.6416  -0.6408  -0.6135  -0.5956
    -0.5933  -0.5912  -0.5856  -0.5830  -0.5746  -0.5663  -0.5631  -0.5610
    -0.5586  -0.5252  -0.5236  -0.4894  -0.4609  -0.4524  -0.4467  -0.4402
    -0.4393  -0.4342  -0.4136  -0.3947  -0.3890  -0.3874  -0.3684  -0.3577
    -0.3541  -0.3421  -0.3399  -0.3351  -0.3289  -0.3187  -0.3178  -0.3117
    -0.3085  -0.2887  -0.2870  -0.2854  -0.2815  -0.2772  -0.2641  -0.2245
    -0.2182  -0.2108  -0.2063  -0.2024  -0.1874  -0.1654  -0.1643  -0.1469
    -0.1448  -0.1442  -0.1438  -0.1427  -0.1367  -0.1330  -0.1305  -0.1131
    -0.0971  -0.0808  -0.0677  -0.0607  -0.0586  -0.0586  -0.0548  -0.0534
    -0.0500  -0.0471  -0.0418  -0.0397  -0.0218  -0.0195  -0.0106  -0.0094
    -0.0079  -0.0065   0.0007   0.0010   0.0097   0.0123   0.0185   0.0266
     0.0312   0.0454   0.0673   0.0756   0.0815   0.0982   0.1024   0.1218
     0.1309   0.1543   0.1563   0.1576   0.1596   0.1598   0.1656   0.1682
     0.1709   0.1779   0.1794   0.1831   0.1942   0.1957   0.1982   0.2005
     0.2028   0.2029   0.2106   0.2120   0.2146   0.2178   0.2245   0.2279
     0.2285   0.2314   0.2335   0.2394   0.2396   0.2508   0.2550   0.2593
     0.2671   0.2743   0.2784   0.2827   0.2876   0.2933   0.3010   0.3127
     0.3151   0.3220   0.3267   0.3366   0.3375   0.3471   0.3554   0.3573
     0.3592   0.3926   0.3982   0.4063   0.4163   0.4165   0.4225   0.4467
     0.4480   0.4608   0.4655   0.4695   0.4700   0.4823   0.4844   0.4924
     0.4932   0.4978   0.5021   0.5030   0.5073   0.5162   0.5206   0.5264
     0.5408   0.5438   0.5493   0.5526   0.5531   0.5595   0.5611   0.5705
     0.5731   0.5736   0.5772   0.5784   0.5809   0.5850   0.5901   0.6004
     0.6029   0.6092   0.6158   0.6299   0.6335   0.6364   0.6406   0.6426
     0.6465   0.6576   0.6593   0.6627   0.6668   0.6671   0.6750   0.6766
     0.6776   0.6840   0.6878   0.6902   0.6971   0.6998   0.7033   0.7101
     0.7134   0.7164   0.7166   0.7193   0.7307   0.7371   0.7463   0.7500
     0.7587   0.7597   0.7686   0.7790   0.7824   0.7833   0.7898   0.7947
     0.8000   0.8001   0.8052   0.8162   0.8221   0.8247   0.8255   0.8285
     0.8336   0.8390   0.8423   0.8436   0.8499   0.8512   0.8521   0.8616
     0.8624   0.8787   0.8857   0.8912   0.8971   0.8999   0.9118   0.9166
     0.9200   0.9261   0.9309   0.9433   0.9533   0.9566   0.9617   0.9642
     0.9731   0.9780   0.9782   0.9804   0.9897   1.0045   1.0136   1.0144
     1.0221   1.0388   1.0419   1.0434   1.0520   1.0679   1.0779   1.0840
     1.0895   1.0982   1.0996   1.1080   1.1081   1.1166   1.1167   1.1234
     1.1274   1.1284   1.1342   1.1371   1.1378   1.1418   1.1436   1.1462
     1.1465   1.1487   1.1496   1.1522   1.1572   1.1581   1.1630   1.1676
     1.1702   1.1780   1.1784   1.1823   1.1839   1.1869   1.1905   1.1914
     1.2017   1.2095   1.2123   1.2133   1.2214   1.2232   1.2317   1.2336
     1.2431   1.2432   1.2464   1.2532   1.2536   1.2551   1.2694   1.2845
     1.2878   1.2888   1.2949   1.2994   1.3030   1.3080   1.3106   1.3133
     1.3138   1.3151   1.3217   1.3263   1.3291   1.3353   1.3415   1.3452
     1.3475   1.3668   1.3707   1.3710   1.3738   1.3789   1.3798   1.3822
     1.3839   1.3865   1.3867   1.3909   1.3915   1.4128   1.4259   1.4310
     1.4350   1.4400   1.4466   1.4511   1.4527   1.4528   1.4554   1.4572
     1.4575   1.4586   1.4603   1.4610   1.4614   1.4651   1.4680   1.4718
     1.4752   1.4755   1.4807   1.4816   1.4874   1.4918   1.4928   1.4972
     1.4977   1.5010   1.5032   1.5039   1.5053   1.5072   1.5125   1.5193
     1.5256   1.5353   1.5371   1.5417   1.5432   1.5475   1.5480   1.5621
     1.5674   1.5698   1.5713   1.5746   1.5842   1.5977   1.6000   1.6042
     1.6068   1.6251   1.6320   1.6344   1.6411   1.6417   1.6661   1.6685
     1.6748   1.6807   1.6908   1.6978   1.6991   1.7009   1.7027   1.7093
     1.7135   1.7167   1.7185   1.7215   1.7217   1.8739   1.9281   1.9359
     1.9402   2.0960   2.3714   2.3786   2.4084   2.5675   2.6133   2.6464
     2.6547   2.6732   2.8441   2.8799   2.8921   2.9435   3.1284   3.1544
     3.1817   3.4995   3.5077   3.5489   3.5523   3.5905   3.6466   3.7038
     3.7134   3.8078   3.9870   4.0176   4.0292   4.0333   4.1344   4.2752
     4.2778   4.2933   4.3021   4.3131   4.3333   4.3383   4.4248   4.4424
     4.6076   4.6356   4.6819   4.7116   4.7223   4.7986   4.8988   4.9301
     5.0130   5.0395   5.1090   5.1386   5.1679   5.2039   5.2394   5.2562
     5.2653   5.3131   5.3174   5.3295   5.3695   5.3929   5.3942   5.4424
     5.4491   5.6718   5.6849   5.7260   5.7840   5.8000   5.8128   5.8172
     5.8408   5.8518   5.8737   5.9393   5.9611   6.3494   6.3609   6.7060
     6.7560   7.0333   7.0411   7.0742   7.1068   7.1506   7.1886   7.1976
     7.2006   7.2144   7.2479   7.2642   7.2715   7.3421   7.3766   7.4418
     7.4750   7.4984   7.5563   7.5864   7.5891   7.6532   7.7530   7.8639
     7.9541   7.9825   8.0096   8.0532   8.0692   8.1644   8.2399   8.3058
     8.3180   8.3616   8.3801   8.4303   8.4710   8.4999   8.8577   8.9311
     8.9379   8.9527   8.9629   8.9643   8.9740   8.9927   9.0466   9.0671
     9.1128   9.1615   9.1714   9.1721   9.2148   9.2302   9.2933   9.3095
     9.3860   9.4130   9.4298   9.4504   9.5142   9.5183   9.5205   9.5499
     9.5610   9.6827   9.8423   9.9364  10.0191  10.0427

     the Fermi energy is     3.4256 ev

!    total energy              =  -12734.52034310 Ry
     Harris-Foulkes estimate   =  -12734.52034314 Ry
     estimated scf accuracy    <          4.7E-09 Ry

     The total energy is the sum of the following terms:

     one-electron contribution = -104254.22128420 Ry
     hartree contribution      =   53498.24237053 Ry
     xc contribution           =   -4456.84161446 Ry
     ewald contribution        =   42484.59477903 Ry
     Dispersion Correction     =      -2.93421543 Ry
     smearing contrib. (-TS)   =      -3.36037856 Ry

     convergence has been achieved in  43 iterations

     Writing output data file gc.save
 
     init_run     :    101.20s CPU    108.83s WALL (       1 calls)
     electrons    :  13367.23s CPU  14307.24s WALL (       1 calls)

     Called by init_run:
     wfcinit      :     98.80s CPU    105.95s WALL (       1 calls)
     potinit      :      0.41s CPU      0.44s WALL (       1 calls)

     Called by electrons:
     c_bands      :  12416.62s CPU  13259.48s WALL (      43 calls)
     sum_band     :    801.40s CPU    872.90s WALL (      43 calls)
     v_of_rho     :      2.93s CPU      3.55s WALL (      44 calls)
     newd         :      8.12s CPU     14.39s WALL (      44 calls)
     mix_rho      :    137.94s CPU    156.75s WALL (      43 calls)

     Called by c_bands:
     init_us_2    :     35.80s CPU     36.24s WALL (     522 calls)
     cegterg      :  12260.70s CPU  13097.07s WALL (     271 calls)

     Called by sum_band:
     sum_band:bec :      4.35s CPU      5.06s WALL (     258 calls)
     addusdens    :      7.87s CPU     14.13s WALL (      43 calls)

     Called by *egterg:
     h_psi        :   4306.00s CPU   4665.33s WALL (    2013 calls)
     s_psi        :   1051.59s CPU   1064.86s WALL (    2013 calls)
     g_psi        :     10.95s CPU     10.96s WALL (    1736 calls)
     cdiaghg      :   3772.05s CPU   3918.23s WALL (    1999 calls)

     Called by h_psi:
     add_vuspsi   :   1057.41s CPU   1072.66s WALL (    2013 calls)

     General routines
     calbec       :   1436.14s CPU   1446.78s WALL (    2271 calls)
     fft          :      3.55s CPU      4.09s WALL (     571 calls)
     ffts         :     81.57s CPU     92.77s WALL (   20994 calls)
     fftw         :   2448.34s CPU   2740.58s WALL ( 1351796 calls)
     davcio       :      0.25s CPU      6.76s WALL (       6 calls)
 
     Parallel routines
     fft_scatter  :   1589.88s CPU   1748.48s WALL ( 1373361 calls)
 
     PWSCF        :     3h44m CPU        4h 0m WALL

 
   This run was terminated on:   0:37:27  27Apr2017            

=------------------------------------------------------------------------------=
   JOB DONE.
=------------------------------------------------------------------------------=
