mpirun: INFO: switching to OpenMPI runtime version 1.10.2

     Program PWSCF v.5.4.0 starts on  7Nov2017 at 13:36:16 

     This program is part of the open-source Quantum ESPRESSO suite
     for quantum simulation of materials; please cite
         "P. Giannozzi et al., J. Phys.:Condens. Matter 21 395502 (2009);
          URL http://www.quantum-espresso.org", 
     in publications or presentations arising from this work. More details at
     http://www.quantum-espresso.org/quote

     Parallel version (MPI & OpenMP), running on      28 processor cores
     Number of MPI processes:                28
     Threads/MPI process:                     1
     R & G space division:  proc/nbgrp/npool/nimage =      28
     Waiting for input...
     Reading input from standard input
Warning: card &IONS ignored
Warning: card / ignored

     Current dimensions of program PWSCF are:
     Max number of different atomic species (ntypx) = 10
     Max number of k-points (npk) =  40000
     Max angular momentum in pseudopotentials (lmaxx) =  3
     WARNING: atomic wfc #  2 for atom type 4 has zero norm
     WARNING: atomic wfc #  4 for atom type 4 has zero norm
     WARNING: atomic wfc #  5 for atom type 4 has zero norm

     -------------------------------------
     Parameters for Dispersion Correction:
     -------------------------------------
       atom      VdW radius       C_6     

        Cu         2.952        374.666
        C_h        2.744         60.710
        C          2.744         60.710
        O          2.536         24.284
        H          1.892          4.857

     Subspace diagonalization in iterative solution of the eigenvalue problem:
     one sub-group per band group will be used
     scalapack distributed-memory algorithm (size of sub-group:  3*  3 procs)

 
     Parallelization info
     --------------------
     sticks:   dense  smooth     PW     G-vecs:    dense   smooth      PW
     Min         408     408    108                73226    73226    9928
     Max         410     410    109                73231    73231    9931
     Sum       11433   11433   3039              2050409  2050409  278033
 


     bravais-lattice index     =            0
     lattice parameter (alat)  =      13.9425  a.u.
     unit-cell volume          =   21209.0878 (a.u.)^3
     number of atoms/cell      =           50
     number of atomic types    =            5
     number of electrons       =       202.00
     number of Kohn-Sham states=          121
     kinetic-energy cutoff     =      80.0000  Ry
     charge density cutoff     =     320.0000  Ry
     convergence threshold     =      1.0E-08
     mixing beta               =       0.7000
     number of iterations used =            8  local-TF  mixing
     Exchange-correlation      =  SLA  PW   PBE  PBE ( 1  4  3  4 0 0)

     celldm(1)=  13.942539  celldm(2)=   0.000000  celldm(3)=   0.000000
     celldm(4)=   0.000000  celldm(5)=   0.000000  celldm(6)=   0.000000

     crystal axes: (cart. coord. in units of alat)
               a(1) = (   1.000000   0.000000   0.000000 )  
               a(2) = (   0.000000   2.309401   0.000000 )  
               a(3) = (   0.000000   0.000000   3.388418 )  

     reciprocal axes: (cart. coord. in units 2 pi/alat)
               b(1) = (  1.000000  0.000000  0.000000 )  
               b(2) = (  0.000000  0.433013  0.000000 )  
               b(3) = (  0.000000  0.000000  0.295123 )  


     PseudoPot. # 1 for Cu read from file:
     /home/549/hxw549/Short/pseudopotentials/Cu.pbe-n-van_ak.UPF
     MD5 check sum: 601f7c30f7467666bec936e0661ce3e1
     Pseudo is Ultrasoft + core correction, Zval = 11.0
     Generated by new atomic code, or converted to UPF format
     Using radial grid of  867 points,  6 beta functions with: 
                l(1) =   0
                l(2) =   0
                l(3) =   1
                l(4) =   1
                l(5) =   2
                l(6) =   2
     Q(r) pseudized with  8 coefficients,  rinner =    1.400   1.400   1.400
                                                       1.400   1.400

     PseudoPot. # 2 for C  read from file:
     /home/549/hxw549/Short/pseudopotentials/C.star1s-pbe-mt_gipaw.UPF
     MD5 check sum: ef0cb3dee31bd9e4ba2a832a2c716264
     Pseudo is Norm-conserving, Zval =  5.0
     Generated by new atomic code, or converted to UPF format
     Using radial grid of 1073 points,  1 beta functions with: 
                l(1) =   0

     PseudoPot. # 3 for C  read from file:
     /home/549/hxw549/Short/pseudopotentials/C.pbe-mt_gipaw.UPF
     MD5 check sum: 5ac2f21f2c440b14befe521540822c15
     Pseudo is Norm-conserving, Zval =  4.0
     Generated by new atomic code, or converted to UPF format
     Using radial grid of 1073 points,  1 beta functions with: 
                l(1) =   0

     PseudoPot. # 4 for O  read from file:
     /home/549/hxw549/Short/pseudopotentials/O.pbe-van_gipaw.UPF
     MD5 check sum: 5ce2a047509d4f331db576c963e74b29
     Pseudo is Ultrasoft, Zval =  6.0
     Generated by new atomic code, or converted to UPF format
     Using radial grid of 1095 points,  4 beta functions with: 
                l(1) =   0
                l(2) =   0
                l(3) =   1
                l(4) =   1
     Q(r) pseudized with 0 coefficients 


     PseudoPot. # 5 for H  read from file:
     /home/549/hxw549/Short/pseudopotentials/H.pbe-van_ak.UPF
     MD5 check sum: 077eb6d537518a38cb46c6de387227b7
     Pseudo is Ultrasoft, Zval =  1.0
     Generated by new atomic code, or converted to UPF format
     Using radial grid of  615 points,  1 beta functions with: 
                l(1) =   0
     Q(r) pseudized with  8 coefficients,  rinner =    0.800

     atomic species   valence    mass     pseudopotential
        Cu            11.00    63.54600     Cu( 1.00)
        C_h            5.00    12.01070     C ( 1.00)
        C              4.00    12.01070     C ( 1.00)
        O              6.00    15.99940     O ( 1.00)
        H              1.00     1.00783     H ( 1.00)

     No symmetry found



   Cartesian axes

     site n.     atom                  positions (alat units)
         1           C   tau(   1) = (   0.0003514   0.0996206   2.3875980  )
         2           C   tau(   2) = (   0.0003701   0.2920050   2.3890198  )
         3           C   tau(   3) = (   0.1669612   0.0033417   2.3866707  )
         4           C   tau(   4) = (   0.1668783   0.3881831   2.3878569  )
         5           C   tau(   5) = (   0.3334610   0.0995345   2.3840961  )
         6           C   tau(   6) = (   0.3334624   0.2919976   2.3846407  )
         7           C   tau(   7) = (   0.5003433   0.0032210   2.3815949  )
         8           C   tau(   8) = (   0.5003848   0.3882447   2.3835900  )
         9           C   tau(   9) = (   0.6672318   0.0995321   2.3842977  )
        10           C   tau(  10) = (   0.6672623   0.2919796   2.3848652  )
        11           C   tau(  11) = (   0.8337338   0.0033419   2.3867885  )
        12           C   tau(  12) = (   0.8338733   0.3881847   2.3880842  )
        13           C   tau(  13) = (   0.0003755   0.6768170   2.3872017  )
        14           C   tau(  14) = (   0.0003705   0.8692143   2.3829758  )
        15           C   tau(  15) = (   0.1668213   0.5806199   2.3868163  )
        16           C   tau(  16) = (   0.1671458   0.9654808   2.3827998  )
        17           C   tau(  17) = (   0.3336031   0.6768600   2.3840505  )
        18           C   tau(  18) = (   0.3335861   0.8693009   2.3828900  )
        19           C   tau(  19) = (   0.5003895   0.5806735   2.3843175  )
        20           C   tau(  20) = (   0.5004091   0.9655913   2.3819279  )
        21           C   tau(  21) = (   0.6671518   0.6768504   2.3841477  )
        22           C   tau(  22) = (   0.6671644   0.8692819   2.3832393  )
        23           C   tau(  23) = (   0.8339022   0.5806086   2.3869446  )
        24           C   tau(  24) = (   0.8336023   0.9654704   2.3831168  )
        25           C   tau(  25) = (   0.0004181   1.2541496   2.3826128  )
        26           C   tau(  26) = (   0.0003993   1.4466513   2.3825401  )
        27           C   tau(  27) = (   0.1671589   1.1579558   2.3821526  )
        28           C   tau(  28) = (   0.1673137   1.5428735   2.3850149  )
        29           C   tau(  29) = (   0.3339620   1.2542045   2.3853071  )
        30           C   tau(  30) = (   0.3338989   1.4466168   2.3880294  )
        31           C   tau(  31) = (   0.5004018   1.1580276   2.3849937  )
        32           C   tau(  32) = (   0.5004021   1.5428398   2.3904590  )
        33           C   tau(  33) = (   0.6668434   1.2542120   2.3856468  )
        34           C   tau(  34) = (   0.6668966   1.4466375   2.3882526  )
        35           C   tau(  35) = (   0.8336471   1.1579389   2.3824963  )
        36           C   tau(  36) = (   0.8335007   1.5428799   2.3852986  )
        37           C   tau(  37) = (   0.0003615   1.8316508   2.3835264  )
        38           C   tau(  38) = (   0.0003333   2.0241360   2.3864695  )
        39           C   tau(  39) = (   0.1672436   1.7353275   2.3855411  )
        40           C   tau(  40) = (   0.1669289   2.1203047   2.3860356  )
        41           C   tau(  41) = (   0.3337845   1.8314735   2.3877347  )
        42           C   tau(  42) = (   0.3337475   2.0239656   2.3853679  )
        43           C   tau(  43) = (   0.5003620   1.7352461   2.3894686  )
        44           C   tau(  44) = (   0.5003277   2.1201495   2.3841265  )
        45           C   tau(  45) = (   0.6669386   1.8314724   2.3878035  )
        46           C   tau(  46) = (   0.6669171   2.0239714   2.3854075  )
        47           C   tau(  47) = (   0.8334847   1.7353460   2.3856745  )
        48           C   tau(  48) = (   0.8337301   2.1203065   2.3860703  )
        49           C_h tau(  49) = (   0.4817526   0.9548742   3.3884182  )
        50           O   tau(  50) = (   0.3804061   1.0742193   3.3884182  )

     number of k points=     6  gaussian smearing, width (Ry)=  0.1000
                       cart. coord. in units 2pi/alat
        k(    1) = (   0.0000000   0.0000000   0.0000000), wk =   0.2500000
        k(    2) = (   0.0000000  -0.2165064   0.0000000), wk =   0.2500000
        k(    3) = (   0.2500000   0.0000000   0.0000000), wk =   0.5000000
        k(    4) = (   0.2500000  -0.2165064   0.0000000), wk =   0.5000000
        k(    5) = (  -0.5000000   0.0000000   0.0000000), wk =   0.2500000
        k(    6) = (  -0.5000000  -0.2165064   0.0000000), wk =   0.2500000

     Dense  grid:  2050409 G-vectors     FFT dimensions: (  80, 192, 270)

     Largest allocated arrays     est. size (Mb)     dimensions
        Kohn-Sham Wavefunctions        16.93 Mb     (    9171,  121)
        NL pseudopotentials             7.98 Mb     (    9171,   57)
        Each V/rho on FFT grid          2.34 Mb     (  153600)
        Each G-vector array             0.56 Mb     (   73230)
        G-vector shells                 0.27 Mb     (   35784)
     Largest temporary arrays     est. size (Mb)     dimensions
        Auxiliary wavefunctions        67.73 Mb     (    9171,  484)
        Each subspace H/S matrix        0.40 Mb     (     161,  161)
        Each <psi_i|beta_j> matrix      0.11 Mb     (      57,  121)
        Arrays for rho mixing          18.75 Mb     (  153600,    8)

     Initial potential from superposition of free atoms

     starting charge  177.49994, renormalised to  202.00000

     negative rho (up, down):  9.824E-05 0.000E+00
     Starting wfc are  396 randomized atomic wfcs

     total cpu time spent up to now is       29.8 secs

     Self-consistent Calculation

     iteration #  1     ecut=    80.00 Ry     beta=0.70
     Davidson diagonalization with overlap
     ethr =  1.00E-04,  avg # of iterations =  6.2

     negative rho (up, down):  3.591E-02 0.000E+00

     total cpu time spent up to now is      145.4 secs

     total energy              =    -597.48659041 Ry
     Harris-Foulkes estimate   =    -600.15494067 Ry
     estimated scf accuracy    <       7.66177456 Ry

     iteration #  2     ecut=    80.00 Ry     beta=0.70
     Davidson diagonalization with overlap
     ethr =  3.79E-03,  avg # of iterations =  3.0

     negative rho (up, down):  2.261E-02 0.000E+00

     total cpu time spent up to now is      195.1 secs

     total energy              =    -598.44855550 Ry
     Harris-Foulkes estimate   =    -598.81379229 Ry
     estimated scf accuracy    <       1.36998775 Ry

     iteration #  3     ecut=    80.00 Ry     beta=0.70
     Davidson diagonalization with overlap
     ethr =  6.78E-04,  avg # of iterations =  2.8

     negative rho (up, down):  2.152E-02 0.000E+00

     total cpu time spent up to now is      238.0 secs

     total energy              =    -598.54300049 Ry
     Harris-Foulkes estimate   =    -598.60157102 Ry
     estimated scf accuracy    <       0.18743770 Ry

     iteration #  4     ecut=    80.00 Ry     beta=0.70
     Davidson diagonalization with overlap
     ethr =  9.28E-05,  avg # of iterations =  2.0

     negative rho (up, down):  1.330E-02 0.000E+00

     total cpu time spent up to now is      272.9 secs

     total energy              =    -598.54117408 Ry
     Harris-Foulkes estimate   =    -598.55288148 Ry
     estimated scf accuracy    <       0.03201690 Ry

     iteration #  5     ecut=    80.00 Ry     beta=0.70
     Davidson diagonalization with overlap
     c_bands:  2 eigenvalues not converged
     ethr =  1.58E-05,  avg # of iterations =  8.2

     negative rho (up, down):  7.372E-05 0.000E+00

     total cpu time spent up to now is      313.4 secs

     total energy              =    -598.53986555 Ry
     Harris-Foulkes estimate   =    -598.54333885 Ry
     estimated scf accuracy    <       0.01174328 Ry

     iteration #  6     ecut=    80.00 Ry     beta=0.70
     Davidson diagonalization with overlap
     c_bands:  2 eigenvalues not converged
     ethr =  5.81E-06,  avg # of iterations = 10.5

     total cpu time spent up to now is      355.3 secs

     total energy              =    -598.53917794 Ry
     Harris-Foulkes estimate   =    -598.54110245 Ry
     estimated scf accuracy    <       0.00772285 Ry

     iteration #  7     ecut=    80.00 Ry     beta=0.70
     Davidson diagonalization with overlap
     ethr =  3.82E-06,  avg # of iterations =  2.3

     negative rho (up, down):  1.005E-02 0.000E+00

     total cpu time spent up to now is      392.7 secs

     total energy              =    -598.54013120 Ry
     Harris-Foulkes estimate   =    -598.54073316 Ry
     estimated scf accuracy    <       0.00939992 Ry

     iteration #  8     ecut=    80.00 Ry     beta=0.70
     Davidson diagonalization with overlap
     ethr =  3.82E-06,  avg # of iterations =  6.0

     negative rho (up, down):  1.255E-02 0.000E+00

     total cpu time spent up to now is      431.3 secs

     total energy              =    -598.54053809 Ry
     Harris-Foulkes estimate   =    -598.54043528 Ry
     estimated scf accuracy    <       0.00133175 Ry

     iteration #  9     ecut=    80.00 Ry     beta=0.70
     Davidson diagonalization with overlap
     ethr =  6.59E-07,  avg # of iterations =  3.8

     negative rho (up, down):  1.232E-02 0.000E+00

     total cpu time spent up to now is      471.8 secs

     total energy              =    -598.54058209 Ry
     Harris-Foulkes estimate   =    -598.54055623 Ry
     estimated scf accuracy    <       0.00092951 Ry

     iteration # 10     ecut=    80.00 Ry     beta=0.70
     Davidson diagonalization with overlap
     ethr =  4.60E-07,  avg # of iterations =  3.5

     negative rho (up, down):  3.064E-03 0.000E+00

     total cpu time spent up to now is      516.8 secs

     total energy              =    -598.54065594 Ry
     Harris-Foulkes estimate   =    -598.54063793 Ry
     estimated scf accuracy    <       0.00013309 Ry

     iteration # 11     ecut=    80.00 Ry     beta=0.70
     Davidson diagonalization with overlap
     ethr =  6.59E-08,  avg # of iterations =  4.2

     negative rho (up, down):  1.823E-03 0.000E+00

     total cpu time spent up to now is      573.3 secs

     total energy              =    -598.54067727 Ry
     Harris-Foulkes estimate   =    -598.54066969 Ry
     estimated scf accuracy    <       0.00005711 Ry

     iteration # 12     ecut=    80.00 Ry     beta=0.70
     Davidson diagonalization with overlap
     ethr =  2.83E-08,  avg # of iterations =  2.0

     negative rho (up, down):  8.823E-04 0.000E+00

     total cpu time spent up to now is      623.1 secs

     total energy              =    -598.54069386 Ry
     Harris-Foulkes estimate   =    -598.54068071 Ry
     estimated scf accuracy    <       0.00000568 Ry

     iteration # 13     ecut=    80.00 Ry     beta=0.70
     Davidson diagonalization with overlap
     ethr =  2.81E-09,  avg # of iterations =  4.8

     negative rho (up, down):  4.523E-04 0.000E+00

     total cpu time spent up to now is      687.8 secs

     total energy              =    -598.54069454 Ry
     Harris-Foulkes estimate   =    -598.54069434 Ry
     estimated scf accuracy    <       0.00000088 Ry

     iteration # 14     ecut=    80.00 Ry     beta=0.70
     Davidson diagonalization with overlap
     ethr =  4.36E-10,  avg # of iterations =  2.5

     negative rho (up, down):  1.004E-04 0.000E+00

     total cpu time spent up to now is      751.0 secs

     total energy              =    -598.54069445 Ry
     Harris-Foulkes estimate   =    -598.54069466 Ry
     estimated scf accuracy    <       0.00000016 Ry

     iteration # 15     ecut=    80.00 Ry     beta=0.70
     Davidson diagonalization with overlap
     ethr =  8.11E-11,  avg # of iterations =  3.0

     negative rho (up, down):  4.534E-05 0.000E+00

     total cpu time spent up to now is      847.9 secs

     total energy              =    -598.54069446 Ry
     Harris-Foulkes estimate   =    -598.54069447 Ry
     estimated scf accuracy    <       0.00000001 Ry

     iteration # 16     ecut=    80.00 Ry     beta=0.70
     Davidson diagonalization with overlap
     ethr =  6.98E-12,  avg # of iterations =  3.7

     negative rho (up, down):  2.173E-05 0.000E+00

     total cpu time spent up to now is      877.0 secs

     End of self-consistent calculation

          k = 0.0000 0.0000 0.0000 (256287 PWs)   bands (ev):

   -30.8148 -23.9109 -23.5399 -23.5392 -22.4363 -22.4359 -21.9527 -21.9511
   -21.5914 -21.5904 -21.5896 -21.5891 -20.6410 -20.6401 -20.5247 -20.5241
   -20.5228 -20.5221 -18.8348 -18.8341 -18.8337 -18.8329 -18.6259 -17.6324
   -16.9531 -16.9528 -16.9521 -16.9511 -16.0765 -16.0753 -16.0748 -16.0743
   -15.1702 -15.0869 -15.0856 -15.0125 -15.0121 -15.0117 -15.0111 -14.9957
   -14.9951 -13.4589 -13.4580 -13.4575 -13.4567 -13.2976 -13.2970 -13.2965
   -13.2958 -12.5877 -12.5858 -12.1537 -12.1520 -11.9856 -11.8213 -11.8212
   -11.5448 -11.5442 -11.0152 -11.0146 -11.0137 -11.0129 -10.8683 -10.8497
   -10.8493 -10.6847 -10.5056 -10.5036 -10.2538 -10.2534 -10.1986 -10.1983
   -10.1978 -10.1971  -9.6926  -9.6911  -9.4942  -9.4940  -9.2920  -9.2914
    -9.2906  -9.2903  -8.8422  -8.8412  -8.2723  -8.2714  -8.1840  -8.1824
    -8.1338  -8.1331  -8.1328  -8.1322  -7.4787  -7.4775  -6.7232  -6.3780
    -6.3779  -6.3772  -6.3764  -4.3559  -4.3545  -4.3533  -4.3528  -3.9353
    -3.9349  -2.6449  -2.4319  -2.4292  -2.4286  -2.4277  -0.6135  -0.6123
    -0.6092  -0.6075  -0.5384  -0.5369  -0.4782   0.0164   0.0338   0.6327
     1.1266

          k = 0.0000-0.2165 0.0000 (256176 PWs)   bands (ev):

   -30.8148 -23.8214 -23.8144 -23.0780 -23.0777 -21.8654 -21.8639 -21.8585
   -21.8569 -21.6207 -21.6195 -21.1470 -21.1458 -21.1387 -21.1368 -19.7489
   -19.7486 -19.7454 -19.7435 -19.5258 -19.5236 -17.8435 -17.8427 -17.8425
   -17.8410 -16.6001 -16.5975 -16.4431 -16.4428 -16.4396 -16.4389 -15.6142
   -15.6129 -15.6128 -15.6122 -15.1702 -14.4395 -14.4388 -14.4352 -14.4342
   -14.2874 -14.2870 -14.2772 -14.2749 -13.4690 -13.4684 -12.6326 -12.6312
   -12.6290 -12.6274 -12.5877 -12.5858 -12.0770 -12.0762 -12.0715 -12.0706
   -11.8793 -11.8698 -11.0005 -11.0002 -10.7793 -10.7731 -10.6847 -10.5232
   -10.5225 -10.5194 -10.5190 -10.3441 -10.3433 -10.3344 -10.3334 -10.2343
   -10.2326 -10.0682 -10.0672  -9.5961  -9.5947  -9.5869  -9.5854  -9.3267
    -9.3257  -8.8372  -8.8348  -8.8042  -8.8032  -8.7976  -8.7965  -7.8496
    -7.8445  -7.6775  -7.6721  -7.3178  -7.3173  -7.3111  -7.3105  -7.2451
    -7.2389  -5.3730  -5.3724  -5.3720  -5.3714  -3.9353  -3.9349  -3.3704
    -3.3687  -3.3681  -3.3671  -1.9856  -1.9788  -1.5237  -1.5196  -1.5151
    -1.5132  -0.3838  -0.3181   0.2848   0.2881   0.2931   0.2972   0.6141
     0.6478

          k = 0.2500 0.0000 0.0000 (256240 PWs)   bands (ev):

   -30.8148 -23.7870 -23.4166 -23.4158 -22.8022 -22.4365 -22.4359 -22.3147
   -22.3142 -21.3520 -21.3515 -20.8778 -20.5245 -20.5238 -20.5234 -20.5230
   -19.6050 -19.6042 -19.4972 -19.4967 -18.5213 -18.2072 -18.2064 -18.1950
   -17.6821 -17.5279 -17.2294 -17.2285 -16.8300 -16.5754 -16.5748 -16.0209
   -15.1703 -15.0128 -15.0124 -15.0119 -15.0109 -14.8983 -14.8967 -14.4324
   -14.1613 -13.5974 -13.3974 -13.3967 -13.3841 -13.3830 -12.6588 -12.6578
   -12.5876 -12.5859 -12.1535 -11.8502 -11.8423 -11.8335 -11.8205 -11.8183
   -11.3988 -11.3984 -11.3850 -11.0970 -11.0962 -11.0156 -11.0142 -11.0139
   -11.0129 -10.9105 -10.9098 -10.6845 -10.6769 -10.6250 -10.2535 -10.2531
   -10.1115 -10.1110  -9.9612  -9.9607  -9.5831  -9.4945  -9.4936  -9.1418
    -9.1405  -9.0144  -9.0141  -8.4956  -8.4938  -8.4761  -8.1344  -8.1336
    -8.1332  -8.1329  -7.9562  -7.7460  -7.2072  -7.2065  -7.0958  -7.0951
    -6.5727  -6.1238  -6.1231  -5.6596  -5.3802  -3.9351  -3.9337  -3.3995
    -3.0611  -2.8851  -2.8832  -2.6882  -1.9928  -1.9919  -1.5311  -1.5290
    -0.6117  -0.6107  -0.6094  -0.6089  -0.3108   0.1721   0.1980   0.2071
     0.8616

          k = 0.2500-0.2165 0.0000 (256316 PWs)   bands (ev):

   -30.8148 -23.6976 -23.6906 -22.9555 -22.9552 -22.7138 -22.7068 -21.9817
   -21.9814 -21.5012 -21.5000 -20.7923 -20.7854 -20.5551 -20.5539 -20.0885
   -20.0881 -19.4145 -19.4122 -18.7939 -18.7926 -18.5376 -18.5354 -18.1563
   -18.1499 -17.1069 -17.1064 -16.5881 -16.5849 -16.5062 -16.5036 -15.9477
   -15.9450 -15.8564 -15.8550 -15.1703 -14.1351 -14.1317 -14.1075 -14.1068
   -13.9924 -13.9861 -13.7649 -13.7611 -13.4290 -13.4284 -12.6351 -12.6333
   -12.5876 -12.5859 -12.3092 -12.3085 -11.7325 -11.7230 -11.6753 -11.6716
   -11.6286 -11.6279 -11.2946 -11.2882 -11.0475 -11.0438 -10.8562 -10.8560
   -10.6967 -10.6955 -10.6845 -10.5756 -10.5702 -10.5634 -10.5596 -10.3630
   -10.3615 -10.0774 -10.0758  -9.7309  -9.7307  -9.4334  -9.4300  -9.2443
    -9.2422  -9.1873  -9.1863  -8.3944  -8.3854  -8.3017  -8.3003  -8.1240
    -8.1230  -7.9219  -7.9208  -7.7268  -7.7264  -7.1032  -7.0970  -6.6390
    -6.6380  -6.0285  -6.0236  -5.7803  -5.7732  -3.9351  -3.9337  -3.0362
    -3.0301  -2.7174  -2.7123  -2.5358  -2.5346  -2.0313  -2.0247  -1.3172
    -1.3161  -0.3099  -0.3077  -0.2180  -0.1524  -0.0374  -0.0306   0.7797
     0.8152

          k =-0.5000 0.0000 0.0000 (256496 PWs)   bands (ev):

   -30.8148 -23.4165 -23.4162 -23.0477 -23.0471 -23.0468 -23.0466 -21.9525
   -21.9520 -21.9515 -21.9514 -20.1769 -20.1765 -20.1759 -20.1757 -19.6047
   -19.6044 -19.2750 -19.2746 -19.2740 -19.2737 -18.6269 -18.6262 -18.2061
   -18.2058 -17.6324 -17.6318 -17.2295 -17.2292 -16.3923 -16.3919 -16.3915
   -16.3910 -15.1703 -14.8981 -14.8978 -14.8301 -14.8293 -14.8275 -14.8274
   -13.3841 -13.3838 -12.6585 -12.6584 -12.5876 -12.5860 -12.2411 -12.2407
   -12.2396 -12.2390 -12.1544 -12.1532 -12.1529 -12.1522 -11.8631 -11.8628
   -11.8623 -11.8614 -11.3991 -11.3984 -10.9647 -10.9645 -10.9641 -10.9639
   -10.8683 -10.8675 -10.8500 -10.8495 -10.8489 -10.8480 -10.6844 -10.2609
   -10.2603 -10.2600 -10.2590  -9.6922  -9.6917  -9.6914  -9.6913  -9.1409
    -9.1408  -8.9497  -8.9486  -8.9483  -8.9477  -8.4947  -8.4942  -7.7289
    -7.7285  -7.7281  -7.7277  -7.0960  -7.0955  -6.9243  -6.9240  -6.9237
    -6.9231  -6.7233  -6.7226  -6.1234  -6.1230  -3.9353  -3.9322  -2.8848
    -2.8846  -2.6448  -2.6438  -2.1011  -2.1006  -2.0994  -2.0986  -1.5297
    -1.5293  -0.8972  -0.8966  -0.8950  -0.8947   0.1796   0.1941   0.6717
     0.6893

          k =-0.5000-0.2165 0.0000 (256328 PWs)   bands (ev):

   -30.8148 -23.3308 -23.3290 -23.3183 -23.3170 -22.5889 -22.5885 -22.5883
   -22.5882 -21.1446 -21.1442 -21.1433 -21.1431 -19.5240 -19.5237 -19.5173
   -19.5168 -19.0842 -19.0826 -19.0783 -19.0773 -18.9035 -18.9031 -18.8998
   -18.8989 -17.2082 -17.2076 -17.2041 -17.2034 -16.2442 -16.2433 -16.2411
   -16.2410 -15.4816 -15.4813 -15.4780 -15.4778 -15.1703 -13.4094 -13.4089
   -13.4083 -13.4081 -12.7869 -12.7866 -12.7834 -12.7828 -12.5876 -12.5860
   -12.5585 -12.5581 -12.5520 -12.5516 -11.6886 -11.6883 -11.6877 -11.6874
   -11.2973 -11.2947 -11.2854 -11.2828 -11.1461 -11.1457 -11.1419 -11.1406
   -11.1388 -11.1377 -11.1366 -11.1362 -10.6844 -10.4283 -10.4279 -10.4277
   -10.4276  -9.8193  -9.8185  -9.8170  -9.8168  -9.5173  -9.5158  -9.5090
    -9.5073  -8.7771  -8.7767  -8.7763  -8.7760  -8.5309  -8.5304  -8.5253
    -8.5241  -7.0522  -7.0519  -7.0439  -7.0430  -6.7900  -6.7893  -6.7823
    -6.7812  -6.6865  -6.6841  -6.6769  -6.6753  -3.9353  -3.9322  -2.4903
    -2.4894  -2.4822  -2.4813  -2.2318  -2.2315  -2.2244  -2.2236  -1.7048
    -1.7045  -1.6979  -1.6974   0.2697   0.2928   0.3456   0.3478   0.5844
     0.5851

     the Fermi energy is    -4.7259 ev

!    total energy              =    -598.54069451 Ry
     Harris-Foulkes estimate   =    -598.54069446 Ry
     estimated scf accuracy    <          2.8E-09 Ry

     The total energy is the sum of the following terms:

     one-electron contribution =   -6900.17105241 Ry
     hartree contribution      =    3465.43431724 Ry
     xc contribution           =    -179.41642414 Ry
     ewald contribution        =    3016.07446931 Ry
     Dispersion Correction     =      -0.19143823 Ry
     smearing contrib. (-TS)   =      -0.27056629 Ry

     convergence has been achieved in  16 iterations

     Writing output data file gc.save
 
     init_run     :     25.84s CPU     29.60s WALL (       1 calls)
     electrons    :    735.68s CPU    847.48s WALL (       1 calls)

     Called by init_run:
     wfcinit      :     23.06s CPU     26.37s WALL (       1 calls)
     potinit      :      0.99s CPU      1.03s WALL (       1 calls)

     Called by electrons:
     c_bands      :    297.66s CPU    352.37s WALL (      16 calls)
     sum_band     :     60.50s CPU     69.67s WALL (      16 calls)
     v_of_rho     :      1.94s CPU      2.47s WALL (      17 calls)
     newd         :      2.44s CPU      6.35s WALL (      17 calls)
     mix_rho      :    373.19s CPU    416.80s WALL (      16 calls)

     Called by c_bands:
     init_us_2    :      1.14s CPU      1.52s WALL (     198 calls)
     cegterg      :    295.21s CPU    348.99s WALL (      96 calls)

     Called by sum_band:
     sum_band:bec :      0.01s CPU      0.02s WALL (      96 calls)
     addusdens    :      5.29s CPU      8.87s WALL (      16 calls)

     Called by *egterg:
     h_psi        :    217.93s CPU    248.58s WALL (     513 calls)
     s_psi        :      5.12s CPU      5.53s WALL (     513 calls)
     g_psi        :      0.99s CPU      1.03s WALL (     411 calls)
     cdiaghg      :     18.14s CPU     20.32s WALL (     507 calls)

     Called by h_psi:
     add_vuspsi   :      5.38s CPU      5.78s WALL (     513 calls)

     General routines
     calbec       :      6.72s CPU      7.08s WALL (     609 calls)
     fft          :      1.68s CPU      2.08s WALL (     220 calls)
     ffts         :    157.77s CPU    189.91s WALL (   24041 calls)
     fftw         :    204.33s CPU    232.32s WALL (   69976 calls)
     davcio       :      0.10s CPU      1.25s WALL (       6 calls)
 
     Parallel routines
     fft_scatter  :    196.66s CPU    232.74s WALL (   94237 calls)
 
     PWSCF        : 12m41.95s CPU    14m39.10s WALL

 
   This run was terminated on:  13:50:55   7Nov2017            

=------------------------------------------------------------------------------=
   JOB DONE.
=------------------------------------------------------------------------------=
