
     Program PWSCF v.5.4.0 starts on 24Nov2016 at  8:26:25 

     This program is part of the open-source Quantum ESPRESSO suite
     for quantum simulation of materials; please cite
         "P. Giannozzi et al., J. Phys.:Condens. Matter 21 395502 (2009);
          URL http://www.quantum-espresso.org", 
     in publications or presentations arising from this work. More details at
     http://www.quantum-espresso.org/quote

     Parallel version (MPI & OpenMP), running on      64 processor cores
     Number of MPI processes:                64
     Threads/MPI process:                     1
     R & G space division:  proc/nbgrp/npool/nimage =      64
     Waiting for input...
     Reading input from standard input

     Current dimensions of program PWSCF are:
     Max number of different atomic species (ntypx) = 10
     Max number of k-points (npk) =  40000
     Max angular momentum in pseudopotentials (lmaxx) =  3

     -------------------------------------
     Parameters for Dispersion Correction:
     -------------------------------------
       atom      VdW radius       C_6     

        Cu         2.952        374.666

     Subspace diagonalization in iterative solution of the eigenvalue problem:
     one sub-group per band group will be used
     scalapack distributed-memory algorithm (size of sub-group:  5*  5 procs)

     Found symmetry operation: I + (  0.0000  0.2000  0.0000)
     This is a supercell, fractional translations are disabled
 
     Parallelization info
     --------------------
     sticks:   dense  smooth     PW     G-vecs:    dense   smooth      PW
     Min         178     178     47                32032    32032    4341
     Max         179     179     48                32043    32043    4347
     Sum       11433   11433   3039              2050409  2050409  278033
 


     bravais-lattice index     =            0
     lattice parameter (alat)  =      13.9425  a.u.
     unit-cell volume          =   21209.0878 (a.u.)^3
     number of atoms/cell      =          100
     number of atomic types    =            1
     number of electrons       =      1100.00
     number of Kohn-Sham states=          660
     kinetic-energy cutoff     =      80.0000  Ry
     charge density cutoff     =     320.0000  Ry
     convergence threshold     =      1.0E-08
     mixing beta               =       0.7000
     number of iterations used =            8  plain     mixing
     Exchange-correlation      =  SLA  PW   PBE  PBE ( 1  4  3  4 0 0)
     nstep                     =           50


     celldm(1)=  13.942539  celldm(2)=   0.000000  celldm(3)=   0.000000
     celldm(4)=   0.000000  celldm(5)=   0.000000  celldm(6)=   0.000000

     crystal axes: (cart. coord. in units of alat)
               a(1) = (   1.000000   0.000000   0.000000 )  
               a(2) = (   0.000000   2.309401   0.000000 )  
               a(3) = (   0.000000   0.000000   3.388418 )  

     reciprocal axes: (cart. coord. in units 2 pi/alat)
               b(1) = (  1.000000  0.000000  0.000000 )  
               b(2) = (  0.000000  0.433013  0.000000 )  
               b(3) = (  0.000000  0.000000  0.295123 )  


     PseudoPot. # 1 for Cu read from file:
     /home/549/hxw549/Short/pseudopotentials/Cu.pbe-n-van_ak.UPF
     MD5 check sum: 601f7c30f7467666bec936e0661ce3e1
     Pseudo is Ultrasoft + core correction, Zval = 11.0
     Generated by new atomic code, or converted to UPF format
     Using radial grid of  867 points,  6 beta functions with: 
                l(1) =   0
                l(2) =   0
                l(3) =   1
                l(4) =   1
                l(5) =   2
                l(6) =   2
     Q(r) pseudized with  8 coefficients,  rinner =    1.400   1.400   1.400
                                                       1.400   1.400

     atomic species   valence    mass     pseudopotential
        Cu            11.00    63.54600     Cu( 1.00)

      4 Sym. Ops. (no inversion) found



   Cartesian axes

     site n.     atom                  positions (alat units)
         1           Cu  tau(   1) = (   0.0000000   0.0000000   0.9933657  )
         2           Cu  tau(   2) = (   0.2499971   0.2309471   0.9933663  )
         3           Cu  tau(   3) = (   0.5000000   0.0000000   0.9933633  )
         4           Cu  tau(   4) = (   0.7500029   0.2309471   0.9933663  )
         5           Cu  tau(   5) = (   0.0000000   0.4618892   0.9933717  )
         6           Cu  tau(   6) = (   0.2499940   0.6928207   0.9933639  )
         7           Cu  tau(   7) = (   0.5000000   0.4618881   0.9933675  )
         8           Cu  tau(   8) = (   0.7500060   0.6928207   0.9933639  )
         9           Cu  tau(   9) = (   0.0000000   0.9237570   0.9933597  )
        10           Cu  tau(  10) = (   0.2499910   1.1547005   0.9933533  )
        11           Cu  tau(  11) = (   0.5000000   0.9237573   0.9933556  )
        12           Cu  tau(  12) = (   0.7500090   1.1547005   0.9933533  )
        13           Cu  tau(  13) = (   0.0000000   1.3856441   0.9933597  )
        14           Cu  tau(  14) = (   0.2499940   1.6165804   0.9933639  )
        15           Cu  tau(  15) = (   0.5000000   1.3856437   0.9933556  )
        16           Cu  tau(  16) = (   0.7500060   1.6165804   0.9933639  )
        17           Cu  tau(  17) = (   0.0000000   1.8475119   0.9933717  )
        18           Cu  tau(  18) = (   0.2499971   2.0784540   0.9933663  )
        19           Cu  tau(  19) = (   0.5000000   1.8475130   0.9933675  )
        20           Cu  tau(  20) = (   0.7500029   2.0784540   0.9933663  )
        21           Cu  tau(  21) = (   0.0000000   0.2309453   1.2416120  )
        22           Cu  tau(  22) = (   0.2499978   0.0000000   1.2416117  )
        23           Cu  tau(  23) = (   0.5000000   0.2309452   1.2416106  )
        24           Cu  tau(  24) = (   0.7500022   0.0000000   1.2416117  )
        25           Cu  tau(  25) = (   0.0000000   0.6928180   1.2416064  )
        26           Cu  tau(  26) = (   0.2499952   0.4618844   1.2416082  )
        27           Cu  tau(  27) = (   0.5000000   0.6928179   1.2416045  )
        28           Cu  tau(  28) = (   0.7500048   0.4618844   1.2416082  )
        29           Cu  tau(  29) = (   0.0000000   1.1547005   1.2416005  )
        30           Cu  tau(  30) = (   0.2499909   0.9237558   1.2416000  )
        31           Cu  tau(  31) = (   0.5000000   1.1547005   1.2415985  )
        32           Cu  tau(  32) = (   0.7500091   0.9237558   1.2416000  )
        33           Cu  tau(  33) = (   0.0000000   1.6165831   1.2416064  )
        34           Cu  tau(  34) = (   0.2499909   1.3856453   1.2416000  )
        35           Cu  tau(  35) = (   0.5000000   1.6165832   1.2416045  )
        36           Cu  tau(  36) = (   0.7500091   1.3856453   1.2416000  )
        37           Cu  tau(  37) = (   0.0000000   2.0784558   1.2416120  )
        38           Cu  tau(  38) = (   0.2499952   1.8475166   1.2416082  )
        39           Cu  tau(  39) = (   0.5000000   2.0784559   1.2416106  )
        40           Cu  tau(  40) = (   0.7500048   1.8475166   1.2416082  )
        41           Cu  tau(  41) = (   0.0000000   0.0000000   1.4909040  )
        42           Cu  tau(  42) = (   0.2499968   0.2309463   1.4909040  )
        43           Cu  tau(  43) = (   0.5000000   0.0000000   1.4909040  )
        44           Cu  tau(  44) = (   0.7500032   0.2309463   1.4909040  )
        45           Cu  tau(  45) = (   0.0000000   0.4618838   1.4909040  )
        46           Cu  tau(  46) = (   0.2499930   0.6928153   1.4909040  )
        47           Cu  tau(  47) = (   0.5000000   0.4618832   1.4909040  )
        48           Cu  tau(  48) = (   0.7500070   0.6928153   1.4909040  )
        49           Cu  tau(  49) = (   0.0000000   0.9237541   1.4909040  )
        50           Cu  tau(  50) = (   0.2499898   1.1547005   1.4909040  )
        51           Cu  tau(  51) = (   0.5000000   0.9237537   1.4909040  )
        52           Cu  tau(  52) = (   0.7500102   1.1547005   1.4909040  )
        53           Cu  tau(  53) = (   0.0000000   1.3856470   1.4909040  )
        54           Cu  tau(  54) = (   0.2499930   1.6165858   1.4909040  )
        55           Cu  tau(  55) = (   0.5000000   1.3856474   1.4909040  )
        56           Cu  tau(  56) = (   0.7500070   1.6165858   1.4909040  )
        57           Cu  tau(  57) = (   0.0000000   1.8475173   1.4909040  )
        58           Cu  tau(  58) = (   0.2499968   2.0784548   1.4909040  )
        59           Cu  tau(  59) = (   0.5000000   1.8475179   1.4909040  )
        60           Cu  tau(  60) = (   0.7500032   2.0784548   1.4909040  )
        61           Cu  tau(  61) = (   0.0000000   0.2309453   1.7401962  )
        62           Cu  tau(  62) = (   0.2499978   0.0000000   1.7401965  )
        63           Cu  tau(  63) = (   0.5000000   0.2309452   1.7401976  )
        64           Cu  tau(  64) = (   0.7500022   0.0000000   1.7401965  )
        65           Cu  tau(  65) = (   0.0000000   0.6928180   1.7402017  )
        66           Cu  tau(  66) = (   0.2499952   0.4618844   1.7402000  )
        67           Cu  tau(  67) = (   0.5000000   0.6928179   1.7402037  )
        68           Cu  tau(  68) = (   0.7500048   0.4618844   1.7402000  )
        69           Cu  tau(  69) = (   0.0000000   1.1547005   1.7402077  )
        70           Cu  tau(  70) = (   0.2499909   0.9237558   1.7402081  )
        71           Cu  tau(  71) = (   0.5000000   1.1547005   1.7402096  )
        72           Cu  tau(  72) = (   0.7500091   0.9237558   1.7402081  )
        73           Cu  tau(  73) = (   0.0000000   1.6165831   1.7402017  )
        74           Cu  tau(  74) = (   0.2499909   1.3856453   1.7402081  )
        75           Cu  tau(  75) = (   0.5000000   1.6165832   1.7402037  )
        76           Cu  tau(  76) = (   0.7500091   1.3856453   1.7402081  )
        77           Cu  tau(  77) = (   0.0000000   2.0784558   1.7401962  )
        78           Cu  tau(  78) = (   0.2499952   1.8475166   1.7402000  )
        79           Cu  tau(  79) = (   0.5000000   2.0784559   1.7401976  )
        80           Cu  tau(  80) = (   0.7500048   1.8475166   1.7402000  )
        81           Cu  tau(  81) = (   0.0000000   0.0000000   1.9884443  )
        82           Cu  tau(  82) = (   0.2499971   0.2309471   1.9884437  )
        83           Cu  tau(  83) = (   0.5000000   0.0000000   1.9884466  )
        84           Cu  tau(  84) = (   0.7500029   0.2309471   1.9884437  )
        85           Cu  tau(  85) = (   0.0000000   0.4618892   1.9884383  )
        86           Cu  tau(  86) = (   0.2499940   0.6928207   1.9884461  )
        87           Cu  tau(  87) = (   0.5000000   0.4618881   1.9884425  )
        88           Cu  tau(  88) = (   0.7500060   0.6928207   1.9884461  )
        89           Cu  tau(  89) = (   0.0000000   0.9237570   1.9884502  )
        90           Cu  tau(  90) = (   0.2499910   1.1547005   1.9884567  )
        91           Cu  tau(  91) = (   0.5000000   0.9237573   1.9884544  )
        92           Cu  tau(  92) = (   0.7500090   1.1547005   1.9884567  )
        93           Cu  tau(  93) = (   0.0000000   1.3856441   1.9884502  )
        94           Cu  tau(  94) = (   0.2499940   1.6165804   1.9884461  )
        95           Cu  tau(  95) = (   0.5000000   1.3856437   1.9884544  )
        96           Cu  tau(  96) = (   0.7500060   1.6165804   1.9884461  )
        97           Cu  tau(  97) = (   0.0000000   1.8475119   1.9884383  )
        98           Cu  tau(  98) = (   0.2499971   2.0784540   1.9884437  )
        99           Cu  tau(  99) = (   0.5000000   1.8475130   1.9884425  )
       100           Cu  tau( 100) = (   0.7500029   2.0784540   1.9884437  )

     number of k points=     6  gaussian smearing, width (Ry)=  0.1000
                       cart. coord. in units 2pi/alat
        k(    1) = (   0.0000000   0.0000000   0.0000000), wk =   0.2500000
        k(    2) = (   0.0000000  -0.2165064   0.0000000), wk =   0.2500000
        k(    3) = (   0.2500000   0.0000000   0.0000000), wk =   0.5000000
        k(    4) = (   0.2500000  -0.2165064   0.0000000), wk =   0.5000000
        k(    5) = (  -0.5000000   0.0000000   0.0000000), wk =   0.2500000
        k(    6) = (  -0.5000000  -0.2165064   0.0000000), wk =   0.2500000

     Dense  grid:  2050409 G-vectors     FFT dimensions: (  80, 192, 270)

     Largest allocated arrays     est. size (Mb)     dimensions
        Kohn-Sham Wavefunctions        40.32 Mb     (    4004,  660)
        NL pseudopotentials           109.97 Mb     (    4004, 1800)
        Each V/rho on FFT grid          1.17 Mb     (   76800)
        Each G-vector array             0.24 Mb     (   32034)
        G-vector shells                 0.12 Mb     (   15554)
     Largest temporary arrays     est. size (Mb)     dimensions
        Auxiliary wavefunctions       161.29 Mb     (    4004, 2640)
        Each subspace H/S matrix        4.25 Mb     (     528,  528)
        Each <psi_i|beta_j> matrix     18.13 Mb     (    1800,  660)
        Arrays for rho mixing           9.38 Mb     (   76800,    8)

     Initial potential from superposition of free atoms
     Check: negative starting charge=   -0.002568

     starting charge 1098.81757, renormalised to 1100.00000

     negative rho (up, down):  2.571E-03 0.000E+00
     Starting wfc are  900 randomized atomic wfcs

     total cpu time spent up to now is       96.3 secs

     Self-consistent Calculation

     iteration #  1     ecut=    80.00 Ry     beta=0.70
     Davidson diagonalization with overlap
     ethr =  1.00E-04,  avg # of iterations = 14.0

     negative rho (up, down):  2.722E-03 0.000E+00

     total cpu time spent up to now is      687.6 secs

     total energy              =  -12123.42185471 Ry
     Harris-Foulkes estimate   =  -12155.46640201 Ry
     estimated scf accuracy    <      37.81492118 Ry

     iteration #  2     ecut=    80.00 Ry     beta=0.70
     Davidson diagonalization with overlap
     ethr =  3.44E-03,  avg # of iterations = 11.8

     total cpu time spent up to now is     1653.2 secs

     total energy              =  -11594.69387867 Ry
     Harris-Foulkes estimate   =  -12499.61092725 Ry
     estimated scf accuracy    <   28241.83875042 Ry

     iteration #  3     ecut=    80.00 Ry     beta=0.70
     Davidson diagonalization with overlap
     ethr =  3.44E-03,  avg # of iterations =  6.5

     total cpu time spent up to now is     2177.2 secs

     total energy              =  -12139.29366189 Ry
     Harris-Foulkes estimate   =  -12171.76024558 Ry
     estimated scf accuracy    <     108.90252422 Ry

     iteration #  4     ecut=    80.00 Ry     beta=0.70
     Davidson diagonalization with overlap
     ethr =  3.44E-03,  avg # of iterations =  3.2

     total cpu time spent up to now is     2468.0 secs

     total energy              =  -12150.06501274 Ry
     Harris-Foulkes estimate   =  -12152.20687890 Ry
     estimated scf accuracy    <      10.82988519 Ry

     iteration #  5     ecut=    80.00 Ry     beta=0.70
     Davidson diagonalization with overlap
     ethr =  9.85E-04,  avg # of iterations =  2.3

     total cpu time spent up to now is     2673.3 secs

     total energy              =  -12150.87404746 Ry
     Harris-Foulkes estimate   =  -12151.56484919 Ry
     estimated scf accuracy    <       4.11610140 Ry

     iteration #  6     ecut=    80.00 Ry     beta=0.70
     Davidson diagonalization with overlap
     ethr =  3.74E-04,  avg # of iterations =  5.0

     total cpu time spent up to now is     2907.7 secs

     total energy              =  -12150.60830518 Ry
     Harris-Foulkes estimate   =  -12151.83086550 Ry
     estimated scf accuracy    <      23.35370108 Ry

     iteration #  7     ecut=    80.00 Ry     beta=0.70
     Davidson diagonalization with overlap
     ethr =  3.74E-04,  avg # of iterations =  4.3

     total cpu time spent up to now is     3132.5 secs

     total energy              =  -12151.13036676 Ry
     Harris-Foulkes estimate   =  -12151.33494337 Ry
     estimated scf accuracy    <       2.28445128 Ry

     iteration #  8     ecut=    80.00 Ry     beta=0.70
     Davidson diagonalization with overlap
     ethr =  2.08E-04,  avg # of iterations =  5.5

     total cpu time spent up to now is     3369.0 secs

     total energy              =  -12151.00832318 Ry
     Harris-Foulkes estimate   =  -12151.44684549 Ry
     estimated scf accuracy    <       8.43583799 Ry

     iteration #  9     ecut=    80.00 Ry     beta=0.70
     Davidson diagonalization with overlap
     ethr =  2.08E-04,  avg # of iterations =  5.5

     total cpu time spent up to now is     3604.9 secs

     total energy              =  -12151.10843655 Ry
     Harris-Foulkes estimate   =  -12151.32463259 Ry
     estimated scf accuracy    <       4.56678745 Ry

     iteration # 10     ecut=    80.00 Ry     beta=0.70
     Davidson diagonalization with overlap
     ethr =  2.08E-04,  avg # of iterations =  1.0

     total cpu time spent up to now is     3788.2 secs

     total energy              =  -12151.18149314 Ry
     Harris-Foulkes estimate   =  -12151.24047311 Ry
     estimated scf accuracy    <       2.44203438 Ry

     iteration # 11     ecut=    80.00 Ry     beta=0.70
     Davidson diagonalization with overlap
     ethr =  2.08E-04,  avg # of iterations =  1.0

     total cpu time spent up to now is     3971.6 secs

     total energy              =  -12150.35631319 Ry
     Harris-Foulkes estimate   =  -12151.20760640 Ry
     estimated scf accuracy    <       1.62923091 Ry

     iteration # 12     ecut=    80.00 Ry     beta=0.70
     Davidson diagonalization with overlap
     ethr =  1.48E-04,  avg # of iterations = 10.0

     total cpu time spent up to now is     4469.4 secs

     total energy              =  -12149.76833936 Ry
     Harris-Foulkes estimate   =  -12151.76885742 Ry
     estimated scf accuracy    <      14.47090639 Ry

     iteration # 13     ecut=    80.00 Ry     beta=0.70
     Davidson diagonalization with overlap
     ethr =  1.48E-04,  avg # of iterations =  5.5

     total cpu time spent up to now is     4829.6 secs

     total energy              =  -12150.64291426 Ry
     Harris-Foulkes estimate   =  -12150.93113187 Ry
     estimated scf accuracy    <       0.98772035 Ry

     iteration # 14     ecut=    80.00 Ry     beta=0.70
     Davidson diagonalization with overlap
     ethr =  8.98E-05,  avg # of iterations =  2.0

     total cpu time spent up to now is     5034.9 secs

     total energy              =  -12150.72704715 Ry
     Harris-Foulkes estimate   =  -12150.91094509 Ry
     estimated scf accuracy    <       0.77497305 Ry

     iteration # 15     ecut=    80.00 Ry     beta=0.70
     Davidson diagonalization with overlap
     ethr =  7.05E-05,  avg # of iterations =  4.3

     total cpu time spent up to now is     5263.0 secs

     total energy              =  -12150.70624937 Ry
     Harris-Foulkes estimate   =  -12150.89402600 Ry
     estimated scf accuracy    <       0.91670641 Ry

     iteration # 16     ecut=    80.00 Ry     beta=0.70
     Davidson diagonalization with overlap
     ethr =  7.05E-05,  avg # of iterations =  6.0

     total cpu time spent up to now is     5528.2 secs

     total energy              =  -12150.40242595 Ry
     Harris-Foulkes estimate   =  -12151.20713721 Ry
     estimated scf accuracy    <      14.65351902 Ry

     iteration # 17     ecut=    80.00 Ry     beta=0.70
     Davidson diagonalization with overlap
     ethr =  7.05E-05,  avg # of iterations =  6.5

     negative rho (up, down):  3.378E-05 0.000E+00

     total cpu time spent up to now is     5792.1 secs

     total energy              =  -12150.73442398 Ry
     Harris-Foulkes estimate   =  -12150.90219276 Ry
     estimated scf accuracy    <       1.80382584 Ry

     iteration # 18     ecut=    80.00 Ry     beta=0.70
     Davidson diagonalization with overlap
     ethr =  7.05E-05,  avg # of iterations =  2.8

     negative rho (up, down):  2.652E-05 0.000E+00

     total cpu time spent up to now is     5995.5 secs

     total energy              =  -12150.79982131 Ry
     Harris-Foulkes estimate   =  -12150.83626565 Ry
     estimated scf accuracy    <       0.44041262 Ry

     iteration # 19     ecut=    80.00 Ry     beta=0.70
     Davidson diagonalization with overlap
     ethr =  4.00E-05,  avg # of iterations =  3.0

     negative rho (up, down):  1.016E-04 0.000E+00

     total cpu time spent up to now is     6201.2 secs

     total energy              =  -12150.79968690 Ry
     Harris-Foulkes estimate   =  -12150.84913918 Ry
     estimated scf accuracy    <       0.88466095 Ry

     iteration # 20     ecut=    80.00 Ry     beta=0.70
     Davidson diagonalization with overlap
     ethr =  4.00E-05,  avg # of iterations =  1.0

     negative rho (up, down):  1.303E-07 0.000E+00

     total cpu time spent up to now is     6385.1 secs

     total energy              =  -12150.81654487 Ry
     Harris-Foulkes estimate   =  -12150.82912966 Ry
     estimated scf accuracy    <       0.07470116 Ry

     iteration # 21     ecut=    80.00 Ry     beta=0.70
     Davidson diagonalization with overlap
     ethr =  6.79E-06,  avg # of iterations =  5.3

     negative rho (up, down):  4.900E-04 0.000E+00

     total cpu time spent up to now is     6623.4 secs

     total energy              =  -12150.82074213 Ry
     Harris-Foulkes estimate   =  -12150.82662091 Ry
     estimated scf accuracy    <       0.04028825 Ry

     iteration # 22     ecut=    80.00 Ry     beta=0.70
     Davidson diagonalization with overlap
     ethr =  3.66E-06,  avg # of iterations =  5.0

     negative rho (up, down):  6.333E-04 0.000E+00

     total cpu time spent up to now is     6857.1 secs

     total energy              =  -12150.82166071 Ry
     Harris-Foulkes estimate   =  -12150.82692734 Ry
     estimated scf accuracy    <       0.03539861 Ry

     iteration # 23     ecut=    80.00 Ry     beta=0.70
     Davidson diagonalization with overlap
     ethr =  3.22E-06,  avg # of iterations =  3.0

     negative rho (up, down):  8.289E-04 0.000E+00

     total cpu time spent up to now is     7062.9 secs

     total energy              =  -12150.82373224 Ry
     Harris-Foulkes estimate   =  -12150.82490323 Ry
     estimated scf accuracy    <       0.00744716 Ry

     iteration # 24     ecut=    80.00 Ry     beta=0.70
     Davidson diagonalization with overlap
     ethr =  6.77E-07,  avg # of iterations =  2.7

     negative rho (up, down):  1.437E-03 0.000E+00

     total cpu time spent up to now is     7265.2 secs

     total energy              =  -12150.82413415 Ry
     Harris-Foulkes estimate   =  -12150.82449402 Ry
     estimated scf accuracy    <       0.00126198 Ry

     iteration # 25     ecut=    80.00 Ry     beta=0.70
     Davidson diagonalization with overlap
     ethr =  1.15E-07,  avg # of iterations =  4.0

     negative rho (up, down):  1.577E-03 0.000E+00

     total cpu time spent up to now is     7581.0 secs

     total energy              =  -12150.82364952 Ry
     Harris-Foulkes estimate   =  -12150.82517118 Ry
     estimated scf accuracy    <       0.00880196 Ry

     iteration # 26     ecut=    80.00 Ry     beta=0.70
     Davidson diagonalization with overlap
     ethr =  1.15E-07,  avg # of iterations =  3.0

     negative rho (up, down):  1.741E-03 0.000E+00

     total cpu time spent up to now is     7843.5 secs

     total energy              =  -12150.82406907 Ry
     Harris-Foulkes estimate   =  -12150.82460987 Ry
     estimated scf accuracy    <       0.00629489 Ry

     iteration # 27     ecut=    80.00 Ry     beta=0.70
     Davidson diagonalization with overlap
     ethr =  1.15E-07,  avg # of iterations =  2.7

     negative rho (up, down):  2.158E-03 0.000E+00

     total cpu time spent up to now is     8047.0 secs

     total energy              =  -12150.82368022 Ry
     Harris-Foulkes estimate   =  -12150.82515380 Ry
     estimated scf accuracy    <       0.02538373 Ry

     iteration # 28     ecut=    80.00 Ry     beta=0.70
     Davidson diagonalization with overlap
     ethr =  1.15E-07,  avg # of iterations =  2.7

     negative rho (up, down):  2.198E-03 0.000E+00

     total cpu time spent up to now is     8257.3 secs

     total energy              =  -12150.82424291 Ry
     Harris-Foulkes estimate   =  -12150.82460396 Ry
     estimated scf accuracy    <       0.00451119 Ry

     iteration # 29     ecut=    80.00 Ry     beta=0.70
     Davidson diagonalization with overlap
     ethr =  1.15E-07,  avg # of iterations =  1.5

     negative rho (up, down):  2.266E-03 0.000E+00

     total cpu time spent up to now is     8446.3 secs

     total energy              =  -12150.82440887 Ry
     Harris-Foulkes estimate   =  -12150.82443801 Ry
     estimated scf accuracy    <       0.00030771 Ry

     iteration # 30     ecut=    80.00 Ry     beta=0.70
     Davidson diagonalization with overlap
     ethr =  2.80E-08,  avg # of iterations =  1.5

     negative rho (up, down):  2.359E-03 0.000E+00

     total cpu time spent up to now is     8635.4 secs

     total energy              =  -12150.82441882 Ry
     Harris-Foulkes estimate   =  -12150.82443610 Ry
     estimated scf accuracy    <       0.00019891 Ry

     iteration # 31     ecut=    80.00 Ry     beta=0.70
     Davidson diagonalization with overlap
     ethr =  1.81E-08,  avg # of iterations =  1.0

     negative rho (up, down):  2.472E-03 0.000E+00

     total cpu time spent up to now is     8819.3 secs

     total energy              =  -12150.82442273 Ry
     Harris-Foulkes estimate   =  -12150.82443387 Ry
     estimated scf accuracy    <       0.00006298 Ry

     iteration # 32     ecut=    80.00 Ry     beta=0.70
     Davidson diagonalization with overlap
     ethr =  5.73E-09,  avg # of iterations =  2.2

     negative rho (up, down):  2.624E-03 0.000E+00

     total cpu time spent up to now is     9019.0 secs

     total energy              =  -12150.82442247 Ry
     Harris-Foulkes estimate   =  -12150.82443459 Ry
     estimated scf accuracy    <       0.00008245 Ry

     iteration # 33     ecut=    80.00 Ry     beta=0.70
     Davidson diagonalization with overlap
     ethr =  5.73E-09,  avg # of iterations =  2.2

     negative rho (up, down):  2.646E-03 0.000E+00

     total cpu time spent up to now is     9218.1 secs

     total energy              =  -12150.82442182 Ry
     Harris-Foulkes estimate   =  -12150.82443636 Ry
     estimated scf accuracy    <       0.00011340 Ry

     iteration # 34     ecut=    80.00 Ry     beta=0.70
     Davidson diagonalization with overlap
     ethr =  5.73E-09,  avg # of iterations =  2.0

     negative rho (up, down):  2.669E-03 0.000E+00

     total cpu time spent up to now is     9413.4 secs

     total energy              =  -12150.82442816 Ry
     Harris-Foulkes estimate   =  -12150.82442991 Ry
     estimated scf accuracy    <       0.00000858 Ry

     iteration # 35     ecut=    80.00 Ry     beta=0.70
     Davidson diagonalization with overlap
     ethr =  7.80E-10,  avg # of iterations =  2.2

     negative rho (up, down):  2.699E-03 0.000E+00

     total cpu time spent up to now is     9613.8 secs

     total energy              =  -12150.82442824 Ry
     Harris-Foulkes estimate   =  -12150.82443012 Ry
     estimated scf accuracy    <       0.00001127 Ry

     iteration # 36     ecut=    80.00 Ry     beta=0.70
     Davidson diagonalization with overlap
     ethr =  7.80E-10,  avg # of iterations =  2.0

     negative rho (up, down):  2.701E-03 0.000E+00

     total cpu time spent up to now is     9812.3 secs

     total energy              =  -12150.82442767 Ry
     Harris-Foulkes estimate   =  -12150.82443060 Ry
     estimated scf accuracy    <       0.00003503 Ry

     iteration # 37     ecut=    80.00 Ry     beta=0.70
     Davidson diagonalization with overlap
     ethr =  7.80E-10,  avg # of iterations =  2.0

     negative rho (up, down):  2.713E-03 0.000E+00

     total cpu time spent up to now is    10007.5 secs

     total energy              =  -12150.82442819 Ry
     Harris-Foulkes estimate   =  -12150.82443014 Ry
     estimated scf accuracy    <       0.00003318 Ry

     iteration # 38     ecut=    80.00 Ry     beta=0.70
     Davidson diagonalization with overlap
     ethr =  7.80E-10,  avg # of iterations =  1.8

     negative rho (up, down):  2.741E-03 0.000E+00

     total cpu time spent up to now is    10200.9 secs

     total energy              =  -12150.82442837 Ry
     Harris-Foulkes estimate   =  -12150.82442985 Ry
     estimated scf accuracy    <       0.00001618 Ry

     iteration # 39     ecut=    80.00 Ry     beta=0.70
     Davidson diagonalization with overlap
     ethr =  7.80E-10,  avg # of iterations =  2.0

     negative rho (up, down):  2.753E-03 0.000E+00

     total cpu time spent up to now is    10396.1 secs

     total energy              =  -12150.82442807 Ry
     Harris-Foulkes estimate   =  -12150.82443024 Ry
     estimated scf accuracy    <       0.00002477 Ry

     iteration # 40     ecut=    80.00 Ry     beta=0.70
     Davidson diagonalization with overlap
     ethr =  7.80E-10,  avg # of iterations =  2.0

     negative rho (up, down):  2.759E-03 0.000E+00

     total cpu time spent up to now is    10590.9 secs

     total energy              =  -12150.82442860 Ry
     Harris-Foulkes estimate   =  -12150.82442974 Ry
     estimated scf accuracy    <       0.00001395 Ry

     iteration # 41     ecut=    80.00 Ry     beta=0.70
     Davidson diagonalization with overlap
     ethr =  7.80E-10,  avg # of iterations =  1.3

     negative rho (up, down):  2.765E-03 0.000E+00

     total cpu time spent up to now is    10778.3 secs

     total energy              =  -12150.82442899 Ry
     Harris-Foulkes estimate   =  -12150.82442942 Ry
     estimated scf accuracy    <       0.00000317 Ry

     iteration # 42     ecut=    80.00 Ry     beta=0.70
     Davidson diagonalization with overlap
     ethr =  2.89E-10,  avg # of iterations =  1.8

     negative rho (up, down):  2.768E-03 0.000E+00

     total cpu time spent up to now is    10971.1 secs

     total energy              =  -12150.82442906 Ry
     Harris-Foulkes estimate   =  -12150.82442933 Ry
     estimated scf accuracy    <       0.00000160 Ry

     iteration # 43     ecut=    80.00 Ry     beta=0.70
     Davidson diagonalization with overlap
     ethr =  1.46E-10,  avg # of iterations =  2.2

     negative rho (up, down):  2.775E-03 0.000E+00

     total cpu time spent up to now is    11169.5 secs

     total energy              =  -12150.82442899 Ry
     Harris-Foulkes estimate   =  -12150.82442936 Ry
     estimated scf accuracy    <       0.00000245 Ry

     iteration # 44     ecut=    80.00 Ry     beta=0.70
     Davidson diagonalization with overlap
     ethr =  1.46E-10,  avg # of iterations =  2.2

     negative rho (up, down):  2.779E-03 0.000E+00

     total cpu time spent up to now is    11372.9 secs

     total energy              =  -12150.82442879 Ry
     Harris-Foulkes estimate   =  -12150.82442960 Ry
     estimated scf accuracy    <       0.00000561 Ry

     iteration # 45     ecut=    80.00 Ry     beta=0.70
     Davidson diagonalization with overlap
     ethr =  1.46E-10,  avg # of iterations =  2.8

     negative rho (up, down):  2.781E-03 0.000E+00

     total cpu time spent up to now is    11581.6 secs

     total energy              =  -12150.82442899 Ry
     Harris-Foulkes estimate   =  -12150.82442939 Ry
     estimated scf accuracy    <       0.00000271 Ry

     iteration # 46     ecut=    80.00 Ry     beta=0.70
     Davidson diagonalization with overlap
     ethr =  1.46E-10,  avg # of iterations =  2.0

     negative rho (up, down):  2.782E-03 0.000E+00

     total cpu time spent up to now is    11779.2 secs

     total energy              =  -12150.82442899 Ry
     Harris-Foulkes estimate   =  -12150.82442933 Ry
     estimated scf accuracy    <       0.00000314 Ry

     iteration # 47     ecut=    80.00 Ry     beta=0.70
     Davidson diagonalization with overlap
     ethr =  1.46E-10,  avg # of iterations =  3.5

     negative rho (up, down):  2.784E-03 0.000E+00

     total cpu time spent up to now is    11989.3 secs

     total energy              =  -12150.82442869 Ry
     Harris-Foulkes estimate   =  -12150.82442967 Ry
     estimated scf accuracy    <       0.00001843 Ry

     iteration # 48     ecut=    80.00 Ry     beta=0.70
     Davidson diagonalization with overlap
     ethr =  1.46E-10,  avg # of iterations =  2.0

     negative rho (up, down):  2.784E-03 0.000E+00

     total cpu time spent up to now is    12185.4 secs

     total energy              =  -12150.82442893 Ry
     Harris-Foulkes estimate   =  -12150.82442945 Ry
     estimated scf accuracy    <       0.00000718 Ry

     iteration # 49     ecut=    80.00 Ry     beta=0.70
     Davidson diagonalization with overlap
     ethr =  1.46E-10,  avg # of iterations =  2.0

     negative rho (up, down):  2.785E-03 0.000E+00

     total cpu time spent up to now is    12380.4 secs

     total energy              =  -12150.82442908 Ry
     Harris-Foulkes estimate   =  -12150.82442928 Ry
     estimated scf accuracy    <       0.00000205 Ry

     iteration # 50     ecut=    80.00 Ry     beta=0.70
     Davidson diagonalization with overlap
     ethr =  1.46E-10,  avg # of iterations =  3.3

     negative rho (up, down):  2.786E-03 0.000E+00

     total cpu time spent up to now is    12588.7 secs

     total energy              =  -12150.82442902 Ry
     Harris-Foulkes estimate   =  -12150.82442935 Ry
     estimated scf accuracy    <       0.00000420 Ry

     iteration # 51     ecut=    80.00 Ry     beta=0.70
     Davidson diagonalization with overlap
     ethr =  1.46E-10,  avg # of iterations =  2.0

     negative rho (up, down):  2.788E-03 0.000E+00

     total cpu time spent up to now is    12784.2 secs

     total energy              =  -12150.82442907 Ry
     Harris-Foulkes estimate   =  -12150.82442931 Ry
     estimated scf accuracy    <       0.00000181 Ry

     iteration # 52     ecut=    80.00 Ry     beta=0.70
     Davidson diagonalization with overlap
     ethr =  1.46E-10,  avg # of iterations =  2.0

     negative rho (up, down):  2.788E-03 0.000E+00

     total cpu time spent up to now is    12981.7 secs

     total energy              =  -12150.82442899 Ry
     Harris-Foulkes estimate   =  -12150.82442937 Ry
     estimated scf accuracy    <       0.00000261 Ry

     iteration # 53     ecut=    80.00 Ry     beta=0.70
     Davidson diagonalization with overlap
     ethr =  1.46E-10,  avg # of iterations =  2.2

     negative rho (up, down):  2.788E-03 0.000E+00

     total cpu time spent up to now is    13181.1 secs

     total energy              =  -12150.82442906 Ry
     Harris-Foulkes estimate   =  -12150.82442932 Ry
     estimated scf accuracy    <       0.00000201 Ry

     iteration # 54     ecut=    80.00 Ry     beta=0.70
     Davidson diagonalization with overlap
     ethr =  1.46E-10,  avg # of iterations =  2.0

     negative rho (up, down):  2.789E-03 0.000E+00

     total cpu time spent up to now is    13376.2 secs

     total energy              =  -12150.82442912 Ry
     Harris-Foulkes estimate   =  -12150.82442925 Ry
     estimated scf accuracy    <       0.00000083 Ry

     iteration # 55     ecut=    80.00 Ry     beta=0.70
     Davidson diagonalization with overlap
     ethr =  7.59E-11,  avg # of iterations =  2.0

     negative rho (up, down):  2.789E-03 0.000E+00

     total cpu time spent up to now is    13573.7 secs

     total energy              =  -12150.82442908 Ry
     Harris-Foulkes estimate   =  -12150.82442930 Ry
     estimated scf accuracy    <       0.00000147 Ry

     iteration # 56     ecut=    80.00 Ry     beta=0.70
     Davidson diagonalization with overlap
     ethr =  7.59E-11,  avg # of iterations =  2.0

     negative rho (up, down):  2.789E-03 0.000E+00

     total cpu time spent up to now is    13773.6 secs

     total energy              =  -12150.82442902 Ry
     Harris-Foulkes estimate   =  -12150.82442934 Ry
     estimated scf accuracy    <       0.00000317 Ry

     iteration # 57     ecut=    80.00 Ry     beta=0.70
     Davidson diagonalization with overlap
     ethr =  7.59E-11,  avg # of iterations =  3.2

     negative rho (up, down):  2.789E-03 0.000E+00

     total cpu time spent up to now is    13979.4 secs

     total energy              =  -12150.82442903 Ry
     Harris-Foulkes estimate   =  -12150.82442934 Ry
     estimated scf accuracy    <       0.00000585 Ry

     iteration # 58     ecut=    80.00 Ry     beta=0.70
     Davidson diagonalization with overlap
     ethr =  7.59E-11,  avg # of iterations =  2.0

     negative rho (up, down):  2.789E-03 0.000E+00

     total cpu time spent up to now is    14175.3 secs

     total energy              =  -12150.82442902 Ry
     Harris-Foulkes estimate   =  -12150.82442933 Ry
     estimated scf accuracy    <       0.00000407 Ry

     iteration # 59     ecut=    80.00 Ry     beta=0.70
     Davidson diagonalization with overlap
     ethr =  7.59E-11,  avg # of iterations =  2.2

     negative rho (up, down):  2.790E-03 0.000E+00

     total cpu time spent up to now is    14375.3 secs

     total energy              =  -12150.82442889 Ry
     Harris-Foulkes estimate   =  -12150.82442947 Ry
     estimated scf accuracy    <       0.00000684 Ry

     iteration # 60     ecut=    80.00 Ry     beta=0.70
     Davidson diagonalization with overlap
     ethr =  7.59E-11,  avg # of iterations =  3.3

     negative rho (up, down):  2.790E-03 0.000E+00

     total cpu time spent up to now is    14587.0 secs

     total energy              =  -12150.82442899 Ry
     Harris-Foulkes estimate   =  -12150.82442937 Ry
     estimated scf accuracy    <       0.00000462 Ry

     iteration # 61     ecut=    80.00 Ry     beta=0.70
     Davidson diagonalization with overlap
     ethr =  7.59E-11,  avg # of iterations =  2.0

     negative rho (up, down):  2.790E-03 0.000E+00

     total cpu time spent up to now is    14785.1 secs

     total energy              =  -12150.82442909 Ry
     Harris-Foulkes estimate   =  -12150.82442930 Ry
     estimated scf accuracy    <       0.00000172 Ry

     iteration # 62     ecut=    80.00 Ry     beta=0.70
     Davidson diagonalization with overlap
     ethr =  7.59E-11,  avg # of iterations =  2.0

     negative rho (up, down):  2.790E-03 0.000E+00

     total cpu time spent up to now is    14982.1 secs

     total energy              =  -12150.82442912 Ry
     Harris-Foulkes estimate   =  -12150.82442925 Ry
     estimated scf accuracy    <       0.00000089 Ry

     iteration # 63     ecut=    80.00 Ry     beta=0.70
     Davidson diagonalization with overlap
     ethr =  7.59E-11,  avg # of iterations =  2.0

     negative rho (up, down):  2.790E-03 0.000E+00

     total cpu time spent up to now is    15179.2 secs

     total energy              =  -12150.82442909 Ry
     Harris-Foulkes estimate   =  -12150.82442927 Ry
     estimated scf accuracy    <       0.00000133 Ry

     iteration # 64     ecut=    80.00 Ry     beta=0.70
     Davidson diagonalization with overlap
     ethr =  7.59E-11,  avg # of iterations =  2.0

     negative rho (up, down):  2.790E-03 0.000E+00

     total cpu time spent up to now is    15378.9 secs

     total energy              =  -12150.82442900 Ry
     Harris-Foulkes estimate   =  -12150.82442938 Ry
     estimated scf accuracy    <       0.00000280 Ry

     iteration # 65     ecut=    80.00 Ry     beta=0.70
     Davidson diagonalization with overlap
     ethr =  7.59E-11,  avg # of iterations =  2.8

     negative rho (up, down):  2.790E-03 0.000E+00

     total cpu time spent up to now is    15587.8 secs

     total energy              =  -12150.82442905 Ry
     Harris-Foulkes estimate   =  -12150.82442932 Ry
     estimated scf accuracy    <       0.00000191 Ry

     iteration # 66     ecut=    80.00 Ry     beta=0.70
     Davidson diagonalization with overlap
     ethr =  7.59E-11,  avg # of iterations =  2.0

     negative rho (up, down):  2.790E-03 0.000E+00

     total cpu time spent up to now is    15787.2 secs

     total energy              =  -12150.82442903 Ry
     Harris-Foulkes estimate   =  -12150.82442930 Ry
     estimated scf accuracy    <       0.00000237 Ry

     iteration # 67     ecut=    80.00 Ry     beta=0.70
     Davidson diagonalization with overlap
     ethr =  7.59E-11,  avg # of iterations =  2.5

     negative rho (up, down):  2.790E-03 0.000E+00

     total cpu time spent up to now is    15987.5 secs

     total energy              =  -12150.82442876 Ry
     Harris-Foulkes estimate   =  -12150.82442960 Ry
     estimated scf accuracy    <       0.00001586 Ry

     iteration # 68     ecut=    80.00 Ry     beta=0.70
     Davidson diagonalization with overlap
     ethr =  7.59E-11,  avg # of iterations =  2.8

     negative rho (up, down):  2.790E-03 0.000E+00

     total cpu time spent up to now is    16196.9 secs

     total energy              =  -12150.82442886 Ry
     Harris-Foulkes estimate   =  -12150.82442952 Ry
     estimated scf accuracy    <       0.00000935 Ry

     iteration # 69     ecut=    80.00 Ry     beta=0.70
     Davidson diagonalization with overlap
     ethr =  7.59E-11,  avg # of iterations =  2.0

     negative rho (up, down):  2.790E-03 0.000E+00

     total cpu time spent up to now is    16394.2 secs

     total energy              =  -12150.82442908 Ry
     Harris-Foulkes estimate   =  -12150.82442929 Ry
     estimated scf accuracy    <       0.00000224 Ry

     iteration # 70     ecut=    80.00 Ry     beta=0.70
     Davidson diagonalization with overlap
     ethr =  7.59E-11,  avg # of iterations =  2.0

     negative rho (up, down):  2.790E-03 0.000E+00

     total cpu time spent up to now is    16589.5 secs

     total energy              =  -12150.82442904 Ry
     Harris-Foulkes estimate   =  -12150.82442932 Ry
     estimated scf accuracy    <       0.00000359 Ry

     iteration # 71     ecut=    80.00 Ry     beta=0.70
     Davidson diagonalization with overlap
     ethr =  7.59E-11,  avg # of iterations =  2.0

     negative rho (up, down):  2.790E-03 0.000E+00

     total cpu time spent up to now is    16786.1 secs

     total energy              =  -12150.82442910 Ry
     Harris-Foulkes estimate   =  -12150.82442927 Ry
     estimated scf accuracy    <       0.00000131 Ry

     iteration # 72     ecut=    80.00 Ry     beta=0.70
     Davidson diagonalization with overlap
     ethr =  7.59E-11,  avg # of iterations =  2.2

     negative rho (up, down):  2.790E-03 0.000E+00

     total cpu time spent up to now is    16991.4 secs

     total energy              =  -12150.82442898 Ry
     Harris-Foulkes estimate   =  -12150.82442937 Ry
     estimated scf accuracy    <       0.00000275 Ry

     iteration # 73     ecut=    80.00 Ry     beta=0.70
     Davidson diagonalization with overlap
     ethr =  7.59E-11,  avg # of iterations =  2.8

     negative rho (up, down):  2.790E-03 0.000E+00

     total cpu time spent up to now is    17204.0 secs

     total energy              =  -12150.82442898 Ry
     Harris-Foulkes estimate   =  -12150.82442940 Ry
     estimated scf accuracy    <       0.00000348 Ry

     iteration # 74     ecut=    80.00 Ry     beta=0.70
     Davidson diagonalization with overlap
     ethr =  7.59E-11,  avg # of iterations =  2.0

     negative rho (up, down):  2.790E-03 0.000E+00

     total cpu time spent up to now is    17404.4 secs

     total energy              =  -12150.82442909 Ry
     Harris-Foulkes estimate   =  -12150.82442929 Ry
     estimated scf accuracy    <       0.00000133 Ry

     iteration # 75     ecut=    80.00 Ry     beta=0.70
     Davidson diagonalization with overlap
     ethr =  7.59E-11,  avg # of iterations =  2.5

     negative rho (up, down):  2.790E-03 0.000E+00

     total cpu time spent up to now is    17608.5 secs

     total energy              =  -12150.82442904 Ry
     Harris-Foulkes estimate   =  -12150.82442932 Ry
     estimated scf accuracy    <       0.00000197 Ry

     iteration # 76     ecut=    80.00 Ry     beta=0.70
     Davidson diagonalization with overlap
     ethr =  7.59E-11,  avg # of iterations =  2.2

     negative rho (up, down):  2.790E-03 0.000E+00

     total cpu time spent up to now is    17811.3 secs

     total energy              =  -12150.82442900 Ry
     Harris-Foulkes estimate   =  -12150.82442936 Ry
     estimated scf accuracy    <       0.00000356 Ry

     iteration # 77     ecut=    80.00 Ry     beta=0.70
     Davidson diagonalization with overlap
     ethr =  7.59E-11,  avg # of iterations =  2.0

     negative rho (up, down):  2.790E-03 0.000E+00

     total cpu time spent up to now is    18006.2 secs

     total energy              =  -12150.82442900 Ry
     Harris-Foulkes estimate   =  -12150.82442937 Ry
     estimated scf accuracy    <       0.00000695 Ry

     iteration # 78     ecut=    80.00 Ry     beta=0.70
     Davidson diagonalization with overlap
     ethr =  7.59E-11,  avg # of iterations =  2.0

     negative rho (up, down):  2.790E-03 0.000E+00

     total cpu time spent up to now is    18202.7 secs

     total energy              =  -12150.82442901 Ry
     Harris-Foulkes estimate   =  -12150.82442934 Ry
     estimated scf accuracy    <       0.00000421 Ry

     iteration # 79     ecut=    80.00 Ry     beta=0.70
     Davidson diagonalization with overlap
     ethr =  7.59E-11,  avg # of iterations =  3.3

     negative rho (up, down):  2.790E-03 0.000E+00

     total cpu time spent up to now is    18416.2 secs

     total energy              =  -12150.82442881 Ry
     Harris-Foulkes estimate   =  -12150.82442954 Ry
     estimated scf accuracy    <       0.00000874 Ry

     iteration # 80     ecut=    80.00 Ry     beta=0.70
     Davidson diagonalization with overlap
     ethr =  7.59E-11,  avg # of iterations =  2.5

     negative rho (up, down):  2.790E-03 0.000E+00

     total cpu time spent up to now is    18622.2 secs

     total energy              =  -12150.82442884 Ry
     Harris-Foulkes estimate   =  -12150.82442950 Ry
     estimated scf accuracy    <       0.00000822 Ry

     iteration # 81     ecut=    80.00 Ry     beta=0.70
     Davidson diagonalization with overlap
     ethr =  7.59E-11,  avg # of iterations =  2.7

     negative rho (up, down):  2.790E-03 0.000E+00

     total cpu time spent up to now is    18831.3 secs

     total energy              =  -12150.82442900 Ry
     Harris-Foulkes estimate   =  -12150.82442939 Ry
     estimated scf accuracy    <       0.00000319 Ry

     iteration # 82     ecut=    80.00 Ry     beta=0.70
     Davidson diagonalization with overlap
     ethr =  7.59E-11,  avg # of iterations =  2.0

     negative rho (up, down):  2.790E-03 0.000E+00

     total cpu time spent up to now is    19036.5 secs

     total energy              =  -12150.82442907 Ry
     Harris-Foulkes estimate   =  -12150.82442930 Ry
     estimated scf accuracy    <       0.00000159 Ry

     iteration # 83     ecut=    80.00 Ry     beta=0.70
     Davidson diagonalization with overlap
     ethr =  7.59E-11,  avg # of iterations =  2.2

     negative rho (up, down):  2.790E-03 0.000E+00

     total cpu time spent up to now is    19236.5 secs

     total energy              =  -12150.82442905 Ry
     Harris-Foulkes estimate   =  -12150.82442930 Ry
     estimated scf accuracy    <       0.00000194 Ry

     iteration # 84     ecut=    80.00 Ry     beta=0.70
     Davidson diagonalization with overlap
     ethr =  7.59E-11,  avg # of iterations =  2.7

     negative rho (up, down):  2.790E-03 0.000E+00

     total cpu time spent up to now is    19445.3 secs

     total energy              =  -12150.82442894 Ry
     Harris-Foulkes estimate   =  -12150.82442944 Ry
     estimated scf accuracy    <       0.00000362 Ry

     iteration # 85     ecut=    80.00 Ry     beta=0.70
     Davidson diagonalization with overlap
     ethr =  7.59E-11,  avg # of iterations =  3.0

     negative rho (up, down):  2.790E-03 0.000E+00

     total cpu time spent up to now is    19660.2 secs

     total energy              =  -12150.82442897 Ry
     Harris-Foulkes estimate   =  -12150.82442940 Ry
     estimated scf accuracy    <       0.00000319 Ry

     iteration # 86     ecut=    80.00 Ry     beta=0.70
     Davidson diagonalization with overlap
     ethr =  7.59E-11,  avg # of iterations =  4.2

     negative rho (up, down):  2.790E-03 0.000E+00

     total cpu time spent up to now is    19886.7 secs

     total energy              =  -12150.82442893 Ry
     Harris-Foulkes estimate   =  -12150.82442937 Ry
     estimated scf accuracy    <       0.00000403 Ry

     iteration # 87     ecut=    80.00 Ry     beta=0.70
     Davidson diagonalization with overlap
     ethr =  7.59E-11,  avg # of iterations =  2.8

     negative rho (up, down):  2.790E-03 0.000E+00

     total cpu time spent up to now is    20094.1 secs

     total energy              =  -12150.82442846 Ry
     Harris-Foulkes estimate   =  -12150.82442985 Ry
     estimated scf accuracy    <       0.00002585 Ry

     iteration # 88     ecut=    80.00 Ry     beta=0.70
     Davidson diagonalization with overlap
     ethr =  7.59E-11,  avg # of iterations =  3.0

     negative rho (up, down):  2.790E-03 0.000E+00

     total cpu time spent up to now is    20318.7 secs

     total energy              =  -12150.82442842 Ry
     Harris-Foulkes estimate   =  -12150.82442996 Ry
     estimated scf accuracy    <       0.00002188 Ry

     iteration # 89     ecut=    80.00 Ry     beta=0.70
     Davidson diagonalization with overlap
     ethr =  7.59E-11,  avg # of iterations =  3.0

     negative rho (up, down):  2.790E-03 0.000E+00

     total cpu time spent up to now is    20534.9 secs

     total energy              =  -12150.82442895 Ry
     Harris-Foulkes estimate   =  -12150.82442940 Ry
     estimated scf accuracy    <       0.00000514 Ry

     iteration # 90     ecut=    80.00 Ry     beta=0.70
     Davidson diagonalization with overlap
     ethr =  7.59E-11,  avg # of iterations =  2.3

     negative rho (up, down):  2.790E-03 0.000E+00

     total cpu time spent up to now is    20736.4 secs

     total energy              =  -12150.82442893 Ry
     Harris-Foulkes estimate   =  -12150.82442943 Ry
     estimated scf accuracy    <       0.00000656 Ry

     iteration # 91     ecut=    80.00 Ry     beta=0.70
     Davidson diagonalization with overlap
     ethr =  7.59E-11,  avg # of iterations =  2.0

     negative rho (up, down):  2.790E-03 0.000E+00

     total cpu time spent up to now is    20935.9 secs

     total energy              =  -12150.82442905 Ry
     Harris-Foulkes estimate   =  -12150.82442931 Ry
     estimated scf accuracy    <       0.00000187 Ry

     iteration # 92     ecut=    80.00 Ry     beta=0.70
     Davidson diagonalization with overlap
     ethr =  7.59E-11,  avg # of iterations =  2.8

     negative rho (up, down):  2.790E-03 0.000E+00

     total cpu time spent up to now is    21163.2 secs

     total energy              =  -12150.82442885 Ry
     Harris-Foulkes estimate   =  -12150.82442947 Ry
     estimated scf accuracy    <       0.00000436 Ry

     iteration # 93     ecut=    80.00 Ry     beta=0.70
     Davidson diagonalization with overlap
     ethr =  7.59E-11,  avg # of iterations =  3.0

     negative rho (up, down):  2.790E-03 0.000E+00

     total cpu time spent up to now is    21395.3 secs

     total energy              =  -12150.82442875 Ry
     Harris-Foulkes estimate   =  -12150.82442963 Ry
     estimated scf accuracy    <       0.00000729 Ry

     iteration # 94     ecut=    80.00 Ry     beta=0.70
     Davidson diagonalization with overlap
     ethr =  7.59E-11,  avg # of iterations =  3.8

     negative rho (up, down):  2.790E-03 0.000E+00

     total cpu time spent up to now is    21635.7 secs

     total energy              =  -12150.82442895 Ry
     Harris-Foulkes estimate   =  -12150.82442941 Ry
     estimated scf accuracy    <       0.00000315 Ry

     iteration # 95     ecut=    80.00 Ry     beta=0.70
     Davidson diagonalization with overlap
     ethr =  7.59E-11,  avg # of iterations =  3.0

     negative rho (up, down):  2.790E-03 0.000E+00

     total cpu time spent up to now is    21857.2 secs

     total energy              =  -12150.82442887 Ry
     Harris-Foulkes estimate   =  -12150.82442948 Ry
     estimated scf accuracy    <       0.00000447 Ry

     iteration # 96     ecut=    80.00 Ry     beta=0.70
     Davidson diagonalization with overlap
     ethr =  7.59E-11,  avg # of iterations =  3.0

     negative rho (up, down):  2.790E-03 0.000E+00

     total cpu time spent up to now is    22092.0 secs

     total energy              =  -12150.82442879 Ry
     Harris-Foulkes estimate   =  -12150.82442954 Ry
     estimated scf accuracy    <       0.00000750 Ry

     iteration # 97     ecut=    80.00 Ry     beta=0.70
     Davidson diagonalization with overlap
     ethr =  7.59E-11,  avg # of iterations =  2.8

     negative rho (up, down):  2.790E-03 0.000E+00

     total cpu time spent up to now is    22299.3 secs

     total energy              =  -12150.82442883 Ry
     Harris-Foulkes estimate   =  -12150.82442954 Ry
     estimated scf accuracy    <       0.00001343 Ry

     iteration # 98     ecut=    80.00 Ry     beta=0.70
     Davidson diagonalization with overlap
     ethr =  7.59E-11,  avg # of iterations =  2.2

     negative rho (up, down):  2.790E-03 0.000E+00

     total cpu time spent up to now is    22499.8 secs

     total energy              =  -12150.82442892 Ry
     Harris-Foulkes estimate   =  -12150.82442940 Ry
     estimated scf accuracy    <       0.00000610 Ry

     iteration # 99     ecut=    80.00 Ry     beta=0.70
     Davidson diagonalization with overlap
     ethr =  7.59E-11,  avg # of iterations =  2.7

     negative rho (up, down):  2.790E-03 0.000E+00

     total cpu time spent up to now is    22709.6 secs

     total energy              =  -12150.82442864 Ry
     Harris-Foulkes estimate   =  -12150.82442967 Ry
     estimated scf accuracy    <       0.00001237 Ry

     iteration #100     ecut=    80.00 Ry     beta=0.70
     Davidson diagonalization with overlap
     ethr =  7.59E-11,  avg # of iterations =  3.0

     negative rho (up, down):  2.790E-03 0.000E+00

     total cpu time spent up to now is    22933.7 secs

     total energy              =  -12150.82442852 Ry
     Harris-Foulkes estimate   =  -12150.82442976 Ry
     estimated scf accuracy    <       0.00001560 Ry

     End of self-consistent calculation

     convergence NOT achieved after 100 iterations: stopping

     Writing output data file copper.save
 
     init_run     :     92.26s CPU     95.92s WALL (       1 calls)
     electrons    :  22163.45s CPU  22837.89s WALL (       1 calls)

     Called by init_run:
     wfcinit      :     89.88s CPU     92.92s WALL (       1 calls)
     potinit      :      0.26s CPU      0.29s WALL (       1 calls)

     Called by electrons:
     c_bands      :  20002.71s CPU  20604.11s WALL (     100 calls)
     sum_band     :   2127.67s CPU   2190.81s WALL (     100 calls)
     v_of_rho     :      9.20s CPU     10.34s WALL (     101 calls)
     newd         :     21.05s CPU     29.06s WALL (     101 calls)
     mix_rho      :      2.59s CPU      3.20s WALL (     100 calls)

     Called by c_bands:
     init_us_2    :     59.11s CPU     60.08s WALL (    1206 calls)
     cegterg      :  19712.04s CPU  20306.47s WALL (     600 calls)

     Called by sum_band:
     sum_band:bec :     13.27s CPU     15.49s WALL (     600 calls)
     addusdens    :     22.45s CPU     30.29s WALL (     100 calls)

     Called by *egterg:
     h_psi        :   8790.65s CPU   9021.61s WALL (    2405 calls)
     s_psi        :   2527.26s CPU   2549.72s WALL (    2405 calls)
     g_psi        :     21.27s CPU     21.26s WALL (    1799 calls)
     cdiaghg      :   3196.87s CPU   3292.71s WALL (    2399 calls)

     Called by h_psi:
     add_vuspsi   :   2483.87s CPU   2508.30s WALL (    2405 calls)

     General routines
     calbec       :   3682.44s CPU   3698.76s WALL (    3005 calls)
     fft          :     11.17s CPU     12.12s WALL (    1313 calls)
     fftw         :   4290.90s CPU   4528.87s WALL ( 2140896 calls)
     davcio       :      0.20s CPU      2.57s WALL (      24 calls)
 
     Parallel routines
     fft_scatter  :   2756.24s CPU   2823.64s WALL ( 2142209 calls)
 
     PWSCF        :     6h10m CPU        6h22m WALL

 
   This run was terminated on:  14:48:47  24Nov2016            

=------------------------------------------------------------------------------=
   JOB DONE.
=------------------------------------------------------------------------------=
-------------------------------------------------------
Primary job  terminated normally, but 1 process returned
a non-zero exit code.. Per user-direction, the job has been aborted.
-------------------------------------------------------
--------------------------------------------------------------------------
mpirun detected that one or more processes exited with non-zero status, thus causing
the job to be terminated. The first process to do so was:

  Process name: [[63914,1],19]
  Exit code:    2
--------------------------------------------------------------------------
