
     Program PWSCF v.5.4.0 starts on 26Mar2017 at  5: 2:39 

     This program is part of the open-source Quantum ESPRESSO suite
     for quantum simulation of materials; please cite
         "P. Giannozzi et al., J. Phys.:Condens. Matter 21 395502 (2009);
          URL http://www.quantum-espresso.org", 
     in publications or presentations arising from this work. More details at
     http://www.quantum-espresso.org/quote

     Parallel version (MPI & OpenMP), running on      96 processor cores
     Number of MPI processes:                96
     Threads/MPI process:                     1
     R & G space division:  proc/nbgrp/npool/nimage =      96
     Waiting for input...
     Reading input from standard input

     Current dimensions of program PWSCF are:
     Max number of different atomic species (ntypx) = 10
     Max number of k-points (npk) =  40000
     Max angular momentum in pseudopotentials (lmaxx) =  3

     -------------------------------------
     Parameters for Dispersion Correction:
     -------------------------------------
       atom      VdW radius       C_6     

        Cu         2.952        374.666
        C          2.744         60.710
        C_h        2.744         60.710

     Subspace diagonalization in iterative solution of the eigenvalue problem:
     one sub-group per band group will be used
     scalapack distributed-memory algorithm (size of sub-group:  6*  6 procs)

 
     Parallelization info
     --------------------
     sticks:   dense  smooth     PW     G-vecs:    dense   smooth      PW
     Min          85      75     18                11443     9569    1188
     Max          86      76     19                11453     9624    1205
     Sum        8173    7269   1811              1099045   921191  115097
 


     bravais-lattice index     =            0
     lattice parameter (alat)  =      27.5793  a.u.
     unit-cell volume          =   26950.5233 (a.u.)^3
     number of atoms/cell      =          180
     number of atomic types    =            3
     number of electrons       =      1561.00
     number of Kohn-Sham states=          937
     kinetic-energy cutoff     =      40.0000  Ry
     charge density cutoff     =     180.0000  Ry
     convergence threshold     =      1.0E-06
     mixing beta               =       0.7000
     number of iterations used =            8  plain     mixing
     Exchange-correlation      =  SLA  PW   PBX  PBC ( 1  4  3  4 0 0)
     nstep                     =          200


     celldm(1)=  27.579319  celldm(2)=   0.000000  celldm(3)=   0.000000
     celldm(4)=   0.000000  celldm(5)=   0.000000  celldm(6)=   0.000000

     crystal axes: (cart. coord. in units of alat)
               a(1) = (   1.000000   0.000000   0.000000 )  
               a(2) = (   0.000000   0.750000   0.000000 )  
               a(3) = (   0.000000   0.000000   1.712992 )  

     reciprocal axes: (cart. coord. in units 2 pi/alat)
               b(1) = (  1.000000  0.000000  0.000000 )  
               b(2) = (  0.000000  1.333333  0.000000 )  
               b(3) = (  0.000000  0.000000  0.583774 )  


     PseudoPot. # 1 for Cu read from file:
     /home/549/hxw549/Short/pseudopotentials/Cu.pbe-n-van_ak.UPF
     MD5 check sum: 601f7c30f7467666bec936e0661ce3e1
     Pseudo is Ultrasoft + core correction, Zval = 11.0
     Generated by new atomic code, or converted to UPF format
     Using radial grid of  867 points,  6 beta functions with: 
                l(1) =   0
                l(2) =   0
                l(3) =   1
                l(4) =   1
                l(5) =   2
                l(6) =   2
     Q(r) pseudized with  8 coefficients,  rinner =    1.400   1.400   1.400
                                                       1.400   1.400

     PseudoPot. # 2 for C  read from file:
     /home/549/hxw549/Short/pseudopotentials/C.pbe-mt_gipaw.UPF
     MD5 check sum: 5ac2f21f2c440b14befe521540822c15
     Pseudo is Norm-conserving, Zval =  4.0
     Generated by new atomic code, or converted to UPF format
     Using radial grid of 1073 points,  1 beta functions with: 
                l(1) =   0

     PseudoPot. # 3 for C  read from file:
     /home/549/hxw549/Short/pseudopotentials/C.star1s-pbe-mt_gipaw.UPF
     MD5 check sum: ef0cb3dee31bd9e4ba2a832a2c716264
     Pseudo is Norm-conserving, Zval =  5.0
     Generated by new atomic code, or converted to UPF format
     Using radial grid of 1073 points,  1 beta functions with: 
                l(1) =   0

     atomic species   valence    mass     pseudopotential
        Cu            11.00    63.54600     Cu( 1.00)
        C              4.00    12.01070     C ( 1.00)
        C_h            5.00    12.01070     C ( 1.00)

     No symmetry found



   Cartesian axes

     site n.     atom                  positions (alat units)
         1           Cu  tau(   1) = (   0.0000000   0.0000000   0.5037165  )
         2           Cu  tau(   2) = (   0.3333333   0.0000000   0.5037165  )
         3           Cu  tau(   3) = (   0.6666667   0.0000000   0.5037165  )
         4           Cu  tau(   4) = (   0.0000000   0.1875000   0.5037165  )
         5           Cu  tau(   5) = (   0.3333333   0.1875000   0.5037165  )
         6           Cu  tau(   6) = (   0.6666667   0.1875000   0.5037165  )
         7           Cu  tau(   7) = (   0.0000000   0.3750000   0.5037165  )
         8           Cu  tau(   8) = (   0.3333333   0.3750000   0.5037165  )
         9           Cu  tau(   9) = (   0.6666667   0.3750000   0.5037165  )
        10           Cu  tau(  10) = (   0.0000000   0.5625000   0.5037165  )
        11           Cu  tau(  11) = (   0.3333333   0.5625000   0.5037165  )
        12           Cu  tau(  12) = (   0.6666667   0.5625000   0.5037165  )
        13           Cu  tau(  13) = (   0.1666667   0.0937500   0.5037165  )
        14           Cu  tau(  14) = (   0.5000000   0.0937500   0.5037165  )
        15           Cu  tau(  15) = (   0.8333333   0.0937500   0.5037165  )
        16           Cu  tau(  16) = (   0.1666667   0.2812500   0.5037165  )
        17           Cu  tau(  17) = (   0.5000000   0.2812500   0.5037165  )
        18           Cu  tau(  18) = (   0.8333333   0.2812500   0.5037165  )
        19           Cu  tau(  19) = (   0.1666667   0.4687500   0.5037165  )
        20           Cu  tau(  20) = (   0.5000000   0.4687500   0.5037165  )
        21           Cu  tau(  21) = (   0.8333333   0.4687500   0.5037165  )
        22           Cu  tau(  22) = (   0.1666667   0.6562500   0.5037165  )
        23           Cu  tau(  23) = (   0.5000000   0.6562500   0.5037165  )
        24           Cu  tau(  24) = (   0.8333333   0.6562500   0.5037165  )
        25           Cu  tau(  25) = (   0.1666667   0.0000000   0.6287165  )
        26           Cu  tau(  26) = (   0.5000000   0.0000000   0.6287165  )
        27           Cu  tau(  27) = (   0.8333333   0.0000000   0.6287165  )
        28           Cu  tau(  28) = (   0.1666667   0.1875000   0.6287165  )
        29           Cu  tau(  29) = (   0.5000000   0.1875000   0.6287165  )
        30           Cu  tau(  30) = (   0.8333333   0.1875000   0.6287165  )
        31           Cu  tau(  31) = (   0.1666667   0.3750000   0.6287165  )
        32           Cu  tau(  32) = (   0.5000000   0.3750000   0.6287165  )
        33           Cu  tau(  33) = (   0.8333333   0.3750000   0.6287165  )
        34           Cu  tau(  34) = (   0.1666667   0.5625000   0.6287165  )
        35           Cu  tau(  35) = (   0.5000000   0.5625000   0.6287165  )
        36           Cu  tau(  36) = (   0.8333333   0.5625000   0.6287165  )
        37           Cu  tau(  37) = (   0.0000000   0.0937500   0.6287165  )
        38           Cu  tau(  38) = (   0.3333333   0.0937500   0.6287165  )
        39           Cu  tau(  39) = (   0.6666667   0.0937500   0.6287165  )
        40           Cu  tau(  40) = (   0.0000000   0.2812500   0.6287165  )
        41           Cu  tau(  41) = (   0.3333333   0.2812500   0.6287165  )
        42           Cu  tau(  42) = (   0.6666667   0.2812500   0.6287165  )
        43           Cu  tau(  43) = (   0.0000000   0.4687500   0.6287165  )
        44           Cu  tau(  44) = (   0.3333333   0.4687500   0.6287165  )
        45           Cu  tau(  45) = (   0.6666667   0.4687500   0.6287165  )
        46           Cu  tau(  46) = (   0.0000000   0.6562500   0.6287165  )
        47           Cu  tau(  47) = (   0.3333333   0.6562500   0.6287165  )
        48           Cu  tau(  48) = (   0.6666667   0.6562500   0.6287165  )
        49           Cu  tau(  49) = (   0.0000000   0.0000000   0.7537165  )
        50           Cu  tau(  50) = (   0.3333333   0.0000000   0.7537165  )
        51           Cu  tau(  51) = (   0.6666667   0.0000000   0.7537165  )
        52           Cu  tau(  52) = (   0.0000000   0.1875000   0.7537165  )
        53           Cu  tau(  53) = (   0.3333333   0.1875000   0.7537165  )
        54           Cu  tau(  54) = (   0.6666667   0.1875000   0.7537165  )
        55           Cu  tau(  55) = (   0.0000000   0.3750000   0.7537165  )
        56           Cu  tau(  56) = (   0.3333333   0.3750000   0.7537165  )
        57           Cu  tau(  57) = (   0.6666667   0.3750000   0.7537165  )
        58           Cu  tau(  58) = (   0.0000000   0.5625000   0.7537165  )
        59           Cu  tau(  59) = (   0.3333333   0.5625000   0.7537165  )
        60           Cu  tau(  60) = (   0.6666667   0.5625000   0.7537165  )
        61           Cu  tau(  61) = (   0.1666667   0.0937500   0.7537165  )
        62           Cu  tau(  62) = (   0.5000000   0.0937500   0.7537165  )
        63           Cu  tau(  63) = (   0.8333333   0.0937500   0.7537165  )
        64           Cu  tau(  64) = (   0.1666667   0.2812500   0.7537165  )
        65           Cu  tau(  65) = (   0.5000000   0.2812500   0.7537165  )
        66           Cu  tau(  66) = (   0.8333333   0.2812500   0.7537165  )
        67           Cu  tau(  67) = (   0.1666667   0.4687500   0.7537165  )
        68           Cu  tau(  68) = (   0.5000000   0.4687500   0.7537165  )
        69           Cu  tau(  69) = (   0.8333333   0.4687500   0.7537165  )
        70           Cu  tau(  70) = (   0.1666667   0.6562500   0.7537165  )
        71           Cu  tau(  71) = (   0.5000000   0.6562500   0.7537165  )
        72           Cu  tau(  72) = (   0.8333333   0.6562500   0.7537165  )
        73           Cu  tau(  73) = (   0.1666667   0.0000000   0.8787165  )
        74           Cu  tau(  74) = (   0.5000000   0.0000000   0.8787165  )
        75           Cu  tau(  75) = (   0.8333333   0.0000000   0.8787165  )
        76           Cu  tau(  76) = (   0.1666667   0.1875000   0.8787165  )
        77           Cu  tau(  77) = (   0.5000000   0.1875000   0.8787165  )
        78           Cu  tau(  78) = (   0.8333333   0.1875000   0.8787165  )
        79           Cu  tau(  79) = (   0.1666667   0.3750000   0.8787165  )
        80           Cu  tau(  80) = (   0.5000000   0.3750000   0.8787165  )
        81           Cu  tau(  81) = (   0.8333333   0.3750000   0.8787165  )
        82           Cu  tau(  82) = (   0.1666667   0.5625000   0.8787165  )
        83           Cu  tau(  83) = (   0.5000000   0.5625000   0.8787165  )
        84           Cu  tau(  84) = (   0.8333333   0.5625000   0.8787165  )
        85           Cu  tau(  85) = (   0.0000000   0.0937500   0.8787165  )
        86           Cu  tau(  86) = (   0.3333333   0.0937500   0.8787165  )
        87           Cu  tau(  87) = (   0.6666667   0.0937500   0.8787165  )
        88           Cu  tau(  88) = (   0.0000000   0.2812500   0.8787165  )
        89           Cu  tau(  89) = (   0.3333333   0.2812500   0.8787165  )
        90           Cu  tau(  90) = (   0.6666667   0.2812500   0.8787165  )
        91           Cu  tau(  91) = (   0.0000000   0.4687500   0.8787165  )
        92           Cu  tau(  92) = (   0.3333333   0.4687500   0.8787165  )
        93           Cu  tau(  93) = (   0.6666667   0.4687500   0.8787165  )
        94           Cu  tau(  94) = (   0.0000000   0.6562500   0.8787165  )
        95           Cu  tau(  95) = (   0.3333333   0.6562500   0.8787165  )
        96           Cu  tau(  96) = (   0.6666667   0.6562500   0.8787165  )
        97           Cu  tau(  97) = (   0.0000000   0.0000000   1.0037165  )
        98           Cu  tau(  98) = (   0.3333333   0.0000000   1.0037165  )
        99           Cu  tau(  99) = (   0.6666667   0.0000000   1.0037165  )
       100           Cu  tau( 100) = (   0.0000000   0.1875000   1.0037165  )
       101           Cu  tau( 101) = (   0.3333333   0.1875000   1.0037165  )
       102           Cu  tau( 102) = (   0.6666667   0.1875000   1.0037165  )
       103           Cu  tau( 103) = (   0.0000000   0.3750000   1.0037165  )
       104           Cu  tau( 104) = (   0.3333333   0.3750000   1.0037165  )
       105           Cu  tau( 105) = (   0.6666667   0.3750000   1.0037165  )
       106           Cu  tau( 106) = (   0.0000000   0.5625000   1.0037165  )
       107           Cu  tau( 107) = (   0.3333333   0.5625000   1.0037165  )
       108           Cu  tau( 108) = (   0.6666667   0.5625000   1.0037165  )
       109           Cu  tau( 109) = (   0.1666667   0.0937500   1.0037165  )
       110           Cu  tau( 110) = (   0.5000000   0.0937500   1.0037165  )
       111           Cu  tau( 111) = (   0.8333333   0.0937500   1.0037165  )
       112           Cu  tau( 112) = (   0.1666667   0.2812500   1.0037165  )
       113           Cu  tau( 113) = (   0.5000000   0.2812500   1.0037165  )
       114           Cu  tau( 114) = (   0.8333333   0.2812500   1.0037165  )
       115           Cu  tau( 115) = (   0.1666667   0.4687500   1.0037165  )
       116           Cu  tau( 116) = (   0.5000000   0.4687500   1.0037165  )
       117           Cu  tau( 117) = (   0.8333333   0.4687500   1.0037165  )
       118           Cu  tau( 118) = (   0.1666667   0.6562500   1.0037165  )
       119           Cu  tau( 119) = (   0.5000000   0.6562500   1.0037165  )
       120           Cu  tau( 120) = (   0.8333333   0.6562500   1.0037165  )
       121           C   tau( 121) = (   0.0821019   0.0497091   1.2092755  )
       122           C   tau( 122) = (  -0.0020438   0.1001609   1.2092755  )
       123           C   tau( 123) = (   0.2489497   0.0500961   1.2092755  )
       124           C   tau( 124) = (   0.1646442   0.1001714   1.2092755  )
       125           C   tau( 125) = (   0.4154744   0.0500057   1.2092755  )
       126           C   tau( 126) = (   0.3315771   0.1005489   1.2092755  )
       127           C   tau( 127) = (   0.5819811   0.0499930   1.2092755  )
       128           C   tau( 128) = (   0.4977107   0.1005453   1.2092755  )
       129           C   tau( 129) = (   0.7486920   0.0497094   1.2092755  )
       130           C   tau( 130) = (   0.6645396   0.1001789   1.2092755  )
       131           C   tau( 131) = (   0.9154441   0.0497294   1.2092755  )
       132           C   tau( 132) = (   0.8312481   0.1001401   1.2092755  )
       133           C   tau( 133) = (  -0.0044818   0.1998319   1.2092755  )
       134           C   tau( 134) = (  -0.0886789   0.2502315   1.2092755  )
       135           C   tau( 135) = (   0.1622213   0.1998158   1.2092755  )
       136           C   tau( 136) = (   0.0780444   0.2502693   1.2092755  )
       137           C   tau( 137) = (   0.3289776   0.2004726   1.2092755  )
       138           C   tau( 138) = (   0.2445853   0.2501626   1.2092755  )
       139           C   tau( 139) = (   0.4953124   0.2004869   1.2092755  )
       140           C   tau( 140) = (   0.4112730   0.2505078   1.2092755  )
       141           C   tau( 141) = (   0.6620728   0.1998172   1.2092755  )
       142           C   tau( 142) = (   0.5780910   0.2501993   1.2092755  )
       143           C   tau( 143) = (   0.8288016   0.1998161   1.2092755  )
       144           C   tau( 144) = (   0.7446116   0.2502847   1.2092755  )
       145           C   tau( 145) = (  -0.0911040   0.3498560   1.2092755  )
       146           C   tau( 146) = (  -0.1753929   0.4002576   1.2092755  )
       147           C   tau( 147) = (   0.0758589   0.3498520   1.2092755  )
       148           C   tau( 148) = (  -0.0084745   0.4002414   1.2092755  )
       149           C   tau( 149) = (   0.2428484   0.3496200   1.2092755  )
       150           C   tau( 150) = (   0.1584719   0.4003577   1.2092755  )
       151           C_h tau( 151) = (   0.4088520   0.3497051   1.2092755  )
       152           C   tau( 152) = (   0.3249186   0.3999270   1.2092755  )
       153           C   tau( 153) = (   0.5749581   0.3496945   1.2092755  )
       154           C   tau( 154) = (   0.4911844   0.3999608   1.2092755  )
       155           C   tau( 155) = (   0.7419640   0.3498781   1.2092755  )
       156           C   tau( 156) = (   0.6576877   0.4004011   1.2092755  )
       157           C   tau( 157) = (  -0.1777136   0.4998699   1.2092755  )
       158           C   tau( 158) = (  -0.2618184   0.5502810   1.2092755  )
       159           C   tau( 159) = (  -0.0109464   0.4998593   1.2092755  )
       160           C   tau( 160) = (  -0.0951567   0.5502743   1.2092755  )
       161           C   tau( 161) = (   0.1557612   0.4997384   1.2092755  )
       162           C   tau( 162) = (   0.0715457   0.5502540   1.2092755  )
       163           C   tau( 163) = (   0.3227133   0.4992206   1.2092755  )
       164           C   tau( 164) = (   0.2382828   0.5497710   1.2092755  )
       165           C   tau( 165) = (   0.4885880   0.4991844   1.2092755  )
       166           C   tau( 166) = (   0.4048015   0.5501968   1.2092755  )
       167           C   tau( 167) = (   0.6555792   0.4997580   1.2092755  )
       168           C   tau( 168) = (   0.5713989   0.5496791   1.2092755  )
       169           C   tau( 169) = (  -0.2642406   0.6498684   1.2092755  )
       170           C   tau( 170) = (  -0.3485272   0.7000106   1.2092755  )
       171           C   tau( 171) = (  -0.0975673   0.6499289   1.2092755  )
       172           C   tau( 172) = (  -0.1816983   0.7003849   1.2092755  )
       173           C   tau( 173) = (   0.0690777   0.6498453   1.2092755  )
       174           C   tau( 174) = (  -0.0150442   0.7002937   1.2092755  )
       175           C   tau( 175) = (   0.2357740   0.6495788   1.2092755  )
       176           C   tau( 176) = (   0.1515517   0.7001983   1.2092755  )
       177           C   tau( 177) = (   0.4023204   0.6496102   1.2092755  )
       178           C   tau( 178) = (   0.3181483   0.7000822   1.2092755  )
       179           C   tau( 179) = (   0.5689502   0.6494501   1.2092755  )
       180           C   tau( 180) = (   0.4849129   0.7000266   1.2092755  )

     number of k points=     1  gaussian smearing, width (Ry)=  0.1000
                       cart. coord. in units 2pi/alat
        k(    1) = (   0.0000000   0.0000000   0.0000000), wk =   2.0000000

     Dense  grid:  1099045 G-vectors     FFT dimensions: ( 120,  90, 216)

     Smooth grid:   921191 G-vectors     FFT dimensions: ( 120,  90, 192)

     Largest allocated arrays     est. size (Mb)     dimensions
        Kohn-Sham Wavefunctions        17.23 Mb     (    1205,  937)
        NL pseudopotentials            40.82 Mb     (    1205, 2220)
        Each V/rho on FFT grid          0.49 Mb     (   32400)
        Each G-vector array             0.09 Mb     (   11445)
        G-vector shells                 0.04 Mb     (    5765)
     Largest temporary arrays     est. size (Mb)     dimensions
        Auxiliary wavefunctions        68.91 Mb     (    1205, 3748)
        Each subspace H/S matrix        5.94 Mb     (     624,  624)
        Each <psi_i|beta_j> matrix     31.74 Mb     (    2220,  937)
        Arrays for rho mixing           3.96 Mb     (   32400,    8)

     Initial potential from superposition of free atoms
     Check: negative starting charge=   -0.006977

     starting charge 1528.58101, renormalised to 1561.00000

     negative rho (up, down):  7.125E-03 0.000E+00
     Starting wfc are 1560 randomized atomic wfcs

     total cpu time spent up to now is       15.6 secs

     Self-consistent Calculation

     iteration #  1     ecut=    40.00 Ry     beta=0.70
     Davidson diagonalization with overlap
     ethr =  1.00E-04,  avg # of iterations = 21.0

     negative rho (up, down):  2.980E-04 0.000E+00

     total cpu time spent up to now is      301.3 secs

     total energy              =  172711.07967068 Ry
     Harris-Foulkes estimate   =  -20880.95101005 Ry
     estimated scf accuracy    <  213678.80493096 Ry

     iteration #  2     ecut=    40.00 Ry     beta=0.70
     Davidson diagonalization with overlap
     ethr =  1.00E-02,  avg # of iterations = 58.0

     negative rho (up, down):  5.986E-03 0.000E+00

     total cpu time spent up to now is     1164.7 secs

     total energy              =  -57506.92470425 Ry
     Harris-Foulkes estimate   = -224429.61244092 Ry
     estimated scf accuracy    <  317326.68673786 Ry

     iteration #  3     ecut=    40.00 Ry     beta=0.70
     Davidson diagonalization with overlap
     ethr =  1.00E-02,  avg # of iterations = 39.0

     negative rho (up, down):  7.691E-03 0.000E+00

     total cpu time spent up to now is     1668.1 secs

     total energy              =  -54328.37876232 Ry
     Harris-Foulkes estimate   =  -96458.74669939 Ry
     estimated scf accuracy    <  147428.28658443 Ry

     iteration #  4     ecut=    40.00 Ry     beta=0.70
     Davidson diagonalization with overlap
     ethr =  1.00E-02,  avg # of iterations = 38.0

     negative rho (up, down):  1.040E-02 0.000E+00

     total cpu time spent up to now is     2222.6 secs

     total energy              =  -48343.16699909 Ry
     Harris-Foulkes estimate   =  -66064.49363755 Ry
     estimated scf accuracy    <  151768.80305295 Ry

     iteration #  5     ecut=    40.00 Ry     beta=0.70
     Davidson diagonalization with overlap
     ethr =  1.00E-02,  avg # of iterations = 33.0

     negative rho (up, down):  6.098E-03 0.000E+00

     total cpu time spent up to now is     2517.3 secs

     total energy              =  -46194.62744049 Ry
     Harris-Foulkes estimate   =  -51851.09212912 Ry
     estimated scf accuracy    <   74234.02311860 Ry

     iteration #  6     ecut=    40.00 Ry     beta=0.70
     Davidson diagonalization with overlap
     ethr =  1.00E-02,  avg # of iterations = 25.0

     negative rho (up, down):  5.505E-03 0.000E+00

     total cpu time spent up to now is     2772.1 secs

     total energy              =  -33297.63596435 Ry
     Harris-Foulkes estimate   =  -47576.44789815 Ry
     estimated scf accuracy    <   77302.31304415 Ry

     iteration #  7     ecut=    40.00 Ry     beta=0.70
     Davidson diagonalization with overlap
     ethr =  1.00E-02,  avg # of iterations = 22.0

     negative rho (up, down):  5.614E-03 0.000E+00

     total cpu time spent up to now is     3087.1 secs

     total energy              =  -31325.63713028 Ry
     Harris-Foulkes estimate   =  -37779.38198410 Ry
     estimated scf accuracy    <   51787.89057659 Ry

     iteration #  8     ecut=    40.00 Ry     beta=0.70
     Davidson diagonalization with overlap
     ethr =  1.00E-02,  avg # of iterations = 25.0

     negative rho (up, down):  3.869E-03 0.000E+00

     total cpu time spent up to now is     3445.6 secs

     total energy              =  -31756.65685831 Ry
     Harris-Foulkes estimate   =  -38235.99252625 Ry
     estimated scf accuracy    <   70824.64718695 Ry

     iteration #  9     ecut=    40.00 Ry     beta=0.70
     Davidson diagonalization with overlap
     ethr =  1.00E-02,  avg # of iterations = 13.0

     negative rho (up, down):  3.575E-03 0.000E+00

     total cpu time spent up to now is     3548.8 secs

     total energy              =  -27598.68972328 Ry
     Harris-Foulkes estimate   =  -32396.24414907 Ry
     estimated scf accuracy    <   53639.34163311 Ry

     iteration # 10     ecut=    40.00 Ry     beta=0.70
     Davidson diagonalization with overlap
     ethr =  1.00E-02,  avg # of iterations = 11.0

     negative rho (up, down):  2.577E+01 0.000E+00

     total cpu time spent up to now is     3679.6 secs

     total energy              =   -5835.29573000 Ry
     Harris-Foulkes estimate   =  -28291.13218532 Ry
     estimated scf accuracy    <   23983.96587921 Ry

     iteration # 11     ecut=    40.00 Ry     beta=0.70
     Davidson diagonalization with overlap
     ethr =  1.00E-02,  avg # of iterations = 28.0

     negative rho (up, down):  1.957E-03 0.000E+00

     total cpu time spent up to now is     4164.8 secs

     total energy              =   14437.45997022 Ry
     Harris-Foulkes estimate   = -112251.07451080 Ry
     estimated scf accuracy    <  343229.17688583 Ry

     iteration # 12     ecut=    40.00 Ry     beta=0.70
     Davidson diagonalization with overlap
     ethr =  1.00E-02,  avg # of iterations = 25.0

     negative rho (up, down):  9.528E-03 0.000E+00

     total cpu time spent up to now is     4490.1 secs

     total energy              =  -22665.83333909 Ry
     Harris-Foulkes estimate   =  -24343.43728155 Ry
     estimated scf accuracy    <   84880.39956788 Ry

     iteration # 13     ecut=    40.00 Ry     beta=0.70
     Davidson diagonalization with overlap
     ethr =  1.00E-02,  avg # of iterations = 10.0

     negative rho (up, down):  1.327E-02 0.000E+00

     total cpu time spent up to now is     4585.1 secs

     total energy              =  -20883.26949911 Ry
     Harris-Foulkes estimate   =  -23132.18892055 Ry
     estimated scf accuracy    <   49889.05568543 Ry

     iteration # 14     ecut=    40.00 Ry     beta=0.70
     Davidson diagonalization with overlap
     ethr =  1.00E-02,  avg # of iterations =  9.0

     negative rho (up, down):  1.354E-02 0.000E+00

     total cpu time spent up to now is     4678.5 secs

     total energy              =  -20285.00882743 Ry
     Harris-Foulkes estimate   =  -21570.68616327 Ry
     estimated scf accuracy    <   42107.05802860 Ry

     iteration # 15     ecut=    40.00 Ry     beta=0.70
     Davidson diagonalization with overlap
     ethr =  1.00E-02,  avg # of iterations =  8.0

     negative rho (up, down):  1.477E-02 0.000E+00

     total cpu time spent up to now is     4757.8 secs

     total energy              =  -19562.54637471 Ry
     Harris-Foulkes estimate   =  -20928.58733060 Ry
     estimated scf accuracy    <   64482.66491657 Ry

     iteration # 16     ecut=    40.00 Ry     beta=0.70
     Davidson diagonalization with overlap
     ethr =  1.00E-02,  avg # of iterations =  9.0

     negative rho (up, down):  1.490E-02 0.000E+00

     total cpu time spent up to now is     4872.4 secs

     total energy              =  -20871.24271634 Ry
     Harris-Foulkes estimate   =  -19863.75659398 Ry
     estimated scf accuracy    <   64238.46745837 Ry

     iteration # 17     ecut=    40.00 Ry     beta=0.70
     Davidson diagonalization with overlap
     ethr =  1.00E-02,  avg # of iterations =  9.0

     negative rho (up, down):  1.417E-02 0.000E+00

     total cpu time spent up to now is     4961.8 secs

     total energy              =  -21131.94520671 Ry
     Harris-Foulkes estimate   =  -21408.39025780 Ry
     estimated scf accuracy    <   55783.62070809 Ry

     iteration # 18     ecut=    40.00 Ry     beta=0.70
     Davidson diagonalization with overlap
     ethr =  1.00E-02,  avg # of iterations =  9.0

     negative rho (up, down):  5.293E+00 0.000E+00

     total cpu time spent up to now is     5051.9 secs

     total energy              =  -21558.15425782 Ry
     Harris-Foulkes estimate   =  -21802.88016953 Ry
     estimated scf accuracy    <   66004.88079442 Ry

     iteration # 19     ecut=    40.00 Ry     beta=0.70
     Davidson diagonalization with overlap
     ethr =  1.00E-02,  avg # of iterations = 13.0

     negative rho (up, down):  2.611E+01 0.000E+00

     total cpu time spent up to now is     5228.2 secs

     total energy              =   -2276.98960320 Ry
     Harris-Foulkes estimate   =  -22560.23815791 Ry
     estimated scf accuracy    <   71360.85787363 Ry

     iteration # 20     ecut=    40.00 Ry     beta=0.70
     Davidson diagonalization with overlap
     ethr =  1.00E-02,  avg # of iterations = 18.0

     negative rho (up, down):  2.003E+01 0.000E+00

     total cpu time spent up to now is     5519.9 secs

     total energy              =   -5171.88686090 Ry
     Harris-Foulkes estimate   =  -36423.72852161 Ry
     estimated scf accuracy    <  117545.14296602 Ry

     iteration # 21     ecut=    40.00 Ry     beta=0.70
     Davidson diagonalization with overlap
     ethr =  1.00E-02,  avg # of iterations = 19.0

     negative rho (up, down):  8.131E+00 0.000E+00

     total cpu time spent up to now is     5842.0 secs

     total energy              =   11323.96545812 Ry
     Harris-Foulkes estimate   =  -55940.13497512 Ry
     estimated scf accuracy    <  292934.73382540 Ry

     iteration # 22     ecut=    40.00 Ry     beta=0.70
     Davidson diagonalization with overlap
     ethr =  1.00E-02,  avg # of iterations = 20.0

     negative rho (up, down):  1.970E-02 0.000E+00

     total cpu time spent up to now is     6172.3 secs

     total energy              =  -11672.83177965 Ry
     Harris-Foulkes estimate   =  -49723.15514401 Ry
     estimated scf accuracy    <  200363.90352451 Ry

     iteration # 23     ecut=    40.00 Ry     beta=0.70
     Davidson diagonalization with overlap
     ethr =  1.00E-02,  avg # of iterations = 20.0

     negative rho (up, down):  2.350E-02 0.000E+00

     total cpu time spent up to now is     6429.4 secs

     total energy              =  -14280.53048316 Ry
     Harris-Foulkes estimate   =  -34428.32816720 Ry
     estimated scf accuracy    <  167208.39668810 Ry

     iteration # 24     ecut=    40.00 Ry     beta=0.70
     Davidson diagonalization with overlap
     ethr =  1.00E-02,  avg # of iterations = 16.0

     negative rho (up, down):  1.671E-02 0.000E+00

     total cpu time spent up to now is     6653.6 secs

     total energy              =  -13992.31619611 Ry
     Harris-Foulkes estimate   =  -26657.96847982 Ry
     estimated scf accuracy    <  183526.32518650 Ry

     iteration # 25     ecut=    40.00 Ry     beta=0.70
     Davidson diagonalization with overlap
     ethr =  1.00E-02,  avg # of iterations = 15.0

     negative rho (up, down):  1.673E-02 0.000E+00

     total cpu time spent up to now is     6844.6 secs

     total energy              =  -16146.33656116 Ry
     Harris-Foulkes estimate   =  -20084.83656411 Ry
     estimated scf accuracy    <   55966.74517689 Ry

     iteration # 26     ecut=    40.00 Ry     beta=0.70
     Davidson diagonalization with overlap
     ethr =  1.00E-02,  avg # of iterations = 12.0

     negative rho (up, down):  1.371E-02 0.000E+00

     total cpu time spent up to now is     6987.4 secs

     total energy              =  -15899.42787594 Ry
     Harris-Foulkes estimate   =  -18031.73897042 Ry
     estimated scf accuracy    <   33475.63217973 Ry

     iteration # 27     ecut=    40.00 Ry     beta=0.70
     Davidson diagonalization with overlap
     ethr =  1.00E-02,  avg # of iterations = 13.0

     negative rho (up, down):  1.556E-02 0.000E+00

     total cpu time spent up to now is     7172.2 secs

     total energy              =  -15052.13939087 Ry
     Harris-Foulkes estimate   =  -17997.83990752 Ry
     estimated scf accuracy    <   54517.28112852 Ry

     iteration # 28     ecut=    40.00 Ry     beta=0.70
     Davidson diagonalization with overlap
     ethr =  1.00E-02,  avg # of iterations = 12.0

     negative rho (up, down):  1.601E+01 0.000E+00

     total cpu time spent up to now is     7356.4 secs

     total energy              =   -6423.42194356 Ry
     Harris-Foulkes estimate   =  -19347.28986456 Ry
     estimated scf accuracy    <   56961.31061404 Ry

     iteration # 29     ecut=    40.00 Ry     beta=0.70
     Davidson diagonalization with overlap
     c_bands:  5 eigenvalues not converged
     ethr =  1.00E-02,  avg # of iterations = 20.0

     negative rho (up, down):  2.225E+00 0.000E+00

     total cpu time spent up to now is     7669.3 secs

     total energy              =   -7521.65580695 Ry
     Harris-Foulkes estimate   =  -44587.79686853 Ry
     estimated scf accuracy    <  213045.88172092 Ry

     iteration # 30     ecut=    40.00 Ry     beta=0.70
     Davidson diagonalization with overlap
     ethr =  1.00E-02,  avg # of iterations = 14.0

     negative rho (up, down):  1.365E-01 0.000E+00

     total cpu time spent up to now is     7872.4 secs

     total energy              =  -11551.29293262 Ry
     Harris-Foulkes estimate   =  -23099.07236746 Ry
     estimated scf accuracy    <   96664.52618584 Ry

     iteration # 31     ecut=    40.00 Ry     beta=0.70
     Davidson diagonalization with overlap
     ethr =  1.00E-02,  avg # of iterations = 16.0

     negative rho (up, down):  6.669E-03 0.000E+00

     total cpu time spent up to now is     8138.0 secs

     total energy              =   -7778.21617242 Ry
     Harris-Foulkes estimate   =  -37256.20443752 Ry
     estimated scf accuracy    <  285913.03490437 Ry

     iteration # 32     ecut=    40.00 Ry     beta=0.70
     Davidson diagonalization with overlap
     ethr =  1.00E-02,  avg # of iterations = 14.0

     negative rho (up, down):  9.541E-03 0.000E+00

     total cpu time spent up to now is     8346.3 secs

     total energy              =  -14913.64999203 Ry
     Harris-Foulkes estimate   =  -17725.72535798 Ry
     estimated scf accuracy    <   27683.01768745 Ry

     iteration # 33     ecut=    40.00 Ry     beta=0.70
     Davidson diagonalization with overlap
     ethr =  1.00E-02,  avg # of iterations =  7.0

     negative rho (up, down):  6.080E-03 0.000E+00

     total cpu time spent up to now is     8432.8 secs

     total energy              =  -15277.82411808 Ry
     Harris-Foulkes estimate   =  -16246.59992089 Ry
     estimated scf accuracy    <   13391.36168744 Ry

     iteration # 34     ecut=    40.00 Ry     beta=0.70
     Davidson diagonalization with overlap
     ethr =  1.00E-02,  avg # of iterations =  6.0

     negative rho (up, down):  4.130E-03 0.000E+00

     total cpu time spent up to now is     8503.1 secs

     total energy              =  -15325.21107577 Ry
     Harris-Foulkes estimate   =  -15831.00957110 Ry
     estimated scf accuracy    <    4628.95053216 Ry

     iteration # 35     ecut=    40.00 Ry     beta=0.70
     Davidson diagonalization with overlap
     ethr =  1.00E-02,  avg # of iterations =  5.0

     negative rho (up, down):  3.472E-03 0.000E+00

     total cpu time spent up to now is     8575.2 secs

     total energy              =  -14812.09538667 Ry
     Harris-Foulkes estimate   =  -15898.88679973 Ry
     estimated scf accuracy    <    6737.82404227 Ry

     iteration # 36     ecut=    40.00 Ry     beta=0.70
     Davidson diagonalization with overlap
     ethr =  1.00E-02,  avg # of iterations = 10.0

     negative rho (up, down):  1.057E-02 0.000E+00

     total cpu time spent up to now is     8728.8 secs

     total energy              =  -13069.00664471 Ry
     Harris-Foulkes estimate   =  -17548.38379364 Ry
     estimated scf accuracy    <   41059.28303937 Ry

     iteration # 37     ecut=    40.00 Ry     beta=0.70
     Davidson diagonalization with overlap
     ethr =  1.00E-02,  avg # of iterations = 12.0

     negative rho (up, down):  1.096E-02 0.000E+00

     total cpu time spent up to now is     8930.2 secs

     total energy              =  -11026.53766935 Ry
     Harris-Foulkes estimate   =  -19277.99863100 Ry
     estimated scf accuracy    <   85941.58677852 Ry

     iteration # 38     ecut=    40.00 Ry     beta=0.70
     Davidson diagonalization with overlap
     ethr =  1.00E-02,  avg # of iterations = 12.0

     negative rho (up, down):  9.219E-03 0.000E+00

     total cpu time spent up to now is     9132.4 secs

     total energy              =  -11144.74667777 Ry
     Harris-Foulkes estimate   =  -20771.73825029 Ry
     estimated scf accuracy    <  101154.57374690 Ry

     iteration # 39     ecut=    40.00 Ry     beta=0.70
     Davidson diagonalization with overlap
     ethr =  1.00E-02,  avg # of iterations = 12.0

     negative rho (up, down):  6.013E-03 0.000E+00

     total cpu time spent up to now is     9310.4 secs

     total energy              =  -13998.65363332 Ry
     Harris-Foulkes estimate   =  -16896.19955672 Ry
     estimated scf accuracy    <   39642.39039819 Ry

     iteration # 40     ecut=    40.00 Ry     beta=0.70
     Davidson diagonalization with overlap
     ethr =  1.00E-02,  avg # of iterations =  7.0

     negative rho (up, down):  1.848E-03 0.000E+00

     total cpu time spent up to now is     9406.5 secs

     total energy              =  -14975.98505714 Ry
     Harris-Foulkes estimate   =  -15620.73599247 Ry
     estimated scf accuracy    <    2802.12096123 Ry

     iteration # 41     ecut=    40.00 Ry     beta=0.70
     Davidson diagonalization with overlap
     ethr =  1.00E-02,  avg # of iterations = 10.0

     negative rho (up, down):  1.090E-03 0.000E+00

     total cpu time spent up to now is     9558.9 secs

     total energy              =  -10910.70183232 Ry
     Harris-Foulkes estimate   =  -19863.62677707 Ry
     estimated scf accuracy    <  203022.31080337 Ry

     iteration # 42     ecut=    40.00 Ry     beta=0.70
     Davidson diagonalization with overlap
     ethr =  1.00E-02,  avg # of iterations =  8.0

     negative rho (up, down):  8.604E-04 0.000E+00

     total cpu time spent up to now is     9711.1 secs

     total energy              =  -14809.64404889 Ry
     Harris-Foulkes estimate   =  -16061.86516248 Ry
     estimated scf accuracy    <   11670.18257334 Ry

     iteration # 43     ecut=    40.00 Ry     beta=0.70
     Davidson diagonalization with overlap
     ethr =  1.00E-02,  avg # of iterations =  7.0

     negative rho (up, down):  3.931E-04 0.000E+00

     total cpu time spent up to now is     9809.4 secs

     total energy              =  -15214.08342389 Ry
     Harris-Foulkes estimate   =  -15466.51400613 Ry
     estimated scf accuracy    <    1476.33340389 Ry

     iteration # 44     ecut=    40.00 Ry     beta=0.70
     Davidson diagonalization with overlap
     ethr =  1.00E-02,  avg # of iterations =  5.0

     negative rho (up, down):  7.890E-04 0.000E+00

     total cpu time spent up to now is     9885.2 secs

     total energy              =  -14578.02811966 Ry
     Harris-Foulkes estimate   =  -16013.47653812 Ry
     estimated scf accuracy    <   10126.46524334 Ry

     iteration # 45     ecut=    40.00 Ry     beta=0.70
     Davidson diagonalization with overlap
     ethr =  1.00E-02,  avg # of iterations =  9.0

     negative rho (up, down):  1.327E-03 0.000E+00

     total cpu time spent up to now is     9993.8 secs

     total energy              =  -14744.25874957 Ry
     Harris-Foulkes estimate   =  -15954.17568134 Ry
     estimated scf accuracy    <   10037.37281479 Ry

     iteration # 46     ecut=    40.00 Ry     beta=0.70
     Davidson diagonalization with overlap
     ethr =  1.00E-02,  avg # of iterations =  6.0

     negative rho (up, down):  1.364E-03 0.000E+00

     total cpu time spent up to now is    10089.4 secs

     total energy              =  -14562.06156663 Ry
     Harris-Foulkes estimate   =  -15883.95427269 Ry
     estimated scf accuracy    <   13756.14672674 Ry

     iteration # 47     ecut=    40.00 Ry     beta=0.70
     Davidson diagonalization with overlap
     ethr =  1.00E-02,  avg # of iterations =  9.0

     negative rho (up, down):  2.076E-03 0.000E+00

     total cpu time spent up to now is    10219.4 secs

     total energy              =  -14025.02221605 Ry
     Harris-Foulkes estimate   =  -16064.30936490 Ry
     estimated scf accuracy    <   31792.09935586 Ry

     iteration # 48     ecut=    40.00 Ry     beta=0.70
     Davidson diagonalization with overlap
     ethr =  1.00E-02,  avg # of iterations =  6.0

     negative rho (up, down):  7.559E-04 0.000E+00

     total cpu time spent up to now is    10313.3 secs

     total energy              =  -14678.97054157 Ry
     Harris-Foulkes estimate   =  -15765.51139268 Ry
     estimated scf accuracy    <   14963.53794443 Ry

     iteration # 49     ecut=    40.00 Ry     beta=0.70
     Davidson diagonalization with overlap
     ethr =  1.00E-02,  avg # of iterations =  5.0

     negative rho (up, down):  1.425E-04 0.000E+00

     total cpu time spent up to now is    10388.9 secs

     total energy              =  -15165.59012639 Ry
     Harris-Foulkes estimate   =  -15430.93909427 Ry
     estimated scf accuracy    <    3328.19400988 Ry

     iteration # 50     ecut=    40.00 Ry     beta=0.70
     Davidson diagonalization with overlap
     ethr =  1.00E-02,  avg # of iterations =  5.0

     negative rho (up, down):  2.115E-04 0.000E+00

     total cpu time spent up to now is    10466.1 secs

     total energy              =  -14959.32162984 Ry
     Harris-Foulkes estimate   =  -15465.54724291 Ry
     estimated scf accuracy    <    3196.99385053 Ry

     iteration # 51     ecut=    40.00 Ry     beta=0.70
     Davidson diagonalization with overlap
     ethr =  1.00E-02,  avg # of iterations = 11.0

     negative rho (up, down):  2.730E-04 0.000E+00

     total cpu time spent up to now is    10622.9 secs

     total energy              =  -11185.21481890 Ry
     Harris-Foulkes estimate   =  -19405.69506730 Ry
     estimated scf accuracy    <  217901.83309053 Ry

     iteration # 52     ecut=    40.00 Ry     beta=0.70
     Davidson diagonalization with overlap
     ethr =  1.00E-02,  avg # of iterations =  8.0

     negative rho (up, down):  2.161E-04 0.000E+00

     total cpu time spent up to now is    10774.7 secs

     total energy              =  -14777.26207085 Ry
     Harris-Foulkes estimate   =  -15820.11531628 Ry
     estimated scf accuracy    <   10679.23901993 Ry

     iteration # 53     ecut=    40.00 Ry     beta=0.70
     Davidson diagonalization with overlap
     ethr =  1.00E-02,  avg # of iterations =  9.0

     negative rho (up, down):  3.667E-04 0.000E+00

     total cpu time spent up to now is    10882.4 secs

     total energy              =  -14874.25944472 Ry
     Harris-Foulkes estimate   =  -15950.99998006 Ry
     estimated scf accuracy    <    8299.97113914 Ry

     iteration # 54     ecut=    40.00 Ry     beta=0.70
     Davidson diagonalization with overlap
     ethr =  1.00E-02,  avg # of iterations =  6.0

     negative rho (up, down):  3.502E-04 0.000E+00

     total cpu time spent up to now is    10971.8 secs

     total energy              =  -14724.12048470 Ry
     Harris-Foulkes estimate   =  -16041.94609944 Ry
     estimated scf accuracy    <   11588.03231694 Ry

     iteration # 55     ecut=    40.00 Ry     beta=0.70
     Davidson diagonalization with overlap
     ethr =  1.00E-02,  avg # of iterations =  6.0

     negative rho (up, down):  2.263E-04 0.000E+00

     total cpu time spent up to now is    11058.3 secs

     total energy              =  -14983.84907742 Ry
     Harris-Foulkes estimate   =  -15669.47430445 Ry
     estimated scf accuracy    <    6891.01560469 Ry

     iteration # 56     ecut=    40.00 Ry     beta=0.70
     Davidson diagonalization with overlap
     ethr =  1.00E-02,  avg # of iterations =  5.0

     negative rho (up, down):  2.815E-04 0.000E+00

     total cpu time spent up to now is    11138.9 secs

     total energy              =  -14824.17452357 Ry
     Harris-Foulkes estimate   =  -15682.78390323 Ry
     estimated scf accuracy    <    9015.51285884 Ry

     iteration # 57     ecut=    40.00 Ry     beta=0.70
     Davidson diagonalization with overlap
     ethr =  1.00E-02,  avg # of iterations =  9.0

     negative rho (up, down):  9.888E-04 0.000E+00

     total cpu time spent up to now is    11277.4 secs

     total energy              =  -13687.61243399 Ry
     Harris-Foulkes estimate   =  -16525.42697662 Ry
     estimated scf accuracy    <   50394.95384389 Ry

     iteration # 58     ecut=    40.00 Ry     beta=0.70
     Davidson diagonalization with overlap
     ethr =  1.00E-02,  avg # of iterations =  9.0

     negative rho (up, down):  2.267E-04 0.000E+00

     total cpu time spent up to now is    11395.4 secs

     total energy              =  -14607.53555978 Ry
     Harris-Foulkes estimate   =  -15815.59971686 Ry
     estimated scf accuracy    <   15228.93314235 Ry

     iteration # 59     ecut=    40.00 Ry     beta=0.70
     Davidson diagonalization with overlap
     ethr =  1.00E-02,  avg # of iterations = 10.0

     negative rho (up, down):  4.527E-04 0.000E+00

     total cpu time spent up to now is    11565.5 secs

     total energy              =  -13957.85025247 Ry
     Harris-Foulkes estimate   =  -16693.42559903 Ry
     estimated scf accuracy    <   33476.22874585 Ry

     iteration # 60     ecut=    40.00 Ry     beta=0.70
     Davidson diagonalization with overlap
     ethr =  1.00E-02,  avg # of iterations = 10.0

     negative rho (up, down):  1.114E-03 0.000E+00

     total cpu time spent up to now is    11730.8 secs

     total energy              =  -13940.15351124 Ry
     Harris-Foulkes estimate   =  -16825.71134400 Ry
     estimated scf accuracy    <   29070.26393541 Ry

     iteration # 61     ecut=    40.00 Ry     beta=0.70
     Davidson diagonalization with overlap
     ethr =  1.00E-02,  avg # of iterations =  9.0

     negative rho (up, down):  2.782E-05 0.000E+00

     total cpu time spent up to now is    11878.4 secs

     total energy              =  -12720.25046315 Ry
     Harris-Foulkes estimate   =  -17074.38347860 Ry
     estimated scf accuracy    <  102364.65388319 Ry

     iteration # 62     ecut=    40.00 Ry     beta=0.70
     Davidson diagonalization with overlap
     ethr =  1.00E-02,  avg # of iterations = 10.0

     negative rho (up, down):  2.934E-04 0.000E+00

     total cpu time spent up to now is    12012.9 secs

     total energy              =  -14124.57183030 Ry
     Harris-Foulkes estimate   =  -17121.01595487 Ry
     estimated scf accuracy    <   29916.26124017 Ry

     iteration # 63     ecut=    40.00 Ry     beta=0.70
     Davidson diagonalization with overlap
     ethr =  1.00E-02,  avg # of iterations = 10.0

     negative rho (up, down):  1.467E-04 0.000E+00

     total cpu time spent up to now is    12169.5 secs

     total energy              =  -14499.79251319 Ry
     Harris-Foulkes estimate   =  -16107.91624519 Ry
     estimated scf accuracy    <   14362.52238418 Ry

     iteration # 64     ecut=    40.00 Ry     beta=0.70
     Davidson diagonalization with overlap
     ethr =  1.00E-02,  avg # of iterations =  8.0

     negative rho (up, down):  7.844E-05 0.000E+00

     total cpu time spent up to now is    12277.3 secs

     total energy              =  -14472.64280302 Ry
     Harris-Foulkes estimate   =  -16146.34777219 Ry
     estimated scf accuracy    <   13933.78643568 Ry

     iteration # 65     ecut=    40.00 Ry     beta=0.70
     Davidson diagonalization with overlap
     ethr =  1.00E-02,  avg # of iterations = 10.0

     negative rho (up, down):  4.232E-04 0.000E+00

     total cpu time spent up to now is    12411.6 secs

     total energy              =  -13594.22403269 Ry
     Harris-Foulkes estimate   =  -17125.36171903 Ry
     estimated scf accuracy    <   34518.77821864 Ry

     iteration # 66     ecut=    40.00 Ry     beta=0.70
     Davidson diagonalization with overlap
     ethr =  1.00E-02,  avg # of iterations = 12.0

     negative rho (up, down):  1.820E-03 0.000E+00

     total cpu time spent up to now is    12578.6 secs

     total energy              =  -13357.29461620 Ry
     Harris-Foulkes estimate   =  -18503.88390255 Ry
     estimated scf accuracy    <   53406.38352114 Ry

     iteration # 67     ecut=    40.00 Ry     beta=0.70
     Davidson diagonalization with overlap
     ethr =  1.00E-02,  avg # of iterations = 10.0

     negative rho (up, down):  1.186E-03 0.000E+00

     total cpu time spent up to now is    12734.2 secs

     total energy              =  -12556.35468325 Ry
     Harris-Foulkes estimate   =  -17055.94532718 Ry
     estimated scf accuracy    <   57845.77382194 Ry

     iteration # 68     ecut=    40.00 Ry     beta=0.70
     Davidson diagonalization with overlap
     ethr =  1.00E-02,  avg # of iterations = 12.0

     negative rho (up, down):  9.931E-04 0.000E+00

     total cpu time spent up to now is    12947.2 secs

     total energy              =  -11360.83367545 Ry
     Harris-Foulkes estimate   =  -21509.97382077 Ry
     estimated scf accuracy    <  121414.43236117 Ry

     iteration # 69     ecut=    40.00 Ry     beta=0.70
     Davidson diagonalization with overlap
     ethr =  1.00E-02,  avg # of iterations = 12.0

     negative rho (up, down):  1.118E-03 0.000E+00

     total cpu time spent up to now is    13151.8 secs

     total energy              =  -12204.71809396 Ry
     Harris-Foulkes estimate   =  -19769.83178448 Ry
     estimated scf accuracy    <   98750.93511029 Ry

     iteration # 70     ecut=    40.00 Ry     beta=0.70
     Davidson diagonalization with overlap
     ethr =  1.00E-02,  avg # of iterations =  9.0

     negative rho (up, down):  2.150E-03 0.000E+00

     total cpu time spent up to now is    13296.3 secs

     total energy              =  -13093.81049294 Ry
     Harris-Foulkes estimate   =  -17891.80924725 Ry
     estimated scf accuracy    <   47576.58018906 Ry

     iteration # 71     ecut=    40.00 Ry     beta=0.70
     Davidson diagonalization with overlap
     ethr =  1.00E-02,  avg # of iterations = 12.0

     negative rho (up, down):  3.589E-04 0.000E+00

     total cpu time spent up to now is    13480.7 secs

     total energy              =  -11863.19919337 Ry
     Harris-Foulkes estimate   =  -18233.74037228 Ry
     estimated scf accuracy    <  142455.28855939 Ry

     iteration # 72     ecut=    40.00 Ry     beta=0.70
     Davidson diagonalization with overlap
     ethr =  1.00E-02,  avg # of iterations = 10.0

     negative rho (up, down):  2.000E-03 0.000E+00

     total cpu time spent up to now is    13638.3 secs

     total energy              =  -12883.82439494 Ry
     Harris-Foulkes estimate   =  -17661.67101363 Ry
     estimated scf accuracy    <   48197.84390219 Ry

     iteration # 73     ecut=    40.00 Ry     beta=0.70
     Davidson diagonalization with overlap
     ethr =  1.00E-02,  avg # of iterations = 12.0

     negative rho (up, down):  2.087E-03 0.000E+00

     total cpu time spent up to now is    13857.9 secs

     total energy              =  -11164.45997456 Ry
     Harris-Foulkes estimate   =  -20947.60132796 Ry
     estimated scf accuracy    <   83164.55292617 Ry

     iteration # 74     ecut=    40.00 Ry     beta=0.70
     Davidson diagonalization with overlap
     ethr =  1.00E-02,  avg # of iterations = 13.0

     negative rho (up, down):  2.225E-03 0.000E+00

     total cpu time spent up to now is    14069.6 secs

     total energy              =  -11604.38825013 Ry
     Harris-Foulkes estimate   =  -22203.97859332 Ry
     estimated scf accuracy    <   75141.78624352 Ry

     iteration # 75     ecut=    40.00 Ry     beta=0.70
     Davidson diagonalization with overlap
     ethr =  1.00E-02,  avg # of iterations = 13.0

     negative rho (up, down):  3.738E-03 0.000E+00

     total cpu time spent up to now is    14262.4 secs

     total energy              =  -10051.47786585 Ry
     Harris-Foulkes estimate   =  -22740.05375726 Ry
     estimated scf accuracy    <  130238.50991694 Ry

     iteration # 76     ecut=    40.00 Ry     beta=0.70
     Davidson diagonalization with overlap
     ethr =  1.00E-02,  avg # of iterations = 14.0

     negative rho (up, down):  5.362E-03 0.000E+00

     total cpu time spent up to now is    14459.9 secs

     total energy              =   -9344.43570895 Ry
     Harris-Foulkes estimate   =  -22902.40541383 Ry
     estimated scf accuracy    <  164079.74535801 Ry

     iteration # 77     ecut=    40.00 Ry     beta=0.70
     Davidson diagonalization with overlap
     ethr =  1.00E-02,  avg # of iterations = 14.0

     negative rho (up, down):  5.458E-03 0.000E+00

     total cpu time spent up to now is    14661.0 secs

     total energy              =   -8942.17293366 Ry
     Harris-Foulkes estimate   =  -22845.79580455 Ry
     estimated scf accuracy    <  170042.05870352 Ry

     iteration # 78     ecut=    40.00 Ry     beta=0.70
     Davidson diagonalization with overlap
     ethr =  1.00E-02,  avg # of iterations = 13.0

     negative rho (up, down):  2.919E-03 0.000E+00

     total cpu time spent up to now is    14855.8 secs

     total energy              =   -9396.14813419 Ry
     Harris-Foulkes estimate   =  -22947.99235499 Ry
     estimated scf accuracy    <  162798.35185283 Ry

     iteration # 79     ecut=    40.00 Ry     beta=0.70
     Davidson diagonalization with overlap
     ethr =  1.00E-02,  avg # of iterations = 13.0

     negative rho (up, down):  3.348E-03 0.000E+00

     total cpu time spent up to now is    15060.6 secs

     total energy              =   -9327.71334431 Ry
     Harris-Foulkes estimate   =  -25116.10968910 Ry
     estimated scf accuracy    <  174133.70396367 Ry

     iteration # 80     ecut=    40.00 Ry     beta=0.70
     Davidson diagonalization with overlap
     ethr =  1.00E-02,  avg # of iterations = 14.0

     negative rho (up, down):  5.373E-03 0.000E+00

     total cpu time spent up to now is    15260.0 secs

     total energy              =   -8319.88628111 Ry
     Harris-Foulkes estimate   =  -25326.00091169 Ry
     estimated scf accuracy    <  149134.04449399 Ry

     iteration # 81     ecut=    40.00 Ry     beta=0.70
     Davidson diagonalization with overlap
     ethr =  1.00E-02,  avg # of iterations = 17.0

     negative rho (up, down):  1.540E-03 0.000E+00

     total cpu time spent up to now is    15539.5 secs

     total energy              =   -7397.51787235 Ry
     Harris-Foulkes estimate   =  -27417.91154184 Ry
     estimated scf accuracy    <  256136.45244322 Ry

     iteration # 82     ecut=    40.00 Ry     beta=0.70
     Davidson diagonalization with overlap
     ethr =  1.00E-02,  avg # of iterations = 17.0

     negative rho (up, down):  5.249E-03 0.000E+00

     total cpu time spent up to now is    15777.4 secs

     total energy              =   -7159.44620641 Ry
     Harris-Foulkes estimate   =  -27592.25636506 Ry
     estimated scf accuracy    <  161275.24911164 Ry

     iteration # 83     ecut=    40.00 Ry     beta=0.70
     Davidson diagonalization with overlap
     ethr =  1.00E-02,  avg # of iterations = 15.0

     negative rho (up, down):  5.476E-03 0.000E+00

     total cpu time spent up to now is    15995.6 secs

     total energy              =   -8525.38087765 Ry
     Harris-Foulkes estimate   =  -25697.26881340 Ry
     estimated scf accuracy    <  140393.23253325 Ry

     iteration # 84     ecut=    40.00 Ry     beta=0.70
     Davidson diagonalization with overlap
     ethr =  1.00E-02,  avg # of iterations = 15.0

     negative rho (up, down):  4.641E-03 0.000E+00

     total cpu time spent up to now is    16210.2 secs

     total energy              =   -7587.47330542 Ry
     Harris-Foulkes estimate   =  -24316.99171141 Ry
     estimated scf accuracy    <  147980.51877186 Ry

     iteration # 85     ecut=    40.00 Ry     beta=0.70
     Davidson diagonalization with overlap
     ethr =  1.00E-02,  avg # of iterations = 15.0

     negative rho (up, down):  8.328E-03 0.000E+00

     total cpu time spent up to now is    16442.6 secs

     total energy              =   -7310.33701376 Ry
     Harris-Foulkes estimate   =  -31930.39455783 Ry
     estimated scf accuracy    <  215917.55797281 Ry

     iteration # 86     ecut=    40.00 Ry     beta=0.70
     Davidson diagonalization with overlap
     ethr =  1.00E-02,  avg # of iterations = 16.0

     negative rho (up, down):  9.400E-03 0.000E+00

     total cpu time spent up to now is    16667.5 secs

     total energy              =   -6113.74644041 Ry
     Harris-Foulkes estimate   =  -29602.34611227 Ry
     estimated scf accuracy    <  239214.61233237 Ry

     iteration # 87     ecut=    40.00 Ry     beta=0.70
     Davidson diagonalization with overlap
     ethr =  1.00E-02,  avg # of iterations = 15.0

     negative rho (up, down):  1.019E-02 0.000E+00

     total cpu time spent up to now is    16897.1 secs

     total energy              =   -5116.15340218 Ry
     Harris-Foulkes estimate   =  -29791.82591193 Ry
     estimated scf accuracy    <  249615.43448775 Ry

     iteration # 88     ecut=    40.00 Ry     beta=0.70
     Davidson diagonalization with overlap
     ethr =  1.00E-02,  avg # of iterations = 15.0

     negative rho (up, down):  6.360E-03 0.000E+00

     total cpu time spent up to now is    17126.1 secs

     total energy              =   -6162.89092649 Ry
     Harris-Foulkes estimate   =  -27036.96268851 Ry
     estimated scf accuracy    <  199211.28139927 Ry

     iteration # 89     ecut=    40.00 Ry     beta=0.70
     Davidson diagonalization with overlap
     ethr =  1.00E-02,  avg # of iterations = 16.0

     negative rho (up, down):  6.667E-03 0.000E+00

     total cpu time spent up to now is    17373.1 secs

     total energy              =   -7533.34646774 Ry
     Harris-Foulkes estimate   =  -28782.94469963 Ry
     estimated scf accuracy    <  205058.36686769 Ry

     iteration # 90     ecut=    40.00 Ry     beta=0.70
     Davidson diagonalization with overlap
     ethr =  1.00E-02,  avg # of iterations = 16.0

     negative rho (up, down):  9.665E-03 0.000E+00

     total cpu time spent up to now is    17604.5 secs

     total energy              =   -5434.94828539 Ry
     Harris-Foulkes estimate   =  -30781.70629528 Ry
     estimated scf accuracy    <  196741.93887227 Ry

     iteration # 91     ecut=    40.00 Ry     beta=0.70
     Davidson diagonalization with overlap
     ethr =  1.00E-02,  avg # of iterations = 21.0

     negative rho (up, down):  2.919E-03 0.000E+00

     total cpu time spent up to now is    17901.4 secs

     total energy              =   -6090.89476464 Ry
     Harris-Foulkes estimate   =  -32043.84691766 Ry
     estimated scf accuracy    <  270375.72244518 Ry

     iteration # 92     ecut=    40.00 Ry     beta=0.70
     Davidson diagonalization with overlap
     ethr =  1.00E-02,  avg # of iterations = 15.0

     negative rho (up, down):  9.827E-03 0.000E+00

     total cpu time spent up to now is    18135.9 secs

     total energy              =   -6149.69328199 Ry
     Harris-Foulkes estimate   =  -30411.87096089 Ry
     estimated scf accuracy    <  185278.10563662 Ry

     iteration # 93     ecut=    40.00 Ry     beta=0.70
     Davidson diagonalization with overlap
     ethr =  1.00E-02,  avg # of iterations = 15.0

     negative rho (up, down):  9.580E-03 0.000E+00

     total cpu time spent up to now is    18361.3 secs

     total energy              =   -6655.76174258 Ry
     Harris-Foulkes estimate   =  -30083.02076139 Ry
     estimated scf accuracy    <  182095.90398251 Ry

     iteration # 94     ecut=    40.00 Ry     beta=0.70
     Davidson diagonalization with overlap
     ethr =  1.00E-02,  avg # of iterations = 16.0

     negative rho (up, down):  9.259E-03 0.000E+00

     total cpu time spent up to now is    18596.6 secs

     total energy              =   -4954.09968535 Ry
     Harris-Foulkes estimate   =  -27901.50961391 Ry
     estimated scf accuracy    <  203345.13426329 Ry

     iteration # 95     ecut=    40.00 Ry     beta=0.70
     Davidson diagonalization with overlap
     ethr =  1.00E-02,  avg # of iterations = 18.0

     negative rho (up, down):  1.419E-02 0.000E+00

     total cpu time spent up to now is    18855.6 secs

     total energy              =   -7219.36607983 Ry
     Harris-Foulkes estimate   =  -34174.60635664 Ry
     estimated scf accuracy    <  240400.90084924 Ry

     iteration # 96     ecut=    40.00 Ry     beta=0.70
     Davidson diagonalization with overlap
     ethr =  1.00E-02,  avg # of iterations = 15.0

     negative rho (up, down):  1.509E-02 0.000E+00

     total cpu time spent up to now is    19083.2 secs

     total energy              =   -5155.39402985 Ry
     Harris-Foulkes estimate   =  -32404.21676797 Ry
     estimated scf accuracy    <  254178.25260820 Ry

     iteration # 97     ecut=    40.00 Ry     beta=0.70
     Davidson diagonalization with overlap
     ethr =  1.00E-02,  avg # of iterations = 15.0

     negative rho (up, down):  1.533E-02 0.000E+00

     total cpu time spent up to now is    19319.8 secs

     total energy              =   -3967.99814379 Ry
     Harris-Foulkes estimate   =  -31856.91115049 Ry
     estimated scf accuracy    <  261868.21043100 Ry

     iteration # 98     ecut=    40.00 Ry     beta=0.70
     Davidson diagonalization with overlap
     ethr =  1.00E-02,  avg # of iterations = 15.0

     negative rho (up, down):  1.123E-02 0.000E+00

     total cpu time spent up to now is    19546.7 secs

     total energy              =   -5269.32708954 Ry
     Harris-Foulkes estimate   =  -29757.88793722 Ry
     estimated scf accuracy    <  204852.37857966 Ry

     iteration # 99     ecut=    40.00 Ry     beta=0.70
     Davidson diagonalization with overlap
     ethr =  1.00E-02,  avg # of iterations = 16.0

     negative rho (up, down):  1.046E-02 0.000E+00

     total cpu time spent up to now is    19796.3 secs

     total energy              =   -6941.20808666 Ry
     Harris-Foulkes estimate   =  -30603.14266244 Ry
     estimated scf accuracy    <  216174.30928150 Ry

     iteration #100     ecut=    40.00 Ry     beta=0.70
     Davidson diagonalization with overlap
     ethr =  1.00E-02,  avg # of iterations = 14.0

     negative rho (up, down):  1.434E-02 0.000E+00

     total cpu time spent up to now is    20016.8 secs

     total energy              =   -4839.07332002 Ry
     Harris-Foulkes estimate   =  -31262.10075516 Ry
     estimated scf accuracy    <  198981.72902067 Ry

     End of self-consistent calculation

     convergence NOT achieved after 100 iterations: stopping

     Writing output data file gc.save
 
     init_run     :     13.87s CPU     15.11s WALL (       1 calls)
     electrons    :  19498.59s CPU  20001.39s WALL (       1 calls)

     Called by init_run:
     wfcinit      :     12.07s CPU     12.62s WALL (       1 calls)
     potinit      :      0.24s CPU      0.27s WALL (       1 calls)

     Called by electrons:
     c_bands      :  19281.63s CPU  19770.39s WALL (     100 calls)
     sum_band     :    201.83s CPU    212.11s WALL (     100 calls)
     v_of_rho     :      3.71s CPU      4.08s WALL (     101 calls)
     newd         :      9.30s CPU     12.39s WALL (     101 calls)
     mix_rho      :      1.41s CPU      1.56s WALL (     100 calls)

     Called by c_bands:
     init_us_2    :      3.12s CPU      3.40s WALL (     201 calls)
     cegterg      :  19265.92s CPU  19752.60s WALL (     112 calls)

     Called by sum_band:
     sum_band:bec :      4.03s CPU      4.40s WALL (     100 calls)
     addusdens    :      9.39s CPU     12.77s WALL (     100 calls)

     Called by *egterg:
     h_psi        :   3594.52s CPU   3699.34s WALL (    1498 calls)
     s_psi        :   1008.72s CPU   1036.86s WALL (    1498 calls)
     g_psi        :     11.15s CPU     11.15s WALL (    1385 calls)
     cdiaghg      :   9272.22s CPU   9456.86s WALL (    1496 calls)

     Called by h_psi:
     add_vuspsi   :    978.46s CPU   1006.27s WALL (    1498 calls)

     General routines
     calbec       :   1212.83s CPU   1231.18s WALL (    1598 calls)
     fft          :      5.88s CPU      6.84s WALL (    1614 calls)
     ffts         :      0.47s CPU      0.71s WALL (     201 calls)
     fftw         :   1531.82s CPU   1575.44s WALL ( 1964346 calls)
     interpolate  :      1.02s CPU      1.42s WALL (     201 calls)
     davcio       :      0.02s CPU      0.15s WALL (      19 calls)
 
     Parallel routines
     fft_scatter  :   1127.96s CPU   1095.98s WALL ( 1966161 calls)
 
     PWSCF        :     5h25m CPU        5h33m WALL

 
   This run was terminated on:  10:36:17  26Mar2017            

=------------------------------------------------------------------------------=
   JOB DONE.
=------------------------------------------------------------------------------=
-------------------------------------------------------
Primary job  terminated normally, but 1 process returned
a non-zero exit code.. Per user-direction, the job has been aborted.
-------------------------------------------------------
--------------------------------------------------------------------------
mpirun detected that one or more processes exited with non-zero status, thus causing
the job to be terminated. The first process to do so was:

  Process name: [[11179,1],1]
  Exit code:    2
--------------------------------------------------------------------------
