
     Program PWSCF v.5.4.0 starts on 26Apr2017 at 20:53: 8 

     This program is part of the open-source Quantum ESPRESSO suite
     for quantum simulation of materials; please cite
         "P. Giannozzi et al., J. Phys.:Condens. Matter 21 395502 (2009);
          URL http://www.quantum-espresso.org", 
     in publications or presentations arising from this work. More details at
     http://www.quantum-espresso.org/quote

     Parallel version (MPI & OpenMP), running on      56 processor cores
     Number of MPI processes:                56
     Threads/MPI process:                     1
     R & G space division:  proc/nbgrp/npool/nimage =      56
     Waiting for input...
     Reading input from standard input
Warning: card &IONS ignored
Warning: card / ignored

     Current dimensions of program PWSCF are:
     Max number of different atomic species (ntypx) = 10
     Max number of k-points (npk) =  40000
     Max angular momentum in pseudopotentials (lmaxx) =  3

     -------------------------------------
     Parameters for Dispersion Correction:
     -------------------------------------
       atom      VdW radius       C_6     

        Cu         2.952        374.666
        C_h        2.744         60.710
        C          2.744         60.710
        H          1.892          4.857

     Subspace diagonalization in iterative solution of the eigenvalue problem:
     one sub-group per band group will be used
     scalapack distributed-memory algorithm (size of sub-group:  5*  5 procs)

 
     Parallelization info
     --------------------
     sticks:   dense  smooth     PW     G-vecs:    dense   smooth      PW
     Min         204     204     54                36612    36612    4962
     Max         205     205     55                36617    36617    4968
     Sum       11433   11433   3039              2050409  2050409  278033
 


     bravais-lattice index     =            0
     lattice parameter (alat)  =      13.9425  a.u.
     unit-cell volume          =   21209.0878 (a.u.)^3
     number of atoms/cell      =          154
     number of atomic types    =            4
     number of electrons       =      1304.00
     number of Kohn-Sham states=          782
     kinetic-energy cutoff     =      80.0000  Ry
     charge density cutoff     =     320.0000  Ry
     convergence threshold     =      1.0E-08
     mixing beta               =       0.7000
     number of iterations used =            8  local-TF  mixing
     Exchange-correlation      =  SLA  PW   PBE  PBE ( 1  4  3  4 0 0)

     celldm(1)=  13.942539  celldm(2)=   0.000000  celldm(3)=   0.000000
     celldm(4)=   0.000000  celldm(5)=   0.000000  celldm(6)=   0.000000

     crystal axes: (cart. coord. in units of alat)
               a(1) = (   1.000000   0.000000   0.000000 )  
               a(2) = (   0.000000   2.309401   0.000000 )  
               a(3) = (   0.000000   0.000000   3.388418 )  

     reciprocal axes: (cart. coord. in units 2 pi/alat)
               b(1) = (  1.000000  0.000000  0.000000 )  
               b(2) = (  0.000000  0.433013  0.000000 )  
               b(3) = (  0.000000  0.000000  0.295123 )  


     PseudoPot. # 1 for Cu read from file:
     /home/549/hxw549/Short/pseudopotentials/Cu.pbe-n-van_ak.UPF
     MD5 check sum: 601f7c30f7467666bec936e0661ce3e1
     Pseudo is Ultrasoft + core correction, Zval = 11.0
     Generated by new atomic code, or converted to UPF format
     Using radial grid of  867 points,  6 beta functions with: 
                l(1) =   0
                l(2) =   0
                l(3) =   1
                l(4) =   1
                l(5) =   2
                l(6) =   2
     Q(r) pseudized with  8 coefficients,  rinner =    1.400   1.400   1.400
                                                       1.400   1.400

     PseudoPot. # 2 for C  read from file:
     /home/549/hxw549/Short/pseudopotentials/C.star1s-pbe-mt_gipaw.UPF
     MD5 check sum: ef0cb3dee31bd9e4ba2a832a2c716264
     Pseudo is Norm-conserving, Zval =  5.0
     Generated by new atomic code, or converted to UPF format
     Using radial grid of 1073 points,  1 beta functions with: 
                l(1) =   0

     PseudoPot. # 3 for C  read from file:
     /home/549/hxw549/Short/pseudopotentials/C.pbe-mt_gipaw.UPF
     MD5 check sum: 5ac2f21f2c440b14befe521540822c15
     Pseudo is Norm-conserving, Zval =  4.0
     Generated by new atomic code, or converted to UPF format
     Using radial grid of 1073 points,  1 beta functions with: 
                l(1) =   0

     PseudoPot. # 4 for H  read from file:
     /home/549/hxw549/Short/pseudopotentials/H.pbe-van_ak.UPF
     MD5 check sum: 077eb6d537518a38cb46c6de387227b7
     Pseudo is Ultrasoft, Zval =  1.0
     Generated by new atomic code, or converted to UPF format
     Using radial grid of  615 points,  1 beta functions with: 
                l(1) =   0
     Q(r) pseudized with  8 coefficients,  rinner =    0.800

     atomic species   valence    mass     pseudopotential
        Cu            11.00    63.54600     Cu( 1.00)
        C_h            5.00    12.01070     C ( 1.00)
        C              4.00    12.01070     C ( 1.00)
        H              1.00     1.00783     H ( 1.00)

     No symmetry found



   Cartesian axes

     site n.     atom                  positions (alat units)
         1           Cu  tau(   1) = (   0.0002043  -0.0025717   0.9942108  )
         2           Cu  tau(   2) = (   0.2502613   0.2244800   0.9935968  )
         3           Cu  tau(   3) = (   0.5002401  -0.0038862   0.9924746  )
         4           Cu  tau(   4) = (   0.7502060   0.2245063   0.9935693  )
         5           Cu  tau(   5) = (   0.0002385   0.4557669   0.9935004  )
         6           Cu  tau(   6) = (   0.2507651   0.6896551   0.9949714  )
         7           Cu  tau(   7) = (   0.5002412   0.4563759   0.9953699  )
         8           Cu  tau(   8) = (   0.7497243   0.6896526   0.9949528  )
         9           Cu  tau(   9) = (   0.0002741   0.9239688   0.9944310  )
        10           Cu  tau(  10) = (   0.2507484   1.1588995   0.9942913  )
        11           Cu  tau(  11) = (   0.5002229   0.9239521   0.9954916  )
        12           Cu  tau(  12) = (   0.7497205   1.1588751   0.9942577  )
        13           Cu  tau(  13) = (   0.0002005   1.3941797   0.9917183  )
        14           Cu  tau(  14) = (   0.2501890   1.6270419   0.9911099  )
        15           Cu  tau(  15) = (   0.5002472   1.3936651   0.9934814  )
        16           Cu  tau(  16) = (   0.7502464   1.6270434   0.9911362  )
        17           Cu  tau(  17) = (   0.0002210   1.8550921   0.9925404  )
        18           Cu  tau(  18) = (   0.2495825   2.0811673   0.9931877  )
        19           Cu  tau(  19) = (   0.5001965   1.8563988   0.9902085  )
        20           Cu  tau(  20) = (   0.7508427   2.0811476   0.9932235  )
        21           Cu  tau(  21) = (   0.0002482   0.2242931   1.2447837  )
        22           Cu  tau(  22) = (   0.2498761  -0.0033647   1.2471709  )
        23           Cu  tau(  23) = (   0.5002534   0.2222256   1.2422400  )
        24           Cu  tau(  24) = (   0.7506131  -0.0032893   1.2472346  )
        25           Cu  tau(  25) = (   0.0002667   0.6880630   1.2386669  )
        26           Cu  tau(  26) = (   0.2499562   0.4537637   1.2405942  )
        27           Cu  tau(  27) = (   0.5002943   0.6886442   1.2414404  )
        28           Cu  tau(  28) = (   0.7505742   0.4537472   1.2405793  )
        29           Cu  tau(  29) = (   0.0002476   1.1616965   1.2368574  )
        30           Cu  tau(  30) = (   0.2501502   0.9246196   1.2399440  )
        31           Cu  tau(  31) = (   0.5002819   1.1610726   1.2392902  )
        32           Cu  tau(  32) = (   0.7504072   0.9246098   1.2398995  )
        33           Cu  tau(  33) = (   0.0002198   1.6276529   1.2413369  )
        34           Cu  tau(  34) = (   0.2500613   1.3973758   1.2371512  )
        35           Cu  tau(  35) = (   0.5002401   1.6298765   1.2389540  )
        36           Cu  tau(  36) = (   0.7504172   1.3973475   1.2371744  )
        37           Cu  tau(  37) = (   0.0002075   2.0807183   1.2476202  )
        38           Cu  tau(  38) = (   0.2497642   1.8554798   1.2448912  )
        39           Cu  tau(  39) = (   0.5002618   2.0801741   1.2465346  )
        40           Cu  tau(  40) = (   0.7507077   1.8554268   1.2449327  )
        41           Cu  tau(  41) = (   0.0002334  -0.0025479   1.5022411  )
        42           Cu  tau(  42) = (   0.2492996   0.2254476   1.4970463  )
        43           Cu  tau(  43) = (   0.5003214  -0.0027157   1.4992700  )
        44           Cu  tau(  44) = (   0.7512954   0.2255017   1.4971177  )
        45           Cu  tau(  45) = (   0.0003236   0.4551980   1.4912380  )
        46           Cu  tau(  46) = (   0.2489867   0.6863144   1.4839175  )
        47           Cu  tau(  47) = (   0.5002861   0.4519356   1.4867713  )
        48           Cu  tau(  48) = (   0.7516492   0.6862933   1.4839869  )
        49           Cu  tau(  49) = (   0.0002891   0.9256767   1.4809594  )
        50           Cu  tau(  50) = (   0.2492486   1.1657936   1.4807251  )
        51           Cu  tau(  51) = (   0.5003544   0.9256491   1.4819086  )
        52           Cu  tau(  52) = (   0.7513260   1.1657516   1.4807751  )
        53           Cu  tau(  53) = (   0.0002539   1.3977035   1.4865052  )
        54           Cu  tau(  54) = (   0.2494736   1.6273793   1.4925966  )
        55           Cu  tau(  55) = (   0.5002895   1.4001490   1.4829612  )
        56           Cu  tau(  56) = (   0.7510670   1.6273340   1.4927039  )
        57           Cu  tau(  57) = (   0.0002574   1.8538138   1.5005000  )
        58           Cu  tau(  58) = (   0.2505253   2.0800732   1.5028238  )
        59           Cu  tau(  59) = (   0.5002697   1.8533783   1.4989645  )
        60           Cu  tau(  60) = (   0.7500065   2.0800441   1.5027965  )
        61           Cu  tau(  61) = (   0.0002937   0.2304988   1.7509922  )
        62           Cu  tau(  62) = (   0.2500863   0.0006243   1.7553958  )
        63           Cu  tau(  63) = (   0.5003616   0.2277639   1.7456260  )
        64           Cu  tau(  64) = (   0.7505373   0.0005627   1.7554292  )
        65           Cu  tau(  65) = (   0.0004664   0.6922260   1.7324316  )
        66           Cu  tau(  66) = (   0.2495677   0.4596615   1.7423903  )
        67           Cu  tau(  67) = (   0.5003916   0.6843092   1.7208806  )
        68           Cu  tau(  68) = (   0.7511618   0.4598404   1.7425480  )
        69           Cu  tau(  69) = (   0.0003083   1.1637444   1.7266669  )
        70           Cu  tau(  70) = (   0.2482537   0.9279368   1.7172561  )
        71           Cu  tau(  71) = (   0.5003366   1.1707054   1.7175919  )
        72           Cu  tau(  72) = (   0.7523780   0.9278273   1.7174595  )
        73           Cu  tau(  73) = (   0.0002651   1.6217586   1.7491300  )
        74           Cu  tau(  74) = (   0.2494393   1.3965543   1.7355819  )
        75           Cu  tau(  75) = (   0.5003389   1.6217397   1.7455006  )
        76           Cu  tau(  76) = (   0.7511621   1.3963967   1.7358119  )
        77           Cu  tau(  77) = (   0.0003291   2.0792459   1.7574384  )
        78           Cu  tau(  78) = (   0.2504323   1.8496511   1.7542337  )
        79           Cu  tau(  79) = (   0.5002783   2.0803316   1.7561957  )
        80           Cu  tau(  80) = (   0.7501861   1.8497038   1.7542225  )
        81           Cu  tau(  81) = (   0.0003184   0.0041178   2.0034186  )
        82           Cu  tau(  82) = (   0.2487642   0.2367193   2.0013239  )
        83           Cu  tau(  83) = (   0.5003358   0.0055922   2.0032012  )
        84           Cu  tau(  84) = (   0.7519720   0.2368324   2.0013947  )
        85           Cu  tau(  85) = (   0.0005168   0.4719240   1.9933684  )
        86           Cu  tau(  86) = (   0.2511744   0.7019439   1.9732905  )
        87           Cu  tau(  87) = (   0.5003937   0.4613158   1.9840152  )
        88           Cu  tau(  88) = (   0.7499376   0.7020931   1.9731588  )
        89           Cu  tau(  89) = (   0.0006719   0.9309442   1.9670230  )
        90           Cu  tau(  90) = (   0.2472093   1.1617877   1.9664531  )
        91           Cu  tau(  91) = (   0.5003359   0.9344534   1.9351709  )
        92           Cu  tau(  92) = (   0.7534211   1.1612543   1.9666763  )
        93           Cu  tau(  93) = (   0.0002357   1.3850550   1.9949752  )
        94           Cu  tau(  94) = (   0.2507924   1.6139028   2.0000820  )
        95           Cu  tau(  95) = (   0.5003821   1.3850011   1.9865794  )
        96           Cu  tau(  96) = (   0.7498026   1.6139192   2.0001243  )
        97           Cu  tau(  97) = (   0.0002643   1.8448113   2.0041961  )
        98           Cu  tau(  98) = (   0.2503795   2.0793699   2.0038159  )
        99           Cu  tau(  99) = (   0.5003582   1.8452819   2.0008624  )
       100           Cu  tau( 100) = (   0.7502529   2.0794083   2.0038345  )
       101           C   tau( 101) = (  -0.0000820   0.0994921   2.4176984  )
       102           C   tau( 102) = (  -0.0000762   0.2913254   2.4480389  )
       103           C   tau( 103) = (   0.1666439   0.0023668   2.4080360  )
       104           C   tau( 104) = (   0.1667082   0.3864411   2.4688191  )
       105           C   tau( 105) = (   0.3333383   0.0990832   2.4193349  )
       106           C   tau( 106) = (   0.3334728   0.2909126   2.4500476  )
       107           C   tau( 107) = (   0.4999784   0.0017143   2.4092302  )
       108           C   tau( 108) = (   0.4999661   0.3868195   2.4710727  )
       109           C   tau( 109) = (   0.6666262   0.0992659   2.4189926  )
       110           C   tau( 110) = (   0.6664596   0.2910804   2.4501051  )
       111           C   tau( 111) = (   0.8332539   0.0023779   2.4079829  )
       112           C   tau( 112) = (   0.8332277   0.3866350   2.4687918  )
       113           C   tau( 113) = (   0.0000403   0.6720196   2.5268195  )
       114           C   tau( 114) = (  -0.0000986   0.8652796   2.5438154  )
       115           C   tau( 115) = (   0.1668103   0.5757926   2.5119236  )
       116           C   tau( 116) = (   0.1665600   0.9627473   2.5465274  )
       117           C   tau( 117) = (   0.3330312   0.6712277   2.5370352  )
       118           C   tau( 118) = (   0.3329260   0.8649803   2.5584709  )
       119           C_h tau( 119) = (   0.4999678   0.5758834   2.5165222  )
       120           C   tau( 120) = (   0.4998989   0.9628021   2.5587465  )
       121           C   tau( 121) = (   0.6668989   0.6713415   2.5368545  )
       122           C   tau( 122) = (   0.6667893   0.8649923   2.5586673  )
       123           C   tau( 123) = (   0.8331901   0.5761062   2.5113005  )
       124           C   tau( 124) = (   0.8331969   0.9626897   2.5461120  )
       125           C   tau( 125) = (  -0.0000243   1.2500548   2.4972855  )
       126           C   tau( 126) = (  -0.0000698   1.4397649   2.4566319  )
       127           C   tau( 127) = (   0.1667246   1.1549732   2.5191366  )
       128           C   tau( 128) = (   0.1668110   1.5354076   2.4386302  )
       129           C   tau( 129) = (   0.3337215   1.2505483   2.5022062  )
       130           C   tau( 130) = (   0.3335665   1.4402136   2.4597849  )
       131           C   tau( 131) = (   0.5000231   1.1549272   2.5262646  )
       132           C   tau( 132) = (   0.4999542   1.5364756   2.4422660  )
       133           C   tau( 133) = (   0.6663535   1.2507838   2.5026745  )
       134           C   tau( 134) = (   0.6663273   1.4403280   2.4596502  )
       135           C   tau( 135) = (   0.8332364   1.1550018   2.5191954  )
       136           C   tau( 136) = (   0.8330873   1.5356002   2.4386624  )
       137           C   tau( 137) = (   0.0000116   1.8253202   2.4018558  )
       138           C   tau( 138) = (   0.0000196   2.0197421   2.3966618  )
       139           C   tau( 139) = (   0.1668197   1.7277230   2.4111725  )
       140           C   tau( 140) = (   0.1665746   2.1176017   2.3972421  )
       141           C   tau( 141) = (   0.3331845   1.8256422   2.4066204  )
       142           C   tau( 142) = (   0.3332534   2.0196932   2.3984457  )
       143           C   tau( 143) = (   0.4999370   1.7289126   2.4167529  )
       144           C   tau( 144) = (   0.5000099   2.1170870   2.4001936  )
       145           C   tau( 145) = (   0.6667327   1.8257007   2.4067262  )
       146           C   tau( 146) = (   0.6667417   2.0197320   2.3984131  )
       147           C   tau( 147) = (   0.8331274   1.7279717   2.4117050  )
       148           C   tau( 148) = (   0.8334572   2.1176137   2.3974753  )
       149           H   tau( 149) = (   0.3319518   0.9970929   2.2372295  )
       150           H   tau( 150) = (   0.3375949   0.7492820   2.2231231  )
       151           C   tau( 151) = (   0.4041456   0.8783738   2.1864677  )
       152           C   tau( 152) = (   0.5984102   0.8800587   2.1857443  )
       153           H   tau( 153) = (   0.6686529   0.9999537   2.2365904  )
       154           H   tau( 154) = (   0.6674899   0.7523297   2.2227089  )

     number of k points=     6  gaussian smearing, width (Ry)=  0.1000
                       cart. coord. in units 2pi/alat
        k(    1) = (   0.0000000   0.0000000   0.0000000), wk =   0.2500000
        k(    2) = (   0.0000000  -0.2165064   0.0000000), wk =   0.2500000
        k(    3) = (   0.2500000   0.0000000   0.0000000), wk =   0.5000000
        k(    4) = (   0.2500000  -0.2165064   0.0000000), wk =   0.5000000
        k(    5) = (  -0.5000000   0.0000000   0.0000000), wk =   0.2500000
        k(    6) = (  -0.5000000  -0.2165064   0.0000000), wk =   0.2500000

     Dense  grid:  2050409 G-vectors     FFT dimensions: (  80, 192, 270)

     Largest allocated arrays     est. size (Mb)     dimensions
        Kohn-Sham Wavefunctions        54.94 Mb     (    4604,  782)
        NL pseudopotentials           130.25 Mb     (    4604, 1854)
        Each V/rho on FFT grid          1.17 Mb     (   76800)
        Each G-vector array             0.28 Mb     (   36616)
        G-vector shells                 0.14 Mb     (   17932)
     Largest temporary arrays     est. size (Mb)     dimensions
        Auxiliary wavefunctions       219.75 Mb     (    4604, 3128)
        Each subspace H/S matrix        5.96 Mb     (     625,  625)
        Each <psi_i|beta_j> matrix     22.12 Mb     (    1854,  782)
        Arrays for rho mixing           9.38 Mb     (   76800,    8)

     Initial potential from superposition of free atoms
     Check: negative starting charge=   -0.001698

     starting charge 1277.81747, renormalised to 1304.00000

     negative rho (up, down):  1.733E-03 0.000E+00
     Starting wfc are 1304 randomized atomic wfcs

     total cpu time spent up to now is      106.7 secs

     Self-consistent Calculation

     iteration #  1     ecut=    80.00 Ry     beta=0.70
     Davidson diagonalization with overlap
     c_bands:  3 eigenvalues not converged
     ethr =  1.00E-04,  avg # of iterations = 48.8

     negative rho (up, down):  2.531E+01 0.000E+00

     total cpu time spent up to now is     2509.6 secs

     total energy              =   -9877.17205619 Ry
     Harris-Foulkes estimate   =  -18055.51258300 Ry
     estimated scf accuracy    <  202381.25795546 Ry

     iteration #  2     ecut=    80.00 Ry     beta=0.70
     Davidson diagonalization with overlap
     ethr =  1.00E-02,  avg # of iterations = 15.5

     negative rho (up, down):  3.012E+01 0.000E+00

     total cpu time spent up to now is     3521.4 secs

     total energy              =  -11440.50502380 Ry
     Harris-Foulkes estimate   =  -13846.69791277 Ry
     estimated scf accuracy    <   44824.37153195 Ry

     iteration #  3     ecut=    80.00 Ry     beta=0.70
     Davidson diagonalization with overlap
     ethr =  1.00E-02,  avg # of iterations = 21.2

     negative rho (up, down):  2.987E+01 0.000E+00

     total cpu time spent up to now is     5038.2 secs

     total energy              =  -11874.81691209 Ry
     Harris-Foulkes estimate   =  -13977.38486119 Ry
     estimated scf accuracy    <    7935.80290264 Ry

     iteration #  4     ecut=    80.00 Ry     beta=0.70
     Davidson diagonalization with overlap
     ethr =  1.00E-02,  avg # of iterations =  4.3

     negative rho (up, down):  2.056E+01 0.000E+00

     total cpu time spent up to now is     5523.3 secs

     total energy              =  -12870.04759387 Ry
     Harris-Foulkes estimate   =  -13044.90738929 Ry
     estimated scf accuracy    <     950.60321342 Ry

     iteration #  5     ecut=    80.00 Ry     beta=0.70
     Davidson diagonalization with overlap
     ethr =  1.00E-02,  avg # of iterations =  3.0

     negative rho (up, down):  1.844E+01 0.000E+00

     total cpu time spent up to now is     5756.0 secs

     total energy              =  -12863.95997160 Ry
     Harris-Foulkes estimate   =  -12941.83851090 Ry
     estimated scf accuracy    <    3616.54275247 Ry

     iteration #  6     ecut=    80.00 Ry     beta=0.70
     Davidson diagonalization with overlap
     ethr =  1.00E-02,  avg # of iterations =  2.0

     negative rho (up, down):  1.583E+01 0.000E+00

     total cpu time spent up to now is     5939.9 secs

     total energy              =  -12845.79323513 Ry
     Harris-Foulkes estimate   =  -12903.19508209 Ry
     estimated scf accuracy    <    1097.85047808 Ry

     iteration #  7     ecut=    80.00 Ry     beta=0.70
     Davidson diagonalization with overlap
     ethr =  1.00E-02,  avg # of iterations =  2.0

     negative rho (up, down):  8.568E+00 0.000E+00

     total cpu time spent up to now is     6125.9 secs

     total energy              =  -12815.97643866 Ry
     Harris-Foulkes estimate   =  -12877.66624068 Ry
     estimated scf accuracy    <     597.84342172 Ry

     iteration #  8     ecut=    80.00 Ry     beta=0.70
     Davidson diagonalization with overlap
     ethr =  1.00E-02,  avg # of iterations =  2.0

     negative rho (up, down):  7.218E+00 0.000E+00

     total cpu time spent up to now is     6303.1 secs

     total energy              =  -12810.52078338 Ry
     Harris-Foulkes estimate   =  -12829.03185092 Ry
     estimated scf accuracy    <     354.21569147 Ry

     iteration #  9     ecut=    80.00 Ry     beta=0.70
     Davidson diagonalization with overlap
     ethr =  1.00E-02,  avg # of iterations =  1.2

     negative rho (up, down):  5.809E+00 0.000E+00

     total cpu time spent up to now is     6471.9 secs

     total energy              =  -12799.72422976 Ry
     Harris-Foulkes estimate   =  -12815.46044342 Ry
     estimated scf accuracy    <     244.90983135 Ry

     iteration # 10     ecut=    80.00 Ry     beta=0.70
     Davidson diagonalization with overlap
     ethr =  1.00E-02,  avg # of iterations =  1.0

     negative rho (up, down):  2.679E+00 0.000E+00

     total cpu time spent up to now is     6638.0 secs

     total energy              =  -12774.44557920 Ry
     Harris-Foulkes estimate   =  -12802.88548734 Ry
     estimated scf accuracy    <     245.49756159 Ry

     iteration # 11     ecut=    80.00 Ry     beta=0.70
     Davidson diagonalization with overlap
     ethr =  1.00E-02,  avg # of iterations =  1.2

     negative rho (up, down):  6.520E-01 0.000E+00

     total cpu time spent up to now is     6805.4 secs

     total energy              =  -12753.32903533 Ry
     Harris-Foulkes estimate   =  -12784.07928260 Ry
     estimated scf accuracy    <     316.09001737 Ry

     iteration # 12     ecut=    80.00 Ry     beta=0.70
     Davidson diagonalization with overlap
     ethr =  1.00E-02,  avg # of iterations =  2.0

     negative rho (up, down):  6.957E-01 0.000E+00

     total cpu time spent up to now is     6982.8 secs

     total energy              =  -12755.92199626 Ry
     Harris-Foulkes estimate   =  -12767.05356517 Ry
     estimated scf accuracy    <     267.17110437 Ry

     iteration # 13     ecut=    80.00 Ry     beta=0.70
     Davidson diagonalization with overlap
     ethr =  1.00E-02,  avg # of iterations =  1.0

     negative rho (up, down):  7.875E-01 0.000E+00

     total cpu time spent up to now is     7149.3 secs

     total energy              =  -12750.24670664 Ry
     Harris-Foulkes estimate   =  -12764.50140305 Ry
     estimated scf accuracy    <      81.33217901 Ry

     iteration # 14     ecut=    80.00 Ry     beta=0.70
     Davidson diagonalization with overlap
     ethr =  6.24E-03,  avg # of iterations =  1.3

     negative rho (up, down):  3.156E+00 0.000E+00

     total cpu time spent up to now is     7318.9 secs

     total energy              =  -12743.21635567 Ry
     Harris-Foulkes estimate   =  -12753.58734802 Ry
     estimated scf accuracy    <      53.06250821 Ry

     iteration # 15     ecut=    80.00 Ry     beta=0.70
     Davidson diagonalization with overlap
     ethr =  4.07E-03,  avg # of iterations =  2.5

     negative rho (up, down):  4.610E+00 0.000E+00

     total cpu time spent up to now is     7503.6 secs

     total energy              =  -12741.90083707 Ry
     Harris-Foulkes estimate   =  -12746.08556322 Ry
     estimated scf accuracy    <      31.97147249 Ry

     iteration # 16     ecut=    80.00 Ry     beta=0.70
     Davidson diagonalization with overlap
     ethr =  2.45E-03,  avg # of iterations =  3.5

     negative rho (up, down):  3.705E+00 0.000E+00

     total cpu time spent up to now is     7701.0 secs

     total energy              =  -12741.48088326 Ry
     Harris-Foulkes estimate   =  -12743.42213220 Ry
     estimated scf accuracy    <      18.40869869 Ry

     iteration # 17     ecut=    80.00 Ry     beta=0.70
     Davidson diagonalization with overlap
     ethr =  1.41E-03,  avg # of iterations =  3.5

     negative rho (up, down):  3.367E+00 0.000E+00

     total cpu time spent up to now is     7895.6 secs

     total energy              =  -12739.57338676 Ry
     Harris-Foulkes estimate   =  -12742.03005543 Ry
     estimated scf accuracy    <      14.01215016 Ry

     iteration # 18     ecut=    80.00 Ry     beta=0.70
     Davidson diagonalization with overlap
     ethr =  1.07E-03,  avg # of iterations =  5.0

     negative rho (up, down):  3.289E+00 0.000E+00

     total cpu time spent up to now is     8110.9 secs

     total energy              =  -12739.22620495 Ry
     Harris-Foulkes estimate   =  -12740.11104875 Ry
     estimated scf accuracy    <      12.24655752 Ry

     iteration # 19     ecut=    80.00 Ry     beta=0.70
     Davidson diagonalization with overlap
     ethr =  9.39E-04,  avg # of iterations =  2.5

     negative rho (up, down):  3.446E+00 0.000E+00

     total cpu time spent up to now is     8293.9 secs

     total energy              =  -12739.11291951 Ry
     Harris-Foulkes estimate   =  -12739.54554211 Ry
     estimated scf accuracy    <       8.86044925 Ry

     iteration # 20     ecut=    80.00 Ry     beta=0.70
     Davidson diagonalization with overlap
     ethr =  6.79E-04,  avg # of iterations =  5.0

     negative rho (up, down):  2.292E+00 0.000E+00

     total cpu time spent up to now is     8507.2 secs

     total energy              =  -12738.17802562 Ry
     Harris-Foulkes estimate   =  -12739.21803227 Ry
     estimated scf accuracy    <       6.70576680 Ry

     iteration # 21     ecut=    80.00 Ry     beta=0.70
     Davidson diagonalization with overlap
     ethr =  5.14E-04,  avg # of iterations =  3.3

     negative rho (up, down):  1.820E+00 0.000E+00

     total cpu time spent up to now is     8701.0 secs

     total energy              =  -12737.13580917 Ry
     Harris-Foulkes estimate   =  -12738.29888654 Ry
     estimated scf accuracy    <       8.03387356 Ry

     iteration # 22     ecut=    80.00 Ry     beta=0.70
     Davidson diagonalization with overlap
     ethr =  5.14E-04,  avg # of iterations =  1.0

     negative rho (up, down):  2.040E+00 0.000E+00

     total cpu time spent up to now is     8867.7 secs

     total energy              =  -12736.40441790 Ry
     Harris-Foulkes estimate   =  -12737.35884439 Ry
     estimated scf accuracy    <       8.49953919 Ry

     iteration # 23     ecut=    80.00 Ry     beta=0.70
     Davidson diagonalization with overlap
     ethr =  5.14E-04,  avg # of iterations =  6.5

     negative rho (up, down):  1.083E+00 0.000E+00

     total cpu time spent up to now is     9103.4 secs

     total energy              =  -12735.35662437 Ry
     Harris-Foulkes estimate   =  -12736.56902398 Ry
     estimated scf accuracy    <       3.46334628 Ry

     iteration # 24     ecut=    80.00 Ry     beta=0.70
     Davidson diagonalization with overlap
     ethr =  2.66E-04,  avg # of iterations =  5.0

     negative rho (up, down):  7.022E-01 0.000E+00

     total cpu time spent up to now is     9318.0 secs

     total energy              =  -12734.71342179 Ry
     Harris-Foulkes estimate   =  -12735.44725933 Ry
     estimated scf accuracy    <       2.14729083 Ry

     iteration # 25     ecut=    80.00 Ry     beta=0.70
     Davidson diagonalization with overlap
     ethr =  1.65E-04,  avg # of iterations =  7.5

     negative rho (up, down):  6.461E-01 0.000E+00

     total cpu time spent up to now is     9567.0 secs

     total energy              =  -12734.59733316 Ry
     Harris-Foulkes estimate   =  -12734.83798594 Ry
     estimated scf accuracy    <       1.71524991 Ry

     iteration # 26     ecut=    80.00 Ry     beta=0.70
     Davidson diagonalization with overlap
     ethr =  1.32E-04,  avg # of iterations =  6.0

     negative rho (up, down):  7.251E-01 0.000E+00

     total cpu time spent up to now is     9794.7 secs

     total energy              =  -12734.54962778 Ry
     Harris-Foulkes estimate   =  -12734.70311688 Ry
     estimated scf accuracy    <       0.88534169 Ry

     iteration # 27     ecut=    80.00 Ry     beta=0.70
     Davidson diagonalization with overlap
     ethr =  6.79E-05,  avg # of iterations =  7.5

     negative rho (up, down):  7.336E-01 0.000E+00

     total cpu time spent up to now is    10052.9 secs

     total energy              =  -12734.55719502 Ry
     Harris-Foulkes estimate   =  -12734.59330369 Ry
     estimated scf accuracy    <       0.35983876 Ry

     iteration # 28     ecut=    80.00 Ry     beta=0.70
     Davidson diagonalization with overlap
     ethr =  2.76E-05,  avg # of iterations =  8.2

     negative rho (up, down):  2.714E-01 0.000E+00

     total cpu time spent up to now is    10309.5 secs

     total energy              =  -12734.51874976 Ry
     Harris-Foulkes estimate   =  -12734.57084620 Ry
     estimated scf accuracy    <       0.21436097 Ry

     iteration # 29     ecut=    80.00 Ry     beta=0.70
     Davidson diagonalization with overlap
     ethr =  1.64E-05,  avg # of iterations = 10.3

     negative rho (up, down):  1.404E-01 0.000E+00

     total cpu time spent up to now is    10624.1 secs

     total energy              =  -12734.52170356 Ry
     Harris-Foulkes estimate   =  -12734.53028393 Ry
     estimated scf accuracy    <       0.05503916 Ry

     iteration # 30     ecut=    80.00 Ry     beta=0.70
     Davidson diagonalization with overlap
     c_bands:  1 eigenvalues not converged
     c_bands:  1 eigenvalues not converged
     ethr =  4.22E-06,  avg # of iterations = 16.7

     negative rho (up, down):  1.328E-01 0.000E+00

     total cpu time spent up to now is    11007.5 secs

     total energy              =  -12734.52542465 Ry
     Harris-Foulkes estimate   =  -12734.52703563 Ry
     estimated scf accuracy    <       0.03224181 Ry

     iteration # 31     ecut=    80.00 Ry     beta=0.70
     Davidson diagonalization with overlap
     ethr =  2.47E-06,  avg # of iterations =  9.3

     negative rho (up, down):  9.139E-02 0.000E+00

     total cpu time spent up to now is    11275.6 secs

     total energy              =  -12734.52585581 Ry
     Harris-Foulkes estimate   =  -12734.52681460 Ry
     estimated scf accuracy    <       0.00752109 Ry

     iteration # 32     ecut=    80.00 Ry     beta=0.70
     Davidson diagonalization with overlap
     c_bands:  1 eigenvalues not converged
     ethr =  5.77E-07,  avg # of iterations = 14.0

     negative rho (up, down):  7.813E-02 0.000E+00

     total cpu time spent up to now is    11625.4 secs

     total energy              =  -12734.52559989 Ry
     Harris-Foulkes estimate   =  -12734.52667817 Ry
     estimated scf accuracy    <       0.00380761 Ry

     iteration # 33     ecut=    80.00 Ry     beta=0.70
     Davidson diagonalization with overlap
     ethr =  2.92E-07,  avg # of iterations =  7.7

     negative rho (up, down):  5.406E-02 0.000E+00

     total cpu time spent up to now is    11879.2 secs

     total energy              =  -12734.52511996 Ry
     Harris-Foulkes estimate   =  -12734.52587352 Ry
     estimated scf accuracy    <       0.00149736 Ry

     iteration # 34     ecut=    80.00 Ry     beta=0.70
     Davidson diagonalization with overlap
     ethr =  1.15E-07,  avg # of iterations =  9.7

     negative rho (up, down):  2.689E-02 0.000E+00

     total cpu time spent up to now is    12160.0 secs

     total energy              =  -12734.52465574 Ry
     Harris-Foulkes estimate   =  -12734.52520784 Ry
     estimated scf accuracy    <       0.00091140 Ry

     iteration # 35     ecut=    80.00 Ry     beta=0.70
     Davidson diagonalization with overlap
     ethr =  6.99E-08,  avg # of iterations = 12.2

     negative rho (up, down):  5.405E-03 0.000E+00

     total cpu time spent up to now is    12474.7 secs

     total energy              =  -12734.52421969 Ry
     Harris-Foulkes estimate   =  -12734.52470461 Ry
     estimated scf accuracy    <       0.00047830 Ry

     iteration # 36     ecut=    80.00 Ry     beta=0.70
     Davidson diagonalization with overlap
     c_bands:  1 eigenvalues not converged
     c_bands:  1 eigenvalues not converged
     ethr =  3.67E-08,  avg # of iterations = 15.3

     negative rho (up, down):  4.622E-03 0.000E+00

     total cpu time spent up to now is    12849.6 secs

     total energy              =  -12734.52422986 Ry
     Harris-Foulkes estimate   =  -12734.52425722 Ry
     estimated scf accuracy    <       0.00030032 Ry

     iteration # 37     ecut=    80.00 Ry     beta=0.70
     Davidson diagonalization with overlap
     ethr =  2.30E-08,  avg # of iterations =  3.7

     negative rho (up, down):  3.045E-03 0.000E+00

     total cpu time spent up to now is    13049.7 secs

     total energy              =  -12734.52419469 Ry
     Harris-Foulkes estimate   =  -12734.52423677 Ry
     estimated scf accuracy    <       0.00010746 Ry

     iteration # 38     ecut=    80.00 Ry     beta=0.70
     Davidson diagonalization with overlap
     c_bands:  1 eigenvalues not converged
     ethr =  8.24E-09,  avg # of iterations =  6.0

     negative rho (up, down):  2.451E-03 0.000E+00

     total cpu time spent up to now is    13283.0 secs

     total energy              =  -12734.52419304 Ry
     Harris-Foulkes estimate   =  -12734.52420113 Ry
     estimated scf accuracy    <       0.00003148 Ry

     iteration # 39     ecut=    80.00 Ry     beta=0.70
     Davidson diagonalization with overlap
     ethr =  2.41E-09,  avg # of iterations =  5.8

     negative rho (up, down):  2.260E-03 0.000E+00

     total cpu time spent up to now is    13520.4 secs

     total energy              =  -12734.52419523 Ry
     Harris-Foulkes estimate   =  -12734.52419530 Ry
     estimated scf accuracy    <       0.00001245 Ry

     iteration # 40     ecut=    80.00 Ry     beta=0.70
     Davidson diagonalization with overlap
     ethr =  9.54E-10,  avg # of iterations =  2.0

     negative rho (up, down):  2.185E-03 0.000E+00

     total cpu time spent up to now is    13706.7 secs

     total energy              =  -12734.52419672 Ry
     Harris-Foulkes estimate   =  -12734.52419630 Ry
     estimated scf accuracy    <       0.00000489 Ry

     iteration # 41     ecut=    80.00 Ry     beta=0.70
     Davidson diagonalization with overlap
     ethr =  3.75E-10,  avg # of iterations =  3.0

     negative rho (up, down):  2.097E-03 0.000E+00

     total cpu time spent up to now is    13909.1 secs

     total energy              =  -12734.52419690 Ry
     Harris-Foulkes estimate   =  -12734.52419723 Ry
     estimated scf accuracy    <       0.00000210 Ry

     iteration # 42     ecut=    80.00 Ry     beta=0.70
     Davidson diagonalization with overlap
     ethr =  1.61E-10,  avg # of iterations =  2.0

     negative rho (up, down):  2.015E-03 0.000E+00

     total cpu time spent up to now is    14092.9 secs

     total energy              =  -12734.52419698 Ry
     Harris-Foulkes estimate   =  -12734.52419709 Ry
     estimated scf accuracy    <       0.00000087 Ry

     iteration # 43     ecut=    80.00 Ry     beta=0.70
     Davidson diagonalization with overlap
     ethr =  6.65E-11,  avg # of iterations =  2.0

     negative rho (up, down):  1.902E-03 0.000E+00

     total cpu time spent up to now is    14278.5 secs

     total energy              =  -12734.52419710 Ry
     Harris-Foulkes estimate   =  -12734.52419705 Ry
     estimated scf accuracy    <       0.00000005 Ry

     iteration # 44     ecut=    80.00 Ry     beta=0.70
     Davidson diagonalization with overlap
     ethr =  3.68E-12,  avg # of iterations =  3.0

     negative rho (up, down):  1.837E-03 0.000E+00

     total cpu time spent up to now is    14541.5 secs

     total energy              =  -12734.52419714 Ry
     Harris-Foulkes estimate   =  -12734.52419711 Ry
     estimated scf accuracy    <       0.00000003 Ry

     iteration # 45     ecut=    80.00 Ry     beta=0.70
     Davidson diagonalization with overlap
     ethr =  2.33E-12,  avg # of iterations =  3.0

     negative rho (up, down):  1.831E-03 0.000E+00

     total cpu time spent up to now is    14732.7 secs

     End of self-consistent calculation

          k = 0.0000 0.0000 0.0000 (256287 PWs)   bands (ev):

   -16.9419 -15.9152 -15.7404 -15.1011 -14.7283 -14.4480 -14.3400 -13.9324
   -13.8862 -13.7862 -13.7685 -13.1847 -13.0389 -12.8409 -12.8179 -12.7700
   -12.7682 -12.3202 -11.4111 -11.2390 -11.2055 -11.1126 -11.0056 -10.0301
    -9.5178  -9.4877  -9.3297  -9.2703  -8.6550  -8.4820  -8.3308  -8.2878
    -8.0538  -7.7919  -7.5817  -7.5193  -7.3585  -7.2780  -7.2443  -7.2069
    -7.1904  -6.1001  -6.0811  -5.8909  -5.8495  -5.7341  -5.6839  -5.6432
    -5.6144  -5.6101  -5.4244  -5.3644  -5.2781  -4.8959  -4.8154  -4.6135
    -4.5766  -4.4731  -4.3765  -4.2773  -4.2559  -4.1741  -4.0589  -3.8585
    -3.8442  -3.7846  -3.6729  -3.6139  -3.3741  -3.3637  -3.2847  -3.2758
    -3.2749  -3.1924  -3.1541  -3.1508  -3.0330  -2.9360  -2.9134  -2.8845
    -2.8828  -2.8750  -2.8660  -2.8372  -2.7730  -2.7157  -2.6350  -2.6203
    -2.6189  -2.5878  -2.5351  -2.5160  -2.5099  -2.4193  -2.4059  -2.3282
    -2.2159  -2.1957  -2.1655  -2.1421  -2.0932  -2.0896  -2.0652  -2.0415
    -2.0379  -2.0371  -2.0326  -1.9984  -1.9197  -1.9119  -1.9081  -1.8847
    -1.8801  -1.8530  -1.8138  -1.8112  -1.7155  -1.6881  -1.6588  -1.6450
    -1.6339  -1.6226  -1.6119  -1.6013  -1.5981  -1.5849  -1.5587  -1.5263
    -1.5242  -1.5187  -1.4881  -1.4554  -1.4474  -1.4459  -1.4383  -1.4380
    -1.4322  -1.4172  -1.4093  -1.4008  -1.3998  -1.3937  -1.3357  -1.3270
    -1.2924  -1.2798  -1.2480  -1.2360  -1.2225  -1.1923  -1.1792  -1.1647
    -1.1631  -1.1533  -1.1259  -1.1209  -1.1058  -1.0976  -1.0796  -1.0693
    -1.0412  -1.0388  -1.0017  -1.0004  -0.9559  -0.9540  -0.9508  -0.9378
    -0.9322  -0.9257  -0.9234  -0.9181  -0.9063  -0.9034  -0.9008  -0.8842
    -0.8828  -0.8748  -0.8714  -0.8665  -0.8622  -0.8457  -0.8321  -0.8218
    -0.8134  -0.8080  -0.7927  -0.7917  -0.7832  -0.7739  -0.7542  -0.7515
    -0.7382  -0.7372  -0.7349  -0.7325  -0.7319  -0.7247  -0.7214  -0.7187
    -0.7178  -0.7132  -0.7113  -0.7064  -0.6906  -0.6632  -0.6544  -0.6433
    -0.6424  -0.6168  -0.5956  -0.5833  -0.5817  -0.5719  -0.5632  -0.5526
    -0.5284  -0.5261  -0.5219  -0.5146  -0.5122  -0.4945  -0.4931  -0.4741
    -0.4701  -0.4539  -0.4529  -0.4502  -0.4483  -0.4424  -0.4417  -0.4349
    -0.4279  -0.4193  -0.4178  -0.3978  -0.3828  -0.3764  -0.3656  -0.3519
    -0.3413  -0.3197  -0.3114  -0.3038  -0.3000  -0.2929  -0.2902  -0.2880
    -0.2863  -0.2844  -0.2839  -0.2787  -0.2780  -0.2733  -0.2704  -0.2658
    -0.2610  -0.2391  -0.2340  -0.2273  -0.2207  -0.1978  -0.1941  -0.1915
    -0.1699  -0.1668  -0.1659  -0.1653  -0.1519  -0.1488  -0.1394  -0.1325
    -0.1321  -0.1264  -0.1241  -0.1171  -0.1140  -0.1112  -0.1055  -0.1018
    -0.0980  -0.0948  -0.0906  -0.0727  -0.0708  -0.0700  -0.0689  -0.0618
    -0.0543  -0.0409  -0.0324  -0.0307  -0.0153  -0.0073  -0.0007   0.0137
     0.0174   0.0210   0.0244   0.0314   0.0405   0.0569   0.0591   0.0630
     0.0694   0.0715   0.0749   0.0810   0.0892   0.0922   0.1023   0.1203
     0.1242   0.1291   0.1321   0.1397   0.1431   0.1477   0.1484   0.1599
     0.1617   0.1628   0.1739   0.1782   0.1795   0.1826   0.1847   0.1957
     0.1991   0.2075   0.2133   0.2235   0.2304   0.2337   0.2391   0.2449
     0.2464   0.2574   0.2666   0.2782   0.2814   0.2875   0.2890   0.3232
     0.3236   0.3286   0.3319   0.3361   0.3683   0.3699   0.3850   0.3867
     0.3942   0.3970   0.4105   0.4124   0.4178   0.4360   0.4459   0.4582
     0.4600   0.4681   0.4769   0.4791   0.4824   0.4881   0.4910   0.5001
     0.5105   0.5118   0.5125   0.5162   0.5254   0.5338   0.5351   0.5454
     0.5521   0.5729   0.5785   0.5864   0.5890   0.5958   0.6004   0.6024
     0.6054   0.6100   0.6198   0.6236   0.6364   0.6368   0.6487   0.6527
     0.6533   0.6590   0.6624   0.6630   0.6692   0.6752   0.6821   0.6829
     0.6845   0.6858   0.6873   0.6935   0.7032   0.7171   0.7201   0.7228
     0.7248   0.7279   0.7342   0.7425   0.7439   0.7547   0.7613   0.7633
     0.7661   0.7686   0.7791   0.7877   0.7917   0.7977   0.8008   0.8017
     0.8034   0.8072   0.8093   0.8180   0.8297   0.8323   0.8350   0.8366
     0.8450   0.8498   0.8554   0.8628   0.8639   0.8656   0.8664   0.8691
     0.8716   0.8837   0.8916   0.8943   0.8997   0.9131   0.9143   0.9204
     0.9379   0.9407   0.9562   0.9575   0.9591   0.9600   0.9641   0.9675
     0.9720   0.9762   0.9854   0.9940   0.9945   0.9988   1.0086   1.0096
     1.0132   1.0151   1.0251   1.0293   1.0328   1.0424   1.0460   1.0504
     1.0544   1.0588   1.0675   1.0761   1.0854   1.0967   1.1030   1.1035
     1.1082   1.1088   1.1108   1.1116   1.1216   1.1271   1.1282   1.1317
     1.1341   1.1385   1.1388   1.1438   1.1495   1.1549   1.1575   1.1632
     1.1639   1.1664   1.1699   1.1750   1.1782   1.1787   1.1829   1.1944
     1.1965   1.2021   1.2060   1.2130   1.2132   1.2221   1.2304   1.2313
     1.2368   1.2381   1.2391   1.2400   1.2453   1.2463   1.2490   1.2542
     1.2619   1.2645   1.2717   1.2827   1.2880   1.2956   1.3056   1.3109
     1.3111   1.3188   1.3224   1.3259   1.3337   1.3361   1.3403   1.3483
     1.3507   1.3512   1.3603   1.3606   1.3650   1.3684   1.3767   1.3770
     1.3800   1.3830   1.3861   1.3890   1.3915   1.3929   1.3995   1.4072
     1.4073   1.4129   1.4209   1.4231   1.4238   1.4266   1.4276   1.4282
     1.4296   1.4346   1.4383   1.4429   1.4441   1.4527   1.4548   1.4588
     1.4637   1.4644   1.4668   1.4846   1.4868   1.4872   1.4915   1.5048
     1.5102   1.5139   1.5160   1.5220   1.5266   1.5278   1.5298   1.5309
     1.5395   1.5400   1.5445   1.5486   1.5492   1.5519   1.5537   1.5576
     1.5597   1.5614   1.5699   1.5720   1.5760   1.5800   1.5827   1.5859
     1.5929   1.5939   1.6007   1.6062   1.6288   1.6364   1.6383   1.6399
     1.6464   1.6669   1.6719   1.6722   1.6791   1.6844   1.7048   1.7214
     1.7258   1.7303   1.7378   1.7412   1.7490   1.7509   1.7539   1.7663
     1.7730   1.9106   2.0040   2.0741   2.2064   2.2091   2.2124   2.2669
     2.2935   2.3077   2.3144   2.3178   2.3244   2.3377   2.3430   2.4035
     2.4872   2.4939   2.5426   2.5459   2.5653   2.5666   2.5930   2.7306
     2.7624   2.7959   2.8569   2.9132   2.9825   3.1749   3.2163   3.2680
     3.2838   3.6041   3.6881   3.7756   3.8506   3.8883   3.9120   3.9707
     3.9785   3.9892   4.0485   4.0595   4.0715   4.0836   4.1104   4.1150
     4.1265   4.1315   4.2419   4.2864   4.2974   4.3045   4.3950   4.5960
     4.8040   4.8560   4.9024   5.0786   5.1368   5.1413   5.3021   5.4019
     5.4303   5.5378   5.6078   5.7245   5.7440   5.9307   6.0294   6.1184
     6.1390   6.2992   6.3524   6.4029   6.4785   6.5004   6.5178   6.5573
     6.6335   6.6959   6.7211   6.7707   6.8318   6.8410   6.8846   6.9040
     6.9118   6.9462   6.9676   7.1268   7.1307   7.1480   7.2059   7.2409
     7.3969   7.4799   7.5402   7.5955   7.6515   7.7055   7.7298   7.7967
     7.8721   7.9561   8.0382   8.1035   8.1500   8.2128   8.2197   8.2543
     8.3017   8.3742   8.3905   8.4126   8.4199   8.4414   8.4459   8.4774
     8.5405   8.6377   8.6452   8.7003   8.7067   8.7190   8.7298   8.7681
     8.7839   8.8972   8.9015   8.9248   8.9996   9.0123   9.0210   9.1012
     9.1115   9.1275   9.2056   9.2618   9.2751   9.3693   9.4210   9.4315
     9.4464   9.5164   9.5752   9.6177   9.6850   9.7636   9.7750   9.8447
     9.9480   9.9695  10.0053  10.0652  10.1297  10.1548

          k = 0.0000-0.2165 0.0000 (256176 PWs)   bands (ev):

   -16.9414 -15.9737 -15.5576 -15.3379 -14.7244 -14.3278 -14.0349 -14.0079
   -13.9483 -13.9316 -13.4943 -13.4323 -13.3891 -13.3734 -12.4126 -12.2505
   -12.1329 -12.0918 -12.0040 -11.8819 -11.8221 -10.3754 -10.2958 -10.2721
   -10.1274  -9.2030  -9.1309  -9.0003  -8.8258  -8.6890  -8.6445  -8.1065
    -8.0653  -7.9516  -7.8848  -7.8091  -7.2072  -7.0367  -6.7119  -6.6948
    -6.5990  -6.5912  -6.5541  -6.5257  -5.9988  -5.9039  -5.7654  -5.7512
    -5.3542  -5.2558  -5.1533  -4.9554  -4.8989  -4.8954  -4.7387  -4.7070
    -4.7038  -4.6770  -4.6388  -4.5335  -4.4245  -4.4127  -4.2892  -3.9857
    -3.7258  -3.6357  -3.5622  -3.4698  -3.4521  -3.2831  -3.1822  -3.1792
    -3.1677  -3.1675  -2.9876  -2.9872  -2.9760  -2.9093  -2.8957  -2.8853
    -2.8439  -2.8239  -2.7662  -2.7174  -2.7139  -2.6771  -2.6722  -2.6339
    -2.6292  -2.5374  -2.4677  -2.4624  -2.4599  -2.4414  -2.4001  -2.3643
    -2.3574  -2.3487  -2.2997  -2.2866  -2.2355  -2.1714  -2.1119  -2.1011
    -2.0588  -2.0273  -2.0168  -2.0113  -1.9796  -1.9665  -1.9481  -1.9040
    -1.8629  -1.8621  -1.8432  -1.8412  -1.7827  -1.7698  -1.7107  -1.6624
    -1.6467  -1.6416  -1.6306  -1.6272  -1.6203  -1.6026  -1.5888  -1.5652
    -1.5469  -1.5451  -1.5404  -1.5265  -1.5125  -1.4775  -1.4184  -1.4057
    -1.3786  -1.3515  -1.3052  -1.2995  -1.2560  -1.2531  -1.2395  -1.2351
    -1.2094  -1.2025  -1.1938  -1.1931  -1.1905  -1.1743  -1.1694  -1.1650
    -1.1551  -1.1439  -1.1377  -1.1359  -1.1279  -1.1238  -1.1134  -1.1035
    -1.0880  -1.0774  -1.0689  -1.0660  -1.0553  -1.0549  -1.0428  -0.9833
    -0.9781  -0.9732  -0.9603  -0.9438  -0.9418  -0.9339  -0.9307  -0.9233
    -0.9085  -0.8770  -0.8741  -0.8659  -0.8566  -0.8508  -0.8505  -0.8482
    -0.8461  -0.8161  -0.8056  -0.8035  -0.8001  -0.7964  -0.7866  -0.7795
    -0.7668  -0.7572  -0.7401  -0.7305  -0.7275  -0.7156  -0.7096  -0.6996
    -0.6979  -0.6822  -0.6683  -0.6659  -0.6542  -0.6517  -0.6373  -0.6329
    -0.6307  -0.6048  -0.5697  -0.5682  -0.5413  -0.5234  -0.5170  -0.5060
    -0.5059  -0.5022  -0.4980  -0.4949  -0.4889  -0.4869  -0.4823  -0.4692
    -0.4687  -0.4632  -0.4365  -0.4315  -0.4305  -0.4224  -0.4133  -0.4129
    -0.4118  -0.3996  -0.3762  -0.3696  -0.3689  -0.3663  -0.3643  -0.3594
    -0.3452  -0.3440  -0.3354  -0.3322  -0.3286  -0.3266  -0.2976  -0.2845
    -0.2837  -0.2753  -0.2494  -0.2481  -0.2148  -0.2096  -0.2039  -0.2012
    -0.1930  -0.1886  -0.1885  -0.1870  -0.1865  -0.1820  -0.1728  -0.1656
    -0.1593  -0.1577  -0.1511  -0.1427  -0.1385  -0.1371  -0.1332  -0.1314
    -0.1287  -0.1253  -0.1242  -0.1070  -0.1054  -0.1032  -0.0985  -0.0962
    -0.0808  -0.0807  -0.0780  -0.0772  -0.0731  -0.0500  -0.0419  -0.0344
    -0.0245  -0.0150  -0.0095  -0.0069  -0.0041  -0.0002   0.0078   0.0229
     0.0255   0.0260   0.0288   0.0330   0.0441   0.0521   0.0561   0.0569
     0.0607   0.0612   0.0671   0.0843   0.0924   0.0977   0.0979   0.1116
     0.1232   0.1266   0.1297   0.1439   0.1445   0.1497   0.1557   0.1601
     0.1670   0.1696   0.1758   0.1785   0.1906   0.1917   0.1924   0.1945
     0.2011   0.2025   0.2132   0.2150   0.2217   0.2304   0.2362   0.2375
     0.2488   0.2507   0.2597   0.2628   0.2659   0.2690   0.2759   0.2766
     0.2962   0.3087   0.3091   0.3186   0.3221   0.3247   0.3387   0.3520
     0.3523   0.3603   0.3785   0.4014   0.4031   0.4077   0.4097   0.4279
     0.4470   0.4691   0.4705   0.4744   0.5021   0.5060   0.5077   0.5141
     0.5273   0.5393   0.5407   0.5472   0.5505   0.5570   0.5624   0.5629
     0.5703   0.5777   0.5802   0.5873   0.5923   0.5988   0.6017   0.6031
     0.6073   0.6152   0.6153   0.6199   0.6308   0.6325   0.6333   0.6371
     0.6431   0.6474   0.6507   0.6523   0.6545   0.6572   0.6610   0.6659
     0.6727   0.6752   0.6755   0.6837   0.6854   0.6874   0.6914   0.6990
     0.7019   0.7038   0.7067   0.7148   0.7200   0.7254   0.7364   0.7370
     0.7422   0.7433   0.7460   0.7622   0.7668   0.7786   0.7794   0.7870
     0.7884   0.7928   0.7957   0.7961   0.7993   0.8090   0.8128   0.8143
     0.8176   0.8298   0.8350   0.8452   0.8483   0.8586   0.8662   0.8695
     0.8790   0.8816   0.8876   0.8966   0.9009   0.9041   0.9079   0.9114
     0.9158   0.9174   0.9471   0.9513   0.9625   0.9881   0.9959   0.9975
     1.0036   1.0065   1.0066   1.0105   1.0143   1.0164   1.0239   1.0306
     1.0350   1.0371   1.0388   1.0393   1.0444   1.0493   1.0511   1.0538
     1.0555   1.0578   1.0603   1.0692   1.0776   1.0810   1.0821   1.0822
     1.0824   1.0947   1.0994   1.1023   1.1032   1.1055   1.1060   1.1095
     1.1140   1.1157   1.1224   1.1250   1.1254   1.1308   1.1329   1.1357
     1.1460   1.1497   1.1497   1.1527   1.1558   1.1587   1.1597   1.1621
     1.1656   1.1718   1.1928   1.1990   1.2007   1.2099   1.2344   1.2363
     1.2467   1.2509   1.2561   1.2611   1.2729   1.2833   1.2880   1.2935
     1.2961   1.2997   1.3014   1.3028   1.3050   1.3062   1.3096   1.3098
     1.3110   1.3195   1.3210   1.3218   1.3226   1.3350   1.3353   1.3382
     1.3413   1.3456   1.3468   1.3473   1.3498   1.3541   1.3636   1.3695
     1.3721   1.3771   1.3830   1.3849   1.3880   1.3891   1.3969   1.4042
     1.4071   1.4095   1.4118   1.4220   1.4227   1.4247   1.4291   1.4320
     1.4394   1.4398   1.4448   1.4456   1.4498   1.4546   1.4649   1.4689
     1.4759   1.4819   1.4878   1.4879   1.4966   1.4977   1.4995   1.5024
     1.5068   1.5074   1.5166   1.5186   1.5222   1.5242   1.5416   1.5450
     1.5451   1.5512   1.5583   1.5633   1.5663   1.5665   1.5668   1.5674
     1.5738   1.5788   1.5889   1.5969   1.5984   1.6041   1.6054   1.6120
     1.6122   1.6133   1.6243   1.6288   1.6329   1.6341   1.6396   1.6455
     1.6797   1.6858   1.6916   1.6924   1.6995   1.7141   1.7776   1.7958
     1.8093   1.8442   1.8562   1.8611   1.8619   1.8692   1.8873   1.9033
     1.9218   1.9253   1.9323   1.9366   1.9418   1.9516   1.9891   2.0143
     2.1862   2.2032   2.2162   2.2305   2.4894   2.4933   2.5297   2.5488
     2.5859   2.6025   2.6077   2.6401   2.6845   2.7046   2.7113   2.7140
     2.8229   2.8254   2.8326   2.8449   2.9083   3.0314   3.0370   3.1155
     3.1587   3.2847   3.2866   3.2985   3.4174   3.6435   3.7898   3.8028
     3.8883   4.0623   4.1094   4.1193   4.1512   4.1792   4.2317   4.2550
     4.3166   4.3966   4.4162   4.4501   4.5329   4.6085   4.6392   4.7536
     4.8445   5.0451   5.0487   5.2091   5.2501   5.3630   5.3888   5.4120
     5.4555   5.4633   5.4973   5.6186   5.7593   5.7960   5.8851   5.9141
     5.9739   6.0134   6.0438   6.3534   6.3738   6.4121   6.4123   6.4927
     6.5049   6.6569   6.6804   6.7679   6.8377   6.8982   6.9622   7.0820
     7.1155   7.1354   7.1384   7.1546   7.1715   7.2171   7.2360   7.3248
     7.3487   7.3832   7.4079   7.4532   7.4811   7.5157   7.6531   7.7106
     7.7580   7.7668   7.8263   7.9118   8.2184   8.2464   8.2792   8.3858
     8.3896   8.4053   8.4260   8.4341   8.4778   8.5021   8.5251   8.5528
     8.5656   8.5906   8.7213   8.7779   8.7834   8.7974   8.8116   8.8308
     8.9137   8.9489   8.9736   9.0767   9.1421   9.1489   9.1664   9.2456
     9.3034   9.3100   9.3385   9.3474   9.3841   9.4122   9.4323   9.4676
     9.4849   9.5300   9.5376   9.5405   9.5939   9.6066   9.6157   9.6732
     9.8904   9.9077   9.9203   9.9977  10.0049  10.0326

          k = 0.2500 0.0000 0.0000 (256240 PWs)   bands (ev):

   -16.8916 -15.8054 -15.6186 -15.3124 -14.8251 -14.6740 -14.6240 -14.5630
   -13.7956 -13.6362 -13.4277 -12.9574 -12.8813 -12.7959 -12.6950 -12.3327
   -12.0550 -11.9457 -11.8367 -11.7593 -11.0218 -10.8349 -10.4793 -10.3522
   -10.1627  -9.9056  -9.6357  -9.6078  -9.1820  -8.9422  -8.8412  -8.4836
    -8.0769  -7.7472  -7.5314  -7.4665  -7.2982  -7.2791  -7.1712  -6.7787
    -6.6568  -6.0586  -5.9260  -5.7470  -5.7107  -5.6677  -5.6097  -5.3577
    -5.2187  -5.1925  -5.1517  -5.0626  -4.8193  -4.6574  -4.6479  -4.3506
    -4.3387  -4.3237  -4.2891  -4.2191  -4.1347  -4.0974  -4.0543  -3.9415
    -3.8924  -3.8714  -3.8682  -3.7217  -3.7115  -3.7049  -3.5666  -3.5231
    -3.4066  -3.3945  -3.3697  -3.2664  -3.2427  -3.2131  -3.2093  -3.1339
    -3.0537  -3.0148  -2.9822  -2.9804  -2.8576  -2.8341  -2.8191  -2.7361
    -2.7128  -2.6752  -2.6596  -2.6111  -2.5087  -2.4292  -2.3774  -2.3229
    -2.2761  -2.2028  -2.1829  -2.1626  -2.1515  -2.0260  -1.9767  -1.9728
    -1.9637  -1.9579  -1.8836  -1.8797  -1.8314  -1.7842  -1.7692  -1.7150
    -1.6961  -1.6869  -1.6813  -1.6784  -1.6749  -1.6728  -1.6548  -1.6381
    -1.6337  -1.6068  -1.5752  -1.5578  -1.5289  -1.5232  -1.5100  -1.5062
    -1.4777  -1.4673  -1.4599  -1.4531  -1.4517  -1.4472  -1.4415  -1.4297
    -1.4005  -1.3901  -1.3847  -1.3760  -1.3701  -1.2776  -1.2628  -1.2419
    -1.2110  -1.2002  -1.1896  -1.1713  -1.1378  -1.1314  -1.1258  -1.1179
    -1.1055  -1.0952  -1.0859  -1.0783  -1.0696  -1.0672  -1.0616  -1.0581
    -1.0513  -1.0335  -1.0143  -1.0127  -1.0057  -1.0007  -0.9955  -0.9892
    -0.9868  -0.9815  -0.9743  -0.9558  -0.9382  -0.9254  -0.9144  -0.9111
    -0.9103  -0.9054  -0.8949  -0.8940  -0.8934  -0.8843  -0.8820  -0.8766
    -0.8698  -0.8690  -0.8591  -0.8557  -0.8520  -0.8451  -0.8440  -0.8417
    -0.8243  -0.8071  -0.7912  -0.7834  -0.7831  -0.7639  -0.7595  -0.7431
    -0.7298  -0.7088  -0.7029  -0.6945  -0.6909  -0.6776  -0.6615  -0.6583
    -0.6458  -0.6308  -0.6297  -0.6202  -0.6177  -0.6087  -0.6075  -0.5947
    -0.5769  -0.5517  -0.5160  -0.5029  -0.4812  -0.4783  -0.4625  -0.4575
    -0.4531  -0.4439  -0.4387  -0.4358  -0.4333  -0.4175  -0.4163  -0.4092
    -0.4019  -0.3932  -0.3900  -0.3750  -0.3649  -0.3627  -0.3586  -0.3570
    -0.3559  -0.3522  -0.3475  -0.3395  -0.3249  -0.3024  -0.2902  -0.2810
    -0.2762  -0.2751  -0.2690  -0.2597  -0.2553  -0.2517  -0.2495  -0.2436
    -0.2385  -0.2251  -0.2190  -0.2100  -0.1901  -0.1890  -0.1863  -0.1801
    -0.1787  -0.1717  -0.1695  -0.1678  -0.1605  -0.1527  -0.1473  -0.1377
    -0.1341  -0.1302  -0.1115  -0.1048  -0.0919  -0.0892  -0.0841  -0.0825
    -0.0764  -0.0631  -0.0619  -0.0579  -0.0443  -0.0404  -0.0361  -0.0327
    -0.0217  -0.0100  -0.0073  -0.0008   0.0064   0.0132   0.0154   0.0317
     0.0383   0.0487   0.0551   0.0639   0.0666   0.0794   0.0932   0.0940
     0.0969   0.0996   0.1055   0.1106   0.1159   0.1205   0.1234   0.1327
     0.1382   0.1407   0.1421   0.1445   0.1503   0.1525   0.1610   0.1671
     0.1704   0.1725   0.1784   0.1809   0.1889   0.2066   0.2071   0.2202
     0.2208   0.2250   0.2349   0.2390   0.2412   0.2509   0.2527   0.2594
     0.2650   0.2698   0.2742   0.2961   0.3042   0.3095   0.3309   0.3337
     0.3424   0.3546   0.3615   0.3690   0.3798   0.3831   0.3935   0.3949
     0.3990   0.4049   0.4053   0.4149   0.4190   0.4196   0.4291   0.4337
     0.4359   0.4381   0.4461   0.4528   0.4576   0.4604   0.4653   0.4718
     0.4769   0.4817   0.4826   0.4909   0.4960   0.5072   0.5112   0.5249
     0.5322   0.5409   0.5457   0.5521   0.5551   0.5570   0.5670   0.5701
     0.5778   0.5817   0.5906   0.5930   0.6012   0.6085   0.6097   0.6132
     0.6202   0.6218   0.6246   0.6295   0.6391   0.6460   0.6541   0.6561
     0.6626   0.6651   0.6675   0.6734   0.6767   0.6841   0.6901   0.6983
     0.6999   0.7030   0.7076   0.7134   0.7187   0.7215   0.7330   0.7419
     0.7452   0.7504   0.7517   0.7538   0.7595   0.7645   0.7726   0.7742
     0.7764   0.7778   0.7860   0.7940   0.8039   0.8152   0.8218   0.8294
     0.8374   0.8426   0.8528   0.8571   0.8585   0.8612   0.8661   0.8763
     0.8835   0.8864   0.8895   0.8954   0.9001   0.9077   0.9124   0.9209
     0.9278   0.9315   0.9412   0.9418   0.9503   0.9633   0.9686   0.9696
     0.9767   0.9805   0.9871   0.9937   0.9954   0.9987   1.0004   1.0085
     1.0114   1.0125   1.0171   1.0230   1.0290   1.0391   1.0419   1.0492
     1.0508   1.0577   1.0624   1.0762   1.0810   1.0880   1.0955   1.0978
     1.1040   1.1085   1.1089   1.1122   1.1186   1.1246   1.1277   1.1288
     1.1327   1.1341   1.1351   1.1371   1.1436   1.1463   1.1497   1.1509
     1.1573   1.1663   1.1682   1.1749   1.1757   1.1785   1.1814   1.1842
     1.1873   1.1899   1.1979   1.2031   1.2056   1.2080   1.2123   1.2207
     1.2225   1.2248   1.2319   1.2339   1.2365   1.2376   1.2446   1.2447
     1.2497   1.2536   1.2561   1.2603   1.2643   1.2776   1.2873   1.2921
     1.3019   1.3050   1.3082   1.3092   1.3200   1.3274   1.3369   1.3446
     1.3492   1.3569   1.3599   1.3624   1.3650   1.3683   1.3716   1.3745
     1.3784   1.3803   1.3835   1.3882   1.3921   1.3971   1.4023   1.4057
     1.4098   1.4126   1.4146   1.4177   1.4200   1.4233   1.4254   1.4293
     1.4329   1.4361   1.4420   1.4454   1.4470   1.4531   1.4562   1.4653
     1.4679   1.4694   1.4750   1.4797   1.4851   1.4888   1.4932   1.4974
     1.5074   1.5115   1.5163   1.5167   1.5221   1.5275   1.5297   1.5310
     1.5398   1.5440   1.5453   1.5466   1.5537   1.5548   1.5562   1.5624
     1.5639   1.5673   1.5694   1.5743   1.5777   1.5810   1.5841   1.5887
     1.5976   1.5981   1.6027   1.6029   1.6091   1.6098   1.6173   1.6207
     1.6236   1.6347   1.6392   1.6580   1.6625   1.6738   1.6801   1.6877
     1.6950   1.7351   1.7354   1.7475   1.7488   1.7569   1.7955   1.8514
     1.8672   1.8751   1.8822   1.8907   1.9545   1.9969   2.0197   2.1139
     2.1451   2.1486   2.1706   2.1828   2.2075   2.2452   2.2905   2.3099
     2.5637   2.6473   2.6619   2.6805   2.8423   3.0838   3.0891   3.1074
     3.2931   3.2985   3.3289   3.3295   3.3373   3.4030   3.4696   3.5033
     3.5648   3.6294   3.7149   3.7651   3.7864   3.7922   3.8004   3.8408
     3.8591   3.9131   3.9698   3.9788   4.0805   4.0957   4.1928   4.2914
     4.3291   4.4288   4.6007   4.6103   4.6924   4.7728   4.8015   4.8262
     4.9271   5.0971   5.1808   5.3049   5.3219   5.3396   5.4086   5.4347
     5.4996   5.5412   5.5648   5.5942   5.6044   5.6276   5.6387   5.7153
     5.8214   5.8254   5.8537   5.9173   5.9863   5.9962   6.0982   6.1217
     6.1428   6.3962   6.5001   6.5673   6.7579   6.7978   6.8029   6.8324
     6.8501   6.8850   6.8909   6.9305   7.0167   7.1140   7.1367   7.1730
     7.1998   7.2303   7.2500   7.3073   7.4196   7.4784   7.4830   7.5536
     7.6201   7.6739   7.6987   7.7397   7.7781   7.8296   8.0124   8.0840
     8.1332   8.1452   8.1861   8.2055   8.2158   8.2706   8.2995   8.3145
     8.3473   8.3821   8.4359   8.4831   8.5572   8.5836   8.7493   8.8176
     8.9261   9.0196   9.0659   9.0711   9.0938   9.1080   9.1873   9.2219
     9.2328   9.2407   9.3084   9.3260   9.3926   9.3951   9.4223   9.4632
     9.5236   9.5394   9.5511   9.6031   9.6619   9.6772   9.7376   9.8001
     9.8269   9.8481   9.8688   9.9092   9.9535   9.9697

          k = 0.2500-0.2165 0.0000 (256316 PWs)   bands (ev):

   -16.8913 -15.8500 -15.5271 -15.2178 -15.1121 -14.8589 -14.3810 -14.2409
   -13.9492 -13.8135 -13.3775 -12.9563 -12.9319 -12.8605 -12.4356 -12.3692
   -12.2939 -11.9010 -11.7714 -11.1997 -11.1238 -11.0257 -10.8726 -10.6295
   -10.2870  -9.5354  -9.4676  -9.1456  -9.0987  -8.8590  -8.7959  -8.4103
    -8.3389  -8.1801  -8.1353  -8.0606  -6.9718  -6.7667  -6.5587  -6.3923
    -6.3277  -6.2099  -6.1051  -6.0444  -5.8818  -5.8420  -5.5873  -5.5746
    -5.3281  -5.1405  -4.9632  -4.8309  -4.8159  -4.6917  -4.5750  -4.5429
    -4.5224  -4.4722  -4.3141  -4.2334  -4.2100  -4.1972  -4.1508  -3.9629
    -3.9209  -3.9073  -3.8349  -3.6102  -3.5175  -3.4924  -3.4784  -3.3715
    -3.3440  -3.3395  -3.3316  -3.3237  -3.2263  -3.2016  -3.1484  -3.0864
    -3.0734  -2.9298  -2.8857  -2.8558  -2.8552  -2.8425  -2.8003  -2.7889
    -2.7675  -2.7397  -2.7281  -2.5878  -2.5167  -2.4932  -2.4642  -2.3415
    -2.2826  -2.2027  -2.1809  -2.1246  -2.0973  -2.0573  -2.0546  -2.0510
    -2.0078  -1.9083  -1.8924  -1.8902  -1.8744  -1.8633  -1.7870  -1.7491
    -1.7352  -1.7100  -1.6997  -1.6974  -1.6955  -1.6595  -1.6434  -1.6105
    -1.6039  -1.5962  -1.5839  -1.5792  -1.5731  -1.5683  -1.5594  -1.5536
    -1.5512  -1.5487  -1.5385  -1.5287  -1.4791  -1.4705  -1.4453  -1.3922
    -1.3543  -1.3447  -1.3055  -1.2451  -1.2397  -1.2140  -1.2000  -1.1770
    -1.1675  -1.1598  -1.1573  -1.1518  -1.1492  -1.1470  -1.1375  -1.1337
    -1.1140  -1.1106  -1.1090  -1.1026  -1.0983  -1.0911  -1.0890  -1.0764
    -1.0654  -1.0568  -1.0480  -1.0439  -1.0310  -1.0240  -1.0118  -0.9977
    -0.9889  -0.9883  -0.9853  -0.9719  -0.9598  -0.9432  -0.9337  -0.9275
    -0.9117  -0.9094  -0.9047  -0.8869  -0.8834  -0.8789  -0.8685  -0.8661
    -0.8642  -0.8494  -0.8438  -0.8376  -0.8331  -0.8200  -0.8183  -0.8101
    -0.7957  -0.7927  -0.7913  -0.7791  -0.7654  -0.7432  -0.7398  -0.7351
    -0.7187  -0.6980  -0.6911  -0.6850  -0.6692  -0.6641  -0.6384  -0.6348
    -0.6239  -0.6214  -0.6083  -0.6007  -0.5925  -0.5855  -0.5768  -0.5738
    -0.5617  -0.5561  -0.5265  -0.5117  -0.5041  -0.4961  -0.4931  -0.4679
    -0.4657  -0.4600  -0.4480  -0.4428  -0.4343  -0.4301  -0.4205  -0.4071
    -0.4015  -0.3859  -0.3805  -0.3801  -0.3717  -0.3625  -0.3596  -0.3557
    -0.3389  -0.3243  -0.3213  -0.3115  -0.3004  -0.2990  -0.2927  -0.2880
    -0.2844  -0.2768  -0.2698  -0.2655  -0.2586  -0.2553  -0.2517  -0.2487
    -0.2432  -0.2415  -0.2325  -0.2296  -0.2279  -0.2169  -0.2064  -0.1997
    -0.1938  -0.1916  -0.1791  -0.1686  -0.1649  -0.1613  -0.1458  -0.1344
    -0.1306  -0.1254  -0.1221  -0.1172  -0.1077  -0.0970  -0.0945  -0.0883
    -0.0721  -0.0582  -0.0581  -0.0499  -0.0404  -0.0257  -0.0171  -0.0099
     0.0038   0.0059   0.0112   0.0191   0.0207   0.0251   0.0269   0.0453
     0.0507   0.0536   0.0577   0.0667   0.0701   0.0766   0.0839   0.0880
     0.0907   0.1011   0.1064   0.1077   0.1115   0.1127   0.1147   0.1176
     0.1243   0.1277   0.1290   0.1306   0.1343   0.1427   0.1463   0.1547
     0.1642   0.1695   0.1832   0.1845   0.1893   0.1973   0.1988   0.2083
     0.2156   0.2320   0.2432   0.2497   0.2509   0.2586   0.2654   0.2678
     0.2700   0.2771   0.2806   0.2865   0.2908   0.2982   0.2999   0.3039
     0.3123   0.3267   0.3437   0.3452   0.3550   0.3749   0.3776   0.3837
     0.3868   0.3928   0.4007   0.4041   0.4136   0.4223   0.4261   0.4283
     0.4334   0.4505   0.4522   0.4570   0.4574   0.4635   0.4653   0.4797
     0.4879   0.4890   0.4928   0.4942   0.5045   0.5198   0.5260   0.5269
     0.5333   0.5383   0.5397   0.5542   0.5634   0.5676   0.5753   0.5780
     0.5842   0.5907   0.5946   0.5982   0.6045   0.6081   0.6141   0.6175
     0.6205   0.6259   0.6313   0.6440   0.6481   0.6514   0.6705   0.6810
     0.6863   0.6954   0.6982   0.7039   0.7078   0.7127   0.7171   0.7215
     0.7235   0.7301   0.7323   0.7382   0.7404   0.7491   0.7505   0.7586
     0.7638   0.7710   0.7743   0.7773   0.7823   0.7856   0.7891   0.7912
     0.7944   0.7965   0.7985   0.8049   0.8097   0.8104   0.8146   0.8192
     0.8234   0.8311   0.8320   0.8361   0.8393   0.8421   0.8464   0.8546
     0.8570   0.8646   0.8742   0.8799   0.8841   0.8872   0.8942   0.9064
     0.9171   0.9233   0.9278   0.9379   0.9422   0.9466   0.9490   0.9531
     0.9550   0.9669   0.9698   0.9707   0.9730   0.9744   0.9776   0.9810
     0.9938   0.9968   1.0061   1.0098   1.0179   1.0200   1.0223   1.0277
     1.0323   1.0339   1.0455   1.0523   1.0541   1.0599   1.0703   1.0749
     1.0775   1.0814   1.0858   1.0909   1.1036   1.1135   1.1151   1.1198
     1.1229   1.1354   1.1448   1.1467   1.1506   1.1658   1.1742   1.1797
     1.1866   1.1931   1.1956   1.1994   1.1996   1.2033   1.2079   1.2112
     1.2142   1.2166   1.2180   1.2203   1.2216   1.2233   1.2286   1.2329
     1.2357   1.2451   1.2514   1.2520   1.2578   1.2651   1.2706   1.2780
     1.2841   1.2873   1.2891   1.2935   1.2956   1.2992   1.3019   1.3053
     1.3093   1.3120   1.3129   1.3179   1.3202   1.3218   1.3267   1.3300
     1.3323   1.3342   1.3408   1.3426   1.3458   1.3496   1.3564   1.3589
     1.3634   1.3698   1.3814   1.3830   1.3881   1.3887   1.3916   1.3930
     1.3977   1.4025   1.4086   1.4192   1.4236   1.4318   1.4387   1.4402
     1.4450   1.4462   1.4491   1.4514   1.4551   1.4584   1.4628   1.4645
     1.4680   1.4744   1.4822   1.4828   1.4888   1.4905   1.4945   1.4961
     1.5017   1.5044   1.5103   1.5125   1.5158   1.5198   1.5226   1.5245
     1.5253   1.5275   1.5283   1.5365   1.5449   1.5483   1.5490   1.5533
     1.5574   1.5609   1.5618   1.5704   1.5749   1.5760   1.5868   1.5925
     1.5952   1.5957   1.6026   1.6076   1.6177   1.6212   1.6257   1.6291
     1.6340   1.6370   1.6468   1.6620   1.6632   1.6645   1.6800   1.6856
     1.6908   1.7095   1.7428   1.7687   1.7728   1.8091   1.8284   1.8574
     1.8612   1.8730   1.8780   1.8815   1.8886   1.8976   1.9175   1.9269
     2.0016   2.2254   2.2308   2.2555   2.2642   2.3186   2.3760   2.4530
     2.6794   2.6950   2.8401   2.8645   2.8705   2.8736   2.8916   2.9019
     2.9642   3.0496   3.0765   3.1057   3.1203   3.3200   3.5803   3.5940
     3.6572   3.6698   3.6962   3.8284   3.8823   3.9420   3.9621   3.9793
     4.0278   4.1033   4.1490   4.1951   4.2275   4.2639   4.2838   4.4317
     4.4691   4.5251   4.5992   4.6590   4.6894   4.7012   4.7515   4.8452
     4.8692   4.9313   5.0019   5.0065   5.0474   5.1044   5.1752   5.2586
     5.2690   5.3510   5.4550   5.4818   5.5296   5.5455   5.5966   5.7228
     5.8038   5.8505   5.8898   5.9400   6.0335   6.0898   6.1919   6.2335
     6.3196   6.5638   6.6588   6.7032   6.7823   6.8271   6.8572   6.9217
     6.9501   6.9789   7.0004   7.0340   7.1094   7.1325   7.1825   7.2281
     7.2824   7.3045   7.3197   7.3537   7.3832   7.4624   7.4897   7.5099
     7.5241   7.5979   7.6759   7.6935   7.8170   7.8452   7.9044   7.9151
     7.9454   8.0319   8.2333   8.2441   8.2773   8.3335   8.3628   8.4181
     8.5481   8.6277   8.6450   8.6717   8.6930   8.7030   8.7198   8.7734
     8.7955   8.8248   8.8830   8.9003   8.9999   9.0326   9.0791   9.1280
     9.1634   9.2122   9.2305   9.2525   9.2618   9.2834   9.3234   9.3664
     9.3826   9.3895   9.4155   9.4599   9.5255   9.5395   9.5782   9.6498
     9.6995   9.7028   9.8336   9.8889  10.0120  10.0229

          k =-0.5000 0.0000 0.0000 (256496 PWs)   bands (ev):

   -16.8321 -15.6556 -15.4255 -15.2904 -15.2835 -15.2025 -14.5037 -14.3057
   -14.1952 -14.1605 -12.9274 -12.6258 -12.4816 -12.4197 -12.3384 -12.1033
   -12.0859 -11.5815 -11.5809 -11.4482 -11.4391 -10.9246 -10.8867 -10.7907
   -10.5717 -10.0144  -9.9907  -9.7588  -9.4306  -8.8842  -8.8656  -8.6950
    -8.6578  -8.0816  -7.5997  -7.4235  -7.3914  -7.1998  -7.1408  -7.1148
    -5.9607  -5.9418  -5.5152  -5.3221  -5.1917  -5.1714  -4.9952  -4.8738
    -4.7722  -4.6713  -4.6696  -4.6649  -4.6411  -4.6329  -4.5709  -4.4992
    -4.4694  -4.4224  -4.3821  -4.3788  -4.2981  -4.2872  -4.1679  -4.1560
    -4.1504  -4.1416  -3.9600  -3.8086  -3.7551  -3.6967  -3.6437  -3.5993
    -3.5338  -3.4591  -3.3716  -3.3682  -3.3034  -3.3013  -3.2998  -3.2966
    -3.2731  -3.2006  -3.1877  -3.1367  -3.1293  -3.1219  -2.7920  -2.6908
    -2.6561  -2.6435  -2.5862  -2.5511  -2.5441  -2.5222  -2.5169  -2.5046
    -2.4133  -2.4030  -2.3906  -2.2590  -2.2570  -2.1569  -2.0556  -2.0486
    -1.9448  -1.8037  -1.7711  -1.7680  -1.7629  -1.7579  -1.7533  -1.7485
    -1.6601  -1.6598  -1.6590  -1.6299  -1.6038  -1.5480  -1.5417  -1.5413
    -1.5272  -1.4995  -1.4910  -1.4862  -1.4755  -1.4704  -1.4626  -1.4100
    -1.3849  -1.3831  -1.3692  -1.3109  -1.3106  -1.3085  -1.3003  -1.2951
    -1.2932  -1.2906  -1.2873  -1.2724  -1.2568  -1.2382  -1.2372  -1.2303
    -1.2226  -1.2219  -1.2187  -1.2149  -1.2076  -1.1870  -1.1844  -1.1754
    -1.1716  -1.1521  -1.1513  -1.1490  -1.1469  -1.1437  -1.1164  -1.0897
    -1.0877  -1.0666  -1.0663  -1.0582  -1.0576  -1.0533  -1.0459  -1.0200
    -1.0197  -1.0132  -1.0052  -0.9934  -0.9879  -0.9828  -0.9747  -0.9694
    -0.9587  -0.9553  -0.9501  -0.9462  -0.9267  -0.8858  -0.8848  -0.8757
    -0.8673  -0.8620  -0.8569  -0.8488  -0.8441  -0.8400  -0.8347  -0.8158
    -0.8144  -0.8118  -0.8067  -0.8057  -0.8017  -0.7985  -0.7983  -0.7939
    -0.7830  -0.7580  -0.7532  -0.7237  -0.7095  -0.7047  -0.6892  -0.6737
    -0.6611  -0.6439  -0.6047  -0.5906  -0.5880  -0.5854  -0.5610  -0.5569
    -0.5551  -0.5531  -0.5451  -0.5441  -0.5092  -0.5031  -0.5001  -0.4931
    -0.4901  -0.4846  -0.4833  -0.4810  -0.4774  -0.4654  -0.4628  -0.4536
    -0.4471  -0.4139  -0.3965  -0.3617  -0.3519  -0.3453  -0.3239  -0.3198
    -0.3180  -0.2954  -0.2948  -0.2921  -0.2877  -0.2868  -0.2805  -0.2725
    -0.2591  -0.2573  -0.2524  -0.2511  -0.2462  -0.2454  -0.2272  -0.2269
    -0.2170  -0.2157  -0.2084  -0.2080  -0.1940  -0.1895  -0.1825  -0.1783
    -0.1709  -0.1672  -0.1625  -0.1368  -0.1344  -0.1280  -0.1277  -0.1267
    -0.1218  -0.1171  -0.1053  -0.1025  -0.0866  -0.0796  -0.0467  -0.0457
    -0.0404  -0.0397  -0.0228  -0.0225  -0.0154  -0.0151  -0.0045  -0.0000
     0.0011   0.0142   0.0273   0.0449   0.0514   0.0782   0.0795   0.0814
     0.0874   0.0907   0.0966   0.0989   0.0997   0.1002   0.1019   0.1045
     0.1197   0.1205   0.1489   0.1572   0.1697   0.1700   0.1709   0.1740
     0.1798   0.1816   0.1822   0.1855   0.1909   0.1935   0.2007   0.2038
     0.2064   0.2071   0.2117   0.2156   0.2170   0.2221   0.2222   0.2279
     0.2299   0.2400   0.2409   0.2445   0.2481   0.2513   0.2543   0.2580
     0.2615   0.2779   0.2790   0.2844   0.2883   0.2898   0.2943   0.2995
     0.3024   0.3085   0.3229   0.3313   0.3487   0.3710   0.3769   0.3845
     0.3951   0.4058   0.4100   0.4252   0.4323   0.4353   0.4403   0.4509
     0.4514   0.4620   0.4670   0.4717   0.4819   0.4844   0.4916   0.4922
     0.4950   0.4991   0.5005   0.5030   0.5058   0.5130   0.5147   0.5220
     0.5230   0.5261   0.5293   0.5303   0.5408   0.5467   0.5489   0.5606
     0.5843   0.5949   0.6006   0.6072   0.6113   0.6158   0.6176   0.6311
     0.6328   0.6370   0.6383   0.6443   0.6513   0.6539   0.6560   0.6597
     0.6606   0.6637   0.6639   0.6693   0.6729   0.6787   0.6805   0.6847
     0.6907   0.6937   0.6968   0.6968   0.7081   0.7133   0.7141   0.7329
     0.7365   0.7491   0.7491   0.7528   0.7561   0.7573   0.7606   0.7620
     0.7658   0.7675   0.7719   0.7785   0.7792   0.7798   0.7813   0.7842
     0.7847   0.7975   0.7995   0.8106   0.8266   0.8268   0.8354   0.8401
     0.8415   0.8429   0.8480   0.8499   0.8620   0.8684   0.8704   0.8827
     0.8885   0.8937   0.9119   0.9155   0.9248   0.9307   0.9336   0.9411
     0.9441   0.9469   0.9496   0.9524   0.9550   0.9575   0.9577   0.9678
     0.9680   0.9792   0.9820   0.9827   0.9878   0.9993   1.0001   1.0003
     1.0072   1.0121   1.0151   1.0172   1.0205   1.0286   1.0313   1.0349
     1.0533   1.0582   1.0600   1.0685   1.0774   1.1019   1.1176   1.1192
     1.1292   1.1348   1.1377   1.1441   1.1532   1.1535   1.1685   1.1694
     1.1715   1.1805   1.1873   1.1946   1.1967   1.1986   1.2005   1.2065
     1.2087   1.2152   1.2259   1.2301   1.2336   1.2343   1.2355   1.2417
     1.2439   1.2458   1.2469   1.2478   1.2502   1.2547   1.2575   1.2604
     1.2670   1.2674   1.2767   1.2832   1.2875   1.2900   1.2928   1.2990
     1.3094   1.3099   1.3159   1.3164   1.3264   1.3272   1.3355   1.3385
     1.3463   1.3476   1.3542   1.3558   1.3564   1.3587   1.3622   1.3638
     1.3644   1.3678   1.3727   1.3779   1.3861   1.4077   1.4108   1.4118
     1.4154   1.4163   1.4204   1.4207   1.4241   1.4248   1.4253   1.4283
     1.4299   1.4354   1.4376   1.4382   1.4398   1.4431   1.4478   1.4481
     1.4535   1.4545   1.4562   1.4582   1.4640   1.4654   1.4684   1.4709
     1.4718   1.4834   1.4861   1.4930   1.4936   1.5015   1.5058   1.5074
     1.5108   1.5139   1.5231   1.5271   1.5274   1.5339   1.5379   1.5418
     1.5426   1.5449   1.5460   1.5577   1.5598   1.5625   1.5627   1.5633
     1.5711   1.5775   1.5820   1.5889   1.5929   1.5941   1.5968   1.5970
     1.5977   1.6063   1.6165   1.6255   1.6289   1.6311   1.6334   1.6338
     1.6370   1.6430   1.6530   1.6827   1.6895   1.7029   1.7111   1.7178
     1.7190   1.7218   1.7325   1.8816   2.1091   2.1388   2.1553   2.2097
     2.2810   2.3242   2.3442   2.3833   2.3951   2.3989   2.4026   2.4611
     2.6642   2.6698   2.6957   2.8789   2.9083   2.9392   2.9433   3.2019
     3.2277   3.2887   3.3035   3.3125   3.5002   3.5806   3.7780   3.8299
     3.8522   3.8972   3.9217   3.9871   4.0030   4.0384   4.1073   4.1583
     4.1741   4.1814   4.1957   4.2452   4.4482   4.6422   4.6567   4.6825
     4.7162   4.7320   4.7621   4.8355   4.9055   4.9316   4.9468   5.0111
     5.0278   5.0819   5.1069   5.1155   5.1402   5.1599   5.1666   5.1714
     5.1809   5.2677   5.2841   5.3648   5.4023   5.4561   5.4865   5.5628
     5.5939   5.6249   5.6295   5.6539   5.9234   5.9424   5.9762   6.0082
     6.0504   6.0730   6.0776   6.0892   6.1470   6.3146   6.3469   6.3481
     6.4057   6.4430   6.5486   6.5727   6.6183   6.6824   6.7447   7.1383
     7.1720   7.1898   7.2022   7.3077   7.3655   7.5741   7.6547   7.6761
     7.6895   7.6912   7.7065   7.7695   7.8320   7.8733   7.9007   7.9477
     7.9602   8.0042   8.0236   8.0572   8.0859   8.0951   8.1134   8.1226
     8.2266   8.2492   8.2553   8.4701   8.6642   8.7321   8.7532   8.7853
     8.8790   8.9008   8.9050   8.9352   8.9438   9.0238   9.0680   9.0730
     9.1115   9.1428   9.1519   9.2857   9.3314   9.4063   9.4416   9.4499
     9.5011   9.5093   9.5149   9.5342   9.5654   9.5740   9.5749   9.5769
     9.6347   9.7282   9.7495   9.8794   9.9069   9.9222

          k =-0.5000-0.2165 0.0000 (256328 PWs)   bands (ev):

   -16.8320 -15.6210 -15.4924 -15.4606 -15.0545 -14.9025 -14.8147 -14.7845
   -13.7655 -13.5424 -13.4084 -13.3676 -12.3397 -12.3371 -12.1063 -11.7039
   -11.6648 -11.6247 -11.4960 -11.4168 -11.3415 -11.2197 -11.1990 -11.1001
   -11.0724  -9.7401  -9.7229  -9.4647  -9.4343  -8.9893  -8.6419  -8.5365
    -8.5016  -8.0939  -8.0053  -7.9915  -7.7697  -7.7680  -6.3292  -6.0059
    -5.9208  -5.7326  -5.6071  -5.3824  -5.3154  -5.1019  -5.0813  -5.0508
    -5.0402  -5.0380  -5.0358  -5.0278  -4.8623  -4.7109  -4.6584  -4.6396
    -4.1733  -4.1193  -4.0939  -4.0748  -4.0684  -4.0654  -4.0562  -4.0504
    -4.0092  -3.9563  -3.9445  -3.9349  -3.8792  -3.8288  -3.6981  -3.6433
    -3.6190  -3.5854  -3.5002  -3.4610  -3.4434  -3.4097  -3.3923  -3.3897
    -3.2356  -3.2095  -3.1362  -3.1112  -3.0230  -2.8987  -2.8485  -2.8351
    -2.5582  -2.4821  -2.4626  -2.4587  -2.4548  -2.4471  -2.4299  -2.4293
    -2.4031  -2.3569  -2.3462  -2.2144  -2.1567  -2.1003  -1.9752  -1.9604
    -1.9600  -1.9428  -1.9294  -1.9239  -1.9077  -1.8978  -1.8582  -1.8105
    -1.7535  -1.7053  -1.6830  -1.6826  -1.6668  -1.6525  -1.5382  -1.4873
    -1.4856  -1.4713  -1.4328  -1.4228  -1.4099  -1.3821  -1.3763  -1.3716
    -1.3639  -1.3589  -1.3371  -1.3253  -1.3072  -1.2962  -1.2944  -1.2922
    -1.2813  -1.2793  -1.2697  -1.2600  -1.2584  -1.2531  -1.2515  -1.2483
    -1.2471  -1.2395  -1.2363  -1.2349  -1.2295  -1.1958  -1.1907  -1.1874
    -1.1753  -1.1636  -1.1466  -1.1126  -1.0997  -1.0992  -1.0810  -1.0804
    -1.0704  -1.0700  -1.0664  -1.0625  -1.0413  -1.0395  -1.0273  -1.0244
    -1.0183  -1.0148  -1.0043  -1.0009  -0.9966  -0.9960  -0.9829  -0.9757
    -0.9631  -0.9601  -0.9575  -0.9531  -0.9458  -0.9424  -0.9375  -0.9308
    -0.9204  -0.9191  -0.9063  -0.9025  -0.9004  -0.8975  -0.8772  -0.8715
    -0.8565  -0.8255  -0.7959  -0.7856  -0.7632  -0.7518  -0.7439  -0.7422
    -0.7403  -0.7314  -0.7201  -0.6825  -0.6707  -0.6527  -0.6500  -0.6475
    -0.6461  -0.6384  -0.6378  -0.6339  -0.6289  -0.6219  -0.6014  -0.5844
    -0.5807  -0.5786  -0.5733  -0.5711  -0.5622  -0.5535  -0.5503  -0.5481
    -0.5441  -0.5111  -0.5108  -0.4800  -0.4398  -0.4383  -0.4288  -0.4249
    -0.4209  -0.4207  -0.4011  -0.3818  -0.3763  -0.3728  -0.3561  -0.3417
    -0.3415  -0.3291  -0.3252  -0.3223  -0.3064  -0.3055  -0.3014  -0.2988
    -0.2763  -0.2752  -0.2721  -0.2673  -0.2658  -0.2657  -0.2136  -0.2115
    -0.2033  -0.1981  -0.1971  -0.1895  -0.1539  -0.1528  -0.1471  -0.1333
    -0.1322  -0.1314  -0.1303  -0.1253  -0.1238  -0.1208  -0.1203  -0.1037
    -0.0781  -0.0685  -0.0515  -0.0487  -0.0482  -0.0458  -0.0420  -0.0419
    -0.0373  -0.0330  -0.0306  -0.0273  -0.0131  -0.0067   0.0020   0.0035
     0.0048   0.0057   0.0129   0.0137   0.0179   0.0250   0.0305   0.0393
     0.0444   0.0580   0.0794   0.0883   0.0941   0.1104   0.1152   0.1319
     0.1436   0.1671   0.1691   0.1695   0.1723   0.1727   0.1784   0.1825
     0.1836   0.1904   0.1916   0.1983   0.2068   0.2097   0.2137   0.2147
     0.2166   0.2210   0.2240   0.2257   0.2306   0.2348   0.2385   0.2414
     0.2422   0.2459   0.2462   0.2513   0.2628   0.2643   0.2723   0.2732
     0.2755   0.2857   0.2905   0.2973   0.3002   0.3014   0.3114   0.3172
     0.3254   0.3256   0.3365   0.3459   0.3486   0.3603   0.3639   0.3705
     0.3730   0.4055   0.4111   0.4282   0.4288   0.4333   0.4566   0.4592
     0.4636   0.4734   0.4806   0.4817   0.4905   0.4918   0.5054   0.5061
     0.5089   0.5091   0.5144   0.5185   0.5236   0.5291   0.5311   0.5333
     0.5407   0.5539   0.5596   0.5639   0.5646   0.5697   0.5755   0.5788
     0.5838   0.5845   0.5861   0.5898   0.5913   0.5944   0.5971   0.6052
     0.6128   0.6140   0.6157   0.6296   0.6444   0.6482   0.6525   0.6544
     0.6592   0.6594   0.6644   0.6704   0.6760   0.6808   0.6830   0.6839
     0.6868   0.6942   0.6948   0.6971   0.7032   0.7125   0.7139   0.7159
     0.7175   0.7237   0.7274   0.7320   0.7392   0.7393   0.7443   0.7486
     0.7647   0.7709   0.7809   0.7812   0.7859   0.7946   0.7963   0.7964
     0.8083   0.8104   0.8143   0.8158   0.8254   0.8378   0.8385   0.8413
     0.8416   0.8443   0.8520   0.8522   0.8560   0.8564   0.8626   0.8630
     0.8674   0.8782   0.8949   0.9026   0.9076   0.9105   0.9182   0.9244
     0.9268   0.9301   0.9368   0.9397   0.9511   0.9532   0.9628   0.9669
     0.9758   0.9860   0.9875   0.9909   0.9941   1.0077   1.0088   1.0143
     1.0329   1.0473   1.0515   1.0547   1.0585   1.0805   1.0897   1.0945
     1.0989   1.1105   1.1130   1.1149   1.1236   1.1288   1.1321   1.1372
     1.1392   1.1422   1.1472   1.1491   1.1494   1.1538   1.1578   1.1592
     1.1596   1.1624   1.1627   1.1647   1.1702   1.1705   1.1775   1.1778
     1.1790   1.1913   1.1929   1.1940   1.1994   1.2000   1.2046   1.2061
     1.2171   1.2212   1.2254   1.2356   1.2391   1.2406   1.2448   1.2490
     1.2550   1.2568   1.2620   1.2639   1.2684   1.2687   1.2827   1.2997
     1.3017   1.3022   1.3082   1.3126   1.3160   1.3202   1.3228   1.3255
     1.3271   1.3286   1.3355   1.3371   1.3455   1.3563   1.3597   1.3662
     1.3668   1.3798   1.3835   1.3838   1.3870   1.3920   1.3929   1.3951
     1.3969   1.3989   1.3999   1.4039   1.4041   1.4257   1.4384   1.4462
     1.4475   1.4529   1.4596   1.4632   1.4670   1.4674   1.4681   1.4710
     1.4713   1.4734   1.4735   1.4748   1.4785   1.4786   1.4845   1.4875
     1.4876   1.4885   1.4950   1.4969   1.5022   1.5045   1.5086   1.5093
     1.5123   1.5152   1.5173   1.5173   1.5178   1.5205   1.5269   1.5328
     1.5378   1.5489   1.5510   1.5557   1.5565   1.5609   1.5611   1.5745
     1.5813   1.5827   1.5842   1.5857   1.5965   1.6112   1.6139   1.6210
     1.6226   1.6381   1.6447   1.6527   1.6560   1.6570   1.6791   1.6813
     1.6879   1.6937   1.7045   1.7111   1.7114   1.7138   1.7161   1.7228
     1.7250   1.7314   1.7315   1.7342   1.7343   1.8885   1.9404   1.9493
     1.9550   2.1051   2.3934   2.3947   2.4172   2.5757   2.6228   2.6605
     2.6710   2.6853   2.8562   2.8943   2.9149   2.9669   3.1402   3.1669
     3.1939   3.5128   3.5131   3.5620   3.5651   3.6004   3.6606   3.7282
     3.7310   3.8176   3.9992   4.0412   4.0423   4.0504   4.2330   4.2818
     4.2978   4.3066   4.3155   4.3310   4.3517   4.3524   4.4303   4.4471
     4.6215   4.6520   4.6986   4.7321   4.7667   4.7917   4.9438   4.9465
     4.9819   5.0334   5.0832   5.1018   5.1832   5.1901   5.2246   5.2421
     5.2800   5.2832   5.3310   5.3329   5.3718   5.3946   5.4348   5.4369
     5.4734   5.6417   5.7000   5.7508   5.8066   5.8119   5.8248   5.8266
     5.8451   5.8568   5.8827   5.9132   5.9192   6.3447   6.3579   6.7173
     6.7683   7.0453   7.0538   7.0866   7.1212   7.1720   7.2008   7.2108
     7.2310   7.2312   7.2597   7.2816   7.2957   7.3889   7.3938   7.4552
     7.4871   7.5138   7.5711   7.5842   7.6011   7.6894   7.7632   7.8573
     7.9590   7.9711   8.0250   8.0420   8.0590   8.1776   8.2541   8.2994
     8.3142   8.3812   8.3908   8.4310   8.4414   8.4836   8.8585   8.9420
     8.9511   8.9658   8.9791   8.9805   8.9866   9.0050   9.0568   9.0788
     9.1249   9.1643   9.1784   9.1822   9.2100   9.2285   9.2988   9.3032
     9.3661   9.3944   9.4193   9.4644   9.5301   9.5391   9.5477   9.5560
     9.5749   9.6883   9.8635   9.9549  10.0053  10.0398

     the Fermi energy is     3.4383 ev

!    total energy              =  -12734.52419716 Ry
     Harris-Foulkes estimate   =  -12734.52419714 Ry
     estimated scf accuracy    <          3.6E-09 Ry

     The total energy is the sum of the following terms:

     one-electron contribution = -104217.27949466 Ry
     hartree contribution      =   53480.22403458 Ry
     xc contribution           =   -4456.84736592 Ry
     ewald contribution        =   42465.67417533 Ry
     Dispersion Correction     =      -2.93421543 Ry
     smearing contrib. (-TS)   =      -3.36133106 Ry

     convergence has been achieved in  45 iterations

     Writing output data file gc.save
 
     init_run     :     99.28s CPU    106.37s WALL (       1 calls)
     electrons    :  13697.18s CPU  14626.55s WALL (       1 calls)

     Called by init_run:
     wfcinit      :     96.93s CPU    103.65s WALL (       1 calls)
     potinit      :      0.41s CPU      0.43s WALL (       1 calls)

     Called by electrons:
     c_bands      :  12703.25s CPU  13531.02s WALL (      45 calls)
     sum_band     :    824.98s CPU    899.84s WALL (      45 calls)
     v_of_rho     :      3.08s CPU      3.71s WALL (      46 calls)
     newd         :      8.63s CPU     14.22s WALL (      46 calls)
     mix_rho      :    157.13s CPU    177.24s WALL (      45 calls)

     Called by c_bands:
     init_us_2    :     37.21s CPU     37.64s WALL (     546 calls)
     cegterg      :  12538.08s CPU  13359.93s WALL (     287 calls)

     Called by sum_band:
     sum_band:bec :      4.67s CPU      5.24s WALL (     270 calls)
     addusdens    :      8.24s CPU     13.69s WALL (      45 calls)

     Called by *egterg:
     h_psi        :   4435.55s CPU   4799.04s WALL (    2088 calls)
     s_psi        :   1080.09s CPU   1092.49s WALL (    2088 calls)
     g_psi        :     11.47s CPU     11.47s WALL (    1795 calls)
     cdiaghg      :   3828.88s CPU   3972.34s WALL (    2071 calls)

     Called by h_psi:
     add_vuspsi   :   1086.22s CPU   1100.49s WALL (    2088 calls)

     General routines
     calbec       :   1477.57s CPU   1488.67s WALL (    2358 calls)
     fft          :      3.56s CPU      4.22s WALL (     597 calls)
     ffts         :     92.70s CPU    104.82s WALL (   24028 calls)
     fftw         :   2525.91s CPU   2819.17s WALL ( 1411256 calls)
     davcio       :      0.27s CPU      3.54s WALL (       6 calls)
 
     Parallel routines
     fft_scatter  :   1621.72s CPU   1784.77s WALL ( 1435881 calls)
 
     PWSCF        :     3h49m CPU        4h 5m WALL

 
   This run was terminated on:   0:58:48  27Apr2017            

=------------------------------------------------------------------------------=
   JOB DONE.
=------------------------------------------------------------------------------=
