
     Program PWSCF v.5.4.0 starts on 26Apr2017 at 21:48:49 

     This program is part of the open-source Quantum ESPRESSO suite
     for quantum simulation of materials; please cite
         "P. Giannozzi et al., J. Phys.:Condens. Matter 21 395502 (2009);
          URL http://www.quantum-espresso.org", 
     in publications or presentations arising from this work. More details at
     http://www.quantum-espresso.org/quote

     Parallel version (MPI & OpenMP), running on      56 processor cores
     Number of MPI processes:                56
     Threads/MPI process:                     1
     R & G space division:  proc/nbgrp/npool/nimage =      56
     Waiting for input...
     Reading input from standard input

     Current dimensions of program PWSCF are:
     Max number of different atomic species (ntypx) = 10
     Max number of k-points (npk) =  40000
     Max angular momentum in pseudopotentials (lmaxx) =  3

     -------------------------------------
     Parameters for Dispersion Correction:
     -------------------------------------
       atom      VdW radius       C_6     

        Cu         2.952        374.666
        C          2.744         60.710
        H          1.892          4.857

     Subspace diagonalization in iterative solution of the eigenvalue problem:
     one sub-group per band group will be used
     scalapack distributed-memory algorithm (size of sub-group:  5*  5 procs)

 
     Parallelization info
     --------------------
     sticks:   dense  smooth     PW     G-vecs:    dense   smooth      PW
     Min         204     204     54                36612    36612    4962
     Max         205     205     55                36617    36617    4968
     Sum       11433   11433   3039              2050409  2050409  278033
 


     bravais-lattice index     =            0
     lattice parameter (alat)  =      13.9425  a.u.
     unit-cell volume          =   21209.0878 (a.u.)^3
     number of atoms/cell      =          150
     number of atomic types    =            3
     number of electrons       =      1294.00
     number of Kohn-Sham states=          776
     kinetic-energy cutoff     =      80.0000  Ry
     charge density cutoff     =     320.0000  Ry
     convergence threshold     =      1.0E-08
     mixing beta               =       0.7000
     number of iterations used =            8  local-TF  mixing
     Exchange-correlation      =  SLA  PW   PBE  PBE ( 1  4  3  4 0 0)
     nstep                     =           50


     celldm(1)=  13.942539  celldm(2)=   0.000000  celldm(3)=   0.000000
     celldm(4)=   0.000000  celldm(5)=   0.000000  celldm(6)=   0.000000

     crystal axes: (cart. coord. in units of alat)
               a(1) = (   1.000000   0.000000   0.000000 )  
               a(2) = (   0.000000   2.309401   0.000000 )  
               a(3) = (   0.000000   0.000000   3.388418 )  

     reciprocal axes: (cart. coord. in units 2 pi/alat)
               b(1) = (  1.000000  0.000000  0.000000 )  
               b(2) = (  0.000000  0.433013  0.000000 )  
               b(3) = (  0.000000  0.000000  0.295123 )  


     PseudoPot. # 1 for Cu read from file:
     /home/549/hxw549/Short/pseudopotentials/Cu.pbe-n-van_ak.UPF
     MD5 check sum: 601f7c30f7467666bec936e0661ce3e1
     Pseudo is Ultrasoft + core correction, Zval = 11.0
     Generated by new atomic code, or converted to UPF format
     Using radial grid of  867 points,  6 beta functions with: 
                l(1) =   0
                l(2) =   0
                l(3) =   1
                l(4) =   1
                l(5) =   2
                l(6) =   2
     Q(r) pseudized with  8 coefficients,  rinner =    1.400   1.400   1.400
                                                       1.400   1.400

     PseudoPot. # 2 for C  read from file:
     /home/549/hxw549/Short/pseudopotentials/C.pbe-mt_gipaw.UPF
     MD5 check sum: 5ac2f21f2c440b14befe521540822c15
     Pseudo is Norm-conserving, Zval =  4.0
     Generated by new atomic code, or converted to UPF format
     Using radial grid of 1073 points,  1 beta functions with: 
                l(1) =   0

     PseudoPot. # 3 for H  read from file:
     /home/549/hxw549/Short/pseudopotentials/H.pbe-van_ak.UPF
     MD5 check sum: 077eb6d537518a38cb46c6de387227b7
     Pseudo is Ultrasoft, Zval =  1.0
     Generated by new atomic code, or converted to UPF format
     Using radial grid of  615 points,  1 beta functions with: 
                l(1) =   0
     Q(r) pseudized with  8 coefficients,  rinner =    0.800

     atomic species   valence    mass     pseudopotential
        Cu            11.00    63.54600     Cu( 1.00)
        C              4.00    12.01070     C ( 1.00)
        H              1.00     1.00783     H ( 1.00)

     No symmetry found



   Cartesian axes

     site n.     atom                  positions (alat units)
         1           Cu  tau(   1) = (  -0.0000210   0.0002166   0.9981343  )
         2           Cu  tau(   2) = (   0.2500000   0.2312092   0.9981660  )
         3           Cu  tau(   3) = (   0.4999907   0.0002218   0.9981472  )
         4           Cu  tau(   4) = (   0.7499920   0.2312002   0.9981379  )
         5           Cu  tau(   5) = (   0.0000148   0.4619918   0.9980409  )
         6           Cu  tau(   6) = (   0.2499936   0.6927738   0.9977078  )
         7           Cu  tau(   7) = (   0.5000011   0.4619896   0.9979298  )
         8           Cu  tau(   8) = (   0.7500399   0.6927722   0.9976945  )
         9           Cu  tau(   9) = (   0.0000277   0.9236657   0.9975770  )
        10           Cu  tau(  10) = (   0.2500244   1.1545552   0.9977396  )
        11           Cu  tau(  11) = (   0.5000101   0.9236403   0.9975482  )
        12           Cu  tau(  12) = (   0.7500064   1.1545485   0.9977229  )
        13           Cu  tau(  13) = (  -0.0000031   1.3853540   0.9980454  )
        14           Cu  tau(  14) = (   0.2500048   1.6161301   0.9982977  )
        15           Cu  tau(  15) = (   0.5000130   1.3853702   0.9980884  )
        16           Cu  tau(  16) = (   0.7499797   1.6161832   0.9982538  )
        17           Cu  tau(  17) = (   0.0000115   1.8471506   0.9982398  )
        18           Cu  tau(  18) = (   0.2499646   2.0784091   0.9981440  )
        19           Cu  tau(  19) = (   0.4999532   1.8471476   0.9982261  )
        20           Cu  tau(  20) = (   0.7499943   2.0783707   0.9981112  )
        21           Cu  tau(  21) = (   0.0000292   0.2313080   1.2466294  )
        22           Cu  tau(  22) = (   0.2500260   0.0001949   1.2463621  )
        23           Cu  tau(  23) = (   0.5000433   0.2314365   1.2466503  )
        24           Cu  tau(  24) = (   0.7500048   0.0001993   1.2463545  )
        25           Cu  tau(  25) = (   0.0000799   0.6931624   1.2464502  )
        26           Cu  tau(  26) = (   0.2500709   0.4623790   1.2466773  )
        27           Cu  tau(  27) = (   0.5000716   0.6930826   1.2463422  )
        28           Cu  tau(  28) = (   0.7500451   0.4623782   1.2466284  )
        29           Cu  tau(  29) = (   0.0000691   1.1542286   1.2463475  )
        30           Cu  tau(  30) = (   0.2500857   0.9236632   1.2462314  )
        31           Cu  tau(  31) = (   0.5000792   1.1541654   1.2463729  )
        32           Cu  tau(  32) = (   0.7500650   0.9236565   1.2461748  )
        33           Cu  tau(  33) = (   0.0000318   1.6159096   1.2467097  )
        34           Cu  tau(  34) = (   0.2500870   1.3849148   1.2467257  )
        35           Cu  tau(  35) = (   0.5000338   1.6159170   1.2468461  )
        36           Cu  tau(  36) = (   0.7500262   1.3849200   1.2466971  )
        37           Cu  tau(  37) = (   0.0000047   2.0783865   1.2462344  )
        38           Cu  tau(  38) = (   0.2500187   1.8471402   1.2464598  )
        39           Cu  tau(  39) = (   0.5000062   2.0783690   1.2461905  )
        40           Cu  tau(  40) = (   0.7500057   1.8471302   1.2464459  )
        41           Cu  tau(  41) = (   0.0000752  -0.0000856   1.4957536  )
        42           Cu  tau(  42) = (   0.2502021   0.2313155   1.4959723  )
        43           Cu  tau(  43) = (   0.5000854  -0.0000535   1.4956253  )
        44           Cu  tau(  44) = (   0.7500217   0.2313717   1.4959997  )
        45           Cu  tau(  45) = (   0.0001206   0.4626798   1.4961764  )
        46           Cu  tau(  46) = (   0.2502582   0.6936653   1.4966132  )
        47           Cu  tau(  47) = (   0.5001661   0.4629301   1.4965567  )
        48           Cu  tau(  48) = (   0.7501171   0.6936831   1.4966109  )
        49           Cu  tau(  49) = (   0.0001306   0.9239228   1.4966673  )
        50           Cu  tau(  50) = (   0.2502183   1.1537256   1.4966590  )
        51           Cu  tau(  51) = (   0.5002226   0.9236211   1.4967682  )
        52           Cu  tau(  52) = (   0.7501511   1.1536691   1.4966893  )
        53           Cu  tau(  53) = (   0.0001562   1.3844194   1.4964821  )
        54           Cu  tau(  54) = (   0.2501351   1.6157759   1.4961225  )
        55           Cu  tau(  55) = (   0.5001636   1.3841681   1.4966733  )
        56           Cu  tau(  56) = (   0.7501045   1.6157465   1.4961142  )
        57           Cu  tau(  57) = (   0.0000678   1.8472140   1.4957035  )
        58           Cu  tau(  58) = (   0.2500517   2.0783732   1.4956623  )
        59           Cu  tau(  59) = (   0.5000925   1.8474224   1.4957911  )
        60           Cu  tau(  60) = (   0.7500790   2.0783710   1.4956269  )
        61           Cu  tau(  61) = (   0.0001623   0.2310200   1.7442551  )
        62           Cu  tau(  62) = (   0.2502685  -0.0002910   1.7450262  )
        63           Cu  tau(  63) = (   0.5001919   0.2306187   1.7448638  )
        64           Cu  tau(  64) = (   0.7500487  -0.0002935   1.7449581  )
        65           Cu  tau(  65) = (   0.0003230   0.6935600   1.7461429  )
        66           Cu  tau(  66) = (   0.2507810   0.4628074   1.7453936  )
        67           Cu  tau(  67) = (   0.5002764   0.6943028   1.7479470  )
        68           Cu  tau(  68) = (   0.7496128   0.4627457   1.7453798  )
        69           Cu  tau(  69) = (   0.0002610   1.1537683   1.7476718  )
        70           Cu  tau(  70) = (   0.2506433   0.9237811   1.7478044  )
        71           Cu  tau(  71) = (   0.5003254   1.1528437   1.7478837  )
        72           Cu  tau(  72) = (   0.7499707   0.9238116   1.7482633  )
        73           Cu  tau(  73) = (   0.0002166   1.6161197   1.7449318  )
        74           Cu  tau(  74) = (   0.2501472   1.3841403   1.7459016  )
        75           Cu  tau(  75) = (   0.5002480   1.6161527   1.7443092  )
        76           Cu  tau(  76) = (   0.7504048   1.3841794   1.7458029  )
        77           Cu  tau(  77) = (   0.0001609   2.0781351   1.7452823  )
        78           Cu  tau(  78) = (   0.2500117   1.8475119   1.7448427  )
        79           Cu  tau(  79) = (   0.5001409   2.0785860   1.7453688  )
        80           Cu  tau(  80) = (   0.7503422   1.8475228   1.7448226  )
        81           Cu  tau(  81) = (   0.0002390   0.0002515   1.9906064  )
        82           Cu  tau(  82) = (   0.2500237   0.2307340   1.9902789  )
        83           Cu  tau(  83) = (   0.5001529  -0.0000176   1.9924951  )
        84           Cu  tau(  84) = (   0.7503637   0.2307540   1.9902367  )
        85           Cu  tau(  85) = (   0.0002422   0.4617923   1.9888877  )
        86           Cu  tau(  86) = (   0.2528052   0.6926615   1.9955322  )
        87           Cu  tau(  87) = (   0.5001743   0.4596364   1.9920408  )
        88           Cu  tau(  88) = (   0.7482722   0.6919930   1.9934530  )
        89           Cu  tau(  89) = (   0.0009221   0.9218285   1.9939666  )
        90           Cu  tau(  90) = (   0.2504701   1.1542540   1.9954981  )
        91           Cu  tau(  91) = (   0.5002699   0.9246308   2.0011314  )
        92           Cu  tau(  92) = (   0.7502675   1.1549795   1.9949041  )
        93           Cu  tau(  93) = (   0.0004582   1.3861890   1.9924600  )
        94           Cu  tau(  94) = (   0.2499062   1.6165987   1.9900612  )
        95           Cu  tau(  95) = (   0.5002493   1.3863335   1.9902497  )
        96           Cu  tau(  96) = (   0.7507187   1.6164319   1.9899662  )
        97           Cu  tau(  97) = (   0.0001784   1.8473007   1.9921460  )
        98           Cu  tau(  98) = (   0.2502100   2.0781839   1.9915605  )
        99           Cu  tau(  99) = (   0.5003165   1.8467807   1.9903306  )
       100           Cu  tau( 100) = (   0.7502072   2.0783071   1.9914628  )
       101           C   tau( 101) = (  -0.0002386   0.0966478   2.3884296  )
       102           C   tau( 102) = (  -0.0004951   0.2886429   2.3853806  )
       103           C   tau( 103) = (   0.1663680   0.0004058   2.3886805  )
       104           C   tau( 104) = (   0.1663861   0.3844012   2.3801741  )
       105           C   tau( 105) = (   0.3329009   0.0965156   2.3864675  )
       106           C   tau( 106) = (   0.3332240   0.2884800   2.3824762  )
       107           C   tau( 107) = (   0.4997278   0.0002601   2.3855881  )
       108           C   tau( 108) = (   0.4994425   0.3851569   2.3781998  )
       109           C   tau( 109) = (   0.6664918   0.0966083   2.3855935  )
       110           C   tau( 110) = (   0.6668212   0.2888991   2.3819066  )
       111           C   tau( 111) = (   0.8330685   0.0005545   2.3881549  )
       112           C   tau( 112) = (   0.8334647   0.3853133   2.3818854  )
       113           C   tau( 113) = (   0.0001041   0.6735927   2.3783341  )
       114           C   tau( 114) = (   0.0001551   0.8668568   2.3701539  )
       115           C   tau( 115) = (   0.1668786   0.5764913   2.3779237  )
       116           C   tau( 116) = (   0.1637539   0.9639171   2.3859165  )
       117           C   tau( 117) = (   0.3325489   0.6708589   2.3863593  )
       118           C   tau( 118) = (   0.3267983   0.8629062   2.4526083  )
       119           H   tau( 119) = (   0.3046281   0.8504690   2.5980918  )
       120           C   tau( 120) = (   0.4993808   0.5774457   2.3804103  )
       121           C   tau( 121) = (   0.5062527   0.9654766   2.4553427  )
       122           H   tau( 122) = (   0.5265538   0.9741191   2.6017284  )
       123           C   tau( 123) = (   0.6668907   0.6750205   2.3796377  )
       124           C   tau( 124) = (   0.6694052   0.8654380   2.3871832  )
       125           C   tau( 125) = (   0.8338527   0.5777935   2.3771441  )
       126           C   tau( 126) = (   0.8326033   0.9621725   2.3740538  )
       127           C   tau( 127) = (  -0.0007108   1.2509811   2.3767759  )
       128           C   tau( 128) = (  -0.0003135   1.4439854   2.3777352  )
       129           C   tau( 129) = (   0.1660506   1.1547909   2.3802409  )
       130           C   tau( 130) = (   0.1665904   1.5401946   2.3803424  )
       131           C   tau( 131) = (   0.3343330   1.2511419   2.3848212  )
       132           C   tau( 132) = (   0.3336363   1.4442711   2.3812749  )
       133           C   tau( 133) = (   0.5006798   1.1590860   2.3941392  )
       134           C   tau( 134) = (   0.4995005   1.5405965   2.3845029  )
       135           C   tau( 135) = (   0.6656145   1.2522268   2.3824511  )
       136           C   tau( 136) = (   0.6662881   1.4449671   2.3803007  )
       137           C   tau( 137) = (   0.8332442   1.1557117   2.3807868  )
       138           C   tau( 138) = (   0.8330676   1.5405286   2.3801873  )
       139           C   tau( 139) = (  -0.0003586   1.8290628   2.3840846  )
       140           C   tau( 140) = (  -0.0003188   2.0214555   2.3876727  )
       141           C   tau( 141) = (   0.1666346   1.7326434   2.3842015  )
       142           C   tau( 142) = (   0.1662838   2.1174822   2.3880787  )
       143           C   tau( 143) = (   0.3330526   1.8290059   2.3877887  )
       144           C   tau( 144) = (   0.3330693   2.0213117   2.3882559  )
       145           C   tau( 145) = (   0.4996561   1.7328336   2.3874479  )
       146           C   tau( 146) = (   0.4996866   2.1173163   2.3884930  )
       147           C   tau( 147) = (   0.6663242   1.8289875   2.3874049  )
       148           C   tau( 148) = (   0.6662497   2.0213188   2.3879147  )
       149           C   tau( 149) = (   0.8328531   1.7326549   2.3839128  )
       150           C   tau( 150) = (   0.8330240   2.1175014   2.3877197  )

     number of k points=     6  gaussian smearing, width (Ry)=  0.1000
                       cart. coord. in units 2pi/alat
        k(    1) = (   0.0000000   0.0000000   0.0000000), wk =   0.2500000
        k(    2) = (   0.0000000  -0.2165064   0.0000000), wk =   0.2500000
        k(    3) = (   0.2500000   0.0000000   0.0000000), wk =   0.5000000
        k(    4) = (   0.2500000  -0.2165064   0.0000000), wk =   0.5000000
        k(    5) = (  -0.5000000   0.0000000   0.0000000), wk =   0.2500000
        k(    6) = (  -0.5000000  -0.2165064   0.0000000), wk =   0.2500000

     Dense  grid:  2050409 G-vectors     FFT dimensions: (  80, 192, 270)

     Largest allocated arrays     est. size (Mb)     dimensions
        Kohn-Sham Wavefunctions        54.52 Mb     (    4604,  776)
        NL pseudopotentials           129.97 Mb     (    4604, 1850)
        Each V/rho on FFT grid          1.17 Mb     (   76800)
        Each G-vector array             0.28 Mb     (   36616)
        G-vector shells                 0.14 Mb     (   17932)
     Largest temporary arrays     est. size (Mb)     dimensions
        Auxiliary wavefunctions       218.06 Mb     (    4604, 3104)
        Each subspace H/S matrix        5.87 Mb     (     620,  620)
        Each <psi_i|beta_j> matrix     21.91 Mb     (    1850,  776)
        Arrays for rho mixing           9.38 Mb     (   76800,    8)

     Initial potential from superposition of free atoms
     Check: negative starting charge=   -0.001843

     starting charge 1268.81749, renormalised to 1294.00000

     negative rho (up, down):  1.879E-03 0.000E+00
     Starting wfc are 1286 randomized atomic wfcs

     total cpu time spent up to now is      107.3 secs

     Self-consistent Calculation

     iteration #  1     ecut=    80.00 Ry     beta=0.70
     Davidson diagonalization with overlap
     c_bands:  5 eigenvalues not converged
     c_bands:  3 eigenvalues not converged
     ethr =  1.00E-04,  avg # of iterations = 20.7

     negative rho (up, down):  2.620E+01 0.000E+00

     total cpu time spent up to now is     1867.6 secs

     total energy              =   -9512.84789188 Ry
     Harris-Foulkes estimate   =  -17092.64511755 Ry
     estimated scf accuracy    <  177957.96836116 Ry

     iteration #  2     ecut=    80.00 Ry     beta=0.70
     Davidson diagonalization with overlap
     ethr =  1.00E-02,  avg # of iterations = 11.0

     negative rho (up, down):  2.797E+01 0.000E+00

     total cpu time spent up to now is     2807.3 secs

     total energy              =  -12312.48388146 Ry
     Harris-Foulkes estimate   =  -13579.97359643 Ry
     estimated scf accuracy    <   17131.72932412 Ry

     iteration #  3     ecut=    80.00 Ry     beta=0.70
     Davidson diagonalization with overlap
     ethr =  1.00E-02,  avg # of iterations =  6.8

     negative rho (up, down):  3.003E+01 0.000E+00

     total cpu time spent up to now is     3414.5 secs

     total energy              =  -12464.83168135 Ry
     Harris-Foulkes estimate   =  -13305.54020371 Ry
     estimated scf accuracy    <    6083.99310498 Ry

     iteration #  4     ecut=    80.00 Ry     beta=0.70
     Davidson diagonalization with overlap
     ethr =  1.00E-02,  avg # of iterations =  5.3

     negative rho (up, down):  2.703E+01 0.000E+00

     total cpu time spent up to now is     3967.7 secs

     total energy              =  -12805.29398781 Ry
     Harris-Foulkes estimate   =  -13115.01972095 Ry
     estimated scf accuracy    <    6367.87752938 Ry

     iteration #  5     ecut=    80.00 Ry     beta=0.70
     Davidson diagonalization with overlap
     ethr =  1.00E-02,  avg # of iterations =  5.2

     negative rho (up, down):  1.867E+01 0.000E+00

     total cpu time spent up to now is     4349.0 secs

     total energy              =  -12831.41210063 Ry
     Harris-Foulkes estimate   =  -13007.55034670 Ry
     estimated scf accuracy    <     954.74647749 Ry

     iteration #  6     ecut=    80.00 Ry     beta=0.70
     Davidson diagonalization with overlap
     ethr =  1.00E-02,  avg # of iterations =  3.0

     negative rho (up, down):  1.109E+01 0.000E+00

     total cpu time spent up to now is     4594.5 secs

     total energy              =  -12822.12878132 Ry
     Harris-Foulkes estimate   =  -12892.15347713 Ry
     estimated scf accuracy    <     631.03246338 Ry

     iteration #  7     ecut=    80.00 Ry     beta=0.70
     Davidson diagonalization with overlap
     ethr =  1.00E-02,  avg # of iterations =  2.0

     negative rho (up, down):  8.038E+00 0.000E+00

     total cpu time spent up to now is     4779.6 secs

     total energy              =  -12801.19125413 Ry
     Harris-Foulkes estimate   =  -12833.86838600 Ry
     estimated scf accuracy    <     805.59305067 Ry

     iteration #  8     ecut=    80.00 Ry     beta=0.70
     Davidson diagonalization with overlap
     ethr =  1.00E-02,  avg # of iterations =  1.5

     negative rho (up, down):  3.559E+00 0.000E+00

     total cpu time spent up to now is     4953.6 secs

     total energy              =  -12761.00888078 Ry
     Harris-Foulkes estimate   =  -12806.10785632 Ry
     estimated scf accuracy    <     292.12335133 Ry

     iteration #  9     ecut=    80.00 Ry     beta=0.70
     Davidson diagonalization with overlap
     ethr =  1.00E-02,  avg # of iterations =  2.7

     negative rho (up, down):  1.771E+00 0.000E+00

     total cpu time spent up to now is     5141.5 secs

     total energy              =  -12752.56333529 Ry
     Harris-Foulkes estimate   =  -12778.50351481 Ry
     estimated scf accuracy    <     970.86963915 Ry

     iteration # 10     ecut=    80.00 Ry     beta=0.70
     Davidson diagonalization with overlap
     ethr =  1.00E-02,  avg # of iterations =  1.5

     negative rho (up, down):  7.194E-01 0.000E+00

     total cpu time spent up to now is     5315.4 secs

     total energy              =  -12713.57913184 Ry
     Harris-Foulkes estimate   =  -12760.67604096 Ry
     estimated scf accuracy    <     625.92060414 Ry

     iteration # 11     ecut=    80.00 Ry     beta=0.70
     Davidson diagonalization with overlap
     ethr =  1.00E-02,  avg # of iterations =  3.0

     negative rho (up, down):  4.048E-01 0.000E+00

     total cpu time spent up to now is     5510.8 secs

     total energy              =  -12724.43211965 Ry
     Harris-Foulkes estimate   =  -12739.80081975 Ry
     estimated scf accuracy    <     181.93661163 Ry

     iteration # 12     ecut=    80.00 Ry     beta=0.70
     Davidson diagonalization with overlap
     ethr =  1.00E-02,  avg # of iterations =  2.0

     negative rho (up, down):  8.486E-01 0.000E+00

     total cpu time spent up to now is     5691.6 secs

     total energy              =  -12718.26729749 Ry
     Harris-Foulkes estimate   =  -12738.43942643 Ry
     estimated scf accuracy    <     103.37805733 Ry

     iteration # 13     ecut=    80.00 Ry     beta=0.70
     Davidson diagonalization with overlap
     ethr =  7.99E-03,  avg # of iterations =  2.0

     negative rho (up, down):  5.350E+00 0.000E+00

     total cpu time spent up to now is     5883.6 secs

     total energy              =  -12710.28220579 Ry
     Harris-Foulkes estimate   =  -12730.54401615 Ry
     estimated scf accuracy    <      92.71922724 Ry

     iteration # 14     ecut=    80.00 Ry     beta=0.70
     Davidson diagonalization with overlap
     ethr =  7.17E-03,  avg # of iterations =  1.7

     negative rho (up, down):  2.661E+00 0.000E+00

     total cpu time spent up to now is     6059.8 secs

     total energy              =  -12711.10183497 Ry
     Harris-Foulkes estimate   =  -12716.43785097 Ry
     estimated scf accuracy    <      84.56013663 Ry

     iteration # 15     ecut=    80.00 Ry     beta=0.70
     Davidson diagonalization with overlap
     ethr =  6.53E-03,  avg # of iterations =  1.2

     negative rho (up, down):  3.842E+00 0.000E+00

     total cpu time spent up to now is     6229.9 secs

     total energy              =  -12709.00153200 Ry
     Harris-Foulkes estimate   =  -12713.73206713 Ry
     estimated scf accuracy    <      41.05449530 Ry

     iteration # 16     ecut=    80.00 Ry     beta=0.70
     Davidson diagonalization with overlap
     ethr =  3.17E-03,  avg # of iterations =  2.3

     negative rho (up, down):  4.693E+00 0.000E+00

     total cpu time spent up to now is     6414.0 secs

     total energy              =  -12707.10695961 Ry
     Harris-Foulkes estimate   =  -12709.83928718 Ry
     estimated scf accuracy    <      20.59149815 Ry

     iteration # 17     ecut=    80.00 Ry     beta=0.70
     Davidson diagonalization with overlap
     ethr =  1.59E-03,  avg # of iterations =  8.3

     negative rho (up, down):  2.690E+00 0.000E+00

     total cpu time spent up to now is     6674.7 secs

     total energy              =  -12705.93151111 Ry
     Harris-Foulkes estimate   =  -12708.23971143 Ry
     estimated scf accuracy    <      15.09117747 Ry

     iteration # 18     ecut=    80.00 Ry     beta=0.70
     Davidson diagonalization with overlap
     ethr =  1.17E-03,  avg # of iterations =  2.0

     negative rho (up, down):  2.096E+00 0.000E+00

     total cpu time spent up to now is     6854.8 secs

     total energy              =  -12705.76196396 Ry
     Harris-Foulkes estimate   =  -12706.45275892 Ry
     estimated scf accuracy    <       8.34753071 Ry

     iteration # 19     ecut=    80.00 Ry     beta=0.70
     Davidson diagonalization with overlap
     ethr =  6.45E-04,  avg # of iterations =  2.0

     negative rho (up, down):  1.986E+00 0.000E+00

     total cpu time spent up to now is     7035.6 secs

     total energy              =  -12705.50487181 Ry
     Harris-Foulkes estimate   =  -12705.89180518 Ry
     estimated scf accuracy    <       7.84913793 Ry

     iteration # 20     ecut=    80.00 Ry     beta=0.70
     Davidson diagonalization with overlap
     ethr =  6.07E-04,  avg # of iterations =  1.0

     negative rho (up, down):  1.948E+00 0.000E+00

     total cpu time spent up to now is     7204.6 secs

     total energy              =  -12704.85383197 Ry
     Harris-Foulkes estimate   =  -12705.59446693 Ry
     estimated scf accuracy    <       7.11413373 Ry

     iteration # 21     ecut=    80.00 Ry     beta=0.70
     Davidson diagonalization with overlap
     ethr =  5.50E-04,  avg # of iterations =  3.7

     negative rho (up, down):  8.810E-01 0.000E+00

     total cpu time spent up to now is     7403.7 secs

     total energy              =  -12703.42122277 Ry
     Harris-Foulkes estimate   =  -12704.97796331 Ry
     estimated scf accuracy    <       5.77931207 Ry

     iteration # 22     ecut=    80.00 Ry     beta=0.70
     Davidson diagonalization with overlap
     ethr =  4.47E-04,  avg # of iterations =  7.0

     negative rho (up, down):  8.934E-01 0.000E+00

     total cpu time spent up to now is     7643.2 secs

     total energy              =  -12701.54736755 Ry
     Harris-Foulkes estimate   =  -12703.50996767 Ry
     estimated scf accuracy    <       4.04957427 Ry

     iteration # 23     ecut=    80.00 Ry     beta=0.70
     Davidson diagonalization with overlap
     ethr =  3.13E-04,  avg # of iterations =  7.2

     negative rho (up, down):  5.662E-01 0.000E+00

     total cpu time spent up to now is     7911.7 secs

     total energy              =  -12700.79097163 Ry
     Harris-Foulkes estimate   =  -12702.02902657 Ry
     estimated scf accuracy    <      18.57614871 Ry

     iteration # 24     ecut=    80.00 Ry     beta=0.70
     Davidson diagonalization with overlap
     ethr =  3.13E-04,  avg # of iterations =  9.8

     negative rho (up, down):  9.075E-01 0.000E+00

     total cpu time spent up to now is     8190.8 secs

     total energy              =  -12701.18148649 Ry
     Harris-Foulkes estimate   =  -12701.63240965 Ry
     estimated scf accuracy    <       1.65521275 Ry

     iteration # 25     ecut=    80.00 Ry     beta=0.70
     Davidson diagonalization with overlap
     ethr =  1.28E-04,  avg # of iterations =  8.2

     negative rho (up, down):  9.977E-01 0.000E+00

     total cpu time spent up to now is     8475.9 secs

     total energy              =  -12701.20375710 Ry
     Harris-Foulkes estimate   =  -12701.33816341 Ry
     estimated scf accuracy    <       1.62302592 Ry

     iteration # 26     ecut=    80.00 Ry     beta=0.70
     Davidson diagonalization with overlap
     ethr =  1.25E-04,  avg # of iterations =  7.5

     negative rho (up, down):  6.268E-01 0.000E+00

     total cpu time spent up to now is     8738.5 secs

     total energy              =  -12701.15180015 Ry
     Harris-Foulkes estimate   =  -12701.25292885 Ry
     estimated scf accuracy    <       0.51287167 Ry

     iteration # 27     ecut=    80.00 Ry     beta=0.70
     Davidson diagonalization with overlap
     c_bands:  1 eigenvalues not converged
     ethr =  3.96E-05,  avg # of iterations = 15.7

     negative rho (up, down):  4.030E-01 0.000E+00

     total cpu time spent up to now is     9093.8 secs

     total energy              =  -12701.11056396 Ry
     Harris-Foulkes estimate   =  -12701.17752498 Ry
     estimated scf accuracy    <       0.23217890 Ry

     iteration # 28     ecut=    80.00 Ry     beta=0.70
     Davidson diagonalization with overlap
     ethr =  1.79E-05,  avg # of iterations =  7.0

     negative rho (up, down):  1.861E-01 0.000E+00

     total cpu time spent up to now is     9371.3 secs

     total energy              =  -12701.10952195 Ry
     Harris-Foulkes estimate   =  -12701.14477691 Ry
     estimated scf accuracy    <       0.47710313 Ry

     iteration # 29     ecut=    80.00 Ry     beta=0.70
     Davidson diagonalization with overlap
     ethr =  1.79E-05,  avg # of iterations =  7.5

     negative rho (up, down):  1.232E-01 0.000E+00

     total cpu time spent up to now is     9627.5 secs

     total energy              =  -12701.11350598 Ry
     Harris-Foulkes estimate   =  -12701.12365684 Ry
     estimated scf accuracy    <       0.06860569 Ry

     iteration # 30     ecut=    80.00 Ry     beta=0.70
     Davidson diagonalization with overlap
     c_bands:  2 eigenvalues not converged
     ethr =  5.30E-06,  avg # of iterations = 13.0

     negative rho (up, down):  5.900E-02 0.000E+00

     total cpu time spent up to now is     9964.2 secs

     total energy              =  -12701.11584000 Ry
     Harris-Foulkes estimate   =  -12701.12077776 Ry
     estimated scf accuracy    <       0.02754513 Ry

     iteration # 31     ecut=    80.00 Ry     beta=0.70
     Davidson diagonalization with overlap
     ethr =  2.13E-06,  avg # of iterations = 13.7

     negative rho (up, down):  1.775E-02 0.000E+00

     total cpu time spent up to now is    10313.4 secs

     total energy              =  -12701.11656217 Ry
     Harris-Foulkes estimate   =  -12701.11799127 Ry
     estimated scf accuracy    <       0.00402881 Ry

     iteration # 32     ecut=    80.00 Ry     beta=0.70
     Davidson diagonalization with overlap
     ethr =  3.11E-07,  avg # of iterations = 12.8

     negative rho (up, down):  1.045E-02 0.000E+00

     total cpu time spent up to now is    10662.1 secs

     total energy              =  -12701.11688604 Ry
     Harris-Foulkes estimate   =  -12701.11688765 Ry
     estimated scf accuracy    <       0.00109369 Ry

     iteration # 33     ecut=    80.00 Ry     beta=0.70
     Davidson diagonalization with overlap
     ethr =  8.45E-08,  avg # of iterations =  9.7

     negative rho (up, down):  3.910E-03 0.000E+00

     total cpu time spent up to now is    10950.8 secs

     total energy              =  -12701.11679442 Ry
     Harris-Foulkes estimate   =  -12701.11698004 Ry
     estimated scf accuracy    <       0.00037007 Ry

     iteration # 34     ecut=    80.00 Ry     beta=0.70
     Davidson diagonalization with overlap
     ethr =  2.86E-08,  avg # of iterations =  7.2

     negative rho (up, down):  1.190E-03 0.000E+00

     total cpu time spent up to now is    11210.5 secs

     total energy              =  -12701.11686372 Ry
     Harris-Foulkes estimate   =  -12701.11684466 Ry
     estimated scf accuracy    <       0.00021618 Ry

     iteration # 35     ecut=    80.00 Ry     beta=0.70
     Davidson diagonalization with overlap
     c_bands:  1 eigenvalues not converged
     c_bands:  1 eigenvalues not converged
     ethr =  1.67E-08,  avg # of iterations = 12.7

     negative rho (up, down):  2.650E-03 0.000E+00

     total cpu time spent up to now is    11531.5 secs

     total energy              =  -12701.11695302 Ry
     Harris-Foulkes estimate   =  -12701.11687745 Ry
     estimated scf accuracy    <       0.00005578 Ry

     iteration # 36     ecut=    80.00 Ry     beta=0.70
     Davidson diagonalization with overlap
     ethr =  4.31E-09,  avg # of iterations =  8.7

     negative rho (up, down):  2.240E-03 0.000E+00

     total cpu time spent up to now is    11809.3 secs

     total energy              =  -12701.11695891 Ry
     Harris-Foulkes estimate   =  -12701.11695763 Ry
     estimated scf accuracy    <       0.00000997 Ry

     iteration # 37     ecut=    80.00 Ry     beta=0.70
     Davidson diagonalization with overlap
     ethr =  7.71E-10,  avg # of iterations =  3.2

     negative rho (up, down):  2.195E-03 0.000E+00

     total cpu time spent up to now is    12015.3 secs

     total energy              =  -12701.11695974 Ry
     Harris-Foulkes estimate   =  -12701.11696023 Ry
     estimated scf accuracy    <       0.00000567 Ry

     iteration # 38     ecut=    80.00 Ry     beta=0.70
     Davidson diagonalization with overlap
     ethr =  4.38E-10,  avg # of iterations =  2.8

     negative rho (up, down):  1.937E-03 0.000E+00

     total cpu time spent up to now is    12210.7 secs

     total energy              =  -12701.11695984 Ry
     Harris-Foulkes estimate   =  -12701.11696024 Ry
     estimated scf accuracy    <       0.00000108 Ry

     iteration # 39     ecut=    80.00 Ry     beta=0.70
     Davidson diagonalization with overlap
     ethr =  8.34E-11,  avg # of iterations =  3.0

     negative rho (up, down):  1.932E-03 0.000E+00

     total cpu time spent up to now is    12423.8 secs

     total energy              =  -12701.11695995 Ry
     Harris-Foulkes estimate   =  -12701.11695999 Ry
     estimated scf accuracy    <       0.00000059 Ry

     iteration # 40     ecut=    80.00 Ry     beta=0.70
     Davidson diagonalization with overlap
     ethr =  4.53E-11,  avg # of iterations =  2.7

     negative rho (up, down):  1.808E-03 0.000E+00

     total cpu time spent up to now is    12619.0 secs

     total energy              =  -12701.11696024 Ry
     Harris-Foulkes estimate   =  -12701.11696000 Ry
     estimated scf accuracy    <       0.00000016 Ry

     iteration # 41     ecut=    80.00 Ry     beta=0.70
     Davidson diagonalization with overlap
     ethr =  1.23E-11,  avg # of iterations =  3.2

     negative rho (up, down):  1.831E-03 0.000E+00

     total cpu time spent up to now is    12828.5 secs

     total energy              =  -12701.11696030 Ry
     Harris-Foulkes estimate   =  -12701.11696027 Ry
     estimated scf accuracy    <       0.00000005 Ry

     iteration # 42     ecut=    80.00 Ry     beta=0.70
     Davidson diagonalization with overlap
     ethr =  3.92E-12,  avg # of iterations =  3.0

     negative rho (up, down):  1.856E-03 0.000E+00

     total cpu time spent up to now is    13030.1 secs

     total energy              =  -12701.11696029 Ry
     Harris-Foulkes estimate   =  -12701.11696031 Ry
     estimated scf accuracy    <       0.00000002 Ry

     iteration # 43     ecut=    80.00 Ry     beta=0.70
     Davidson diagonalization with overlap
     ethr =  1.27E-12,  avg # of iterations =  3.0

     negative rho (up, down):  1.862E-03 0.000E+00

     total cpu time spent up to now is    13239.8 secs

     End of self-consistent calculation

          k = 0.0000 0.0000 0.0000 (256287 PWs)   bands (ev):

   -16.0151 -15.6545 -15.6288 -14.5433 -14.5320 -14.0544 -14.0513 -13.7139
   -13.7068 -13.6717 -13.6661 -12.7705 -12.7215 -12.6582 -12.6249 -12.6117
   -12.5959 -11.0229 -10.9371 -10.9195 -10.8923 -10.7519  -9.6997  -9.1660
    -9.0723  -9.0414  -9.0316  -8.2284  -8.2003  -8.1674  -8.1442  -7.2827
    -7.2659  -7.1439  -7.1093  -7.1011  -7.0797  -7.0180  -6.9491  -5.8581
    -5.6897  -5.6365  -5.5390  -5.5147  -5.4159  -5.4039  -5.3104  -5.2515
    -5.1058  -5.1020  -4.8362  -4.6069  -4.3643  -4.2805  -4.2317  -4.2173
    -3.9860  -3.9571  -3.7865  -3.7530  -3.6099  -3.6079  -3.3961  -3.1513
    -3.1191  -3.0902  -3.0290  -3.0262  -2.9861  -2.9422  -2.9277  -2.8659
    -2.8075  -2.7886  -2.7588  -2.6395  -2.6280  -2.6274  -2.6200  -2.6058
    -2.5323  -2.5243  -2.4707  -2.4052  -2.3636  -2.3502  -2.2905  -2.2568
    -2.2242  -2.2079  -2.1425  -2.1369  -1.9932  -1.9758  -1.9704  -1.9681
    -1.8512  -1.8446  -1.8098  -1.8092  -1.7694  -1.7693  -1.7690  -1.7689
    -1.6869  -1.6824  -1.6404  -1.6401  -1.6357  -1.6353  -1.5797  -1.5581
    -1.4871  -1.4585  -1.4014  -1.3921  -1.3662  -1.3556  -1.3547  -1.3472
    -1.3184  -1.2890  -1.2883  -1.2804  -1.2752  -1.2699  -1.2169  -1.2064
    -1.1827  -1.1808  -1.1800  -1.1679  -1.1493  -1.1485  -1.1315  -1.1292
    -1.1268  -1.1175  -1.0610  -1.0487  -1.0323  -1.0201  -0.9978  -0.9851
    -0.9679  -0.9497  -0.9138  -0.8797  -0.8788  -0.8651  -0.8348  -0.8267
    -0.8260  -0.8126  -0.8072  -0.8038  -0.7823  -0.7789  -0.7525  -0.7385
    -0.6909  -0.6887  -0.6655  -0.6633  -0.6562  -0.6545  -0.6448  -0.6379
    -0.6377  -0.6374  -0.6370  -0.6314  -0.6302  -0.6140  -0.6124  -0.6047
    -0.5736  -0.5676  -0.5589  -0.5435  -0.5426  -0.5351  -0.5342  -0.5315
    -0.5272  -0.4755  -0.4751  -0.4717  -0.4712  -0.4711  -0.4706  -0.4700
    -0.4674  -0.4661  -0.4651  -0.4628  -0.4627  -0.4602  -0.4569  -0.4565
    -0.4472  -0.4459  -0.4138  -0.4012  -0.3761  -0.3053  -0.3048  -0.2978
    -0.2974  -0.2788  -0.2769  -0.2572  -0.2568  -0.2478  -0.2372  -0.2350
    -0.2295  -0.2243  -0.2165  -0.2150  -0.2048  -0.2017  -0.1808  -0.1802
    -0.1760  -0.1756  -0.1697  -0.1691  -0.1591  -0.1577  -0.1078  -0.1074
    -0.0535  -0.0533  -0.0454  -0.0439  -0.0424  -0.0385  -0.0301  -0.0271
    -0.0247  -0.0209  -0.0198  -0.0192  -0.0166  -0.0153  -0.0149  -0.0016
    -0.0003  -0.0001   0.0080   0.0106   0.0344   0.0348   0.0802   0.0840
     0.0868   0.0930   0.0931   0.1105   0.1189   0.1190   0.1214   0.1224
     0.1297   0.1358   0.1419   0.1422   0.1442   0.1548   0.1641   0.1653
     0.1669   0.1694   0.1700   0.1705   0.1723   0.1741   0.1811   0.1921
     0.1926   0.1957   0.1962   0.2011   0.2197   0.2578   0.2646   0.2657
     0.2662   0.2675   0.2845   0.3128   0.3148   0.3150   0.3159   0.3220
     0.3225   0.3238   0.3241   0.3253   0.3418   0.3566   0.3726   0.3759
     0.3772   0.3788   0.3862   0.4029   0.4035   0.4058   0.4095   0.4112
     0.4175   0.4286   0.4302   0.4306   0.4307   0.4330   0.4374   0.4412
     0.4457   0.4477   0.4483   0.4494   0.4596   0.4636   0.4661   0.4787
     0.4817   0.4917   0.5042   0.5203   0.5213   0.5453   0.5473   0.5713
     0.5736   0.5799   0.6177   0.6202   0.6210   0.6246   0.6291   0.6315
     0.6446   0.6545   0.6554   0.6575   0.6583   0.6615   0.6659   0.6681
     0.6715   0.7130   0.7233   0.7238   0.7320   0.7341   0.7356   0.7403
     0.7624   0.7653   0.7658   0.7688   0.7697   0.7908   0.8003   0.8038
     0.8092   0.8152   0.8203   0.8227   0.8258   0.8345   0.8521   0.8630
     0.8733   0.8779   0.8798   0.8839   0.8849   0.8882   0.8940   0.9091
     0.9132   0.9145   0.9186   0.9194   0.9210   0.9220   0.9230   0.9282
     0.9296   0.9335   0.9381   0.9398   0.9435   0.9448   0.9504   0.9555
     0.9817   0.9877   0.9880   0.9929   1.0051   1.0304   1.0317   1.0330
     1.0354   1.0374   1.0378   1.0393   1.0399   1.0470   1.0504   1.0558
     1.0625   1.0636   1.0645   1.0653   1.0712   1.0717   1.0787   1.0816
     1.0918   1.1033   1.1047   1.1087   1.1096   1.1169   1.1183   1.1261
     1.1297   1.1297   1.1317   1.1348   1.1371   1.1391   1.1437   1.1512
     1.1680   1.1894   1.1900   1.1986   1.2032   1.2054   1.2061   1.2071
     1.2094   1.2187   1.2390   1.2410   1.2528   1.2566   1.2607   1.2611
     1.2729   1.2740   1.2761   1.2831   1.2846   1.2860   1.2887   1.2934
     1.3057   1.3217   1.3235   1.3254   1.3257   1.3277   1.3284   1.3440
     1.3540   1.3617   1.3677   1.3706   1.3715   1.3823   1.3936   1.3944
     1.3950   1.3973   1.3996   1.4000   1.4057   1.4093   1.4116   1.4119
     1.4132   1.4134   1.4158   1.4254   1.4262   1.4429   1.4474   1.4479
     1.4513   1.4520   1.4592   1.4698   1.4879   1.4890   1.4892   1.4937
     1.4952   1.4975   1.4988   1.4993   1.5003   1.5014   1.5022   1.5032
     1.5060   1.5182   1.5184   1.5359   1.5386   1.5491   1.5660   1.5693
     1.5836   1.5863   1.5874   1.5883   1.5892   1.5929   1.5969   1.6076
     1.6197   1.6214   1.6223   1.6243   1.6250   1.6260   1.6284   1.6289
     1.6303   1.6400   1.6563   1.6566   1.6581   1.6594   1.6600   1.6615
     1.6624   1.6632   1.6780   1.6787   1.6792   1.6848   1.6861   1.6935
     1.6944   1.6947   1.6957   1.6964   1.7046   1.7064   1.7088   1.7202
     1.7259   1.7369   1.7391   1.7394   1.7426   1.7460   1.7509   1.7594
     1.7676   1.7710   1.7736   1.7759   1.7829   1.7916   1.7987   1.7992
     1.8028   1.8068   1.8073   1.8178   1.8182   1.8187   1.8194   1.8200
     1.8212   1.8217   1.8227   1.8306   1.8319   1.8340   1.8493   1.8501
     1.8504   1.8517   1.8555   1.8621   1.8643   1.8655   1.8810   1.8975
     1.9038   1.9039   1.9396   1.9406   1.9437   1.9464   1.9631   1.9640
     1.9659   1.9702   1.9753   1.9918   2.0102   2.0125   2.0158   2.0160
     2.0167   2.0269   2.0271   2.0292   2.1078   2.2831   2.3388   2.4790
     2.4920   2.5163   2.5374   2.5801   2.5905   2.5910   2.5918   2.6017
     2.6094   2.6110   2.6268   2.7618   2.7886   2.8130   2.8509   2.8520
     2.8563   2.8595   2.8662   2.9897   3.1008   3.1042   3.1170   3.1349
     3.4402   3.4613   3.5267   3.8934   3.9004   3.9331   4.1835   4.2002
     4.2242   4.2309   4.2359   4.2483   4.3072   4.3215   4.3437   4.3476
     4.3821   4.3891   4.3895   4.3945   4.3951   4.4042   4.5646   4.6288
     4.6313   4.6358   4.7380   4.9338   5.0163   5.1472   5.2806   5.3311
     5.6784   5.7378   5.7607   5.7854   5.9714   6.0389   6.0740   6.0882
     6.1155   6.2886   6.3139   6.4084   6.7084   6.7268   6.7621   6.7918
     6.8436   6.8479   6.8517   6.8618   6.9580   6.9766   7.0596   7.0612
     7.1232   7.1345   7.1464   7.1610   7.1864   7.3794   7.4084   7.4355
     7.4571   7.4750   7.5011   7.6299   7.7324   7.7366   7.7405   7.8800
     7.8900   7.9461   8.0063   8.0533   8.0710   8.0775   8.0899   8.2912
     8.4633   8.4729   8.5177   8.5520   8.5762   8.6519   8.6687   8.7175
     8.7183   8.7293   8.7544   8.7784   8.7866   8.8223   8.9023   8.9291
     8.9476   9.0234   9.0275   9.0316   9.0459   9.1185   9.1316   9.2086
     9.2099   9.2226   9.2273   9.2324   9.2394   9.3944   9.4231   9.4566
     9.4602   9.4785   9.4974   9.5482   9.6618   9.7121   9.7240   9.7335
     9.7810   9.9458   9.9582   9.9710  10.0295  10.1113  10.1663  10.2121

          k = 0.0000-0.2165 0.0000 (256176 PWs)   bands (ev):

   -15.9355 -15.9070 -15.1832 -15.1755 -13.9797 -13.9772 -13.9484 -13.9446
   -13.7302 -13.7094 -13.2650 -13.2554 -13.2238 -13.2222 -11.9068 -11.8461
   -11.8365 -11.8174 -11.6660 -11.5914 -10.0528  -9.9496  -9.9265  -9.9051
    -8.7512  -8.6979  -8.5859  -8.5660  -8.5163  -8.5004  -7.7724  -7.7254
    -7.6986  -7.6896  -6.6478  -6.5555  -6.4899  -6.4786  -6.4251  -6.4054
    -6.3197  -6.3095  -5.6645  -5.5780  -5.5061  -5.4986  -5.1264  -4.8580
    -4.7027  -4.6850  -4.6145  -4.6065  -4.4635  -4.4597  -4.3559  -4.1930
    -4.1428  -4.1183  -4.0638  -4.0523  -3.7954  -3.6600  -3.4188  -3.2198
    -3.0454  -2.9348  -2.9252  -2.9248  -2.9071  -2.8633  -2.8186  -2.7683
    -2.6925  -2.6660  -2.6549  -2.6519  -2.6041  -2.5556  -2.5467  -2.5362
    -2.4356  -2.4172  -2.4147  -2.3628  -2.3064  -2.2359  -2.2217  -2.2138
    -2.1990  -2.1976  -2.1961  -2.1950  -2.1352  -2.0938  -2.0480  -1.9908
    -1.9215  -1.9074  -1.8820  -1.8756  -1.8540  -1.8493  -1.7739  -1.7701
    -1.7623  -1.7599  -1.7100  -1.6251  -1.6028  -1.6027  -1.5773  -1.5773
    -1.5474  -1.5302  -1.4848  -1.4726  -1.3928  -1.3860  -1.3811  -1.3672
    -1.3669  -1.3602  -1.3581  -1.3576  -1.3407  -1.3349  -1.2727  -1.2635
    -1.2612  -1.2580  -1.1732  -1.1498  -1.0888  -1.0886  -1.0815  -1.0810
    -1.0006  -0.9961  -0.9873  -0.9863  -0.9331  -0.9305  -0.9152  -0.8999
    -0.8952  -0.8907  -0.8901  -0.8896  -0.8841  -0.8791  -0.8719  -0.8661
    -0.8481  -0.8426  -0.8419  -0.8388  -0.8355  -0.8349  -0.8208  -0.7747
    -0.7600  -0.7546  -0.7528  -0.7519  -0.7040  -0.7036  -0.6657  -0.6653
    -0.6625  -0.6620  -0.6247  -0.6206  -0.6019  -0.6013  -0.6004  -0.5968
    -0.5951  -0.5921  -0.5756  -0.5448  -0.5410  -0.5363  -0.5345  -0.5321
    -0.5271  -0.5265  -0.5131  -0.5129  -0.4987  -0.4803  -0.4469  -0.4438
    -0.4346  -0.4342  -0.4308  -0.4234  -0.4134  -0.4127  -0.4035  -0.3947
    -0.3805  -0.3797  -0.3701  -0.3685  -0.3625  -0.3446  -0.2729  -0.2727
    -0.2653  -0.2648  -0.2479  -0.2477  -0.2229  -0.2216  -0.2201  -0.2198
    -0.2162  -0.2161  -0.1929  -0.1914  -0.1593  -0.1581  -0.1565  -0.1554
    -0.1524  -0.1516  -0.1508  -0.1495  -0.1203  -0.1192  -0.1109  -0.1010
    -0.1003  -0.1003  -0.0659  -0.0645  -0.0634  -0.0619  -0.0553  -0.0534
    -0.0492  -0.0470  -0.0454  -0.0105   0.0129   0.0229   0.0238   0.0315
     0.0319   0.0584   0.0609   0.0807   0.0813   0.0856   0.0879   0.0894
     0.0959   0.0993   0.1129   0.1138   0.1170   0.1180   0.1203   0.1327
     0.1331   0.1361   0.1385   0.1408   0.1411   0.1412   0.1478   0.1485
     0.1508   0.1668   0.1774   0.1776   0.1810   0.1812   0.2199   0.2417
     0.2429   0.2432   0.2441   0.2510   0.2524   0.2555   0.2561   0.2578
     0.2651   0.2845   0.2912   0.2941   0.2950   0.2966   0.2980   0.2999
     0.3054   0.3062   0.3084   0.3094   0.3106   0.3132   0.3661   0.3669
     0.3673   0.3680   0.3699   0.3797   0.3893   0.3895   0.3921   0.3935
     0.4011   0.4057   0.4116   0.4125   0.4153   0.4211   0.4224   0.4431
     0.4438   0.4588   0.4589   0.4606   0.4609   0.4777   0.4786   0.4958
     0.4963   0.5032   0.5059   0.5133   0.5150   0.5182   0.5185   0.5342
     0.5609   0.5613   0.5693   0.5724   0.5770   0.5829   0.5859   0.5877
     0.5906   0.6110   0.6133   0.6444   0.6497   0.6507   0.6545   0.6798
     0.6926   0.7197   0.7658   0.7666   0.7702   0.7707   0.7776   0.7875
     0.7945   0.7962   0.7965   0.7979   0.8193   0.8324   0.8344   0.8368
     0.8380   0.8402   0.8408   0.8428   0.8458   0.8477   0.8568   0.8603
     0.8613   0.8617   0.8645   0.8666   0.8704   0.8737   0.8957   0.8988
     0.9016   0.9093   0.9096   0.9102   0.9107   0.9178   0.9178   0.9362
     0.9401   0.9407   0.9419   0.9422   0.9433   0.9438   0.9446   0.9535
     0.9629   0.9631   0.9644   0.9658   0.9666   0.9690   0.9728   0.9761
     0.9816   0.9896   1.0260   1.0296   1.0335   1.0407   1.0413   1.0501
     1.0513   1.0530   1.0544   1.0560   1.0590   1.0613   1.0624   1.0642
     1.0646   1.0667   1.0837   1.1048   1.1085   1.1090   1.1094   1.1156
     1.1258   1.1262   1.1267   1.1287   1.1383   1.1405   1.1458   1.1580
     1.1593   1.1606   1.1649   1.1663   1.1770   1.2174   1.2188   1.2666
     1.2698   1.2753   1.2779   1.2783   1.2795   1.2863   1.2887   1.2933
     1.2951   1.3004   1.3007   1.3051   1.3084   1.3097   1.3133   1.3173
     1.3215   1.3227   1.3245   1.3255   1.3261   1.3349   1.3398   1.3478
     1.3479   1.3508   1.3509   1.3540   1.3541   1.3544   1.3589   1.3604
     1.3688   1.3705   1.3709   1.3752   1.3755   1.3767   1.3812   1.3948
     1.3959   1.4008   1.4095   1.4109   1.4125   1.4153   1.4188   1.4222
     1.4228   1.4229   1.4232   1.4241   1.4271   1.4683   1.4740   1.5025
     1.5121   1.5124   1.5169   1.5229   1.5272   1.5361   1.5368   1.5389
     1.5533   1.5547   1.5625   1.5668   1.5698   1.5730   1.5754   1.5774
     1.5788   1.5818   1.5823   1.5839   1.5854   1.5857   1.5860   1.5874
     1.5943   1.5953   1.5960   1.6050   1.6086   1.6126   1.6142   1.6152
     1.6219   1.6238   1.6291   1.6474   1.6525   1.6527   1.6537   1.6588
     1.6602   1.6607   1.6617   1.6776   1.6822   1.6825   1.6890   1.6941
     1.6952   1.6966   1.6976   1.6989   1.7042   1.7138   1.7151   1.7163
     1.7174   1.7336   1.7342   1.7367   1.7448   1.7535   1.7539   1.7630
     1.7632   1.7644   1.7685   1.7761   1.7771   1.7780   1.7803   1.7953
     1.7958   1.8094   1.8098   1.8103   1.8111   1.8292   1.8302   1.8313
     1.8322   1.8337   1.8338   1.8359   1.8360   1.8613   1.8625   1.8644
     1.8706   1.8735   1.8795   1.8855   1.8949   1.9019   1.9022   1.9030
     1.9060   1.9108   1.9180   1.9235   1.9296   1.9528   1.9698   1.9700
     1.9785   2.0100   2.0729   2.0772   2.0938   2.1104   2.1188   2.1200
     2.1366   2.1583   2.1720   2.1754   2.1773   2.1867   2.1968   2.1981
     2.2003   2.2354   2.2368   2.2628   2.5222   2.5532   2.7950   2.7966
     2.8005   2.8013   2.8776   2.8804   2.9050   2.9400   2.9470   2.9493
     2.9561   2.9636   3.0636   3.0894   3.0981   3.1354   3.1421   3.1582
     3.1663   3.3057   3.3065   3.5433   3.5434   3.5642   3.6054   3.7144
     3.7552   3.9149   4.0510   4.0723   4.3426   4.3694   4.4501   4.4607
     4.4883   4.5203   4.6974   4.7023   4.7086   4.7113   4.8557   4.8735
     4.8839   5.0460   5.0541   5.1149   5.1333   5.4115   5.4812   5.4849
     5.5348   5.6988   5.7384   5.7403   5.7421   5.7705   5.8019   5.8492
     6.0437   6.0720   6.1573   6.1783   6.6934   6.7432   6.7729   6.7876
     6.7925   6.8030   6.8707   6.9095   6.9472   6.9701   7.0462   7.0578
     7.1610   7.1727   7.3144   7.4027   7.4218   7.4419   7.4513   7.4561
     7.4706   7.4742   7.4950   7.5036   7.5058   7.6081   7.7174   7.7217
     7.7764   7.8039   7.8646   7.8981   8.0508   8.0808   8.0973   8.1733
     8.2842   8.2913   8.4563   8.5173   8.5189   8.6552   8.7364   8.7455
     8.7649   8.7704   8.7723   8.7976   8.8634   8.8918   9.0231   9.0742
     9.0851   9.0875   9.1000   9.1035   9.1243   9.1337   9.1404   9.1964
     9.2253   9.2918   9.3765   9.3977   9.4860   9.5033   9.5331   9.5868
     9.7071   9.7264   9.7650   9.7695   9.7885   9.7972   9.8174   9.8230
     9.8331   9.8441   9.8697   9.8715  10.0182  10.0366  10.1275  10.1352

          k = 0.2500 0.0000 0.0000 (256240 PWs)   bands (ev):

   -15.8911 -15.5309 -15.5060 -14.9040 -14.5492 -14.5279 -14.4157 -14.4088
   -13.4581 -13.4478 -12.9773 -12.6543 -12.6345 -12.6163 -12.5957 -11.7464
   -11.6860 -11.5997 -11.5889 -10.6589 -10.3527 -10.3050 -10.2969  -9.8144
    -9.6036  -9.3483  -9.2812  -8.9132  -8.6958  -8.6477  -8.1596  -7.2689
    -7.1894  -7.0978  -7.0415  -7.0091  -6.9652  -6.4598  -6.2314  -5.8159
    -5.6613  -5.4974  -5.4740  -5.4573  -5.3835  -4.9762  -4.9339  -4.9113
    -4.7009  -4.6125  -4.4587  -4.2241  -4.1802  -4.0914  -4.0733  -4.0700
    -3.9469  -3.8974  -3.8552  -3.7666  -3.6221  -3.6208  -3.6144  -3.5437
    -3.4619  -3.4609  -3.4121  -3.2392  -3.1665  -3.1449  -3.1180  -3.0950
    -3.0644  -3.0538  -3.0012  -2.9311  -2.8762  -2.8610  -2.8459  -2.7341
    -2.6721  -2.6569  -2.5975  -2.5054  -2.4227  -2.4177  -2.4152  -2.3316
    -2.2534  -2.2400  -2.0900  -2.0461  -2.0191  -1.9734  -1.9460  -1.8726
    -1.8037  -1.7176  -1.7162  -1.7011  -1.6977  -1.6483  -1.6234  -1.6122
    -1.5410  -1.5199  -1.5165  -1.4861  -1.4506  -1.4192  -1.4177  -1.4164
    -1.4101  -1.4094  -1.3895  -1.3620  -1.3457  -1.3379  -1.3279  -1.3052
    -1.2662  -1.2605  -1.2334  -1.2192  -1.1997  -1.1964  -1.1958  -1.1955
    -1.1902  -1.1854  -1.1493  -1.1418  -1.1272  -1.1201  -1.1173  -1.1078
    -1.1037  -0.9888  -0.9574  -0.9510  -0.9356  -0.9280  -0.8916  -0.8844
    -0.8704  -0.8599  -0.8587  -0.8529  -0.8419  -0.8375  -0.8248  -0.8224
    -0.8006  -0.7979  -0.7964  -0.7833  -0.7806  -0.7560  -0.7513  -0.7485
    -0.7456  -0.7384  -0.7284  -0.7268  -0.7200  -0.6989  -0.6906  -0.6736
    -0.6680  -0.6669  -0.6614  -0.6465  -0.6362  -0.6325  -0.6289  -0.6217
    -0.6173  -0.6130  -0.6083  -0.6017  -0.5986  -0.5982  -0.5957  -0.5931
    -0.5909  -0.5902  -0.5809  -0.5749  -0.5619  -0.5593  -0.5556  -0.5203
    -0.5164  -0.5149  -0.5105  -0.4700  -0.4668  -0.4587  -0.4315  -0.4308
    -0.4128  -0.4100  -0.4042  -0.3867  -0.3857  -0.3723  -0.3713  -0.3685
    -0.3643  -0.3595  -0.3564  -0.3390  -0.3092  -0.2253  -0.2186  -0.2162
    -0.2142  -0.1858  -0.1839  -0.1827  -0.1724  -0.1666  -0.1650  -0.1646
    -0.1635  -0.1435  -0.1431  -0.1418  -0.1367  -0.1248  -0.1158  -0.1022
    -0.1011  -0.0994  -0.0985  -0.0966  -0.0764  -0.0762  -0.0723  -0.0460
    -0.0195  -0.0150  -0.0148  -0.0130  -0.0075  -0.0035  -0.0021   0.0038
     0.0140   0.0273   0.0277   0.0475   0.0504   0.0508   0.0560   0.0753
     0.0887   0.0897   0.0933   0.0955   0.1015   0.1035   0.1125   0.1163
     0.1213   0.1316   0.1373   0.1459   0.1532   0.1561   0.1652   0.1848
     0.1850   0.1875   0.1897   0.1947   0.2022   0.2024   0.2038   0.2088
     0.2319   0.2321   0.2434   0.2447   0.2476   0.2707   0.2716   0.2730
     0.2745   0.3128   0.3163   0.3194   0.3227   0.3275   0.3296   0.3421
     0.3526   0.3637   0.3642   0.3713   0.3723   0.3776   0.3818   0.3840
     0.3880   0.3894   0.3903   0.3920   0.3939   0.3968   0.4045   0.4159
     0.4171   0.4176   0.4225   0.4252   0.4346   0.4423   0.4438   0.4587
     0.4622   0.4790   0.4971   0.4981   0.5006   0.5011   0.5035   0.5165
     0.5183   0.5233   0.5241   0.5253   0.5269   0.5358   0.5606   0.5644
     0.5914   0.6345   0.6366   0.6379   0.6424   0.6520   0.6544   0.6574
     0.6579   0.6593   0.6662   0.6665   0.6699   0.6727   0.6739   0.6744
     0.6804   0.6903   0.6908   0.6924   0.6944   0.7036   0.7051   0.7104
     0.7150   0.7182   0.7207   0.7315   0.7382   0.7480   0.7514   0.7560
     0.7870   0.7896   0.8028   0.8072   0.8080   0.8250   0.8258   0.8265
     0.8303   0.8366   0.8455   0.8571   0.8601   0.8607   0.8663   0.8703
     0.8707   0.8738   0.8765   0.8807   0.8832   0.9003   0.9055   0.9105
     0.9227   0.9286   0.9296   0.9320   0.9341   0.9350   0.9382   0.9393
     0.9549   0.9620   0.9639   0.9688   0.9746   0.9764   0.9794   0.9818
     0.9844   0.9920   0.9933   0.9999   1.0016   1.0044   1.0190   1.0217
     1.0240   1.0413   1.0440   1.0475   1.0492   1.0529   1.0549   1.0615
     1.0762   1.0872   1.0918   1.1067   1.1114   1.1245   1.1251   1.1287
     1.1313   1.1343   1.1497   1.1536   1.1561   1.1588   1.1624   1.1648
     1.1746   1.1787   1.1867   1.1913   1.1984   1.2069   1.2085   1.2104
     1.2249   1.2353   1.2391   1.2403   1.2412   1.2459   1.2640   1.2650
     1.2737   1.2762   1.2769   1.2780   1.2811   1.2863   1.2871   1.2925
     1.2962   1.3275   1.3315   1.3331   1.3376   1.3391   1.3422   1.3522
     1.3540   1.3703   1.3713   1.3734   1.3771   1.3777   1.3835   1.3860
     1.3895   1.3994   1.3998   1.4022   1.4029   1.4047   1.4057   1.4072
     1.4088   1.4114   1.4156   1.4163   1.4193   1.4257   1.4306   1.4371
     1.4424   1.4443   1.4497   1.4508   1.4534   1.4590   1.4600   1.4738
     1.4744   1.4761   1.4880   1.4900   1.4905   1.4936   1.4946   1.5030
     1.5107   1.5168   1.5195   1.5249   1.5308   1.5362   1.5388   1.5423
     1.5491   1.5506   1.5619   1.5656   1.5715   1.5760   1.5777   1.5920
     1.6116   1.6141   1.6221   1.6275   1.6284   1.6332   1.6357   1.6371
     1.6382   1.6402   1.6464   1.6480   1.6579   1.6626   1.6631   1.6641
     1.6755   1.6812   1.6831   1.6846   1.6850   1.6887   1.6942   1.6966
     1.6969   1.7001   1.7005   1.7063   1.7068   1.7095   1.7141   1.7157
     1.7233   1.7318   1.7350   1.7364   1.7405   1.7409   1.7418   1.7440
     1.7570   1.7632   1.7637   1.7641   1.7856   1.7863   1.7950   1.7980
     1.8036   1.8064   1.8069   1.8084   1.8099   1.8109   1.8155   1.8176
     1.8185   1.8195   1.8232   1.8263   1.8345   1.8461   1.8467   1.8487
     1.8498   1.8521   1.8528   1.8568   1.8663   1.8665   1.8755   1.8784
     1.8863   1.8900   1.8909   1.8987   1.8999   1.9028   1.9250   1.9296
     1.9380   1.9450   1.9650   1.9935   2.0067   2.0077   2.0111   2.0270
     2.0450   2.0992   2.1383   2.1440   2.1449   2.1491   2.1649   2.1830
     2.2196   2.3477   2.4127   2.4372   2.4476   2.4639   2.4687   2.4859
     2.5555   2.6168   2.6347   2.7213   2.9419   2.9444   2.9476   2.9658
     3.3575   3.3582   3.3849   3.5732   3.5745   3.5994   3.5997   3.6227
     3.6606   3.7920   3.8459   3.9102   3.9579   3.9982   4.0123   4.0452
     4.0825   4.0942   4.1008   4.1349   4.1760   4.2517   4.2790   4.3491
     4.3840   4.4665   4.5457   4.5811   4.6031   4.6595   4.7569   4.8818
     5.1162   5.1508   5.2053   5.2511   5.4608   5.5562   5.5979   5.6035
     5.6129   5.7219   5.7618   5.8422   5.8585   5.8816   5.9332   5.9517
     5.9778   6.0171   6.0509   6.0779   6.1152   6.1457   6.1838   6.2137
     6.3600   6.3883   6.3951   6.4169   6.4820   6.8126   7.0247   7.0658
     7.0721   7.0864   7.1279   7.1586   7.1892   7.2284   7.2754   7.3868
     7.4035   7.4071   7.4144   7.4441   7.5365   7.6294   7.6515   7.6890
     7.7396   7.7737   7.8386   7.8572   7.9118   7.9306   7.9356   8.0454
     8.1029   8.1183   8.1275   8.2089   8.3685   8.3892   8.4260   8.4407
     8.4810   8.5829   8.6135   8.6325   8.6472   8.6516   8.6866   8.6887
     8.7371   8.7820   8.8117   8.8892   9.0145   9.0202   9.0963   9.1591
     9.2542   9.2865   9.3621   9.3834   9.3934   9.4046   9.4648   9.5197
     9.5218   9.5425   9.5563   9.5689   9.5760   9.5912   9.6327   9.6752
     9.7622   9.7840   9.8505   9.8564  10.0056  10.0324  10.0757  10.1328

          k = 0.2500-0.2165 0.0000 (256316 PWs)   bands (ev):

   -15.8114 -15.7835 -15.0610 -15.0549 -14.8252 -14.7943 -14.0862 -14.0773
   -13.6128 -13.5893 -12.8992 -12.8826 -12.6697 -12.6399 -12.1943 -12.1860
   -11.5597 -11.4852 -10.9314 -10.8884 -10.6764 -10.6069 -10.2713 -10.2549
    -9.2185  -9.1913  -8.7665  -8.6644  -8.6259  -8.5442  -8.0695  -8.0626
    -7.9682  -7.9113  -6.3917  -6.3516  -6.2085  -6.1846  -6.0897  -6.0218
    -5.8848  -5.7599  -5.5911  -5.5256  -5.3281  -5.3228  -4.9998  -4.7253
    -4.6494  -4.4521  -4.3914  -4.3250  -4.2953  -4.2925  -4.1862  -3.9708
    -3.9696  -3.9622  -3.8599  -3.7588  -3.7303  -3.6692  -3.6397  -3.5353
    -3.4858  -3.3758  -3.3269  -3.2306  -3.2109  -3.1242  -3.1010  -3.0787
    -3.0768  -3.0694  -2.9438  -2.7966  -2.7500  -2.7338  -2.6569  -2.6376
    -2.6051  -2.5606  -2.5422  -2.5294  -2.5249  -2.4508  -2.4346  -2.3871
    -2.2858  -2.1822  -2.1245  -2.0659  -1.9664  -1.9351  -1.9291  -1.8500
    -1.8232  -1.7947  -1.7861  -1.7861  -1.7504  -1.6462  -1.6272  -1.6256
    -1.5970  -1.5894  -1.5710  -1.4831  -1.4711  -1.4343  -1.4304  -1.4293
    -1.3764  -1.3707  -1.3574  -1.3487  -1.3376  -1.3280  -1.3237  -1.3199
    -1.3110  -1.3029  -1.2964  -1.2949  -1.2929  -1.2913  -1.2841  -1.2835
    -1.2611  -1.2006  -1.1944  -1.0971  -1.0851  -1.0833  -0.9828  -0.9803
    -0.9615  -0.9465  -0.9451  -0.9176  -0.8938  -0.8924  -0.8877  -0.8785
    -0.8783  -0.8661  -0.8653  -0.8547  -0.8505  -0.8437  -0.8413  -0.8310
    -0.8291  -0.8245  -0.8188  -0.8130  -0.8060  -0.8050  -0.7982  -0.7933
    -0.7495  -0.7489  -0.7424  -0.7405  -0.7371  -0.7290  -0.7288  -0.7006
    -0.6994  -0.6970  -0.6654  -0.6566  -0.6559  -0.6492  -0.6445  -0.6423
    -0.6209  -0.6116  -0.6112  -0.5936  -0.5881  -0.5782  -0.5773  -0.5731
    -0.5711  -0.5653  -0.5630  -0.5445  -0.5412  -0.5381  -0.5183  -0.5034
    -0.4864  -0.4792  -0.4780  -0.4773  -0.4423  -0.3973  -0.3938  -0.3927
    -0.3886  -0.3870  -0.3848  -0.3754  -0.3401  -0.3381  -0.3290  -0.3284
    -0.3231  -0.3215  -0.3168  -0.3098  -0.3081  -0.2766  -0.2690  -0.2625
    -0.2311  -0.2295  -0.2154  -0.1840  -0.1812  -0.1802  -0.1790  -0.1746
    -0.1505  -0.1499  -0.1414  -0.1332  -0.1294  -0.1178  -0.1167  -0.1082
    -0.1038  -0.0919  -0.0772  -0.0709  -0.0614  -0.0539  -0.0495  -0.0329
    -0.0248  -0.0243  -0.0204  -0.0100  -0.0090   0.0013   0.0103   0.0135
     0.0148   0.0196   0.0204   0.0220   0.0257   0.0310   0.0323   0.0447
     0.0477   0.0522   0.0664   0.0667   0.0870   0.0904   0.1005   0.1095
     0.1173   0.1245   0.1346   0.1439   0.1444   0.1482   0.1649   0.1657
     0.1662   0.1725   0.1733   0.1954   0.2118   0.2297   0.2303   0.2655
     0.2663   0.2750   0.2753   0.2779   0.2792   0.2907   0.2959   0.2964
     0.3087   0.3143   0.3150   0.3280   0.3317   0.3353   0.3372   0.3407
     0.3430   0.3444   0.3471   0.3628   0.3693   0.3727   0.3795   0.3806
     0.3818   0.3820   0.3858   0.3863   0.3891   0.3915   0.3987   0.4139
     0.4142   0.4145   0.4151   0.4190   0.4480   0.4495   0.4567   0.4586
     0.4645   0.4700   0.4840   0.4850   0.4975   0.5138   0.5149   0.5211
     0.5265   0.5276   0.5335   0.5351   0.5375   0.5411   0.5514   0.5530
     0.5565   0.5634   0.5777   0.5874   0.5924   0.6484   0.6517   0.6636
     0.6645   0.6651   0.6668   0.6687   0.6700   0.6735   0.6774   0.6790
     0.6797   0.6964   0.6978   0.7015   0.7047   0.7079   0.7146   0.7158
     0.7198   0.7214   0.7326   0.7444   0.7516   0.7578   0.7635   0.7655
     0.7766   0.7811   0.7884   0.7910   0.8236   0.8283   0.8318   0.8379
     0.8417   0.8419   0.8452   0.8535   0.8544   0.8583   0.8623   0.8629
     0.8645   0.8684   0.8697   0.8920   0.8945   0.9000   0.9040   0.9133
     0.9169   0.9238   0.9506   0.9518   0.9526   0.9535   0.9814   0.9855
     0.9879   0.9899   0.9909   0.9925   0.9969   0.9985   1.0068   1.0085
     1.0112   1.0152   1.0189   1.0220   1.0302   1.0350   1.0377   1.0417
     1.0487   1.0494   1.0518   1.0533   1.0589   1.0626   1.0642   1.0675
     1.0723   1.0728   1.0847   1.0881   1.0932   1.0936   1.0988   1.0995
     1.1002   1.1016   1.1023   1.1049   1.1130   1.1393   1.1417   1.1487
     1.1495   1.1651   1.1817   1.1882   1.1900   1.2071   1.2072   1.2088
     1.2094   1.2130   1.2145   1.2276   1.2353   1.2356   1.2374   1.2383
     1.2391   1.2411   1.2479   1.2591   1.2662   1.2677   1.2727   1.2790
     1.2798   1.2875   1.2913   1.3089   1.3095   1.3178   1.3381   1.3395
     1.3433   1.3472   1.3479   1.3492   1.3533   1.3562   1.3597   1.3635
     1.3775   1.3836   1.3853   1.4006   1.4014   1.4102   1.4187   1.4205
     1.4260   1.4425   1.4456   1.4515   1.4634   1.4643   1.4692   1.4703
     1.4713   1.4719   1.4736   1.4747   1.4755   1.4773   1.4875   1.4887
     1.4910   1.4955   1.5000   1.5012   1.5090   1.5184   1.5236   1.5407
     1.5455   1.5483   1.5550   1.5566   1.5577   1.5598   1.5615   1.5691
     1.5707   1.5731   1.5745   1.5759   1.5800   1.5814   1.5858   1.5867
     1.5899   1.5922   1.5988   1.6020   1.6056   1.6062   1.6073   1.6088
     1.6167   1.6223   1.6252   1.6285   1.6296   1.6528   1.6543   1.6609
     1.6617   1.6702   1.6754   1.6784   1.6806   1.6901   1.6935   1.6937
     1.7030   1.7076   1.7117   1.7132   1.7180   1.7180   1.7199   1.7270
     1.7303   1.7311   1.7353   1.7419   1.7431   1.7529   1.7600   1.7648
     1.7651   1.7655   1.7679   1.7692   1.7703   1.7754   1.7760   1.7873
     1.7878   1.7889   1.7932   1.7971   1.8046   1.8078   1.8122   1.8189
     1.8198   1.8203   1.8212   1.8264   1.8270   1.8273   1.8282   1.8333
     1.8367   1.8369   1.8552   1.8609   1.8611   1.8694   1.8733   1.8830
     1.8862   1.8961   1.9046   1.9081   1.9111   1.9321   1.9337   1.9364
     1.9403   1.9430   1.9648   1.9752   2.0237   2.0333   2.0469   2.0480
     2.0905   2.1284   2.1391   2.1463   2.1543   2.1599   2.1676   2.1707
     2.1745   2.1853   2.2179   2.2267   2.4995   2.5076   2.5287   2.5390
     2.6390   2.6679   2.7837   2.9655   2.9680   3.1430   3.1666   3.1687
     3.1697   3.1802   3.1901   3.2093   3.2157   3.3629   3.3679   3.4468
     3.4538   3.8430   3.9163   3.9342   3.9845   4.0102   4.0190   4.1439
     4.2162   4.2230   4.2282   4.2641   4.3724   4.3928   4.4413   4.4570
     4.5429   4.5486   4.7518   4.7550   4.7705   4.9000   4.9240   4.9377
     5.0388   5.0503   5.0782   5.1121   5.2711   5.2870   5.3233   5.3811
     5.4089   5.4912   5.6183   5.6288   5.6942   5.7994   5.8165   5.8317
     5.8329   5.8398   5.9778   6.1374   6.1445   6.2427   6.2542   6.2876
     6.3248   6.3525   6.5924   6.8783   6.9544   6.9790   6.9880   7.0267
     7.1091   7.1140   7.2029   7.2190   7.3140   7.3809   7.4249   7.4498
     7.4534   7.4581   7.4957   7.5663   7.5921   7.5937   7.6145   7.6992
     7.7130   7.7188   7.7244   7.7562   7.8000   7.8023   8.0093   8.0311
     8.0961   8.1649   8.1777   8.2365   8.2735   8.3281   8.3550   8.3932
     8.5130   8.5587   8.5677   8.5977   8.6113   8.6252   8.7233   8.9235
     8.9503   8.9638   8.9683   9.0013   9.0032   9.0524   9.0582   9.0645
     9.0822   9.2350   9.2680   9.2900   9.3043   9.3228   9.3428   9.4767
     9.4984   9.5226   9.5516   9.5653   9.5893   9.5965   9.6265   9.6314
     9.6437   9.6689   9.7146   9.7287   9.7687   9.7730   9.8212   9.8938

          k =-0.5000 0.0000 0.0000 (256496 PWs)   bands (ev):

   -15.5326 -15.5085 -15.1669 -15.1619 -15.1566 -15.1049 -14.0682 -14.0603
   -14.0449 -14.0340 -12.3250 -12.2928 -12.2757 -12.2263 -11.7144 -11.6991
   -11.4062 -11.3800 -11.3747 -11.3575 -10.7692 -10.7284 -10.3581 -10.3113
    -9.7306  -9.7082  -9.3244  -9.2656  -8.5833  -8.5195  -8.4520  -8.4214
    -7.1523  -7.0855  -6.9669  -6.9407  -6.8795  -6.8415  -5.4604  -5.4282
    -5.0599  -4.9363  -4.9176  -4.8485  -4.6835  -4.5967  -4.4263  -4.4257
    -4.4187  -4.4147  -4.3414  -4.3154  -4.2809  -4.2642  -4.2367  -4.1685
    -4.0958  -4.0914  -4.0126  -3.9557  -3.9178  -3.8700  -3.8033  -3.6398
    -3.6256  -3.6135  -3.6061  -3.5973  -3.3653  -3.2124  -3.1955  -3.1823
    -3.0419  -3.0414  -3.0401  -3.0397  -2.9650  -2.9381  -2.9354  -2.9231
    -2.8620  -2.8559  -2.7036  -2.6752  -2.4136  -2.3925  -2.3462  -2.3258
    -2.3017  -2.2915  -2.2431  -2.2201  -2.1823  -2.0639  -2.0466  -2.0004
    -1.9324  -1.9229  -1.9183  -1.9151  -1.5194  -1.5005  -1.4966  -1.4960
    -1.4957  -1.4938  -1.4904  -1.4770  -1.3764  -1.3710  -1.3502  -1.3277
    -1.2685  -1.2681  -1.2673  -1.2660  -1.2197  -1.2186  -1.2175  -1.2161
    -1.1438  -1.1225  -1.1106  -1.1061  -1.1035  -1.0744  -1.0538  -1.0435
    -1.0427  -1.0376  -1.0332  -1.0230  -1.0207  -0.9971  -0.9768  -0.9747
    -0.9738  -0.9702  -0.9691  -0.9666  -0.9598  -0.9580  -0.9556  -0.9490
    -0.9295  -0.9115  -0.9090  -0.9081  -0.9015  -0.8845  -0.8844  -0.8842
    -0.8808  -0.8271  -0.8202  -0.8200  -0.8002  -0.7982  -0.7973  -0.7968
    -0.7710  -0.7706  -0.7693  -0.7660  -0.7650  -0.7631  -0.7476  -0.7246
    -0.7239  -0.7231  -0.7223  -0.7010  -0.6997  -0.6951  -0.6711  -0.6705
    -0.6268  -0.6256  -0.5977  -0.5972  -0.5947  -0.5936  -0.5883  -0.5820
    -0.5680  -0.5673  -0.5664  -0.5651  -0.5579  -0.5492  -0.5479  -0.5458
    -0.5446  -0.5390  -0.5330  -0.5205  -0.5173  -0.5002  -0.4583  -0.4567
    -0.4549  -0.4535  -0.4109  -0.4098  -0.3282  -0.3275  -0.3265  -0.3260
    -0.3006  -0.2903  -0.2894  -0.2879  -0.2873  -0.2859  -0.2835  -0.2775
    -0.2544  -0.2483  -0.2480  -0.2469  -0.2413  -0.2368  -0.2322  -0.2250
    -0.2149  -0.2144  -0.2047  -0.1907  -0.1260  -0.1242  -0.0958  -0.0887
    -0.0840  -0.0731  -0.0727  -0.0718  -0.0643  -0.0487  -0.0267  -0.0252
    -0.0235  -0.0230  -0.0200  -0.0192  -0.0047   0.0106   0.0128   0.0137
     0.0140   0.0168   0.0267   0.0529   0.0535   0.0550   0.0556   0.0721
     0.0880   0.0884   0.0886   0.0889   0.1004   0.1011   0.1331   0.1333
     0.1352   0.1359   0.1453   0.1486   0.1621   0.1662   0.1789   0.1855
     0.2058   0.2472   0.2474   0.2488   0.2492   0.2532   0.2544   0.2557
     0.2563   0.2929   0.2939   0.2966   0.2987   0.3308   0.3323   0.3544
     0.3573   0.3588   0.3596   0.3599   0.3609   0.3613   0.3621   0.3623
     0.3624   0.3635   0.3646   0.3903   0.4177   0.4295   0.4392   0.4424
     0.4447   0.4491   0.4531   0.4550   0.4557   0.4565   0.4593   0.4616
     0.4638   0.4647   0.4675   0.4690   0.4706   0.4721   0.4777   0.4848
     0.4850   0.4921   0.4986   0.4988   0.4990   0.4990   0.5005   0.5051
     0.5117   0.5119   0.5122   0.5130   0.5242   0.5247   0.5358   0.5361
     0.5366   0.5370   0.5454   0.5540   0.5672   0.5707   0.6273   0.6320
     0.6673   0.6682   0.6705   0.6716   0.7011   0.7035   0.7043   0.7055
     0.7100   0.7162   0.7166   0.7190   0.7255   0.7276   0.7282   0.7290
     0.7341   0.7348   0.7356   0.7360   0.7379   0.7407   0.7415   0.7436
     0.7532   0.7553   0.7602   0.7634   0.7715   0.7722   0.7812   0.7815
     0.7857   0.7880   0.8050   0.8094   0.8685   0.8730   0.8772   0.8775
     0.8840   0.8899   0.9031   0.9038   0.9081   0.9088   0.9102   0.9117
     0.9127   0.9140   0.9149   0.9156   0.9167   0.9196   0.9221   0.9228
     0.9267   0.9286   0.9300   0.9324   0.9454   0.9502   0.9620   0.9674
     0.9680   0.9824   0.9846   0.9969   1.0007   1.0023   1.0043   1.0089
     1.0128   1.0131   1.0138   1.0175   1.0180   1.0200   1.0272   1.0316
     1.0344   1.0349   1.0472   1.0485   1.0511   1.0539   1.0844   1.0890
     1.0899   1.0913   1.0948   1.0980   1.1068   1.1104   1.1195   1.1302
     1.1471   1.1484   1.1490   1.1491   1.1503   1.1515   1.1655   1.1882
     1.2016   1.2172   1.2193   1.2210   1.2218   1.2228   1.2243   1.2282
     1.2344   1.2347   1.2355   1.2388   1.2448   1.2480   1.2530   1.2673
     1.2692   1.2708   1.2725   1.2871   1.2886   1.2891   1.2900   1.2917
     1.2920   1.2936   1.3192   1.3273   1.3276   1.3287   1.3354   1.3781
     1.3947   1.3963   1.3968   1.3985   1.4012   1.4270   1.4290   1.4303
     1.4315   1.4359   1.4470   1.4483   1.4520   1.4591   1.4602   1.4667
     1.4733   1.4745   1.4915   1.4931   1.4977   1.4982   1.4995   1.5000
     1.5041   1.5050   1.5072   1.5088   1.5157   1.5162   1.5172   1.5184
     1.5190   1.5193   1.5205   1.5250   1.5510   1.5551   1.5582   1.5586
     1.5586   1.5643   1.5889   1.5905   1.5955   1.5961   1.5966   1.5994
     1.6129   1.6157   1.6209   1.6236   1.6240   1.6247   1.6256   1.6313
     1.6347   1.6353   1.6355   1.6404   1.6436   1.6520   1.6603   1.6704
     1.6815   1.6830   1.6899   1.6954   1.6987   1.6989   1.6991   1.6993
     1.7002   1.7004   1.7049   1.7083   1.7128   1.7130   1.7145   1.7147
     1.7153   1.7157   1.7202   1.7223   1.7234   1.7239   1.7243   1.7256
     1.7314   1.7326   1.7470   1.7490   1.7654   1.7669   1.7673   1.7708
     1.7733   1.7739   1.7752   1.7759   1.7919   1.7937   1.7985   1.7993
     1.8119   1.8125   1.8139   1.8178   1.8252   1.8304   1.8307   1.8312
     1.8385   1.8470   1.8506   1.8526   1.8537   1.8556   1.8616   1.8619
     1.8622   1.8623   1.8679   1.8772   1.8811   1.8840   1.8953   1.8958
     1.8962   1.8966   1.9014   1.9058   1.9122   1.9124   1.9562   1.9606
     1.9704   1.9892   1.9895   1.9923   1.9950   2.0231   2.3916   2.4051
     2.4127   2.4138   2.4878   2.6108   2.6281   2.6314   2.6556   2.6659
     2.6678   2.6741   2.7037   2.9715   2.9957   2.9978   3.0057   3.2012
     3.2107   3.2159   3.2196   3.5637   3.5652   3.5681   3.5709   3.8291
     3.8562   3.9689   4.1256   4.1340   4.1397   4.2127   4.2998   4.3022
     4.3049   4.3660   4.4490   4.4521   4.4547   4.4710   4.5430   4.5845
     4.7911   4.8759   5.0437   5.0886   5.1108   5.1143   5.1434   5.1701
     5.2058   5.2083   5.2639   5.2661   5.3980   5.3992   5.4238   5.4289
     5.4298   5.4328   5.4515   5.4539   5.4735   5.4823   5.5166   5.5303
     5.7782   5.8106   5.9149   5.9225   5.9780   6.0073   6.0502   6.0978
     6.3284   6.3649   6.3668   6.3852   6.3955   6.3957   6.4051   6.4148
     6.4488   6.6318   6.7837   6.7908   6.8123   6.8206   6.8389   6.8550
     7.4189   7.4488   7.4579   7.4691   7.4863   7.4963   7.5054   7.7684
     7.9185   7.9417   7.9620   7.9630   7.9639   7.9678   7.9745   8.0153
     8.1346   8.1918   8.2161   8.2321   8.2518   8.2555   8.2606   8.2922
     8.3698   8.3797   8.4085   8.4343   8.4406   8.4548   8.4680   8.4939
     8.4977   8.5161   8.6265   8.6433   8.6626   9.0996   9.1578   9.1658
     9.1754   9.1811   9.1893   9.1908   9.1934   9.3010   9.3914   9.4093
     9.4253   9.4299   9.4356   9.5483   9.6378   9.6420   9.6789   9.7243
     9.7688   9.8077   9.8608   9.8686   9.8861   9.8871   9.9018   9.9131

          k =-0.5000-0.2165 0.0000 (256328 PWs)   bands (ev):

   -15.4473 -15.4405 -15.4334 -15.3846 -14.7072 -14.6977 -14.6878 -14.6605
   -13.2599 -13.2543 -13.2531 -13.2114 -11.6451 -11.6280 -11.6236 -11.6037
   -11.2679 -11.1982 -11.1729 -11.1339 -11.0393 -11.0020 -10.9974 -10.9872
    -9.3566  -9.3175  -9.2801  -9.2534  -8.4148  -8.3559  -8.3109  -8.2757
    -7.7061  -7.6147  -7.5424  -7.5085  -5.7529  -5.6823  -5.4849  -5.4464
    -5.0631  -4.9164  -4.8301  -4.8113  -4.8038  -4.8014  -4.7987  -4.7863
    -4.6861  -4.6479  -4.6372  -4.6184  -4.4112  -4.0666  -3.9762  -3.9721
    -3.8435  -3.8255  -3.8194  -3.8187  -3.7934  -3.7924  -3.7763  -3.7118
    -3.6383  -3.6048  -3.5144  -3.5005  -3.4150  -3.3453  -3.2714  -3.2418
    -3.2395  -3.2161  -3.2010  -3.1594  -3.1058  -3.0425  -3.0261  -2.9645
    -2.8315  -2.6851  -2.6729  -2.6404  -2.2513  -2.2002  -2.1982  -2.1979
    -2.1915  -2.1646  -2.1456  -2.1442  -2.0573  -2.0224  -1.9118  -1.8781
    -1.8625  -1.7918  -1.7165  -1.7115  -1.7026  -1.6976  -1.6368  -1.6341
    -1.6292  -1.6277  -1.5965  -1.5809  -1.4827  -1.4221  -1.4212  -1.4179
    -1.4144  -1.3905  -1.3480  -1.3041  -1.2002  -1.1884  -1.1217  -1.1102
    -1.1096  -1.1095  -1.1094  -1.0994  -1.0746  -1.0740  -1.0721  -1.0665
    -1.0515  -1.0513  -1.0496  -1.0493  -1.0022  -1.0017  -1.0009  -1.0005
    -0.9995  -0.9988  -0.9941  -0.9908  -0.9754  -0.9751  -0.9748  -0.9747
    -0.9286  -0.9258  -0.9250  -0.9245  -0.8870  -0.8674  -0.8495  -0.8467
    -0.8248  -0.8071  -0.8069  -0.8056  -0.8055  -0.7899  -0.7886  -0.7877
    -0.7849  -0.7602  -0.7381  -0.7374  -0.7368  -0.7362  -0.7331  -0.7329
    -0.7328  -0.7302  -0.7123  -0.7099  -0.6759  -0.6753  -0.6693  -0.6675
    -0.6665  -0.6585  -0.6581  -0.6546  -0.6541  -0.6534  -0.6520  -0.6519
    -0.6510  -0.6491  -0.6137  -0.5596  -0.5047  -0.5014  -0.4995  -0.4977
    -0.4946  -0.4687  -0.4680  -0.4679  -0.4673  -0.4226  -0.3880  -0.3871
    -0.3858  -0.3842  -0.3789  -0.3785  -0.3782  -0.3766  -0.3747  -0.3730
    -0.3591  -0.3180  -0.3158  -0.3156  -0.3131  -0.3074  -0.3069  -0.3051
    -0.3035  -0.2854  -0.2852  -0.2813  -0.2768  -0.2066  -0.1935  -0.1929
    -0.1876  -0.1865  -0.1854  -0.1803  -0.1707  -0.1307  -0.1158  -0.1155
    -0.1133  -0.1117  -0.0655  -0.0652  -0.0641  -0.0620  -0.0453  -0.0451
    -0.0434  -0.0425  -0.0212  -0.0204  -0.0123  -0.0063  -0.0059  -0.0048
    -0.0037  -0.0033   0.0321   0.0358   0.0381   0.0577   0.1089   0.1091
     0.1129   0.1137   0.1270   0.1271   0.1276   0.1282   0.1426   0.1430
     0.1433   0.1449   0.2253   0.2257   0.2272   0.2283   0.2284   0.2305
     0.2313   0.2331   0.2334   0.2340   0.2356   0.2386   0.2707   0.2707
     0.2708   0.2718   0.2829   0.2832   0.2834   0.2837   0.2878   0.2885
     0.2892   0.2901   0.3559   0.3561   0.3567   0.3589   0.3813   0.3828
     0.3838   0.3861   0.4224   0.4235   0.4287   0.4363   0.4392   0.4423
     0.4589   0.4607   0.4629   0.4639   0.4650   0.4659   0.4706   0.4719
     0.4739   0.4743   0.4762   0.4770   0.4830   0.4839   0.4844   0.4855
     0.4880   0.4881   0.4888   0.4892   0.5028   0.5064   0.5068   0.5072
     0.5125   0.5209   0.5336   0.5336   0.5338   0.5340   0.5436   0.5449
     0.5464   0.5480   0.5946   0.5948   0.5951   0.5955   0.6273   0.6280
     0.6289   0.6295   0.6716   0.6901   0.6947   0.7047   0.7079   0.7100
     0.7116   0.7129   0.7158   0.7216   0.7287   0.7292   0.7296   0.7309
     0.7412   0.7423   0.7431   0.7475   0.7500   0.7508   0.7530   0.7533
     0.7549   0.7567   0.7578   0.7614   0.7631   0.7681   0.7766   0.8172
     0.8288   0.8309   0.8361   0.8375   0.8401   0.8415   0.8433   0.8437
     0.8474   0.8475   0.8488   0.8515   0.8827   0.8867   0.8910   0.8922
     0.8936   0.8958   0.8981   0.9004   0.9305   0.9354   0.9367   0.9381
     0.9400   0.9485   0.9504   0.9508   0.9513   0.9530   0.9548   0.9584
     0.9591   0.9595   0.9631   0.9650   0.9718   0.9742   0.9765   0.9771
     0.9786   0.9867   0.9925   0.9941   1.0444   1.0510   1.0605   1.0608
     1.0644   1.0661   1.0672   1.0689   1.0697   1.0707   1.0732   1.0736
     1.0775   1.0866   1.0931   1.0963   1.1091   1.1102   1.1105   1.1111
     1.1119   1.1132   1.1137   1.1195   1.1396   1.1633   1.1650   1.1658
     1.1752   1.1952   1.1953   1.1967   1.1979   1.2095   1.2101   1.2279
     1.2286   1.2292   1.2309   1.2361   1.2555   1.2557   1.2590   1.2612
     1.3079   1.3094   1.3100   1.3113   1.3375   1.3408   1.3421   1.3426
     1.3487   1.3692   1.3933   1.3946   1.3957   1.3990   1.4086   1.4104
     1.4153   1.4213   1.4227   1.4240   1.4244   1.4266   1.4269   1.4272
     1.4276   1.4301   1.4302   1.4330   1.4344   1.4438   1.4540   1.4560
     1.4579   1.4602   1.4609   1.4625   1.4641   1.4652   1.4660   1.4704
     1.4737   1.4797   1.4810   1.4816   1.4979   1.5046   1.5050   1.5056
     1.5078   1.5122   1.5148   1.5185   1.5232   1.5243   1.5253   1.5307
     1.5667   1.5708   1.5737   1.5740   1.5746   1.5768   1.5779   1.5815
     1.6022   1.6036   1.6045   1.6051   1.6079   1.6197   1.6216   1.6236
     1.6288   1.6367   1.6382   1.6410   1.6507   1.6523   1.6534   1.6549
     1.6621   1.6624   1.6630   1.6639   1.6689   1.6699   1.6707   1.6716
     1.7235   1.7345   1.7348   1.7357   1.7360   1.7360   1.7367   1.7371
     1.7378   1.7383   1.7453   1.7476   1.7517   1.7546   1.7558   1.7583
     1.7595   1.7646   1.7662   1.7662   1.7690   1.7725   1.7730   1.7742
     1.7757   1.7768   1.7783   1.7783   1.7812   1.7891   1.7897   1.7931
     1.7982   1.7988   1.7993   1.8005   1.8309   1.8311   1.8315   1.8315
     1.8444   1.8446   1.8460   1.8473   1.8524   1.8601   1.8617   1.8659
     1.8783   1.8839   1.8843   1.8848   1.9119   1.9327   1.9381   1.9418
     1.9554   1.9558   1.9562   1.9568   1.9812   1.9836   1.9859   1.9891
     1.9905   1.9930   1.9937   1.9938   1.9974   1.9983   2.0002   2.0003
     2.2112   2.2135   2.2167   2.2173   2.5519   2.7085   2.7166   2.7176
     2.7416   2.9374   2.9395   2.9402   2.9637   3.1477   3.1756   3.1760
     3.1844   3.4287   3.4639   3.4691   3.4771   3.8223   3.8334   3.8348
     3.8354   3.9777   4.0210   4.0211   4.0306   4.1518   4.3093   4.3099
     4.3117   4.3201   4.6028   4.6077   4.6086   4.6143   4.6793   4.6832
     4.7021   4.7449   4.9232   4.9384   4.9407   4.9490   4.9606   4.9707
     4.9936   5.0686   5.2436   5.2484   5.2953   5.3436   5.4137   5.4384
     5.5104   5.5478   5.5527   5.5538   5.5700   5.6192   5.6540   5.6814
     5.6984   5.7137   5.7217   5.7271   5.7989   5.9124   6.0806   6.0910
     6.1264   6.1274   6.1296   6.1313   6.2244   6.2319   6.2393   6.2781
     7.0276   7.1454   7.1521   7.1771   7.1818   7.3034   7.4852   7.4946
     7.4983   7.5052   7.5192   7.5290   7.5319   7.5619   7.6007   7.6145
[...]
     atom   46 type  1   force =     0.00009975    0.00000456    0.00016429
     atom   47 type  1   force =     0.00008957    0.00002140    0.00005242
     atom   48 type  1   force =     0.00004618   -0.00001074    0.00008043
     atom   49 type  1   force =     0.00002552   -0.00007217    0.00007842
     atom   50 type  1   force =     0.00009466   -0.00010056    0.00005580
     atom   51 type  1   force =     0.00010415   -0.00009128    0.00013468
     atom   52 type  1   force =     0.00004066   -0.00016567    0.00009073
     atom   53 type  1   force =     0.00007417   -0.00009700    0.00003557
     atom   54 type  1   force =     0.00005069   -0.00007537    0.00002607
     atom   55 type  1   force =     0.00006061   -0.00014456    0.00011341
     atom   56 type  1   force =     0.00003219   -0.00015847    0.00006249
     atom   57 type  1   force =    -0.00001715   -0.00012862    0.00002758
     atom   58 type  1   force =     0.00001675   -0.00010378    0.00002137
     atom   59 type  1   force =     0.00005130   -0.00012287    0.00001604
     atom   60 type  1   force =     0.00000414   -0.00010223   -0.00001724
     atom   61 type  1   force =     0.00010015   -0.00006677   -0.00004592
     atom   62 type  1   force =     0.00008871   -0.00001875   -0.00001330
     atom   63 type  1   force =     0.00012688   -0.00000971    0.00003185
     atom   64 type  1   force =     0.00006142   -0.00007747   -0.00011424
     atom   65 type  1   force =    -0.00001735   -0.00014187   -0.00000520
     atom   66 type  1   force =     0.00015946   -0.00027825   -0.00017115
     atom   67 type  1   force =     0.00018446   -0.00010834    0.00023616
     atom   68 type  1   force =     0.00005757   -0.00006523    0.00012146
     atom   69 type  1   force =     0.00003697    0.00005283    0.00001430
     atom   70 type  1   force =     0.00010292    0.00006504   -0.00006100
     atom   71 type  1   force =     0.00012099   -0.00006723    0.00022179
     atom   72 type  1   force =     0.00007425   -0.00003092    0.00030266
     atom   73 type  1   force =     0.00006611   -0.00009677    0.00001342
     atom   74 type  1   force =     0.00011900   -0.00002278    0.00004039
     atom   75 type  1   force =     0.00012788   -0.00009604    0.00001834
     atom   76 type  1   force =     0.00010707   -0.00015583    0.00013424
     atom   77 type  1   force =     0.00006116   -0.00009422   -0.00004974
     atom   78 type  1   force =     0.00004504   -0.00010369    0.00002255
     atom   79 type  1   force =     0.00002962   -0.00006651   -0.00005305
     atom   80 type  1   force =     0.00006080   -0.00009456    0.00001009
     atom   81 type  1   force =     0.00014126   -0.00009774   -0.00015036
     atom   82 type  1   force =     0.00010830   -0.00014999    0.00005607
     atom   83 type  1   force =     0.00006335   -0.00003710   -0.00013902
     atom   84 type  1   force =     0.00014082   -0.00017412   -0.00006705
     atom   85 type  1   force =     0.00017311   -0.00013993   -0.00007821
     atom   86 type  1   force =    -0.00010644   -0.00016046   -0.00079877
     atom   87 type  1   force =    -0.00007984   -0.00017050    0.00024018
     atom   88 type  1   force =     0.00004993   -0.00015490    0.00030749
     atom   89 type  1   force =    -0.00001065   -0.00000569   -0.00020551
     atom   90 type  1   force =    -0.00008958    0.00006552    0.00004880
     atom   91 type  1   force =     0.00000264   -0.00005085    0.00033179
     atom   92 type  1   force =     0.00015146    0.00001182    0.00041968
     atom   93 type  1   force =     0.00011482    0.00005006    0.00018443
     atom   94 type  1   force =     0.00011303   -0.00002871    0.00002712
     atom   95 type  1   force =     0.00009636   -0.00003190    0.00014441
     atom   96 type  1   force =     0.00011524   -0.00003766    0.00008266
     atom   97 type  1   force =     0.00004083   -0.00004285   -0.00000152
     atom   98 type  1   force =     0.00010415   -0.00008299   -0.00010111
     atom   99 type  1   force =     0.00012491   -0.00007853   -0.00002791
     atom  100 type  1   force =     0.00005148   -0.00000683   -0.00016745
     atom  101 type  2   force =    -0.00019419   -0.00010302    0.00023055
     atom  102 type  2   force =    -0.00030756    0.00038080   -0.00033258
     atom  103 type  2   force =    -0.00085973    0.00028562   -0.00085702
     atom  104 type  2   force =    -0.00021656    0.00007046   -0.00079088
     atom  105 type  2   force =     0.00003898   -0.00036186   -0.00008922
     atom  106 type  2   force =     0.00011236    0.00013307    0.00120573
     atom  107 type  2   force =    -0.00045855    0.00047575   -0.00080559
     atom  108 type  2   force =    -0.00078837   -0.00000991    0.00035275
     atom  109 type  2   force =    -0.00034227   -0.00041782   -0.00052682
     atom  110 type  2   force =     0.00008169    0.00066454   -0.00053598
     atom  111 type  2   force =    -0.00037159    0.00059885   -0.00049312
     atom  112 type  2   force =    -0.00020513   -0.00015313   -0.00025923
     atom  113 type  2   force =    -0.00002178   -0.00006040   -0.00040630
     atom  114 type  2   force =     0.00030891    0.00023265    0.00024752
     atom  115 type  2   force =     0.00013257    0.00000234    0.00016321
     atom  116 type  2   force =    -0.00048563   -0.00003962   -0.00011749
     atom  117 type  2   force =    -0.00063213   -0.00011195   -0.00102610
     atom  118 type  2   force =     0.00034784    0.00002884    0.00043614
     atom  119 type  3   force =    -0.00030505   -0.00022554    0.00033416
     atom  120 type  2   force =     0.00021943    0.00005031   -0.00094236
     atom  121 type  2   force =    -0.00061534   -0.00013757    0.00056933
     atom  122 type  3   force =     0.00009611    0.00052431    0.00049276
     atom  123 type  2   force =    -0.00030103    0.00030705   -0.00018264
     atom  124 type  2   force =     0.00051297   -0.00027813    0.00010930
     atom  125 type  2   force =     0.00014405   -0.00016161    0.00057252
     atom  126 type  2   force =    -0.00026769   -0.00001574    0.00030841
     atom  127 type  2   force =    -0.00011576    0.00029230    0.00058852
     atom  128 type  2   force =     0.00023973    0.00018604    0.00038565
     atom  129 type  2   force =     0.00042489    0.00018490   -0.00008144
     atom  130 type  2   force =    -0.00029192    0.00048256   -0.00056329
     atom  131 type  2   force =    -0.00016245    0.00030748   -0.00090135
     atom  132 type  2   force =     0.00023660    0.00007987    0.00054913
     atom  133 type  2   force =     0.00010979    0.00050682   -0.00099564
     atom  134 type  2   force =     0.00001788    0.00076796    0.00098236
     atom  135 type  2   force =    -0.00011472    0.00032417    0.00050059
     atom  136 type  2   force =    -0.00000486   -0.00009255   -0.00066225
     atom  137 type  2   force =     0.00025824    0.00054331    0.00057553
     atom  138 type  2   force =     0.00010304    0.00089684    0.00037254
     atom  139 type  2   force =     0.00018640    0.00012101    0.00004940
     atom  140 type  2   force =    -0.00022765    0.00001175    0.00003817
     atom  141 type  2   force =     0.00006438   -0.00006928   -0.00062580
     atom  142 type  2   force =     0.00012345    0.00007368   -0.00017198
     atom  143 type  2   force =     0.00031038    0.00025748   -0.00067895
     atom  144 type  2   force =    -0.00098266   -0.00007285    0.00000800
     atom  145 type  2   force =    -0.00053726   -0.00024265   -0.00009556
     atom  146 type  2   force =     0.00047547    0.00004211    0.00010592
     atom  147 type  2   force =     0.00042373    0.00054697   -0.00086192
     atom  148 type  2   force =    -0.00061952    0.00006070   -0.00016240
     atom  149 type  2   force =    -0.00017209    0.00003350   -0.00003580
     atom  150 type  2   force =    -0.00004818   -0.00016088   -0.00059510

     Total force =     0.005524     Total SCF correction =     0.000387

     number of scf cycles    =  17
     number of bfgs steps    =  16

     energy   old            =  -12701.1260839880 Ry
     energy   new            =  -12701.1261262760 Ry

     CASE: energy  _new < energy  _old

     new trust radius        =       0.0067517406 bohr
     new conv_thr            =       0.0000000042 Ry


ATOMIC_POSITIONS (angstrom)
Cu       0.000678157   0.001708687   7.368820927
Cu       1.844966761   1.706859800   7.368157889
Cu       3.689449180   0.001895514   7.368469056
Cu       5.534255338   1.707361391   7.369288540
Cu       0.000540567   3.409940223   7.367331357
Cu       1.845228155   5.112280201   7.364516072
Cu       3.689766191   3.409937580   7.367357216
Cu       5.534241583   5.112136825   7.364858317
Cu       0.000606121   6.814523945   7.362887279
Cu       1.845415033   8.516547234   7.364112986
Cu       3.689835610   6.814493929   7.363199848
Cu       5.534037422   8.516413982   7.364755947
Cu       0.000679370  10.217776027   7.367304543
Cu       1.845170510  11.919091289   7.370121459
Cu       3.689667550  10.217579801   7.368589773
Cu       5.534152576  11.919447512   7.370207192
Cu       0.000778856  13.623765385   7.369687826
Cu       1.845128033  15.332410487   7.369292147
Cu       3.689437513  13.623781303   7.369472882
Cu       5.534064690  15.331822099   7.367466625
Cu       0.001149150   1.708947011   9.202180840
Cu       1.845081695   0.003113940   9.199446002
Cu       3.689476162   1.708784943   9.201520823
Cu       5.534448602   0.000530267   9.196693865
Cu       0.001317518   5.114931213   9.199455247
Cu       1.845361877   3.412643905   9.200963087
Cu       3.690029687   5.114597629   9.199404035
Cu       5.534631451   3.413121629   9.202218922
Cu       0.001491653   8.513216918   9.200429273
Cu       1.845633219   6.814621288   9.198593167
Cu       3.689767996   8.512433259   9.201921881
Cu       5.534722149   6.814311515   9.198956239
Cu       0.001191141  11.916196600   9.204036681
Cu       1.845497977  10.212324316   9.204915059
Cu       3.689588924  11.917238133   9.204083721
Cu       5.534527296  10.213399586   9.203827419
Cu       0.001309933  15.331993308   9.196278485
Cu       1.845122759  13.623092483   9.200100002
Cu       3.689228868  15.332059003   9.195589883
Cu       5.534551780  13.624405766   9.199090033
Cu       0.002173576  -0.001254690  11.034984147
Cu       1.845892904   1.712733756  11.044328682
Cu       3.688956626  -0.001628930  11.033545581
Cu       5.534844781   1.706180228  11.036742025
Cu       0.003214131   3.417678422  11.045234188
Cu       1.846962163   5.117551890  11.045950176
Cu       3.689675282   3.417287264  11.044681212
Cu       5.536527337   5.117949186  11.045329440
Cu       0.003717829   6.813568945  11.048556069
Cu       1.846342662   8.504108385  11.053879353
Cu       3.690743378   6.810713277  11.049022532
Cu       5.536754861   8.507499306  11.048177173
Cu       0.003031278  10.206226567  11.050024498
Cu       1.845181288  11.914525430  11.044636783
Cu       3.689751660  10.207386060  11.047980400
Cu       5.535669774  11.916582029  11.041444704
Cu       0.001414410  13.624961128  11.037076402
Cu       1.845223835  15.331768679  11.033809414
Cu       3.689897776  13.626790170  11.036555219
Cu       5.534904749  15.332324207  11.033808037
Cu       0.005736244   1.703972106  12.867544905
Cu       1.846850414  -0.006160981  12.871799608
Cu       3.688641254   1.700496058  12.868623988
Cu       5.534562380  -0.003901733  12.870276503
Cu       0.010051038   5.120330838  12.897000554
Cu       1.852465284   3.429698797  12.895850269
Cu       3.693232925   5.119656784  12.902411663
Cu       5.535044067   3.411626289  12.872430618
Cu       0.009668847   8.498287716  12.909128149
Cu       1.853711628   6.798811486  12.916279460
Cu       3.692260113   8.498022763  12.898022185
Cu       5.540345822   6.810550321  12.899845418
Cu       0.003641533  11.918899714  12.878256320
Cu       1.845607558  10.201901120  12.892142466
Cu       3.690457208  11.920250332  12.870011419
Cu       5.540656838  10.206801146  12.881803526
Cu       0.000760455  15.331056459  12.874361995
Cu       1.844574384  13.629728143  12.872477748
Cu       3.691116171  15.333045152  12.874373625
Cu       5.536866334  13.628598746  12.872058434
Cu       0.003128307  -0.001122588  14.682932265
Cu       1.848474684   1.700472433  14.676203262
Cu       3.691376036  -0.003542940  14.694198120
Cu       5.539677094   1.697307146  14.675142271
Cu       0.005263837   3.405483892  14.672400109
Cu       1.885376180   5.108352877  14.786527801
Cu       3.702761361   3.384238405  14.693019305
Cu       5.530928520   5.100137704  14.701778432
Cu       0.020271321   6.791412507  14.741000326
Cu       1.864224278   8.499722680  14.738321697
Cu       3.707843546   6.813809757  14.767731487
Cu       5.539608321   8.513951102  14.712141140
Cu       0.011058642  10.216446356  14.706355074
Cu       1.844302940  11.926361607  14.680891419
Cu       3.692683960  10.223826193  14.682436033
Cu       5.542273383  11.921596487  14.676800743
Cu       0.001329020  13.630555693  14.696037667
Cu       1.847350975  15.330923490  14.691655189
Cu       3.692717204  13.623498427  14.682157205
Cu       5.534792669  15.332715186  14.690652764
C       -0.002242988   0.717368031  17.594964110
C       -0.002777755   2.136099542  17.562343466
C        1.227371693   0.008317011  17.606410357
C        1.226641505   2.841955853  17.527053195
C        2.456438029   0.715494509  17.573254114
C        2.456407155   2.134403264  17.526508416
C        3.687300112   0.007030088  17.587194400
C        3.686314048   2.846881617  17.511054709
C        4.918393215   0.718030049  17.580253513
C        4.919158409   2.137203018  17.537494183
C        6.146310945   0.008714190  17.611456974
C        6.148486709   2.847260900  17.545857345
C       -0.002715008   4.977381284  17.560003868
C       -0.002998512   6.403849332  17.504377921
C        1.231223805   4.263148234  17.543257464
C        1.206028877   7.122978891  17.618331732
C        2.455946130   4.960017906  17.606335401
C        2.397192690   6.366662121  18.115503391
H        2.138252221   6.217507611  19.189504986
C        3.679533879   4.267423244  17.564938933
C        3.734225669   7.130513187  18.135427844
H        3.989678380   7.227870128  19.216617104
C        4.918204659   4.984421977  17.563992085
C        4.923716538   6.389224234  17.605137133
C        6.150733134   4.269917291  17.536768165
C        6.133188763   7.106232397  17.514237807
C       -0.014546651   9.238451521  17.523043948
C       -0.009805654  10.660657367  17.507972325
C        1.216232814   8.525160207  17.588203282
C        1.222430794  11.371022860  17.543378626
C        2.457634755   9.242748720  17.628000214
C        2.452515585  10.662690913  17.572762396
C        3.677938541   8.555481300  17.688291977
C        3.679513879  11.373887146  17.580520331
C        4.898492729   9.245704190  17.573484870
C        4.906356933  10.666272167  17.542645371
C        6.135261330   8.531300010  17.547565319
C        6.138051569  11.372439136  17.524253275
C       -0.006132814  13.500877397  17.575959714
C       -0.004029624  14.919567336  17.616360954
C        1.224643615  12.789979188  17.576464507
C        1.225756704  15.628424281  17.619211092
C        2.453471473  13.500001665  17.614780235
C        2.455859279  14.918730889  17.622911112
C        3.681875930  12.792439582  17.604439473
C        3.685897198  15.627238022  17.624707464
C        4.912302329  13.499938803  17.609109207
C        4.914214597  14.918659640  17.623724560
C        6.140260207  12.791186796  17.567537351
C        6.145296031  15.628607137  17.621271326



     Writing output data file gc.save
     Check: negative starting charge=   -0.001837
     NEW-OLD atomic charge density approx. for the potential
     Check: negative starting charge=   -0.001837

     negative rho (up, down):  1.847E-03 0.000E+00

     total cpu time spent up to now is    53340.7 secs

     Self-consistent Calculation

     iteration #  1     ecut=    80.00 Ry     beta=0.70
     Davidson diagonalization with overlap
     ethr =  1.00E-06,  avg # of iterations =  3.0

     negative rho (up, down):  1.717E-03 0.000E+00

     total cpu time spent up to now is    53640.4 secs

     total energy              =  -12701.12603990 Ry
     Harris-Foulkes estimate   =  -12701.12619957 Ry
     estimated scf accuracy    <       0.00161759 Ry

     iteration #  2     ecut=    80.00 Ry     beta=0.70
     Davidson diagonalization with overlap
     ethr =  1.25E-07,  avg # of iterations =  2.0

     negative rho (up, down):  1.653E-03 0.000E+00

     total cpu time spent up to now is    53831.4 secs

     total energy              =  -12701.12611561 Ry
     Harris-Foulkes estimate   =  -12701.12618238 Ry
     estimated scf accuracy    <       0.00030540 Ry

     iteration #  3     ecut=    80.00 Ry     beta=0.70
     Davidson diagonalization with overlap
     ethr =  2.36E-08,  avg # of iterations =  2.8

     negative rho (up, down):  1.589E-03 0.000E+00

     total cpu time spent up to now is    54100.1 secs

     total energy              =  -12701.12614932 Ry
     Harris-Foulkes estimate   =  -12701.12619391 Ry
     estimated scf accuracy    <       0.00042422 Ry

     iteration #  4     ecut=    80.00 Ry     beta=0.70
     Davidson diagonalization with overlap
     ethr =  2.36E-08,  avg # of iterations =  1.5

     negative rho (up, down):  1.569E-03 0.000E+00

     total cpu time spent up to now is    54279.6 secs

     total energy              =  -12701.12616426 Ry
     Harris-Foulkes estimate   =  -12701.12616928 Ry
     estimated scf accuracy    <       0.00004086 Ry

     iteration #  5     ecut=    80.00 Ry     beta=0.70
     Davidson diagonalization with overlap
     ethr =  3.16E-09,  avg # of iterations =  3.0

     negative rho (up, down):  1.587E-03 0.000E+00

     total cpu time spent up to now is    54488.4 secs

     total energy              =  -12701.12616514 Ry
     Harris-Foulkes estimate   =  -12701.12616704 Ry
     estimated scf accuracy    <       0.00002207 Ry

     iteration #  6     ecut=    80.00 Ry     beta=0.70
     Davidson diagonalization with overlap
     ethr =  1.71E-09,  avg # of iterations =  1.0

     negative rho (up, down):  1.633E-03 0.000E+00

     total cpu time spent up to now is    54671.0 secs

     total energy              =  -12701.12616548 Ry
     Harris-Foulkes estimate   =  -12701.12616641 Ry
     estimated scf accuracy    <       0.00000868 Ry

     iteration #  7     ecut=    80.00 Ry     beta=0.70
     Davidson diagonalization with overlap
     ethr =  6.71E-10,  avg # of iterations =  1.7

     negative rho (up, down):  1.677E-03 0.000E+00

     total cpu time spent up to now is    54852.6 secs

     total energy              =  -12701.12616564 Ry
     Harris-Foulkes estimate   =  -12701.12616610 Ry
     estimated scf accuracy    <       0.00000371 Ry

     iteration #  8     ecut=    80.00 Ry     beta=0.70
     Davidson diagonalization with overlap
     ethr =  2.87E-10,  avg # of iterations =  1.8

     negative rho (up, down):  1.728E-03 0.000E+00

     total cpu time spent up to now is    55040.2 secs

     total energy              =  -12701.12616553 Ry
     Harris-Foulkes estimate   =  -12701.12616580 Ry
     estimated scf accuracy    <       0.00000095 Ry

     iteration #  9     ecut=    80.00 Ry     beta=0.70
     Davidson diagonalization with overlap
     ethr =  7.32E-11,  avg # of iterations =  2.2

     negative rho (up, down):  1.760E-03 0.000E+00

     total cpu time spent up to now is    55232.2 secs

     total energy              =  -12701.12616547 Ry
     Harris-Foulkes estimate   =  -12701.12616560 Ry
     estimated scf accuracy    <       0.00000033 Ry

     iteration # 10     ecut=    80.00 Ry     beta=0.70
     Davidson diagonalization with overlap
