mpirun: INFO: switching to OpenMPI runtime version 1.10.2

     Program PWSCF v.5.4.0 starts on 16Sep2017 at 17:39:14 

     This program is part of the open-source Quantum ESPRESSO suite
     for quantum simulation of materials; please cite
         "P. Giannozzi et al., J. Phys.:Condens. Matter 21 395502 (2009);
          URL http://www.quantum-espresso.org", 
     in publications or presentations arising from this work. More details at
     http://www.quantum-espresso.org/quote

     Parallel version (MPI & OpenMP), running on      28 processor cores
     Number of MPI processes:                28
     Threads/MPI process:                     1
     R & G space division:  proc/nbgrp/npool/nimage =      28
     Waiting for input...
     Reading input from standard input
Warning: card &IONS ignored
Warning: card / ignored

     Current dimensions of program PWSCF are:
     Max number of different atomic species (ntypx) = 10
     Max number of k-points (npk) =  40000
     Max angular momentum in pseudopotentials (lmaxx) =  3
     WARNING: atomic wfc #  2 for atom type 4 has zero norm
     WARNING: atomic wfc #  4 for atom type 4 has zero norm
     WARNING: atomic wfc #  5 for atom type 4 has zero norm

     -------------------------------------
     Parameters for Dispersion Correction:
     -------------------------------------
       atom      VdW radius       C_6     

        Cu         2.952        374.666
        C_h        2.744         60.710
        C          2.744         60.710
        O          2.536         24.284
        H          1.892          4.857

     Subspace diagonalization in iterative solution of the eigenvalue problem:
     one sub-group per band group will be used
     scalapack distributed-memory algorithm (size of sub-group:  3*  3 procs)

 
     Parallelization info
     --------------------
     sticks:   dense  smooth     PW     G-vecs:    dense   smooth      PW
     Min         408     408    108                73226    73226    9928
     Max         410     410    109                73231    73231    9931
     Sum       11433   11433   3039              2050409  2050409  278033
 


     bravais-lattice index     =            0
     lattice parameter (alat)  =      13.9425  a.u.
     unit-cell volume          =   21209.0878 (a.u.)^3
     number of atoms/cell      =          136
     number of atomic types    =            5
     number of electrons       =      1231.00
     number of Kohn-Sham states=          739
     kinetic-energy cutoff     =      80.0000  Ry
     charge density cutoff     =     320.0000  Ry
     convergence threshold     =      1.0E-08
     mixing beta               =       0.7000
     number of iterations used =            8  local-TF  mixing
     Exchange-correlation      =  SLA  PW   PBE  PBE ( 1  4  3  4 0 0)

     celldm(1)=  13.942539  celldm(2)=   0.000000  celldm(3)=   0.000000
     celldm(4)=   0.000000  celldm(5)=   0.000000  celldm(6)=   0.000000

     crystal axes: (cart. coord. in units of alat)
               a(1) = (   1.000000   0.000000   0.000000 )  
               a(2) = (   0.000000   2.309401   0.000000 )  
               a(3) = (   0.000000   0.000000   3.388418 )  

     reciprocal axes: (cart. coord. in units 2 pi/alat)
               b(1) = (  1.000000  0.000000  0.000000 )  
               b(2) = (  0.000000  0.433013  0.000000 )  
               b(3) = (  0.000000  0.000000  0.295123 )  


     PseudoPot. # 1 for Cu read from file:
     /home/549/hxw549/Short/pseudopotentials/Cu.pbe-n-van_ak.UPF
     MD5 check sum: 601f7c30f7467666bec936e0661ce3e1
     Pseudo is Ultrasoft + core correction, Zval = 11.0
     Generated by new atomic code, or converted to UPF format
     Using radial grid of  867 points,  6 beta functions with: 
                l(1) =   0
                l(2) =   0
                l(3) =   1
                l(4) =   1
                l(5) =   2
                l(6) =   2
     Q(r) pseudized with  8 coefficients,  rinner =    1.400   1.400   1.400
                                                       1.400   1.400

     PseudoPot. # 2 for C  read from file:
     /home/549/hxw549/Short/pseudopotentials/C.star1s-pbe-mt_gipaw.UPF
     MD5 check sum: ef0cb3dee31bd9e4ba2a832a2c716264
     Pseudo is Norm-conserving, Zval =  5.0
     Generated by new atomic code, or converted to UPF format
     Using radial grid of 1073 points,  1 beta functions with: 
                l(1) =   0

     PseudoPot. # 3 for C  read from file:
     /home/549/hxw549/Short/pseudopotentials/C.pbe-mt_gipaw.UPF
     MD5 check sum: 5ac2f21f2c440b14befe521540822c15
     Pseudo is Norm-conserving, Zval =  4.0
     Generated by new atomic code, or converted to UPF format
     Using radial grid of 1073 points,  1 beta functions with: 
                l(1) =   0

     PseudoPot. # 4 for O  read from file:
     /home/549/hxw549/Short/pseudopotentials/O.pbe-van_gipaw.UPF
     MD5 check sum: 5ce2a047509d4f331db576c963e74b29
     Pseudo is Ultrasoft, Zval =  6.0
     Generated by new atomic code, or converted to UPF format
     Using radial grid of 1095 points,  4 beta functions with: 
                l(1) =   0
                l(2) =   0
                l(3) =   1
                l(4) =   1
     Q(r) pseudized with 0 coefficients 


     PseudoPot. # 5 for H  read from file:
     /home/549/hxw549/Short/pseudopotentials/H.pbe-van_ak.UPF
     MD5 check sum: 077eb6d537518a38cb46c6de387227b7
     Pseudo is Ultrasoft, Zval =  1.0
     Generated by new atomic code, or converted to UPF format
     Using radial grid of  615 points,  1 beta functions with: 
                l(1) =   0
     Q(r) pseudized with  8 coefficients,  rinner =    0.800

     atomic species   valence    mass     pseudopotential
        Cu            11.00    63.54600     Cu( 1.00)
        C_h            5.00    12.01070     C ( 1.00)
        C              4.00    12.01070     C ( 1.00)
        O              6.00    15.99940     O ( 1.00)
        H              1.00     1.00783     H ( 1.00)

     No symmetry found



   Cartesian axes

     site n.     atom                  positions (alat units)
         1           Cu  tau(   1) = (  -0.0003168  -0.0013982   1.0055199  )
         2           Cu  tau(   2) = (   0.2501453   0.2295555   1.0052839  )
         3           Cu  tau(   3) = (   0.5004149  -0.0014171   1.0055977  )
         4           Cu  tau(   4) = (   0.7498817   0.2306962   1.0053398  )
         5           Cu  tau(   5) = (   0.0003815   0.4622466   1.0056377  )
         6           Cu  tau(   6) = (   0.2498334   0.6945201   1.0064829  )
         7           Cu  tau(   7) = (   0.4995424   0.4625541   1.0057872  )
         8           Cu  tau(   8) = (   0.7499853   0.6939216   1.0062134  )
         9           Cu  tau(   9) = (  -0.0002738   0.9257629   1.0060329  )
        10           Cu  tau(  10) = (   0.2499967   1.1566802   1.0049578  )
        11           Cu  tau(  11) = (   0.5000439   0.9254919   1.0059485  )
        12           Cu  tau(  12) = (   0.7498101   1.1567544   1.0046319  )
        13           Cu  tau(  13) = (  -0.0000014   1.3874667   1.0039594  )
        14           Cu  tau(  14) = (   0.2499532   1.6179332   1.0043783  )
        15           Cu  tau(  15) = (   0.4998922   1.3876732   1.0041395  )
        16           Cu  tau(  16) = (   0.7500516   1.6181131   1.0043239  )
        17           Cu  tau(  17) = (   0.0001895   1.8480219   1.0050140  )
        18           Cu  tau(  18) = (   0.2500817   2.0781217   1.0055047  )
        19           Cu  tau(  19) = (   0.4999029   1.8478872   1.0049984  )
        20           Cu  tau(  20) = (   0.7500367   2.0773181   1.0056590  )
        21           Cu  tau(  21) = (  -0.0000391   0.2295896   1.2529306  )
        22           Cu  tau(  22) = (   0.2500099  -0.0018307   1.2544655  )
        23           Cu  tau(  23) = (   0.4998891   0.2295487   1.2529552  )
        24           Cu  tau(  24) = (   0.7500272  -0.0015922   1.2536173  )
        25           Cu  tau(  25) = (  -0.0002947   0.6942465   1.2540564  )
        26           Cu  tau(  26) = (   0.2498546   0.4614900   1.2533831  )
        27           Cu  tau(  27) = (   0.4996289   0.6943854   1.2545906  )
        28           Cu  tau(  28) = (   0.7497175   0.4616641   1.2536082  )
        29           Cu  tau(  29) = (  -0.0004575   1.1578716   1.2536260  )
        30           Cu  tau(  30) = (   0.2497018   0.9266962   1.2539681  )
        31           Cu  tau(  31) = (   0.4998348   1.1575912   1.2533958  )
        32           Cu  tau(  32) = (   0.7495918   0.9266035   1.2538034  )
        33           Cu  tau(  33) = (  -0.0001437   1.6174892   1.2541758  )
        34           Cu  tau(  34) = (   0.2497105   1.3878688   1.2532695  )
        35           Cu  tau(  35) = (   0.4999548   1.6178461   1.2543303  )
        36           Cu  tau(  36) = (   0.7498162   1.3878286   1.2532209  )
        37           Cu  tau(  37) = (   0.0000992   2.0770263   1.2550949  )
        38           Cu  tau(  38) = (   0.2499971   1.8472971   1.2549015  )
        39           Cu  tau(  39) = (   0.4999955   2.0768965   1.2550121  )
        40           Cu  tau(  40) = (   0.7500286   1.8469493   1.2555419  )
        41           Cu  tau(  41) = (   0.0003807  -0.0018379   1.5037317  )
        42           Cu  tau(  42) = (   0.2499033   0.2287619   1.5028275  )
        43           Cu  tau(  43) = (   0.4995050  -0.0017969   1.5037526  )
        44           Cu  tau(  44) = (   0.7495528   0.2280993   1.5025861  )
        45           Cu  tau(  45) = (  -0.0007269   0.4604871   1.5010983  )
        46           Cu  tau(  46) = (   0.2496424   0.6943777   1.5006954  )
        47           Cu  tau(  47) = (   0.4996426   0.4596935   1.5017767  )
        48           Cu  tau(  48) = (   0.7489551   0.6953350   1.5012739  )
        49           Cu  tau(  49) = (  -0.0007777   0.9278281   1.5026550  )
        50           Cu  tau(  50) = (   0.2493812   1.1590973   1.5039380  )
        51           Cu  tau(  51) = (   0.4993419   0.9288320   1.5040008  )
        52           Cu  tau(  52) = (   0.7491263   1.1585494   1.5041918  )
        53           Cu  tau(  53) = (  -0.0006873   1.3877971   1.5052286  )
        54           Cu  tau(  54) = (   0.2498729   1.6164005   1.5051035  )
        55           Cu  tau(  55) = (   0.4993404   1.3874153   1.5043473  )
        56           Cu  tau(  56) = (   0.7495971   1.6158624   1.5059274  )
        57           Cu  tau(  57) = (   0.0000240   1.8463852   1.5064084  )
        58           Cu  tau(  58) = (   0.2502207   2.0761930   1.5065031  )
        59           Cu  tau(  59) = (   0.4998710   1.8469524   1.5073555  )
        60           Cu  tau(  60) = (   0.7498534   2.0779661   1.5049795  )
        61           Cu  tau(  61) = (  -0.0005482   0.2285957   1.7513041  )
        62           Cu  tau(  62) = (   0.2503705  -0.0019090   1.7552553  )
        63           Cu  tau(  63) = (   0.4994628   0.2262125   1.7549437  )
        64           Cu  tau(  64) = (   0.7492129  -0.0019221   1.7551183  )
        65           Cu  tau(  65) = (  -0.0013693   0.6935386   1.7457943  )
        66           Cu  tau(  66) = (   0.2499533   0.4620918   1.7468260  )
        67           Cu  tau(  67) = (   0.4994145   0.6932137   1.7472171  )
        68           Cu  tau(  68) = (   0.7483599   0.4618627   1.7464990  )
        69           Cu  tau(  69) = (  -0.0016854   1.1579493   1.7539496  )
        70           Cu  tau(  70) = (   0.2495133   0.9249935   1.7482431  )
        71           Cu  tau(  71) = (   0.4977817   1.1614044   1.7586944  )
        72           Cu  tau(  72) = (   0.7478740   0.9283906   1.7517142  )
        73           Cu  tau(  73) = (   0.0000769   1.6161182   1.7574795  )
        74           Cu  tau(  74) = (   0.2491585   1.3887143   1.7594166  )
        75           Cu  tau(  75) = (   0.4987267   1.6152884   1.7581578  )
        76           Cu  tau(  76) = (   0.7469990   1.3872160   1.7584607  )
        77           Cu  tau(  77) = (   0.0005717   2.0773726   1.7547856  )
        78           Cu  tau(  78) = (   0.2505501   1.8431622   1.7579741  )
        79           Cu  tau(  79) = (   0.4994013   2.0802006   1.7579529  )
        80           Cu  tau(  80) = (   0.7490980   1.8467508   1.7531094  )
        81           Cu  tau(  81) = (  -0.0006556  -0.0002571   2.0027109  )
        82           Cu  tau(  82) = (   0.2484940   0.2348724   1.9920019  )
        83           Cu  tau(  83) = (   0.5000413  -0.0016849   2.0184284  )
        84           Cu  tau(  84) = (   0.7500238   0.2356812   1.9920680  )
        85           Cu  tau(  85) = (  -0.0005744   0.4646502   1.9910166  )
        86           Cu  tau(  86) = (   0.2490887   0.6928804   1.9923368  )
        87           Cu  tau(  87) = (   0.4984465   0.4633667   1.9942050  )
        88           Cu  tau(  88) = (   0.7478473   0.6913146   1.9921949  )
        89           Cu  tau(  89) = (  -0.0050873   0.9185906   1.9919892  )
        90           Cu  tau(  90) = (   0.2442489   1.1457202   1.9960138  )
        91           Cu  tau(  91) = (   0.4995338   0.9208224   1.9935687  )
        92           Cu  tau(  92) = (   0.7462204   1.1562433   2.0052515  )
        93           Cu  tau(  93) = (  -0.0043410   1.3841632   2.0038791  )
        94           Cu  tau(  94) = (   0.2411388   1.6190517   2.0173333  )
        95           Cu  tau(  95) = (   0.4978654   1.3956525   2.0135594  )
        96           Cu  tau(  96) = (   0.7525322   1.6209850   2.0041274  )
        97           Cu  tau(  97) = (  -0.0017595   1.8495064   2.0058330  )
        98           Cu  tau(  98) = (   0.2487881   2.0750917   2.0009389  )
        99           Cu  tau(  99) = (   0.4999612   1.8474237   2.0039235  )
       100           Cu  tau( 100) = (   0.7507282   2.0753345   2.0002343  )
       101           C   tau( 101) = (   0.0007957   0.0900026   2.3682807  )
       102           C   tau( 102) = (   0.0009341   0.2848068   2.3795817  )
       103           C   tau( 103) = (   0.1674620  -0.0033386   2.3584146  )
       104           C   tau( 104) = (   0.1674059   0.3810616   2.3822743  )
       105           C   tau( 105) = (   0.3332990   0.0902401   2.3548721  )
       106           C   tau( 106) = (   0.3338495   0.2846527   2.3691385  )
       107           C   tau( 107) = (   0.5008355  -0.0032800   2.3304049  )
       108           C   tau( 108) = (   0.5009332   0.3814599   2.3720082  )
       109           C   tau( 109) = (   0.6683948   0.0905052   2.3543714  )
       110           C   tau( 110) = (   0.6681128   0.2850372   2.3684927  )
       111           C   tau( 111) = (   0.8340891  -0.0033356   2.3577687  )
       112           C   tau( 112) = (   0.8347338   0.3815168   2.3816070  )
       113           C   tau( 113) = (   0.0017265   0.6722275   2.3919043  )
       114           C   tau( 114) = (   0.0024259   0.8662903   2.3843894  )
       115           C   tau( 115) = (   0.1678011   0.5749250   2.3884409  )
       116           C   tau( 116) = (   0.1689914   0.9635859   2.3749056  )
       117           C   tau( 117) = (   0.3342975   0.6720677   2.3853037  )
       118           C   tau( 118) = (   0.3346264   0.8658441   2.3811710  )
       119           C   tau( 119) = (   0.5011189   0.5750288   2.3822774  )
       120           C   tau( 120) = (   0.5017281   0.9619794   2.3756113  )
       121           C   tau( 121) = (   0.6681747   0.6719062   2.3869661  )
       122           C   tau( 122) = (   0.6686882   0.8656432   2.3844571  )
       123           C   tau( 123) = (   0.8349790   0.5753321   2.3890977  )
       124           C   tau( 124) = (   0.8354827   0.9623328   2.3784302  )
       125           C   tau( 125) = (   0.0022904   1.2519625   2.3456355  )
       126           C   tau( 126) = (   0.1683857   1.1577655   2.3483254  )
       127           C_h tau( 127) = (   0.3375546   1.2520521   2.3220187  )
       128           C   tau( 128) = (   0.5036080   1.1548913   2.3552935  )
       129           C   tau( 129) = (   0.6689464   1.2489971   2.3477794  )
       130           C   tau( 130) = (   0.8361965   1.1567815   2.3603742  )
       131           H   tau( 131) = (   0.1673743  -0.1511437   2.3532277  )
       132           H   tau( 132) = (   0.5006682  -0.1506622   2.3426758  )
       133           H   tau( 133) = (   0.8341419  -0.1511292   2.3526473  )
       134           H   tau( 134) = (   0.0028953   1.4001816   2.3460099  )
       135           O   tau( 135) = (   0.3461521   1.4224244   2.2656911  )
       136           H   tau( 136) = (   0.6669454   1.3965938   2.3410095  )

     number of k points=     6  gaussian smearing, width (Ry)=  0.1000
                       cart. coord. in units 2pi/alat
        k(    1) = (   0.0000000   0.0000000   0.0000000), wk =   0.2500000
        k(    2) = (   0.0000000  -0.2165064   0.0000000), wk =   0.2500000
        k(    3) = (   0.2500000   0.0000000   0.0000000), wk =   0.5000000
        k(    4) = (   0.2500000  -0.2165064   0.0000000), wk =   0.5000000
        k(    5) = (  -0.5000000   0.0000000   0.0000000), wk =   0.2500000
        k(    6) = (  -0.5000000  -0.2165064   0.0000000), wk =   0.2500000

     Dense  grid:  2050409 G-vectors     FFT dimensions: (  80, 192, 270)

     Largest allocated arrays     est. size (Mb)     dimensions
        Kohn-Sham Wavefunctions       103.41 Mb     (    9171,  739)
        NL pseudopotentials           257.91 Mb     (    9171, 1843)
        Each V/rho on FFT grid          2.34 Mb     (  153600)
        Each G-vector array             0.56 Mb     (   73230)
        G-vector shells                 0.27 Mb     (   35784)
     Largest temporary arrays     est. size (Mb)     dimensions
        Auxiliary wavefunctions       413.66 Mb     (    9171, 2956)
        Each subspace H/S matrix       14.80 Mb     (     985,  985)
        Each <psi_i|beta_j> matrix     20.78 Mb     (    1843,  739)
        Arrays for rho mixing          18.75 Mb     (  153600,    8)

     Initial potential from superposition of free atoms
     Check: negative starting charge=   -0.002168

     starting charge 1214.81749, renormalised to 1231.00000

     negative rho (up, down):  2.197E-03 0.000E+00
     Starting wfc are 1149 randomized atomic wfcs

     total cpu time spent up to now is      178.6 secs

     Self-consistent Calculation

     iteration #  1     ecut=    80.00 Ry     beta=0.70
     Davidson diagonalization with overlap
     c_bands:  1 eigenvalues not converged
     c_bands:  1 eigenvalues not converged
     ethr =  1.00E-04,  avg # of iterations = 20.0

     negative rho (up, down):  2.781E+01 0.000E+00

     total cpu time spent up to now is     3156.6 secs

     total energy              =   -8418.32334807 Ry
     Harris-Foulkes estimate   =  -14945.02533275 Ry
     estimated scf accuracy    <  143682.93942030 Ry

     iteration #  2     ecut=    80.00 Ry     beta=0.70
     Davidson diagonalization with overlap
     c_bands:  5 eigenvalues not converged
     c_bands:  1 eigenvalues not converged
     ethr =  1.00E-02,  avg # of iterations = 17.7

     negative rho (up, down):  2.005E+01 0.000E+00

     total cpu time spent up to now is     4905.3 secs

     total energy              =  -12548.40284125 Ry
     Harris-Foulkes estimate   =  -13170.17272701 Ry
     estimated scf accuracy    <    1838.34342329 Ry

     iteration #  3     ecut=    80.00 Ry     beta=0.70
     Davidson diagonalization with overlap
     ethr =  1.00E-02,  avg # of iterations =  4.5

     negative rho (up, down):  1.630E+01 0.000E+00

     total cpu time spent up to now is     5566.3 secs

     total energy              =  -12668.94388791 Ry
     Harris-Foulkes estimate   =  -12743.37829810 Ry
     estimated scf accuracy    <     809.45215659 Ry

     iteration #  4     ecut=    80.00 Ry     beta=0.70
     Davidson diagonalization with overlap
     ethr =  1.00E-02,  avg # of iterations =  2.7

     negative rho (up, down):  1.553E+01 0.000E+00

     total cpu time spent up to now is     5999.7 secs

     total energy              =  -12675.41178204 Ry
     Harris-Foulkes estimate   =  -12699.13273213 Ry
     estimated scf accuracy    <    1017.20789143 Ry

     iteration #  5     ecut=    80.00 Ry     beta=0.70
     Davidson diagonalization with overlap
     ethr =  1.00E-02,  avg # of iterations =  2.7

     negative rho (up, down):  1.073E+01 0.000E+00

     total cpu time spent up to now is     6335.2 secs

     total energy              =  -12644.78508967 Ry
     Harris-Foulkes estimate   =  -12688.02326860 Ry
     estimated scf accuracy    <     340.81175006 Ry

     iteration #  6     ecut=    80.00 Ry     beta=0.70
     Davidson diagonalization with overlap
     ethr =  1.00E-02,  avg # of iterations =  3.2

     negative rho (up, down):  7.928E+00 0.000E+00

     total cpu time spent up to now is     6707.4 secs

     total energy              =  -12617.49088443 Ry
     Harris-Foulkes estimate   =  -12669.68307162 Ry
     estimated scf accuracy    <     635.53999571 Ry

     iteration #  7     ecut=    80.00 Ry     beta=0.70
     Davidson diagonalization with overlap
     ethr =  1.00E-02,  avg # of iterations =  3.0

     negative rho (up, down):  6.375E+00 0.000E+00

     total cpu time spent up to now is     7060.2 secs

     total energy              =  -12623.80333405 Ry
     Harris-Foulkes estimate   =  -12647.97103492 Ry
     estimated scf accuracy    <     301.20295670 Ry

     iteration #  8     ecut=    80.00 Ry     beta=0.70
     Davidson diagonalization with overlap
     ethr =  1.00E-02,  avg # of iterations =  1.2

     negative rho (up, down):  4.141E+00 0.000E+00

     total cpu time spent up to now is     7366.8 secs

     total energy              =  -12605.50541553 Ry
     Harris-Foulkes estimate   =  -12630.26141799 Ry
     estimated scf accuracy    <     238.46414467 Ry

     iteration #  9     ecut=    80.00 Ry     beta=0.70
     Davidson diagonalization with overlap
     ethr =  1.00E-02,  avg # of iterations =  1.0

     negative rho (up, down):  9.523E-01 0.000E+00

     total cpu time spent up to now is     7671.9 secs

     total energy              =  -12574.39306374 Ry
     Harris-Foulkes estimate   =  -12607.78214144 Ry
     estimated scf accuracy    <     141.17701270 Ry

     iteration # 10     ecut=    80.00 Ry     beta=0.70
     Davidson diagonalization with overlap
     ethr =  1.00E-02,  avg # of iterations =  1.0

     negative rho (up, down):  5.058E+00 0.000E+00

     total cpu time spent up to now is     7976.2 secs

     total energy              =  -12552.17970100 Ry
     Harris-Foulkes estimate   =  -12575.84907303 Ry
     estimated scf accuracy    <      74.71457420 Ry

     iteration # 11     ecut=    80.00 Ry     beta=0.70
     Davidson diagonalization with overlap
     ethr =  6.07E-03,  avg # of iterations =  2.7

     negative rho (up, down):  5.740E+00 0.000E+00

     total cpu time spent up to now is     8313.6 secs

     total energy              =  -12549.08623150 Ry
     Harris-Foulkes estimate   =  -12555.37904886 Ry
     estimated scf accuracy    <      29.82310220 Ry

     iteration # 12     ecut=    80.00 Ry     beta=0.70
     Davidson diagonalization with overlap
     ethr =  2.42E-03,  avg # of iterations =  2.0

     negative rho (up, down):  7.162E+00 0.000E+00

     total cpu time spent up to now is     8634.7 secs

     total energy              =  -12547.59392193 Ry
     Harris-Foulkes estimate   =  -12550.70018775 Ry
     estimated scf accuracy    <      22.16517029 Ry

     iteration # 13     ecut=    80.00 Ry     beta=0.70
     Davidson diagonalization with overlap
     ethr =  1.80E-03,  avg # of iterations =  1.8

     negative rho (up, down):  6.374E+00 0.000E+00

     total cpu time spent up to now is     8953.4 secs

     total energy              =  -12546.51038386 Ry
     Harris-Foulkes estimate   =  -12548.35490379 Ry
     estimated scf accuracy    <      20.45608835 Ry

     iteration # 14     ecut=    80.00 Ry     beta=0.70
     Davidson diagonalization with overlap
     ethr =  1.66E-03,  avg # of iterations =  2.8

     negative rho (up, down):  6.590E+00 0.000E+00

     total cpu time spent up to now is     9290.1 secs

     total energy              =  -12545.67810925 Ry
     Harris-Foulkes estimate   =  -12547.41304980 Ry
     estimated scf accuracy    <      38.90768389 Ry

     iteration # 15     ecut=    80.00 Ry     beta=0.70
     Davidson diagonalization with overlap
     ethr =  1.66E-03,  avg # of iterations =  1.7

     negative rho (up, down):  3.336E+00 0.000E+00

     total cpu time spent up to now is     9608.5 secs

     total energy              =  -12544.43414377 Ry
     Harris-Foulkes estimate   =  -12546.78460752 Ry
     estimated scf accuracy    <      11.46316722 Ry

     iteration # 16     ecut=    80.00 Ry     beta=0.70
     Davidson diagonalization with overlap
     ethr =  9.31E-04,  avg # of iterations =  6.3

     negative rho (up, down):  2.298E+00 0.000E+00

     total cpu time spent up to now is    10014.9 secs

     total energy              =  -12543.38643830 Ry
     Harris-Foulkes estimate   =  -12544.80530807 Ry
     estimated scf accuracy    <       9.04764988 Ry

     iteration # 17     ecut=    80.00 Ry     beta=0.70
     Davidson diagonalization with overlap
     ethr =  7.35E-04,  avg # of iterations =  3.8

     negative rho (up, down):  1.049E+00 0.000E+00

     total cpu time spent up to now is    10376.8 secs

     total energy              =  -12542.02275491 Ry
     Harris-Foulkes estimate   =  -12543.62109741 Ry
     estimated scf accuracy    <       7.25806402 Ry

     iteration # 18     ecut=    80.00 Ry     beta=0.70
     Davidson diagonalization with overlap
     ethr =  5.90E-04,  avg # of iterations =  6.3

     negative rho (up, down):  8.714E-01 0.000E+00

     total cpu time spent up to now is    10781.8 secs

     total energy              =  -12541.25622476 Ry
     Harris-Foulkes estimate   =  -12542.13705638 Ry
     estimated scf accuracy    <       5.03966717 Ry

     iteration # 19     ecut=    80.00 Ry     beta=0.70
     Davidson diagonalization with overlap
     ethr =  4.09E-04,  avg # of iterations =  6.0

     negative rho (up, down):  4.979E-01 0.000E+00

     total cpu time spent up to now is    11182.3 secs

     total energy              =  -12540.69155676 Ry
     Harris-Foulkes estimate   =  -12541.35907972 Ry
     estimated scf accuracy    <       4.81338343 Ry

     iteration # 20     ecut=    80.00 Ry     beta=0.70
     Davidson diagonalization with overlap
     ethr =  3.91E-04,  avg # of iterations =  7.7

     negative rho (up, down):  3.671E-01 0.000E+00

     total cpu time spent up to now is    11607.6 secs

     total energy              =  -12539.75697924 Ry
     Harris-Foulkes estimate   =  -12540.82116783 Ry
     estimated scf accuracy    <       4.97097613 Ry

     iteration # 21     ecut=    80.00 Ry     beta=0.70
     Davidson diagonalization with overlap
     ethr =  3.91E-04,  avg # of iterations =  4.0

     negative rho (up, down):  1.216E+00 0.000E+00

     total cpu time spent up to now is    11972.5 secs

     total energy              =  -12539.24189203 Ry
     Harris-Foulkes estimate   =  -12539.90043819 Ry
     estimated scf accuracy    <       4.04799021 Ry

     iteration # 22     ecut=    80.00 Ry     beta=0.70
     Davidson diagonalization with overlap
     ethr =  3.29E-04,  avg # of iterations =  8.5

     negative rho (up, down):  8.457E-01 0.000E+00

     total cpu time spent up to now is    12478.8 secs

     total energy              =  -12539.24910761 Ry
     Harris-Foulkes estimate   =  -12539.38436044 Ry
     estimated scf accuracy    <       0.82898364 Ry

     iteration # 23     ecut=    80.00 Ry     beta=0.70
     Davidson diagonalization with overlap
     ethr =  6.73E-05,  avg # of iterations =  7.8

     negative rho (up, down):  9.233E-01 0.000E+00

     total cpu time spent up to now is    12923.7 secs

     total energy              =  -12539.25760387 Ry
     Harris-Foulkes estimate   =  -12539.37579852 Ry
     estimated scf accuracy    <       0.73288451 Ry

     iteration # 24     ecut=    80.00 Ry     beta=0.70
     Davidson diagonalization with overlap
     ethr =  5.95E-05,  avg # of iterations =  8.0

     negative rho (up, down):  8.217E-01 0.000E+00

     total cpu time spent up to now is    13380.2 secs

     total energy              =  -12539.25668891 Ry
     Harris-Foulkes estimate   =  -12539.30024879 Ry
     estimated scf accuracy    <       0.24904496 Ry

     iteration # 25     ecut=    80.00 Ry     beta=0.70
     Davidson diagonalization with overlap
     ethr =  2.02E-05,  avg # of iterations =  7.8

     negative rho (up, down):  4.713E-01 0.000E+00

     total cpu time spent up to now is    13869.6 secs

     total energy              =  -12539.21885936 Ry
     Harris-Foulkes estimate   =  -12539.26694459 Ry
     estimated scf accuracy    <       0.14082773 Ry

     iteration # 26     ecut=    80.00 Ry     beta=0.70
     Davidson diagonalization with overlap
     ethr =  1.14E-05,  avg # of iterations = 12.2

     negative rho (up, down):  2.450E-01 0.000E+00

     total cpu time spent up to now is    14474.5 secs

     total energy              =  -12539.20825008 Ry
     Harris-Foulkes estimate   =  -12539.22660845 Ry
     estimated scf accuracy    <       0.03791157 Ry

     iteration # 27     ecut=    80.00 Ry     beta=0.70
     Davidson diagonalization with overlap
     c_bands:  1 eigenvalues not converged
     c_bands:  1 eigenvalues not converged
     ethr =  3.08E-06,  avg # of iterations = 17.3

     negative rho (up, down):  2.131E-01 0.000E+00

     total cpu time spent up to now is    15221.7 secs

     total energy              =  -12539.20892704 Ry
     Harris-Foulkes estimate   =  -12539.21123726 Ry
     estimated scf accuracy    <       0.02729168 Ry

     iteration # 28     ecut=    80.00 Ry     beta=0.70
     Davidson diagonalization with overlap
     ethr =  2.22E-06,  avg # of iterations = 12.0

     negative rho (up, down):  1.244E-01 0.000E+00

     total cpu time spent up to now is    15808.2 secs

     total energy              =  -12539.20650018 Ry
     Harris-Foulkes estimate   =  -12539.21097022 Ry
     estimated scf accuracy    <       0.00806540 Ry

     iteration # 29     ecut=    80.00 Ry     beta=0.70
     Davidson diagonalization with overlap
     ethr =  6.55E-07,  avg # of iterations = 16.2

     negative rho (up, down):  7.122E-02 0.000E+00

     total cpu time spent up to now is    16472.2 secs

     total energy              =  -12539.20604135 Ry
     Harris-Foulkes estimate   =  -12539.20710505 Ry
     estimated scf accuracy    <       0.00244063 Ry

     iteration # 30     ecut=    80.00 Ry     beta=0.70
     Davidson diagonalization with overlap
     c_bands:  1 eigenvalues not converged
     ethr =  1.98E-07,  avg # of iterations = 11.8

     negative rho (up, down):  4.101E-02 0.000E+00

     total cpu time spent up to now is    17043.8 secs

     total energy              =  -12539.20571824 Ry
     Harris-Foulkes estimate   =  -12539.20623621 Ry
     estimated scf accuracy    <       0.00110300 Ry

     iteration # 31     ecut=    80.00 Ry     beta=0.70
     Davidson diagonalization with overlap
     ethr =  8.96E-08,  avg # of iterations = 10.0

     negative rho (up, down):  1.232E-02 0.000E+00

     total cpu time spent up to now is    17577.9 secs

     total energy              =  -12539.20523390 Ry
     Harris-Foulkes estimate   =  -12539.20579352 Ry
     estimated scf accuracy    <       0.00037614 Ry

     iteration # 32     ecut=    80.00 Ry     beta=0.70
     Davidson diagonalization with overlap
     c_bands:  1 eigenvalues not converged
     c_bands:  1 eigenvalues not converged
     ethr =  3.06E-08,  avg # of iterations = 15.8

     negative rho (up, down):  8.942E-03 0.000E+00

     total cpu time spent up to now is    18246.9 secs

     total energy              =  -12539.20518484 Ry
     Harris-Foulkes estimate   =  -12539.20526265 Ry
     estimated scf accuracy    <       0.00010918 Ry

     iteration # 33     ecut=    80.00 Ry     beta=0.70
     Davidson diagonalization with overlap
     c_bands:  1 eigenvalues not converged
     ethr =  8.87E-09,  avg # of iterations =  9.8

     negative rho (up, down):  5.002E-03 0.000E+00

     total cpu time spent up to now is    18738.6 secs

     total energy              =  -12539.20512250 Ry
     Harris-Foulkes estimate   =  -12539.20519716 Ry
     estimated scf accuracy    <       0.00005557 Ry

     iteration # 34     ecut=    80.00 Ry     beta=0.70
     Davidson diagonalization with overlap
     c_bands:  1 eigenvalues not converged
     ethr =  4.51E-09,  avg # of iterations = 10.8

     negative rho (up, down):  2.567E-03 0.000E+00

     total cpu time spent up to now is    19254.4 secs

     total energy              =  -12539.20509581 Ry
     Harris-Foulkes estimate   =  -12539.20512730 Ry
     estimated scf accuracy    <       0.00001596 Ry

     iteration # 35     ecut=    80.00 Ry     beta=0.70
     Davidson diagonalization with overlap
     ethr =  1.30E-09,  avg # of iterations =  7.8

     negative rho (up, down):  2.355E-03 0.000E+00

     total cpu time spent up to now is    19733.7 secs

     total energy              =  -12539.20509936 Ry
     Harris-Foulkes estimate   =  -12539.20509751 Ry
     estimated scf accuracy    <       0.00000239 Ry

     iteration # 36     ecut=    80.00 Ry     beta=0.70
     Davidson diagonalization with overlap
     ethr =  1.94E-10,  avg # of iterations =  3.0

     negative rho (up, down):  2.359E-03 0.000E+00

     total cpu time spent up to now is    20147.4 secs

     total energy              =  -12539.20510026 Ry
     Harris-Foulkes estimate   =  -12539.20509982 Ry
     estimated scf accuracy    <       0.00000108 Ry

     iteration # 37     ecut=    80.00 Ry     beta=0.70
     Davidson diagonalization with overlap
     ethr =  8.78E-11,  avg # of iterations =  2.7

     negative rho (up, down):  2.348E-03 0.000E+00

     total cpu time spent up to now is    20501.4 secs

     total energy              =  -12539.20510067 Ry
     Harris-Foulkes estimate   =  -12539.20510036 Ry
     estimated scf accuracy    <       0.00000023 Ry

     iteration # 38     ecut=    80.00 Ry     beta=0.70
     Davidson diagonalization with overlap
     ethr =  1.89E-11,  avg # of iterations =  3.0

     negative rho (up, down):  2.438E-03 0.000E+00

     total cpu time spent up to now is    20888.1 secs

     total energy              =  -12539.20510069 Ry
     Harris-Foulkes estimate   =  -12539.20510071 Ry
     estimated scf accuracy    <       0.00000010 Ry

     iteration # 39     ecut=    80.00 Ry     beta=0.70
     Davidson diagonalization with overlap
     ethr =  7.75E-12,  avg # of iterations =  3.0

     negative rho (up, down):  2.417E-03 0.000E+00

     total cpu time spent up to now is    21253.8 secs

     total energy              =  -12539.20510072 Ry
     Harris-Foulkes estimate   =  -12539.20510070 Ry
     estimated scf accuracy    <       0.00000003 Ry

     iteration # 40     ecut=    80.00 Ry     beta=0.70
     Davidson diagonalization with overlap
     ethr =  2.10E-12,  avg # of iterations =  2.3

     negative rho (up, down):  2.426E-03 0.000E+00

     total cpu time spent up to now is    21661.0 secs

     total energy              =  -12539.20510071 Ry
     Harris-Foulkes estimate   =  -12539.20510073 Ry
     estimated scf accuracy    <       0.00000001 Ry

     iteration # 41     ecut=    80.00 Ry     beta=0.70
     Davidson diagonalization with overlap
     ethr =  1.00E-12,  avg # of iterations =  2.0

     negative rho (up, down):  2.425E-03 0.000E+00

     total cpu time spent up to now is    21981.2 secs

     End of self-consistent calculation

          k = 0.0000 0.0000 0.0000 (256287 PWs)   bands (ev):

   -20.2222 -16.7540 -16.2024 -15.2761 -14.8439 -14.8244 -14.3505 -14.3179
   -13.9860 -13.4697 -13.4226 -12.5223 -12.2599 -12.2402 -10.8582 -10.8523
    -9.8111  -9.6276  -9.5680  -9.1181  -8.9024  -8.2913  -8.0356  -7.9306
    -7.7546  -7.4823  -7.0625  -6.9407  -6.6304  -6.4207  -6.3729  -6.0996
    -6.0788  -5.9753  -5.8409  -5.8197  -5.7397  -5.4437  -5.3429  -5.1342
    -4.9749  -4.7712  -4.7569  -4.5916  -4.5745  -4.3032  -4.2550  -4.0090
    -4.0017  -3.9866  -3.8625  -3.7248  -3.6709  -3.6562  -3.6201  -3.6129
    -3.6085  -3.6044  -3.6002  -3.5692  -3.5272  -3.3936  -3.3701  -3.3033
    -3.2531  -3.2175  -3.1613  -3.1396  -3.1291  -2.9593  -2.9379  -2.9330
    -2.8987  -2.8021  -2.7973  -2.7920  -2.7568  -2.7546  -2.7526  -2.7502
    -2.7453  -2.6921  -2.6285  -2.6275  -2.6170  -2.6151  -2.5606  -2.4995
    -2.4909  -2.4485  -2.3806  -2.3665  -2.3482  -2.3423  -2.3319  -2.3175
    -2.2831  -2.2777  -2.2580  -2.2562  -2.2411  -2.2223  -2.2128  -2.1801
    -2.1732  -2.1690  -2.1557  -2.1417  -2.1348  -2.1209  -2.1159  -2.1002
    -2.0780  -2.0521  -2.0472  -2.0185  -1.9932  -1.9861  -1.9566  -1.9355
    -1.9049  -1.8836  -1.8747  -1.8623  -1.8528  -1.8383  -1.8168  -1.8151
    -1.7977  -1.7910  -1.7829  -1.7709  -1.7660  -1.7050  -1.6708  -1.6618
    -1.6563  -1.6480  -1.6394  -1.6378  -1.6348  -1.6324  -1.6314  -1.6293
    -1.6201  -1.6112  -1.6091  -1.6058  -1.5981  -1.5894  -1.5650  -1.5543
    -1.5442  -1.5415  -1.5363  -1.5257  -1.5236  -1.5201  -1.4778  -1.4718
    -1.4660  -1.4657  -1.4635  -1.4607  -1.4591  -1.4542  -1.4526  -1.4508
    -1.4497  -1.4484  -1.4453  -1.4428  -1.4422  -1.4352  -1.4283  -1.3849
    -1.3578  -1.2995  -1.2932  -1.2903  -1.2880  -1.2869  -1.2724  -1.2477
    -1.2460  -1.2338  -1.2259  -1.2217  -1.2106  -1.2099  -1.2043  -1.1970
    -1.1834  -1.1715  -1.1681  -1.1651  -1.1623  -1.1616  -1.1593  -1.1533
    -1.1473  -1.1013  -1.0945  -1.0548  -1.0468  -1.0446  -1.0396  -1.0374
    -1.0359  -1.0311  -1.0281  -1.0180  -1.0135  -1.0100  -1.0087  -1.0079
    -1.0067  -1.0034  -1.0000  -0.9907  -0.9901  -0.9889  -0.9850  -0.9698
    -0.9571  -0.9518  -0.9467  -0.9181  -0.9141  -0.8983  -0.8968  -0.8947
    -0.8778  -0.8759  -0.8724  -0.8668  -0.8657  -0.8607  -0.8557  -0.8506
    -0.8473  -0.8435  -0.8343  -0.8309  -0.8283  -0.8276  -0.8251  -0.8207
    -0.8186  -0.8177  -0.8149  -0.8043  -0.8019  -0.7971  -0.7932  -0.7888
    -0.7841  -0.7579  -0.7496  -0.7335  -0.7280  -0.7260  -0.7233  -0.6994
    -0.6922  -0.6888  -0.6809  -0.6769  -0.6731  -0.6676  -0.6672  -0.6641
    -0.6569  -0.6507  -0.6391  -0.6242  -0.6230  -0.6191  -0.6165  -0.6109
    -0.5952  -0.5913  -0.5846  -0.5799  -0.5783  -0.5737  -0.5670  -0.5637
    -0.5601  -0.5585  -0.5570  -0.5569  -0.5468  -0.5453  -0.5449  -0.5415
    -0.5327  -0.5241  -0.5176  -0.5104  -0.5056  -0.4944  -0.4742  -0.4702
    -0.4470  -0.4415  -0.4348  -0.4174  -0.4122  -0.3976  -0.3807  -0.3776
    -0.3739  -0.3700  -0.3605  -0.3518  -0.3495  -0.3453  -0.3404  -0.3365
    -0.3324  -0.3233  -0.3180  -0.3146  -0.2883  -0.2734  -0.2688  -0.2659
    -0.2640  -0.2576  -0.2539  -0.2484  -0.2396  -0.2340  -0.2271  -0.2199
    -0.2124  -0.2042  -0.1882  -0.1802  -0.1748  -0.1736  -0.1680  -0.1616
    -0.1515  -0.1353  -0.1318  -0.1232  -0.1204  -0.1190  -0.1094  -0.1034
    -0.0993  -0.0985  -0.0930  -0.0902  -0.0799  -0.0792  -0.0760  -0.0755
    -0.0688  -0.0658  -0.0624  -0.0619  -0.0571  -0.0531  -0.0511  -0.0462
    -0.0393  -0.0383  -0.0223  -0.0080  -0.0067  -0.0037  -0.0012   0.0044
     0.0120   0.0242   0.0274   0.0348   0.0374   0.0433   0.0445   0.0469
     0.0497   0.0555   0.0622   0.0670   0.0699   0.0727   0.0784   0.0787
     0.0813   0.0830   0.0886   0.0954   0.1028   0.1160   0.1178   0.1214
     0.1232   0.1275   0.1313   0.1404   0.1412   0.1416   0.1447   0.1508
     0.1534   0.1544   0.1619   0.1918   0.1985   0.2005   0.2028   0.2052
     0.2094   0.2155   0.2234   0.2300   0.2423   0.2494   0.2564   0.2585
     0.2678   0.2690   0.2784   0.2826   0.2854   0.2884   0.2930   0.2941
     0.3038   0.3086   0.3149   0.3192   0.3235   0.3236   0.3308   0.3364
     0.3454   0.3464   0.3541   0.3680   0.3705   0.3753   0.3789   0.3805
     0.3869   0.3913   0.3956   0.3997   0.4019   0.4047   0.4092   0.4127
     0.4137   0.4198   0.4212   0.4238   0.4282   0.4350   0.4380   0.4430
     0.4476   0.4543   0.4639   0.4651   0.4737   0.4747   0.4829   0.4900
     0.4938   0.4972   0.4994   0.5022   0.5063   0.5088   0.5111   0.5147
     0.5187   0.5255   0.5263   0.5302   0.5358   0.5431   0.5613   0.5665
     0.5796   0.5826   0.5886   0.5927   0.5956   0.5975   0.5979   0.6030
     0.6059   0.6130   0.6168   0.6213   0.6233   0.6252   0.6290   0.6308
     0.6426   0.6440   0.6477   0.6491   0.6530   0.6590   0.6603   0.6682
     0.6689   0.6716   0.6727   0.6743   0.6762   0.6822   0.6866   0.6915
     0.6938   0.6985   0.7009   0.7011   0.7036   0.7053   0.7083   0.7113
     0.7148   0.7354   0.7393   0.7399   0.7415   0.7452   0.7539   0.7590
     0.7595   0.7712   0.7723   0.7792   0.7834   0.7840   0.7958   0.7973
     0.8008   0.8031   0.8068   0.8089   0.8159   0.8179   0.8200   0.8220
     0.8244   0.8295   0.8334   0.8350   0.8409   0.8426   0.8463   0.8475
     0.8569   0.8589   0.8621   0.8666   0.8710   0.8742   0.8757   0.8852
     0.8974   0.9101   0.9139   0.9203   0.9442   0.9491   0.9518   0.9574
     0.9664   0.9745   0.9836   0.9935   1.0022   1.0126   1.0175   1.0202
     1.0327   1.0369   1.0389   1.0405   1.0592   1.0701   1.2775   1.3482
     1.4262   1.4743   1.4837   1.5338   1.5707   1.5892   1.6012   1.6026
     1.6062   1.6113   1.6219   1.6358   1.6802   1.7351   1.8052   1.8471
     1.8532   1.8648   1.8756   1.9018   1.9195   1.9609   2.1095   2.1368
     2.1758   2.1991   2.5870   2.8266   2.9191   2.9927   3.0260   3.1960
     3.2077   3.2413   3.2580   3.2670   3.2866   3.3233   3.3381   3.3720
     3.3845   3.3986   3.4089   3.4158   3.4699   3.5066   3.5741   3.6299
     3.6467   3.7135   3.7996   3.9277   4.1553   4.2990   4.3495   4.5102
     4.6985   4.7014   4.8416   5.0556   5.0914   5.1220   5.2385   5.2797
     5.3354   5.3505   5.5843   5.6715   5.7199   5.7340   5.8220   5.8580
     5.8831   5.9008   5.9431   6.0884   6.0977   6.1366   6.1485   6.1821
     6.3015   6.3058   6.4200   6.4670   6.5017   6.5367   6.5761   6.7393
     6.7730   6.8886   6.9493   7.0067   7.0683   7.1066   7.1269   7.1639
     7.1951   7.2125   7.4432   7.4891   7.5027   7.5649   7.6193   7.6287
     7.7266   7.7374   7.7490   7.7968   7.8191   7.8258   7.8589   7.9362
     7.9679   7.9840   8.0457   8.0864   8.1261   8.1629   8.2035   8.2259
     8.2420   8.2670   8.2847   8.2916   8.3265   8.3704   8.3931   8.4382
     8.4755   8.5351   8.5878   8.6182   8.6835   8.7252   8.7654   8.8064
     8.9535   8.9883   9.1216   9.1691   9.1984   9.2235   9.2702   9.3345
     9.3801   9.4255   9.4408

          k = 0.0000-0.2165 0.0000 (256176 PWs)   bands (ev):

   -20.2222 -16.7540 -16.2024 -15.2761 -14.8439 -14.8244 -14.3505 -14.3179
   -13.9860 -13.4697 -13.4226 -12.5223 -12.2599 -12.2402 -10.8582 -10.8523
    -9.8111  -9.6276  -9.5680  -9.1181  -8.9024  -8.2913  -8.0356  -7.9309
    -7.7547  -7.4823  -7.0625  -6.9409  -6.5199  -6.4820  -6.4180  -6.3452
    -5.9768  -5.8466  -5.8236  -5.7440  -5.5048  -5.4396  -5.4187  -5.3186
    -5.1911  -4.9341  -4.7607  -4.5352  -4.3514  -4.2899  -4.1349  -3.9869
    -3.9155  -3.9079  -3.8881  -3.8826  -3.7828  -3.6777  -3.6655  -3.6559
    -3.6249  -3.6187  -3.6021  -3.5305  -3.3868  -3.3542  -3.2051  -3.1916
    -3.1826  -3.1751  -3.1719  -3.1619  -3.1432  -3.1270  -3.0637  -3.0233
    -2.8621  -2.8410  -2.8344  -2.8147  -2.7795  -2.7606  -2.7496  -2.7353
    -2.7304  -2.7002  -2.6814  -2.5887  -2.5880  -2.5637  -2.5630  -2.5130
    -2.4964  -2.4554  -2.4334  -2.3767  -2.3716  -2.3601  -2.3541  -2.3439
    -2.3429  -2.3307  -2.3157  -2.2975  -2.2887  -2.2590  -2.2501  -2.2407
    -2.2264  -2.1895  -2.0903  -2.0699  -2.0573  -2.0552  -2.0472  -1.9895
    -1.9786  -1.9728  -1.9605  -1.9247  -1.9166  -1.8996  -1.8875  -1.8860
    -1.8797  -1.8793  -1.8756  -1.8676  -1.8658  -1.8454  -1.8342  -1.8289
    -1.8208  -1.8194  -1.8133  -1.8061  -1.7804  -1.7674  -1.7583  -1.7390
    -1.7279  -1.6937  -1.6916  -1.6900  -1.6585  -1.6551  -1.6504  -1.6503
    -1.6287  -1.6057  -1.6027  -1.5940  -1.5893  -1.5822  -1.5775  -1.5743
    -1.5449  -1.5382  -1.5272  -1.5250  -1.5233  -1.5193  -1.5162  -1.5136
    -1.5078  -1.4933  -1.4868  -1.4497  -1.4384  -1.4326  -1.4308  -1.4267
    -1.4175  -1.4082  -1.4042  -1.3994  -1.3951  -1.3756  -1.3614  -1.3602
    -1.3571  -1.3493  -1.3216  -1.2735  -1.2697  -1.2472  -1.2451  -1.2381
    -1.2363  -1.2291  -1.2194  -1.2102  -1.2066  -1.2060  -1.2059  -1.2029
    -1.1881  -1.1826  -1.1609  -1.1591  -1.1517  -1.1495  -1.1423  -1.1402
    -1.1390  -1.1375  -1.1113  -1.1025  -1.0918  -1.0881  -1.0878  -1.0682
    -1.0634  -1.0603  -1.0566  -1.0543  -1.0524  -1.0430  -1.0339  -1.0208
    -1.0127  -0.9962  -0.9789  -0.9783  -0.9608  -0.9523  -0.9492  -0.9470
    -0.9343  -0.9288  -0.9131  -0.9092  -0.9076  -0.9031  -0.8987  -0.8976
    -0.8886  -0.8874  -0.8681  -0.8651  -0.8621  -0.8600  -0.8574  -0.8541
    -0.8529  -0.8510  -0.8493  -0.8425  -0.8401  -0.8247  -0.8171  -0.8142
    -0.8126  -0.8075  -0.8066  -0.7902  -0.7637  -0.7522  -0.7487  -0.7450
    -0.7441  -0.7408  -0.7372  -0.7339  -0.7190  -0.7163  -0.7134  -0.7109
    -0.7013  -0.6947  -0.6920  -0.6893  -0.6881  -0.6862  -0.6851  -0.6737
    -0.6707  -0.6427  -0.6355  -0.6328  -0.6292  -0.6284  -0.6197  -0.6057
    -0.6030  -0.6000  -0.5934  -0.5830  -0.5812  -0.5803  -0.5786  -0.5763
    -0.5748  -0.5573  -0.5461  -0.5402  -0.5340  -0.5315  -0.5297  -0.5217
    -0.5133  -0.5103  -0.5072  -0.4963  -0.4930  -0.4905  -0.4807  -0.4788
    -0.4753  -0.4706  -0.4421  -0.4363  -0.4275  -0.4230  -0.4191  -0.4101
    -0.4047  -0.4021  -0.3946  -0.3866  -0.3784  -0.3602  -0.3409  -0.3393
    -0.3358  -0.3258  -0.3210  -0.2865  -0.2815  -0.2605  -0.2458  -0.2304
    -0.2282  -0.2263  -0.2199  -0.2144  -0.2084  -0.2001  -0.1908  -0.1879
    -0.1779  -0.1774  -0.1732  -0.1685  -0.1599  -0.1547  -0.1493  -0.1448
    -0.1424  -0.1380  -0.1363  -0.1320  -0.1297  -0.1261  -0.1195  -0.1094
    -0.1062  -0.1003  -0.0892  -0.0874  -0.0856  -0.0816  -0.0796  -0.0751
    -0.0721  -0.0719  -0.0635  -0.0594  -0.0534  -0.0513  -0.0502  -0.0436
    -0.0415  -0.0386  -0.0328  -0.0285  -0.0268  -0.0232  -0.0198  -0.0180
    -0.0166  -0.0118  -0.0005   0.0168   0.0261   0.0326   0.0376   0.0442
     0.0467   0.0488   0.0494   0.0575   0.0608   0.0619   0.0694   0.0727
     0.0743   0.0757   0.0772   0.0796   0.0935   0.1023   0.1126   0.1160
     0.1189   0.1216   0.1292   0.1354   0.1376   0.1481   0.1514   0.1567
     0.1600   0.1659   0.1676   0.1733   0.1792   0.1816   0.2026   0.2237
     0.2278   0.2630   0.2662   0.2758   0.2787   0.2805   0.2811   0.2872
     0.2893   0.2944   0.2974   0.2995   0.3040   0.3073   0.3097   0.3148
     0.3164   0.3202   0.3268   0.3288   0.3305   0.3344   0.3390   0.3437
     0.3483   0.3494   0.3517   0.3563   0.3584   0.3590   0.3594   0.3656
     0.3695   0.3729   0.3762   0.3797   0.3819   0.3829   0.3880   0.3893
     0.3913   0.3997   0.4020   0.4047   0.4128   0.4159   0.4217   0.4234
     0.4250   0.4260   0.4307   0.4323   0.4357   0.4406   0.4437   0.4724
     0.4734   0.4869   0.5153   0.5191   0.5207   0.5213   0.5331   0.5346
     0.5439   0.5470   0.5590   0.5602   0.5620   0.5688   0.5713   0.5716
     0.5745   0.5795   0.5851   0.5902   0.5908   0.5933   0.5953   0.5985
     0.5992   0.6004   0.6019   0.6049   0.6073   0.6183   0.6204   0.6225
     0.6267   0.6284   0.6318   0.6343   0.6451   0.6517   0.6548   0.6563
     0.6583   0.6618   0.6653   0.6669   0.6721   0.6793   0.6862   0.6891
     0.6921   0.6956   0.6981   0.7016   0.7037   0.7061   0.7126   0.7180
     0.7205   0.7290   0.7294   0.7406   0.7441   0.7468   0.7555   0.7583
     0.7692   0.7722   0.7738   0.7761   0.7776   0.7833   0.7838   0.7885
     0.7902   0.7951   0.8020   0.8048   0.8118   0.8205   0.8220   0.8303
     0.8358   0.8389   0.8398   0.8412   0.8418   0.8437   0.8453   0.8658
     0.8688   0.8719   0.8792   0.8805   0.8845   0.8973   0.9018   0.9057
     0.9104   0.9151   0.9164   0.9204   0.9238   0.9281   0.9354   0.9460
     0.9875   0.9915   1.0016   1.0176   1.0587   1.0959   1.1278   1.1334
     1.1363   1.1439   1.1568   1.1645   1.1750   1.1868   1.1910   1.1970
     1.2080   1.2121   1.2183   1.2408   1.2492   1.2726   1.6034   1.6318
     1.7896   1.8357   1.8422   1.8499   1.8868   1.8944   1.9564   1.9734
     1.9841   1.9972   2.0132   2.0748   2.0937   2.1094   2.1228   2.1605
     2.2096   2.2326   2.3114   2.3193   2.5607   2.5628   2.5637   2.6302
     2.8155   2.8812   2.9912   3.0603   3.0733   3.1035   3.4416   3.5027
     3.5397   3.5536   3.7458   3.7477   3.7609   3.7654   3.7812   3.8533
     4.0227   4.1580   4.2101   4.2801   4.4587   4.4731   4.4771   4.5120
     4.5917   4.6594   4.7427   4.7583   4.7841   4.7979   4.8584   4.9624
     5.1283   5.5957   5.6380   5.6900   5.7613   5.7912   5.8391   5.9144
     5.9637   5.9707   6.0100   6.0676   6.0747   6.1408   6.2105   6.3073
     6.3219   6.4236   6.4420   6.4957   6.5211   6.5383   6.5463   6.5544
     6.5701   6.6356   6.7666   6.8367   6.8657   6.8891   6.9832   7.0379
     7.1092   7.1169   7.2353   7.2822   7.5090   7.5212   7.6684   7.7402
     7.7571   7.7821   7.8368   7.8891   7.9173   7.9371   7.9856   8.0291
     8.0787   8.0924   8.1014   8.1064   8.1679   8.1785   8.2123   8.2751
     8.3105   8.3321   8.3761   8.4253   8.4370   8.6405   8.6881   8.7221
     8.7457   8.7944   8.8023   8.8077   8.8177   8.8417   8.8533   8.8731
     8.9070   8.9221   9.0203   9.0552   9.1101   9.1767   9.1883   9.2301
     9.2793   9.2838   9.3215

          k = 0.2500 0.0000 0.0000 (256240 PWs)   bands (ev):

   -20.2216 -16.6338 -16.0877 -15.6695 -15.1916 -15.1075 -14.2479 -13.9135
   -13.7557 -13.2914 -13.0163 -12.4878 -12.3766 -11.5929 -11.4217 -10.9381
   -10.4734  -9.8971  -9.7064  -9.5891  -9.1283  -8.5954  -7.8624  -7.7590
    -7.4568  -7.1586  -6.9442  -6.6661  -6.4542  -6.3199  -6.0460  -5.9310
    -5.9006  -5.7835  -5.6681  -5.5300  -5.3289  -5.2820  -5.0615  -4.9912
    -4.8490  -4.7994  -4.7064  -4.6585  -4.5984  -4.5752  -4.4442  -4.4305
    -4.3797  -4.2630  -4.2130  -4.1954  -4.0890  -3.9614  -3.8313  -3.7976
    -3.7782  -3.6670  -3.6346  -3.5889  -3.5485  -3.5150  -3.4740  -3.4001
    -3.3968  -3.3119  -3.2357  -3.1955  -3.1842  -3.0250  -2.9975  -2.9226
    -2.8887  -2.8124  -2.7059  -2.7002  -2.6851  -2.6817  -2.6478  -2.5444
    -2.5162  -2.4910  -2.4515  -2.4308  -2.4130  -2.4055  -2.4036  -2.3977
    -2.3928  -2.3795  -2.3755  -2.3537  -2.3495  -2.3226  -2.2841  -2.2591
    -2.2446  -2.2389  -2.2144  -2.2109  -2.1860  -2.1827  -2.1811  -2.1787
    -2.1681  -2.1550  -2.1458  -2.1098  -2.1058  -2.1016  -2.0964  -2.0774
    -1.9763  -1.9561  -1.9394  -1.9288  -1.9175  -1.8961  -1.8614  -1.8537
    -1.8504  -1.8447  -1.8414  -1.8344  -1.8153  -1.8060  -1.7892  -1.7886
    -1.7834  -1.7786  -1.7675  -1.7485  -1.7428  -1.7402  -1.7351  -1.7272
    -1.7186  -1.7148  -1.7081  -1.6988  -1.6774  -1.6679  -1.6568  -1.6507
    -1.6338  -1.6279  -1.6209  -1.6160  -1.6136  -1.6094  -1.6071  -1.5989
    -1.5930  -1.5908  -1.5878  -1.5839  -1.5807  -1.5779  -1.5758  -1.5709
    -1.5656  -1.5510  -1.5437  -1.5309  -1.5108  -1.5062  -1.4956  -1.4607
    -1.4572  -1.4195  -1.4174  -1.4145  -1.4023  -1.3983  -1.3894  -1.3792
    -1.3732  -1.3663  -1.3566  -1.3551  -1.3523  -1.3449  -1.3348  -1.3327
    -1.3218  -1.2381  -1.2177  -1.2069  -1.2006  -1.1920  -1.1798  -1.1750
    -1.1737  -1.1666  -1.1590  -1.1561  -1.1540  -1.1492  -1.1421  -1.1370
    -1.1348  -1.1304  -1.1001  -1.0968  -1.0956  -1.0906  -1.0892  -1.0820
    -1.0681  -1.0669  -1.0667  -1.0602  -1.0424  -1.0104  -1.0080  -1.0051
    -0.9984  -0.9976  -0.9919  -0.9885  -0.9844  -0.9725  -0.9644  -0.9602
    -0.9497  -0.9424  -0.9399  -0.9285  -0.9059  -0.9022  -0.9004  -0.8962
    -0.8914  -0.8870  -0.8797  -0.8763  -0.8698  -0.8604  -0.8551  -0.8515
    -0.8416  -0.8342  -0.8292  -0.8177  -0.8076  -0.8062  -0.8014  -0.7959
    -0.7918  -0.7861  -0.7844  -0.7674  -0.7611  -0.7581  -0.7507  -0.7416
    -0.7337  -0.7236  -0.7205  -0.7069  -0.7033  -0.6960  -0.6778  -0.6762
    -0.6719  -0.6698  -0.6566  -0.6443  -0.6413  -0.6321  -0.6266  -0.6219
    -0.6187  -0.6166  -0.6121  -0.6066  -0.6040  -0.6002  -0.5995  -0.5945
    -0.5933  -0.5906  -0.5822  -0.5756  -0.5734  -0.5695  -0.5653  -0.5592
    -0.5533  -0.5431  -0.5385  -0.5295  -0.5215  -0.5189  -0.5064  -0.4980
    -0.4946  -0.4902  -0.4835  -0.4798  -0.4721  -0.4680  -0.4651  -0.4622
    -0.4599  -0.4363  -0.4262  -0.4103  -0.3890  -0.3687  -0.3595  -0.3557
    -0.3538  -0.3504  -0.3433  -0.3401  -0.3355  -0.3313  -0.3273  -0.3215
    -0.3179  -0.3165  -0.3133  -0.3088  -0.3068  -0.3024  -0.3014  -0.2945
    -0.2921  -0.2840  -0.2786  -0.2733  -0.2723  -0.2661  -0.2622  -0.2551
    -0.2490  -0.2415  -0.2265  -0.2033  -0.2000  -0.1949  -0.1866  -0.1795
    -0.1741  -0.1703  -0.1658  -0.1611  -0.1499  -0.1405  -0.1345  -0.1318
    -0.1283  -0.1259  -0.1199  -0.1177  -0.1145  -0.1085  -0.1027  -0.0998
    -0.0952  -0.0899  -0.0865  -0.0821  -0.0759  -0.0693  -0.0625  -0.0602
    -0.0539  -0.0492  -0.0450  -0.0377  -0.0318  -0.0259  -0.0224  -0.0203
    -0.0157  -0.0099  -0.0063  -0.0041  -0.0012   0.0008   0.0109   0.0144
     0.0251   0.0292   0.0352   0.0414   0.0493   0.0521   0.0566   0.0574
     0.0665   0.0693   0.0755   0.0912   0.1036   0.1122   0.1185   0.1307
     0.1318   0.1351   0.1377   0.1481   0.1545   0.1570   0.1624   0.1645
     0.1690   0.1716   0.1729   0.1820   0.1863   0.1973   0.2061   0.2088
     0.2142   0.2190   0.2231   0.2364   0.2409   0.2480   0.2514   0.2560
     0.2682   0.2726   0.2733   0.2793   0.2830   0.2855   0.2867   0.2901
     0.2935   0.2986   0.3091   0.3233   0.3285   0.3363   0.3434   0.3510
     0.3528   0.3566   0.3664   0.3703   0.3768   0.3794   0.3811   0.3842
     0.3874   0.3906   0.3962   0.3988   0.4013   0.4031   0.4073   0.4103
     0.4112   0.4138   0.4189   0.4234   0.4240   0.4271   0.4287   0.4317
     0.4384   0.4480   0.4523   0.4569   0.4597   0.4619   0.4634   0.4701
     0.4740   0.4801   0.4816   0.4918   0.4938   0.4956   0.5010   0.5034
     0.5058   0.5132   0.5183   0.5195   0.5246   0.5285   0.5363   0.5416
     0.5432   0.5483   0.5537   0.5652   0.5721   0.5793   0.5824   0.5873
     0.5930   0.6014   0.6081   0.6136   0.6246   0.6259   0.6330   0.6375
     0.6427   0.6477   0.6498   0.6528   0.6564   0.6598   0.6650   0.6685
     0.6730   0.6750   0.6798   0.6828   0.6860   0.6873   0.6900   0.6927
     0.6960   0.6985   0.7014   0.7044   0.7087   0.7146   0.7172   0.7212
     0.7239   0.7315   0.7366   0.7402   0.7445   0.7508   0.7523   0.7549
     0.7602   0.7672   0.7723   0.7736   0.7770   0.7841   0.7873   0.7919
     0.7954   0.8011   0.8069   0.8092   0.8119   0.8159   0.8173   0.8192
     0.8219   0.8250   0.8259   0.8301   0.8331   0.8353   0.8451   0.8494
     0.8541   0.8591   0.8624   0.8643   0.8684   0.8726   0.8748   0.8781
     0.8823   0.8849   0.8962   0.9000   0.9034   0.9082   0.9147   0.9227
     0.9368   0.9443   0.9539   0.9709   0.9879   1.0087   1.0128   1.0137
     1.0247   1.0525   1.0710   1.1088   1.1456   1.1518   1.1668   1.1730
     1.2078   1.2157   1.2286   1.4209   1.4311   1.4622   1.4707   1.4935
     1.5240   1.5939   1.6310   1.7092   1.9129   1.9360   1.9574   1.9777
     2.0846   2.2545   2.3666   2.3734   2.4517   2.5797   2.5892   2.6105
     2.6113   2.6527   2.7762   2.8265   2.8792   2.9623   3.0289   3.0479
     3.0818   3.0923   3.1062   3.1416   3.1702   3.2160   3.2507   3.2731
     3.3735   3.4097   3.5358   3.6391   3.6803   3.7496   3.8182   3.9586
     4.1820   4.2154   4.2387   4.4083   4.4683   4.5291   4.6272   4.6442
     4.6882   4.7670   4.8611   4.8898   4.9147   4.9239   4.9574   4.9824
     5.0857   5.1532   5.1729   5.2302   5.2803   5.3186   5.3943   5.4093
     5.4178   5.4510   5.5555   5.6000   6.0451   6.0851   6.1037   6.1414
     6.1820   6.1975   6.3519   6.3921   6.4230   6.4431   6.4541   6.4636
     6.4964   6.5573   6.6751   6.7859   6.8018   6.8548   6.9482   6.9773
     7.0183   7.0816   7.1691   7.2307   7.3103   7.3395   7.3758   7.4375
     7.4648   7.4845   7.5789   7.5970   7.6737   7.6885   7.7126   7.7825
     7.8227   7.8695   7.9217   7.9573   8.0294   8.0438   8.1819   8.2848
     8.3438   8.3988   8.4291   8.4540   8.4648   8.5178   8.5403   8.5659
     8.5834   8.6271   8.6690   8.6930   8.7276   8.7575   8.8019   8.8474
     8.8622   8.8919   8.9148   8.9885   9.0807   9.1102   9.1257   9.1758
     9.2585   9.3057   9.3557

          k = 0.2500-0.2165 0.0000 (256316 PWs)   bands (ev):

   -20.2216 -16.6338 -16.0877 -15.6695 -15.1916 -15.1075 -14.2479 -13.9135
   -13.7557 -13.2914 -13.0163 -12.4878 -12.3766 -11.5929 -11.4217 -10.9381
   -10.4734  -9.8971  -9.7063  -9.5891  -9.1282  -8.5954  -7.8628  -7.7590
    -7.4569  -7.1585  -6.9439  -6.6662  -6.3682  -6.3120  -6.2686  -6.0308
    -5.7876  -5.6909  -5.5352  -5.3450  -5.3013  -5.2669  -5.2282  -5.0926
    -4.9526  -4.9290  -4.8230  -4.7806  -4.6954  -4.4327  -4.3777  -4.2597
    -4.2148  -4.2023  -4.1453  -4.0763  -4.0567  -4.0089  -3.9522  -3.9056
    -3.7804  -3.6859  -3.6480  -3.5616  -3.5471  -3.5160  -3.5058  -3.4937
    -3.4403  -3.3227  -3.2433  -3.1982  -3.0224  -2.9241  -2.9038  -2.8370
    -2.7935  -2.7803  -2.7711  -2.7699  -2.7659  -2.6859  -2.6159  -2.6109
    -2.6056  -2.5771  -2.5328  -2.4703  -2.4293  -2.4180  -2.4130  -2.3970
    -2.3669  -2.3426  -2.3265  -2.3206  -2.3165  -2.3085  -2.3057  -2.2930
    -2.2872  -2.2808  -2.2763  -2.2734  -2.2706  -2.2666  -2.2342  -2.1919
    -2.1770  -2.1735  -2.0811  -2.0721  -2.0442  -1.9936  -1.9382  -1.9332
    -1.9265  -1.8912  -1.8850  -1.8804  -1.8729  -1.8679  -1.8665  -1.8574
    -1.8527  -1.8495  -1.8383  -1.8319  -1.8312  -1.8284  -1.8221  -1.8140
    -1.8074  -1.8030  -1.7990  -1.7864  -1.7828  -1.7770  -1.7544  -1.7399
    -1.7324  -1.7253  -1.7178  -1.7161  -1.7148  -1.7026  -1.6783  -1.6716
    -1.6504  -1.6460  -1.6418  -1.6350  -1.6294  -1.6222  -1.6075  -1.6013
    -1.6004  -1.5854  -1.5720  -1.5686  -1.5650  -1.5612  -1.5578  -1.5536
    -1.5445  -1.5359  -1.5326  -1.5193  -1.5089  -1.4872  -1.4829  -1.4676
    -1.4650  -1.4586  -1.3973  -1.3960  -1.3885  -1.3789  -1.3752  -1.3703
    -1.3636  -1.3365  -1.3284  -1.3255  -1.3207  -1.3167  -1.3134  -1.3070
    -1.3023  -1.2883  -1.2562  -1.2506  -1.2276  -1.2206  -1.2162  -1.1979
    -1.1793  -1.1774  -1.1703  -1.1678  -1.1644  -1.1451  -1.1417  -1.1392
    -1.1198  -1.1140  -1.1110  -1.1071  -1.0999  -1.0947  -1.0819  -1.0668
    -1.0623  -1.0545  -1.0405  -1.0359  -1.0253  -1.0203  -1.0186  -1.0075
    -0.9989  -0.9966  -0.9913  -0.9793  -0.9751  -0.9704  -0.9695  -0.9672
    -0.9625  -0.9607  -0.9525  -0.9466  -0.9330  -0.9280  -0.9237  -0.9223
    -0.9060  -0.8952  -0.8850  -0.8768  -0.8683  -0.8611  -0.8552  -0.8479
    -0.8459  -0.8358  -0.8296  -0.8276  -0.8232  -0.8126  -0.8071  -0.7975
    -0.7734  -0.7653  -0.7581  -0.7333  -0.7264  -0.7187  -0.7169  -0.7140
    -0.7120  -0.7061  -0.7007  -0.6929  -0.6811  -0.6796  -0.6759  -0.6705
    -0.6658  -0.6589  -0.6536  -0.6497  -0.6438  -0.6396  -0.6316  -0.6266
    -0.6210  -0.6171  -0.6136  -0.6123  -0.6109  -0.6079  -0.6023  -0.5993
    -0.5968  -0.5938  -0.5882  -0.5827  -0.5789  -0.5774  -0.5746  -0.5606
    -0.5521  -0.5424  -0.5387  -0.5337  -0.5278  -0.5211  -0.5143  -0.5042
    -0.4927  -0.4824  -0.4754  -0.4710  -0.4653  -0.4598  -0.4580  -0.4564
    -0.4441  -0.4414  -0.4353  -0.4323  -0.4257  -0.4153  -0.4101  -0.3988
    -0.3649  -0.3471  -0.3446  -0.3374  -0.3332  -0.3309  -0.3289  -0.3243
    -0.3185  -0.3160  -0.3074  -0.3026  -0.2988  -0.2956  -0.2940  -0.2861
    -0.2816  -0.2768  -0.2736  -0.2696  -0.2591  -0.2515  -0.2443  -0.2408
    -0.2320  -0.2304  -0.2267  -0.2193  -0.2144  -0.2065  -0.2014  -0.1878
    -0.1816  -0.1690  -0.1658  -0.1613  -0.1545  -0.1503  -0.1440  -0.1386
    -0.1334  -0.1309  -0.1261  -0.1223  -0.1190  -0.1165  -0.1096  -0.0994
    -0.0953  -0.0889  -0.0798  -0.0747  -0.0632  -0.0456  -0.0424  -0.0375
    -0.0346  -0.0204  -0.0169  -0.0141  -0.0073  -0.0043  -0.0021   0.0044
     0.0080   0.0096   0.0129   0.0174   0.0284   0.0347   0.0378   0.0421
     0.0471   0.0499   0.0554   0.0603   0.0622   0.0641   0.0657   0.0693
     0.0760   0.0781   0.0808   0.0851   0.0883   0.0900   0.0952   0.0990
     0.1007   0.1043   0.1093   0.1114   0.1159   0.1191   0.1322   0.1451
     0.1484   0.1544   0.1585   0.1679   0.1757   0.1912   0.2003   0.2120
     0.2146   0.2150   0.2183   0.2200   0.2220   0.2313   0.2403   0.2437
     0.2451   0.2464   0.2474   0.2490   0.2552   0.2667   0.2693   0.2740
     0.2784   0.2867   0.2906   0.2925   0.3067   0.3130   0.3178   0.3196
     0.3258   0.3273   0.3397   0.3438   0.3460   0.3550   0.3582   0.3614
     0.3748   0.3762   0.3879   0.3893   0.3971   0.4012   0.4029   0.4104
     0.4222   0.4277   0.4399   0.4430   0.4481   0.4607   0.4641   0.4731
     0.4746   0.4780   0.4794   0.4808   0.4826   0.4837   0.4848   0.4902
     0.4934   0.4954   0.4989   0.5066   0.5086   0.5147   0.5183   0.5221
     0.5334   0.5430   0.5501   0.5531   0.5548   0.5572   0.5601   0.5653
     0.5678   0.5712   0.5739   0.5754   0.5788   0.5847   0.5863   0.5893
     0.5944   0.5994   0.6009   0.6053   0.6100   0.6122   0.6140   0.6161
     0.6178   0.6206   0.6295   0.6347   0.6393   0.6467   0.6563   0.6597
     0.6630   0.6671   0.6698   0.6743   0.6810   0.6856   0.6890   0.6977
     0.6996   0.7020   0.7086   0.7161   0.7195   0.7216   0.7235   0.7265
     0.7299   0.7342   0.7363   0.7414   0.7440   0.7476   0.7511   0.7584
     0.7614   0.7667   0.7689   0.7717   0.7744   0.7765   0.7805   0.7837
     0.7841   0.7876   0.7890   0.7932   0.8011   0.8042   0.8082   0.8206
     0.8210   0.8253   0.8275   0.8284   0.8306   0.8321   0.8351   0.8380
     0.8419   0.8452   0.8479   0.8571   0.8663   0.8679   0.8723   0.8827
     0.8866   0.8920   0.8970   0.9043   0.9066   0.9151   0.9221   0.9366
     0.9404   0.9440   0.9495   0.9550   0.9774   0.9983   1.0256   1.0478
     1.0619   1.0747   1.1109   1.1423   1.1470   1.1537   1.1716   1.1817
     1.1851   1.2215   1.2582   1.2985   1.3212   1.5084   1.5177   1.5443
     1.5542   1.6711   1.7009   1.9053   1.9707   1.9778   2.1372   2.1454
     2.1767   2.1859   2.1968   2.2106   2.2354   2.2703   2.3502   2.3789
     2.4288   2.5070   2.5564   2.9342   2.9716   3.0135   3.0501   3.1193
     3.1752   3.2192   3.2389   3.2452   3.2804   3.3754   3.4138   3.4683
     3.4794   3.5525   3.5646   3.7587   3.7754   3.8110   3.8773   3.9366
     3.9802   4.0639   4.0864   4.1775   4.3573   4.4085   4.4613   4.5966
     4.6235   4.6957   4.7291   4.7761   4.8298   4.8459   4.8648   4.9050
     4.9395   5.1153   5.1568   5.2562   5.2706   5.2968   5.3907   5.4288
     5.5526   5.8963   5.9545   5.9991   6.0090   6.1187   6.1289   6.2702
     6.2848   6.3255   6.3421   6.3903   6.4532   6.5191   6.5250   6.5771
     6.5928   6.6392   6.6655   6.7314   6.7459   6.7835   6.8031   6.8480
     6.8780   6.9722   7.1117   7.1375   7.1985   7.2251   7.2893   7.4078
     7.4401   7.5113   7.5793   7.5914   7.6111   7.7249   7.9072   7.9514
     7.9827   7.9945   8.0490   8.0668   8.0767   8.1042   8.1169   8.1532
     8.2662   8.3104   8.3428   8.3726   8.4327   8.4917   8.5126   8.5399
     8.5811   8.6027   8.6309   8.6451   8.6581   8.6941   8.7050   8.7323
     8.7765   8.7991   8.8469   8.8688   8.9637   8.9977   9.0803   9.0975
     9.1892   9.2640   9.2772

          k =-0.5000 0.0000 0.0000 (256496 PWs)   bands (ev):

   -20.2210 -16.3018 -16.2438 -15.7695 -15.6952 -14.8511 -14.7727 -13.6005
   -13.5345 -12.6102 -12.4819 -12.1767 -12.1411 -12.0634 -11.9753 -11.2954
   -10.8680 -10.0773  -9.8072  -9.4652  -9.4137  -8.7755  -8.5919  -7.7116
    -7.6314  -6.6011  -6.2385  -5.9225  -5.9082  -5.8564  -5.8226  -5.7520
    -5.6161  -5.4603  -5.4079  -5.4048  -5.4011  -5.3552  -5.3412  -5.2388
    -4.9709  -4.9539  -4.8751  -4.8464  -4.5882  -4.5428  -4.5230  -4.4836
    -4.4589  -4.3833  -4.2845  -4.2443  -4.1605  -4.0425  -4.0226  -4.0210
    -4.0105  -4.0083  -3.9671  -3.9223  -3.7843  -3.7153  -3.4077  -3.3330
    -3.2803  -3.2544  -3.2464  -3.2337  -3.2213  -3.1516  -2.9918  -2.9276
    -2.9064  -2.8809  -2.8724  -2.8466  -2.8008  -2.6288  -2.4855  -2.4838
    -2.4836  -2.4798  -2.4777  -2.4736  -2.4263  -2.3795  -2.3529  -2.3301
    -2.2946  -2.2593  -2.2560  -2.2534  -2.2463  -2.2103  -2.2065  -2.2027
    -2.1983  -2.1678  -2.1112  -2.0949  -2.0943  -2.0787  -2.0551  -2.0337
    -2.0284  -2.0187  -2.0178  -2.0115  -1.9832  -1.9722  -1.9649  -1.9619
    -1.9576  -1.9540  -1.9484  -1.9470  -1.9444  -1.9203  -1.9040  -1.8998
    -1.8979  -1.8873  -1.8769  -1.8746  -1.8689  -1.8677  -1.8436  -1.8114
    -1.8089  -1.7958  -1.7911  -1.7878  -1.7863  -1.7774  -1.7634  -1.7557
    -1.7482  -1.7401  -1.7379  -1.7252  -1.7114  -1.7097  -1.7081  -1.7050
    -1.6972  -1.6905  -1.6838  -1.6644  -1.6598  -1.6484  -1.6337  -1.6197
    -1.6117  -1.5879  -1.5878  -1.5829  -1.5800  -1.5735  -1.5576  -1.5524
    -1.5468  -1.5405  -1.5398  -1.5388  -1.5331  -1.5279  -1.5222  -1.5158
    -1.5120  -1.5051  -1.4578  -1.4495  -1.4472  -1.4430  -1.4406  -1.4036
    -1.3966  -1.3501  -1.3183  -1.3159  -1.3124  -1.3122  -1.2857  -1.2815
    -1.2808  -1.2771  -1.2745  -1.2691  -1.2533  -1.2483  -1.2414  -1.2369
    -1.2298  -1.2208  -1.2144  -1.2105  -1.2066  -1.2010  -1.1829  -1.1767
    -1.1658  -1.1424  -1.0964  -1.0863  -1.0745  -1.0676  -1.0634  -1.0563
    -1.0454  -1.0401  -1.0360  -1.0309  -1.0180  -1.0130  -1.0098  -1.0065
    -0.9835  -0.9759  -0.9740  -0.9727  -0.9675  -0.9456  -0.9417  -0.9395
    -0.9381  -0.9369  -0.9199  -0.9106  -0.9045  -0.9017  -0.8999  -0.8959
    -0.8915  -0.8893  -0.8857  -0.8610  -0.8564  -0.8552  -0.8537  -0.8508
    -0.8382  -0.8267  -0.8103  -0.8063  -0.7649  -0.7512  -0.7467  -0.7453
    -0.7411  -0.7374  -0.7358  -0.7326  -0.7216  -0.7076  -0.6975  -0.6908
    -0.6766  -0.6634  -0.6567  -0.6511  -0.6401  -0.6376  -0.6349  -0.6336
    -0.6327  -0.6304  -0.6280  -0.6259  -0.6250  -0.6238  -0.6197  -0.6083
    -0.5734  -0.5625  -0.5584  -0.5513  -0.5497  -0.5438  -0.5404  -0.5380
    -0.5364  -0.5343  -0.5299  -0.5283  -0.5265  -0.5224  -0.5206  -0.5188
    -0.5105  -0.5102  -0.5071  -0.4982  -0.4959  -0.4943  -0.4890  -0.4883
    -0.4859  -0.4854  -0.4838  -0.4821  -0.4792  -0.4779  -0.4717  -0.4672
    -0.4630  -0.4567  -0.4553  -0.4535  -0.4519  -0.4441  -0.4332  -0.4266
    -0.4112  -0.4052  -0.3519  -0.3381  -0.3313  -0.3253  -0.3202  -0.3023
    -0.2967  -0.2932  -0.2919  -0.2848  -0.2837  -0.2796  -0.2773  -0.2754
    -0.2717  -0.2665  -0.2638  -0.2631  -0.2562  -0.2502  -0.2488  -0.2451
    -0.2435  -0.2409  -0.2353  -0.2289  -0.2258  -0.2251  -0.2234  -0.2214
    -0.2142  -0.2088  -0.2065  -0.2034  -0.1965  -0.1824  -0.1713  -0.1401
    -0.1362  -0.1225  -0.1199  -0.1125  -0.1104  -0.1024  -0.0981  -0.0939
    -0.0878  -0.0866  -0.0820  -0.0809  -0.0797  -0.0766  -0.0738  -0.0718
    -0.0669  -0.0662  -0.0642  -0.0613  -0.0597  -0.0510  -0.0462  -0.0419
    -0.0385  -0.0315  -0.0257  -0.0143  -0.0105  -0.0017   0.0036   0.0092
     0.0155   0.0197   0.0217   0.0247   0.0281   0.0297   0.0356   0.0378
     0.0395   0.0420   0.0461   0.0529   0.0541   0.0588   0.0643   0.0707
     0.0825   0.0909   0.0931   0.0976   0.1007   0.1061   0.1097   0.1144
     0.1179   0.1226   0.1346   0.1488   0.1513   0.1568   0.1601   0.1726
     0.1817   0.1996   0.2106   0.2132   0.2288   0.2291   0.2309   0.2330
     0.2338   0.2360   0.2377   0.2397   0.2431   0.2474   0.2571   0.2603
     0.2699   0.2741   0.2760   0.2808   0.2836   0.2872   0.2911   0.2952
     0.2975   0.3013   0.3068   0.3135   0.3147   0.3308   0.3402   0.3431
     0.3533   0.3826   0.3962   0.4005   0.4039   0.4088   0.4122   0.4236
     0.4276   0.4289   0.4378   0.4411   0.4478   0.4616   0.4662   0.4680
     0.4715   0.4764   0.4812   0.4903   0.4989   0.5014   0.5037   0.5073
     0.5088   0.5096   0.5122   0.5152   0.5172   0.5218   0.5241   0.5265
     0.5273   0.5288   0.5320   0.5341   0.5381   0.5427   0.5556   0.5594
     0.5679   0.5682   0.5710   0.5766   0.5802   0.5920   0.5980   0.6015
     0.6028   0.6109   0.6166   0.6200   0.6258   0.6295   0.6305   0.6326
     0.6339   0.6364   0.6383   0.6401   0.6470   0.6520   0.6582   0.6667
     0.6680   0.6830   0.6868   0.6902   0.6945   0.7029   0.7036   0.7062
     0.7085   0.7097   0.7120   0.7155   0.7167   0.7190   0.7209   0.7212
     0.7228   0.7233   0.7257   0.7261   0.7287   0.7299   0.7314   0.7327
     0.7353   0.7408   0.7472   0.7532   0.7539   0.7558   0.7688   0.7734
     0.7763   0.7810   0.7833   0.7887   0.7977   0.8032   0.8044   0.8072
     0.8123   0.8131   0.8212   0.8225   0.8242   0.8294   0.8347   0.8362
     0.8371   0.8413   0.8535   0.8561   0.8617   0.8628   0.8643   0.8683
     0.8696   0.8768   0.8780   0.8823   0.8930   0.8955   0.9012   0.9019
     0.9042   0.9043   0.9056   0.9090   0.9146   0.9204   0.9297   0.9633
     0.9649   0.9771   0.9897   0.9972   1.0003   1.0021   1.0221   1.3808
     1.4201   1.4254   1.4445   1.5855   1.6171   1.6491   1.6689   1.6734
     1.6819   1.6942   1.6970   1.8514   1.9838   1.9945   2.0740   2.1288
     2.2165   2.2269   2.2320   2.2438   2.3369   2.5730   2.5778   2.5935
     2.6066   2.8758   2.9103   3.0931   3.1498   3.1618   3.1762   3.2916
     3.3202   3.3324   3.3526   3.4509   3.4610   3.4974   3.5096   3.6168
     3.7164   4.0463   4.0533   4.0933   4.1212   4.1688   4.2004   4.2254
     4.2394   4.2706   4.3080   4.3457   4.3671   4.4082   4.4232   4.4253
     4.4425   4.4708   4.4782   4.5087   4.5429   4.5744   4.6189   4.7467
     4.7730   4.8687   4.8884   4.9740   4.9956   5.0540   5.0721   5.3460
     5.3746   5.3838   5.3959   5.4585   5.4701   5.5127   5.6375   5.7322
     5.7589   5.8153   5.9968   6.0308   6.1785   6.4692   6.4830   6.4989
     6.5384   6.6007   6.6206   6.9113   6.9633   6.9929   7.0064   7.0179
     7.0326   7.0797   7.0904   7.1966   7.2145   7.2466   7.2673   7.3007
     7.3176   7.3519   7.3643   7.3929   7.4220   7.4833   7.5317   7.5856
     7.6233   7.7286   7.7577   7.9356   7.9564   8.0399   8.1397   8.1630
     8.1708   8.2397   8.2435   8.3185   8.4392   8.4442   8.4483   8.4756
     8.4834   8.5423   8.5750   8.6531   8.6740   8.7629   8.8156   8.8765
     8.8922   8.9369   8.9419   8.9565   8.9776   8.9869   9.0374   9.0672
     9.1168   9.2646   9.2923

          k =-0.5000-0.2165 0.0000 (256328 PWs)   bands (ev):

   -20.2210 -16.3018 -16.2438 -15.7695 -15.6952 -14.8511 -14.7727 -13.6005
   -13.5345 -12.6102 -12.4819 -12.1767 -12.1411 -12.0634 -11.9753 -11.2954
   -10.8680 -10.0773  -9.8072  -9.4653  -9.4136  -8.7755  -8.5920  -7.7111
    -7.6325  -6.6012  -6.2313  -5.8779  -5.8515  -5.7947  -5.7929  -5.7704
    -5.7598  -5.7465  -5.5464  -5.4572  -5.3649  -5.2390  -4.9635  -4.9208
    -4.8820  -4.8563  -4.8165  -4.7938  -4.7906  -4.7576  -4.7411  -4.6129
    -4.5291  -4.4614  -4.3918  -4.3677  -4.2149  -4.1378  -4.0371  -3.9820
    -3.9609  -3.8931  -3.8158  -3.7816  -3.7358  -3.5782  -3.3355  -3.2726
    -3.2172  -3.1839  -3.1790  -3.1720  -3.1645  -3.1537  -3.1200  -3.1025
    -3.0234  -2.8707  -2.8229  -2.7638  -2.6898  -2.6782  -2.6741  -2.6443
    -2.6276  -2.6036  -2.5566  -2.4886  -2.4178  -2.4074  -2.4018  -2.3928
    -2.3188  -2.2379  -2.1973  -2.1890  -2.1845  -2.1573  -2.1024  -2.0996
    -2.0972  -2.0955  -2.0859  -2.0633  -2.0532  -2.0460  -2.0430  -2.0360
    -2.0351  -2.0156  -2.0021  -1.9987  -1.9937  -1.9870  -1.9853  -1.9785
    -1.9742  -1.9687  -1.9643  -1.9626  -1.9592  -1.9585  -1.9174  -1.9152
    -1.9106  -1.9079  -1.8681  -1.8453  -1.8396  -1.8373  -1.8304  -1.8102
    -1.7993  -1.7962  -1.7955  -1.7922  -1.7821  -1.7728  -1.7600  -1.7479
    -1.7336  -1.7305  -1.7286  -1.7242  -1.7239  -1.7203  -1.7180  -1.7149
    -1.7099  -1.7024  -1.6889  -1.6736  -1.6680  -1.6568  -1.6533  -1.6521
    -1.6507  -1.6461  -1.6447  -1.6420  -1.6390  -1.6357  -1.6292  -1.6256
    -1.5951  -1.5114  -1.4983  -1.4892  -1.4789  -1.4605  -1.4581  -1.4564
    -1.4560  -1.4408  -1.3898  -1.3848  -1.3841  -1.3799  -1.3743  -1.3709
    -1.3670  -1.3656  -1.3622  -1.3610  -1.3388  -1.3233  -1.3101  -1.3058
    -1.3016  -1.3005  -1.2975  -1.2920  -1.2867  -1.2803  -1.2764  -1.2672
    -1.2542  -1.2507  -1.2110  -1.2010  -1.1860  -1.1829  -1.1641  -1.1513
    -1.1425  -1.1190  -1.1145  -1.1033  -1.1020  -1.1005  -1.0632  -1.0602
    -1.0551  -1.0513  -1.0430  -1.0413  -1.0338  -1.0265  -1.0239  -1.0085
    -1.0037  -1.0026  -0.9990  -0.9982  -0.9948  -0.9902  -0.9573  -0.9449
    -0.9335  -0.9003  -0.8913  -0.8886  -0.8750  -0.8731  -0.8670  -0.8621
    -0.8603  -0.8587  -0.8555  -0.8495  -0.8475  -0.8445  -0.7986  -0.7785
    -0.7729  -0.7686  -0.7658  -0.7636  -0.7635  -0.7607  -0.7571  -0.7544
    -0.7520  -0.7493  -0.7244  -0.7230  -0.7207  -0.7197  -0.7178  -0.7116
    -0.7084  -0.7061  -0.7027  -0.7023  -0.6978  -0.6958  -0.6769  -0.6484
    -0.6413  -0.6367  -0.6292  -0.6224  -0.6202  -0.6152  -0.6058  -0.5900
    -0.5771  -0.5653  -0.5620  -0.5512  -0.5453  -0.5368  -0.5315  -0.5305
    -0.5288  -0.5271  -0.5253  -0.5206  -0.5172  -0.5155  -0.5137  -0.5107
    -0.5101  -0.5063  -0.5048  -0.5027  -0.5008  -0.4991  -0.4973  -0.4963
    -0.4927  -0.4864  -0.4844  -0.4819  -0.4750  -0.4614  -0.4606  -0.4591
    -0.4581  -0.4528  -0.4466  -0.4436  -0.4361  -0.4307  -0.4145  -0.3992
    -0.3982  -0.3968  -0.3899  -0.3766  -0.3728  -0.3642  -0.3613  -0.3554
    -0.3457  -0.2980  -0.2939  -0.2901  -0.2862  -0.2829  -0.2791  -0.2714
    -0.2659  -0.2629  -0.2572  -0.2528  -0.2503  -0.2488  -0.2447  -0.2434
    -0.2412  -0.2372  -0.2308  -0.2278  -0.2244  -0.2228  -0.2198  -0.2097
    -0.2053  -0.1844  -0.1800  -0.1622  -0.1582  -0.1551  -0.1517  -0.1437
    -0.1431  -0.1393  -0.1381  -0.1373  -0.1302  -0.1209  -0.1136  -0.1089
    -0.1083  -0.1053  -0.1004  -0.0981  -0.0925  -0.0823  -0.0748  -0.0698
    -0.0644  -0.0611  -0.0576  -0.0533  -0.0525  -0.0463  -0.0445  -0.0425
    -0.0401  -0.0389  -0.0339  -0.0295  -0.0286  -0.0257  -0.0217  -0.0171
    -0.0100  -0.0031  -0.0026   0.0039   0.0100   0.0269   0.0337   0.0383
     0.0518   0.0563   0.0614   0.0654   0.0681   0.0754   0.0792   0.0798
     0.0846   0.0886   0.0917   0.0995   0.1035   0.1141   0.1151   0.1169
     0.1192   0.1214   0.1227   0.1270   0.1306   0.1471   0.1663   0.1718
     0.1735   0.1837   0.1924   0.1963   0.2011   0.2045   0.2065   0.2102
     0.2320   0.2354   0.2366   0.2433   0.2473   0.2647   0.2670   0.2688
     0.2742   0.3127   0.3146   0.3167   0.3188   0.3379   0.3400   0.3456
     0.3483   0.3540   0.3698   0.3707   0.3804   0.3855   0.3898   0.3991
     0.4006   0.4068   0.4130   0.4174   0.4207   0.4260   0.4284   0.4313
     0.4342   0.4346   0.4353   0.4370   0.4382   0.4401   0.4430   0.4447
     0.4486   0.4521   0.4559   0.4593   0.4672   0.4708   0.4733   0.4774
     0.4840   0.4900   0.4924   0.4945   0.4985   0.5003   0.5034   0.5069
     0.5195   0.5221   0.5235   0.5259   0.5302   0.5325   0.5356   0.5397
     0.5526   0.5641   0.5681   0.5742   0.5773   0.5808   0.5818   0.5883
     0.5999   0.6019   0.6031   0.6060   0.6119   0.6135   0.6317   0.6373
     0.6425   0.6452   0.6470   0.6505   0.6536   0.6580   0.6602   0.6634
     0.6660   0.6675   0.6725   0.6744   0.6753   0.6788   0.6793   0.6802
     0.6936   0.7081   0.7196   0.7272   0.7295   0.7340   0.7367   0.7378
     0.7407   0.7418   0.7435   0.7454   0.7462   0.7530   0.7549   0.7591
     0.7611   0.7669   0.7698   0.7706   0.7753   0.7769   0.7797   0.7812
     0.7825   0.7846   0.7881   0.7892   0.7899   0.7923   0.7978   0.7988
     0.8021   0.8050   0.8086   0.8125   0.8259   0.8343   0.8388   0.8437
     0.8459   0.8538   0.8566   0.8601   0.8627   0.8653   0.8683   0.8724
     0.8763   0.8875   0.8908   0.8951   0.9088   0.9160   0.9242   0.9471
     0.9562   0.9595   0.9616   0.9640   0.9730   0.9832   0.9865   0.9912
     0.9996   1.0012   1.0060   1.0079   1.0102   1.0218   1.0345   1.0459
     1.0694   1.2181   1.2283   1.2354   1.2366   1.6251   1.7240   1.7617
     1.7915   1.8818   1.9076   1.9515   1.9604   1.9777   2.1588   2.1865
     2.1945   2.2238   2.3227   2.4783   2.4927   2.5395   2.6714   2.8348
     2.8447   2.8504   2.8537   3.0286   3.0429   3.0591   3.0927   3.3224
     3.3244   3.3282   3.3320   3.5700   3.6122   3.6204   3.6273   3.6362
     3.6998   3.7977   3.8388   3.9076   3.9249   3.9320   4.0032   4.0111
     4.0580   4.0819   4.1317   4.2479   4.3259   4.3442   4.4449   4.5271
     4.5451   4.5611   4.5853   4.6108   4.6331   4.6474   4.6857   4.7290
     4.7634   4.8077   4.8792   4.9695   5.0000   5.1163   5.1236   5.1315
     5.1413   5.2896   5.3714   5.4067   5.5172   5.8144   5.9884   6.1479
     6.2195   6.2328   6.2420   6.4281   6.4439   6.4950   6.5195   6.5448
     6.5497   6.5629   6.6152   6.6312   6.6805   6.7405   6.7584   6.7672
     6.7708   6.7781   6.8109   6.9789   7.0235   7.0615   7.1879   7.3253
     7.3725   7.4426   7.5017   7.5631   7.5993   7.6330   7.6418   7.6596
     7.7548   7.8989   7.9308   8.1045   8.2168   8.2349   8.2588   8.2677
     8.2851   8.2947   8.3110   8.3220   8.3480   8.3608   8.3669   8.3875
     8.4359   8.5249   8.5590   8.5792   8.5794   8.6123   8.6203   8.6725
     8.7648   8.7788   8.8350   8.8773   8.9160   8.9545   9.0290   9.0664
     9.1386   9.2972   9.3355

     the Fermi energy is     2.7116 ev

!    total energy              =  -12539.20510070 Ry
     Harris-Foulkes estimate   =  -12539.20510072 Ry
     estimated scf accuracy    <          4.4E-09 Ry

     The total energy is the sum of the following terms:

     one-electron contribution = -110674.08079460 Ry
     hartree contribution      =   56650.96807316 Ry
     xc contribution           =   -4394.60835881 Ry
     ewald contribution        =   45884.60405580 Ry
     Dispersion Correction     =      -2.79880078 Ry
     smearing contrib. (-TS)   =      -3.28927546 Ry

     convergence has been achieved in  41 iterations

     Writing output data file gc.save
 
     init_run     :    166.80s CPU    178.17s WALL (       1 calls)
     electrons    :  20425.10s CPU  21802.91s WALL (       1 calls)

     Called by init_run:
     wfcinit      :    163.85s CPU    174.70s WALL (       1 calls)
     potinit      :      0.97s CPU      1.01s WALL (       1 calls)

     Called by electrons:
     c_bands      :  18497.89s CPU  19729.45s WALL (      41 calls)
     sum_band     :   1527.87s CPU   1616.00s WALL (      41 calls)
     v_of_rho     :      5.15s CPU      6.50s WALL (      42 calls)
     newd         :     14.58s CPU     27.26s WALL (      42 calls)
     mix_rho      :    379.64s CPU    423.81s WALL (      41 calls)

     Called by c_bands:
     init_us_2    :     73.60s CPU     75.12s WALL (     498 calls)
     cegterg      :  18197.29s CPU  19415.88s WALL (     247 calls)

     Called by sum_band:
     sum_band:bec :      4.15s CPU      4.79s WALL (     246 calls)
     addusdens    :     19.88s CPU     31.16s WALL (      41 calls)

     Called by *egterg:
     h_psi        :   6748.56s CPU   7265.89s WALL (    1897 calls)
     s_psi        :   1678.75s CPU   1689.38s WALL (    1897 calls)
     g_psi        :     17.19s CPU     17.22s WALL (    1644 calls)
     cdiaghg      :   5404.63s CPU   5694.47s WALL (    1891 calls)

     Called by h_psi:
     add_vuspsi   :   1681.26s CPU   1692.81s WALL (    1897 calls)

     General routines
     calbec       :   2303.59s CPU   2321.44s WALL (    2143 calls)
     fft          :      4.34s CPU      5.14s WALL (     545 calls)
     ffts         :    167.70s CPU    199.99s WALL (   24252 calls)
     fftw         :   3408.37s CPU   3923.36s WALL ( 1107686 calls)
     davcio       :      0.35s CPU      7.15s WALL (       6 calls)
 
     Parallel routines
     fft_scatter  :   1794.41s CPU   2043.61s WALL ( 1132483 calls)
 
     PWSCF        :     5h43m CPU        6h 6m WALL

 
   This run was terminated on:  23:45:45  16Sep2017            

=------------------------------------------------------------------------------=
   JOB DONE.
=------------------------------------------------------------------------------=
