
     Program PWSCF v.5.4.0 starts on 17Jan2017 at 21:58:52 

     This program is part of the open-source Quantum ESPRESSO suite
     for quantum simulation of materials; please cite
         "P. Giannozzi et al., J. Phys.:Condens. Matter 21 395502 (2009);
          URL http://www.quantum-espresso.org", 
     in publications or presentations arising from this work. More details at
     http://www.quantum-espresso.org/quote

     Parallel version (MPI & OpenMP), running on      56 processor cores
     Number of MPI processes:                56
     Threads/MPI process:                     1
     R & G space division:  proc/nbgrp/npool/nimage =      56
     Waiting for input...
     Reading input from standard input

     Current dimensions of program PWSCF are:
     Max number of different atomic species (ntypx) = 10
     Max number of k-points (npk) =  40000
     Max angular momentum in pseudopotentials (lmaxx) =  3

     -------------------------------------
     Parameters for Dispersion Correction:
     -------------------------------------
       atom      VdW radius       C_6     

        Cu         2.952        374.666
        C          2.744         60.710
        H          1.892          4.857

     Subspace diagonalization in iterative solution of the eigenvalue problem:
     one sub-group per band group will be used
     scalapack distributed-memory algorithm (size of sub-group:  5*  5 procs)

 
     Parallelization info
     --------------------
     sticks:   dense  smooth     PW     G-vecs:    dense   smooth      PW
     Min         204     204     54                36612    36612    4962
     Max         205     205     55                36617    36617    4968
     Sum       11433   11433   3039              2050409  2050409  278033
 


     bravais-lattice index     =            0
     lattice parameter (alat)  =      13.9425  a.u.
     unit-cell volume          =   21209.0878 (a.u.)^3
     number of atoms/cell      =          150
     number of atomic types    =            3
     number of electrons       =      1294.00
     number of Kohn-Sham states=          776
     kinetic-energy cutoff     =      80.0000  Ry
     charge density cutoff     =     320.0000  Ry
     convergence threshold     =      1.0E-08
     mixing beta               =       0.7000
     number of iterations used =            8  local-TF  mixing
     Exchange-correlation      =  SLA  PW   PBE  PBE ( 1  4  3  4 0 0)
     nstep                     =           50


     celldm(1)=  13.942539  celldm(2)=   0.000000  celldm(3)=   0.000000
     celldm(4)=   0.000000  celldm(5)=   0.000000  celldm(6)=   0.000000

     crystal axes: (cart. coord. in units of alat)
               a(1) = (   1.000000   0.000000   0.000000 )  
               a(2) = (   0.000000   2.309401   0.000000 )  
               a(3) = (   0.000000   0.000000   3.388418 )  

     reciprocal axes: (cart. coord. in units 2 pi/alat)
               b(1) = (  1.000000  0.000000  0.000000 )  
               b(2) = (  0.000000  0.433013  0.000000 )  
               b(3) = (  0.000000  0.000000  0.295123 )  


     PseudoPot. # 1 for Cu read from file:
     /home/549/hxw549/Short/pseudopotentials/Cu.pbe-n-van_ak.UPF
     MD5 check sum: 601f7c30f7467666bec936e0661ce3e1
     Pseudo is Ultrasoft + core correction, Zval = 11.0
     Generated by new atomic code, or converted to UPF format
     Using radial grid of  867 points,  6 beta functions with: 
                l(1) =   0
                l(2) =   0
                l(3) =   1
                l(4) =   1
                l(5) =   2
                l(6) =   2
     Q(r) pseudized with  8 coefficients,  rinner =    1.400   1.400   1.400
                                                       1.400   1.400

     PseudoPot. # 2 for C  read from file:
     /home/549/hxw549/Short/pseudopotentials/C.pbe-mt_gipaw.UPF
     MD5 check sum: 5ac2f21f2c440b14befe521540822c15
     Pseudo is Norm-conserving, Zval =  4.0
     Generated by new atomic code, or converted to UPF format
     Using radial grid of 1073 points,  1 beta functions with: 
                l(1) =   0

     PseudoPot. # 3 for H  read from file:
     /home/549/hxw549/Short/pseudopotentials/H.pbe-van_ak.UPF
     MD5 check sum: 077eb6d537518a38cb46c6de387227b7
     Pseudo is Ultrasoft, Zval =  1.0
     Generated by new atomic code, or converted to UPF format
     Using radial grid of  615 points,  1 beta functions with: 
                l(1) =   0
     Q(r) pseudized with  8 coefficients,  rinner =    0.800

     atomic species   valence    mass     pseudopotential
        Cu            11.00    63.54600     Cu( 1.00)
        C              4.00    12.01070     C ( 1.00)
        H              1.00     1.00783     H ( 1.00)

     No symmetry found



   Cartesian axes

     site n.     atom                  positions (alat units)
         1           Cu  tau(   1) = (  -0.0000081   0.0001634   0.9978611  )
         2           Cu  tau(   2) = (   0.2499603   0.2308283   0.9974647  )
         3           Cu  tau(   3) = (   0.4999608  -0.0000844   0.9975769  )
         4           Cu  tau(   4) = (   0.7500001   0.2308382   0.9975417  )
         5           Cu  tau(   5) = (  -0.0000014   0.4616908   0.9973503  )
         6           Cu  tau(   6) = (   0.2501027   0.6927721   0.9973783  )
         7           Cu  tau(   7) = (   0.4999946   0.4618506   0.9975724  )
         8           Cu  tau(   8) = (   0.7499844   0.6927910   0.9974721  )
         9           Cu  tau(   9) = (  -0.0000234   0.9237236   0.9972586  )
        10           Cu  tau(  10) = (   0.2501357   1.1546412   0.9974124  )
        11           Cu  tau(  11) = (   0.4999866   0.9237023   0.9975526  )
        12           Cu  tau(  12) = (   0.7499395   1.1546225   0.9975023  )
        13           Cu  tau(  13) = (  -0.0000076   1.3857023   0.9973616  )
        14           Cu  tau(  14) = (   0.2499537   1.6165878   0.9975801  )
        15           Cu  tau(  15) = (   0.4999978   1.3855696   0.9977238  )
        16           Cu  tau(  16) = (   0.7500038   1.6166281   0.9976115  )
        17           Cu  tau(  17) = (   0.0000099   1.8473350   0.9979274  )
        18           Cu  tau(  18) = (   0.2499132   2.0785162   0.9979250  )
        19           Cu  tau(  19) = (   0.4999414   1.8475949   0.9976049  )
        20           Cu  tau(  20) = (   0.7500361   2.0784540   0.9976750  )
        21           Cu  tau(  21) = (   0.0000930   0.2309087   1.2462392  )
        22           Cu  tau(  22) = (   0.2498566   0.0003319   1.2464328  )
        23           Cu  tau(  23) = (   0.4998974   0.2299242   1.2449315  )
        24           Cu  tau(  24) = (   0.7500971  -0.0000910   1.2459364  )
        25           Cu  tau(  25) = (   0.0002960   0.6922586   1.2447203  )
        26           Cu  tau(  26) = (   0.2497813   0.4611677   1.2449395  )
        27           Cu  tau(  27) = (   0.5001330   0.6926932   1.2455483  )
        28           Cu  tau(  28) = (   0.7503386   0.4610531   1.2448013  )
        29           Cu  tau(  29) = (   0.0002616   1.1551417   1.2446448  )
        30           Cu  tau(  30) = (   0.2502934   0.9236408   1.2451495  )
        31           Cu  tau(  31) = (   0.5001301   1.1545731   1.2456550  )
        32           Cu  tau(  32) = (   0.7500138   0.9236700   1.2454914  )
        33           Cu  tau(  33) = (   0.0000902   1.6164026   1.2463056  )
        34           Cu  tau(  34) = (   0.2497426   1.3861909   1.2449494  )
        35           Cu  tau(  35) = (   0.4999002   1.6177118   1.2448689  )
        36           Cu  tau(  36) = (   0.7503896   1.3863292   1.2448074  )
        37           Cu  tau(  37) = (   0.0000478   2.0784842   1.2460031  )
        38           Cu  tau(  38) = (   0.2498399   1.8472705   1.2463712  )
        39           Cu  tau(  39) = (   0.4998978   2.0784532   1.2457893  )
        40           Cu  tau(  40) = (   0.7501098   1.8475913   1.2459788  )
        41           Cu  tau(  41) = (   0.0001856  -0.0003195   1.4955457  )
        42           Cu  tau(  42) = (   0.2495352   0.2314793   1.4966494  )
        43           Cu  tau(  43) = (   0.4998331  -0.0003710   1.4950432  )
        44           Cu  tau(  44) = (   0.7505940   0.2299782   1.4948838  )
        45           Cu  tau(  45) = (   0.0005256   0.4612344   1.4952314  )
        46           Cu  tau(  46) = (   0.2503108   0.6899119   1.4924605  )
        47           Cu  tau(  47) = (   0.5000260   0.4580973   1.4912988  )
        48           Cu  tau(  48) = (   0.7516067   0.6899774   1.4918151  )
        49           Cu  tau(  49) = (   0.0018591   0.9238388   1.4913338  )
        50           Cu  tau(  50) = (   0.2500089   1.1575445   1.4922149  )
        51           Cu  tau(  51) = (   0.5016592   0.9235919   1.4944828  )
        52           Cu  tau(  52) = (   0.7517748   1.1574098   1.4918533  )
        53           Cu  tau(  53) = (   0.0006584   1.3858178   1.4957876  )
        54           Cu  tau(  54) = (   0.2494128   1.6157970   1.4967299  )
        55           Cu  tau(  55) = (   0.5000120   1.3896209   1.4907901  )
        56           Cu  tau(  56) = (   0.7507705   1.6172705   1.4950216  )
        57           Cu  tau(  57) = (   0.0001170   1.8476690   1.4954541  )
        58           Cu  tau(  58) = (   0.2499559   2.0784858   1.4955799  )
        59           Cu  tau(  59) = (   0.4998978   1.8478462   1.4952188  )
        60           Cu  tau(  60) = (   0.7500210   2.0784781   1.4955159  )
        61           Cu  tau(  61) = (   0.0007946   0.2300320   1.7438686  )
        62           Cu  tau(  62) = (   0.2501940  -0.0004364   1.7450082  )
        63           Cu  tau(  63) = (   0.4999517   0.2297727   1.7433026  )
        64           Cu  tau(  64) = (   0.7500662  -0.0003413   1.7448356  )
        65           Cu  tau(  65) = (   0.0042122   0.6914945   1.7435736  )
        66           Cu  tau(  66) = (   0.2507788   0.4613690   1.7463007  )
        67           Cu  tau(  67) = (   0.5027604   0.6881950   1.7365463  )
        68           Cu  tau(  68) = (   0.7518720   0.4592074   1.7422222  )
        69           Cu  tau(  69) = (   0.0055308   1.1556792   1.7463164  )
        70           Cu  tau(  70) = (   0.2512957   0.9237410   1.7299832  )
        71           Cu  tau(  71) = (   0.5021808   1.1596468   1.7355543  )
        72           Cu  tau(  72) = (   0.7603529   0.9240923   1.7347932  )
        73           Cu  tau(  73) = (   0.0009270   1.6171148   1.7446571  )
        74           Cu  tau(  74) = (   0.2499777   1.3832367   1.7498057  )
        75           Cu  tau(  75) = (   0.5000412   1.6166888   1.7430851  )
        76           Cu  tau(  76) = (   0.7529031   1.3874316   1.7428651  )
        77           Cu  tau(  77) = (   0.0000804   2.0782178   1.7452477  )
        78           Cu  tau(  78) = (   0.2499937   1.8478049   1.7446450  )
        79           Cu  tau(  79) = (   0.5000811   2.0785855   1.7452683  )
        80           Cu  tau(  80) = (   0.7503369   1.8475970   1.7447595  )
        81           Cu  tau(  81) = (   0.0004509   0.0001296   1.9905407  )
        82           Cu  tau(  82) = (   0.2511864   0.2293995   1.9909008  )
        83           Cu  tau(  83) = (   0.5005876   0.0001976   1.9920923  )
        84           Cu  tau(  84) = (   0.7519731   0.2307674   1.9899190  )
        85           Cu  tau(  85) = (   0.0045069   0.4583020   1.9902508  )
        86           Cu  tau(  86) = (   0.2491139   0.6808004   1.9910164  )
        87           Cu  tau(  87) = (   0.5024785   0.4573844   1.9900265  )
        88           Cu  tau(  88) = (   0.7570901   0.6816718   1.9879195  )
        89           Cu  tau(  89) = (  -0.0102675   0.9218760   1.9927100  )
        90           Cu  tau(  90) = (   0.2537906   1.1553815   1.9971949  )
        91           Cu  tau(  91) = (   0.5393300   0.9254001   1.9709594  )
        92           Cu  tau(  92) = (   0.7598418   1.1658442   1.9899533  )
        93           Cu  tau(  93) = (   0.0083264   1.3872563   1.9936961  )
        94           Cu  tau(  94) = (   0.2511942   1.6183421   1.9905376  )
        95           Cu  tau(  95) = (   0.5011905   1.3872377   1.9889098  )
        96           Cu  tau(  96) = (   0.7522387   1.6157143   1.9900791  )
        97           Cu  tau(  97) = (   0.0001639   1.8475130   1.9920757  )
        98           Cu  tau(  98) = (   0.2503744   2.0780833   1.9914896  )
        99           Cu  tau(  99) = (   0.5009107   1.8465106   1.9901791  )
       100           Cu  tau( 100) = (   0.7501924   2.0783533   1.9913752  )
       101           C   tau( 101) = (  -0.0002924   0.0969937   2.3854660  )
       102           C   tau( 102) = (   0.0000098   0.2896521   2.3841964  )
       103           C   tau( 103) = (   0.1663791   0.0007536   2.3866907  )
       104           C   tau( 104) = (   0.1664553   0.3859546   2.3870162  )
       105           C   tau( 105) = (   0.3328529   0.0969479   2.3836697  )
       106           C   tau( 106) = (   0.3331954   0.2896293   2.3860532  )
       107           C   tau( 107) = (   0.4996894   0.0005723   2.3839658  )
       108           C   tau( 108) = (   0.4999072   0.3859882   2.3860857  )
       109           C   tau( 109) = (   0.6665649   0.0970071   2.3831236  )
       110           C   tau( 110) = (   0.6667176   0.2897298   2.3808174  )
       111           C   tau( 111) = (   0.8330193   0.0007170   2.3862628  )
       112           C   tau( 112) = (   0.8334304   0.3860396   2.3809915  )
       113           C   tau( 113) = (   0.0002326   0.6745071   2.3936841  )
       114           C   tau( 114) = (   0.0004101   0.8669874   2.3963803  )
       115           C   tau( 115) = (   0.1670591   0.5786799   2.3921562  )
       116           C   tau( 116) = (   0.1664716   0.9627690   2.4130982  )
       117           C   tau( 117) = (   0.3334246   0.6743834   2.4084049  )
       118           C   tau( 118) = (   0.3332758   0.8663451   2.4203144  )
       119           C   tau( 119) = (   0.4997656   0.5786400   2.3938556  )
       120           C   tau( 120) = (   0.4997301   0.9624188   2.4145037  )
       121           H   tau( 121) = (   0.3009901   0.9189763   2.2855568  )
       122           H   tau( 122) = (   0.3958658   0.9189763   2.2855568  )
       123           C   tau( 123) = (   0.6668103   0.6747554   2.3940492  )
       124           C   tau( 124) = (   0.6663170   0.8668645   2.4038203  )
       125           C   tau( 125) = (   0.8336803   0.5786724   2.3879795  )
       126           C   tau( 126) = (   0.8329808   0.9628350   2.3949976  )
       127           C   tau( 127) = (   0.0002716   1.2507357   2.3877300  )
       128           C   tau( 128) = (   0.0002848   1.4429545   2.3776873  )
       129           C   tau( 129) = (   0.1668984   1.1543747   2.3987677  )
       130           C   tau( 130) = (   0.1669505   1.5395933   2.3815343  )
       131           C   tau( 131) = (   0.3336537   1.2510353   2.4002906  )
       132           C   tau( 132) = (   0.3337240   1.4432847   2.3918861  )
       133           C   tau( 133) = (   0.4999100   1.1544416   2.4067025  )
       134           C   tau( 134) = (   0.5001505   1.5397080   2.3899454  )
       135           C   tau( 135) = (   0.6661853   1.2506276   2.3925093  )
       136           C   tau( 136) = (   0.6663679   1.4428858   2.3869154  )
       137           C   tau( 137) = (   0.8333508   1.1549057   2.3929345  )
       138           C   tau( 138) = (   0.8329703   1.5392929   2.3793910  )
       139           C   tau( 139) = (  -0.0001549   1.8284168   2.3825987  )
       140           C   tau( 140) = (  -0.0003498   2.0212270   2.3880416  )
       141           C   tau( 141) = (   0.1668275   1.7321956   2.3830011  )
       142           C   tau( 142) = (   0.1664164   2.1174087   2.3883288  )
       143           C   tau( 143) = (   0.3333189   1.8283245   2.3877965  )
       144           C   tau( 144) = (   0.3331995   2.0210739   2.3887166  )
       145           C   tau( 145) = (   0.5000524   1.7321500   2.3873007  )
       146           C   tau( 146) = (   0.4997004   2.1172826   2.3887600  )
       147           C   tau( 147) = (   0.6665697   1.8283077   2.3871378  )
       148           C   tau( 148) = (   0.6663708   2.0211625   2.3887760  )
       149           C   tau( 149) = (   0.8329818   1.7320388   2.3821176  )
       150           C   tau( 150) = (   0.8331890   2.1175337   2.3881764  )

     number of k points=     6  gaussian smearing, width (Ry)=  0.1000
                       cart. coord. in units 2pi/alat
        k(    1) = (   0.0000000   0.0000000   0.0000000), wk =   0.2500000
        k(    2) = (   0.0000000  -0.2165064   0.0000000), wk =   0.2500000
        k(    3) = (   0.2500000   0.0000000   0.0000000), wk =   0.5000000
        k(    4) = (   0.2500000  -0.2165064   0.0000000), wk =   0.5000000
        k(    5) = (  -0.5000000   0.0000000   0.0000000), wk =   0.2500000
        k(    6) = (  -0.5000000  -0.2165064   0.0000000), wk =   0.2500000

     Dense  grid:  2050409 G-vectors     FFT dimensions: (  80, 192, 270)

     Largest allocated arrays     est. size (Mb)     dimensions
        Kohn-Sham Wavefunctions        54.52 Mb     (    4604,  776)
        NL pseudopotentials           129.97 Mb     (    4604, 1850)
        Each V/rho on FFT grid          1.17 Mb     (   76800)
        Each G-vector array             0.28 Mb     (   36616)
        G-vector shells                 0.14 Mb     (   17932)
     Largest temporary arrays     est. size (Mb)     dimensions
        Auxiliary wavefunctions       218.06 Mb     (    4604, 3104)
        Each subspace H/S matrix        5.87 Mb     (     620,  620)
        Each <psi_i|beta_j> matrix     21.91 Mb     (    1850,  776)
        Arrays for rho mixing           9.38 Mb     (   76800,    8)

     Initial potential from superposition of free atoms
     Check: negative starting charge=   -0.001872

     starting charge 1268.81749, renormalised to 1294.00000

     negative rho (up, down):  1.910E-03 0.000E+00
     Starting wfc are 1286 randomized atomic wfcs

     total cpu time spent up to now is      105.7 secs

     Self-consistent Calculation

     iteration #  1     ecut=    80.00 Ry     beta=0.70
     Davidson diagonalization with overlap
     c_bands:  5 eigenvalues not converged
     ethr =  1.00E-04,  avg # of iterations = 21.2

     negative rho (up, down):  2.928E+01 0.000E+00

     total cpu time spent up to now is     1875.4 secs

     total energy              =   -9192.01542618 Ry
     Harris-Foulkes estimate   =  -17141.78698932 Ry
     estimated scf accuracy    <  180948.19990346 Ry

     iteration #  2     ecut=    80.00 Ry     beta=0.70
     Davidson diagonalization with overlap
     ethr =  1.00E-02,  avg # of iterations = 13.0

     negative rho (up, down):  3.114E+01 0.000E+00

     total cpu time spent up to now is     2793.2 secs

     total energy              =  -12318.09613319 Ry
     Harris-Foulkes estimate   =  -13633.74937722 Ry
     estimated scf accuracy    <   17796.90619033 Ry

     iteration #  3     ecut=    80.00 Ry     beta=0.70
     Davidson diagonalization with overlap
     ethr =  1.00E-02,  avg # of iterations =  6.8

     negative rho (up, down):  3.303E+01 0.000E+00

     total cpu time spent up to now is     3348.4 secs

     total energy              =  -12500.24371342 Ry
     Harris-Foulkes estimate   =  -13350.08701109 Ry
     estimated scf accuracy    <    6111.08569844 Ry

     iteration #  4     ecut=    80.00 Ry     beta=0.70
     Davidson diagonalization with overlap
     ethr =  1.00E-02,  avg # of iterations =  5.5

     negative rho (up, down):  2.950E+01 0.000E+00

     total cpu time spent up to now is     3825.3 secs

     total energy              =  -12836.68573266 Ry
     Harris-Foulkes estimate   =  -13155.21481740 Ry
     estimated scf accuracy    <    6210.15622228 Ry

     iteration #  5     ecut=    80.00 Ry     beta=0.70
     Davidson diagonalization with overlap
     ethr =  1.00E-02,  avg # of iterations =  4.7

     negative rho (up, down):  2.045E+01 0.000E+00

     total cpu time spent up to now is     4183.7 secs

     total energy              =  -12864.39324649 Ry
     Harris-Foulkes estimate   =  -13046.00106068 Ry
     estimated scf accuracy    <    1058.13723427 Ry

     iteration #  6     ecut=    80.00 Ry     beta=0.70
     Davidson diagonalization with overlap
     ethr =  1.00E-02,  avg # of iterations =  2.7

     negative rho (up, down):  1.209E+01 0.000E+00

     total cpu time spent up to now is     4419.3 secs

     total energy              =  -12841.49641739 Ry
     Harris-Foulkes estimate   =  -12920.90715713 Ry
     estimated scf accuracy    <     625.61656886 Ry

     iteration #  7     ecut=    80.00 Ry     beta=0.70
     Davidson diagonalization with overlap
     ethr =  1.00E-02,  avg # of iterations =  2.0

     negative rho (up, down):  9.127E+00 0.000E+00

     total cpu time spent up to now is     4599.6 secs

     total energy              =  -12819.39511760 Ry
     Harris-Foulkes estimate   =  -12856.17869974 Ry
     estimated scf accuracy    <     922.93354138 Ry

     iteration #  8     ecut=    80.00 Ry     beta=0.70
     Davidson diagonalization with overlap
     ethr =  1.00E-02,  avg # of iterations =  1.3

     negative rho (up, down):  8.549E+00 0.000E+00

     total cpu time spent up to now is     4769.5 secs

     total energy              =  -12817.04067032 Ry
     Harris-Foulkes estimate   =  -12826.63386778 Ry
     estimated scf accuracy    <     407.38215148 Ry

     iteration #  9     ecut=    80.00 Ry     beta=0.70
     Davidson diagonalization with overlap
     ethr =  1.00E-02,  avg # of iterations =  1.0

     negative rho (up, down):  3.516E+00 0.000E+00

     total cpu time spent up to now is     4935.3 secs

     total energy              =  -12764.66179413 Ry
     Harris-Foulkes estimate   =  -12819.63424277 Ry
     estimated scf accuracy    <     316.17016020 Ry

     iteration # 10     ecut=    80.00 Ry     beta=0.70
     Davidson diagonalization with overlap
     ethr =  1.00E-02,  avg # of iterations =  2.0

     negative rho (up, down):  1.576E+00 0.000E+00

     total cpu time spent up to now is     5112.2 secs

     total energy              =  -12738.87486916 Ry
     Harris-Foulkes estimate   =  -12781.80787286 Ry
     estimated scf accuracy    <     826.52866307 Ry

     iteration # 11     ecut=    80.00 Ry     beta=0.70
     Davidson diagonalization with overlap
     ethr =  1.00E-02,  avg # of iterations =  2.3

     negative rho (up, down):  8.574E-01 0.000E+00

     total cpu time spent up to now is     5294.5 secs

     total energy              =  -12715.51704166 Ry
     Harris-Foulkes estimate   =  -12760.92545516 Ry
     estimated scf accuracy    <     400.12600085 Ry

     iteration # 12     ecut=    80.00 Ry     beta=0.70
     Davidson diagonalization with overlap
     ethr =  1.00E-02,  avg # of iterations =  3.7

     negative rho (up, down):  6.528E-01 0.000E+00

     total cpu time spent up to now is     5495.5 secs

     total energy              =  -12721.67225367 Ry
     Harris-Foulkes estimate   =  -12744.24546919 Ry
     estimated scf accuracy    <     205.60066042 Ry

     iteration # 13     ecut=    80.00 Ry     beta=0.70
     Davidson diagonalization with overlap
     ethr =  1.00E-02,  avg # of iterations =  2.2

     negative rho (up, down):  7.900E-01 0.000E+00

     total cpu time spent up to now is     5678.5 secs

     total energy              =  -12701.69500917 Ry
     Harris-Foulkes estimate   =  -12743.03045439 Ry
     estimated scf accuracy    <     305.52361958 Ry

     iteration # 14     ecut=    80.00 Ry     beta=0.70
     Davidson diagonalization with overlap
     ethr =  1.00E-02,  avg # of iterations =  2.0

     negative rho (up, down):  4.086E+00 0.000E+00

     total cpu time spent up to now is     5872.8 secs

     total energy              =  -12718.23475396 Ry
     Harris-Foulkes estimate   =  -12736.53462729 Ry
     estimated scf accuracy    <     156.05774201 Ry

     iteration # 15     ecut=    80.00 Ry     beta=0.70
     Davidson diagonalization with overlap
     ethr =  1.00E-02,  avg # of iterations =  1.0

     negative rho (up, down):  4.192E+00 0.000E+00

     total cpu time spent up to now is     6038.7 secs

     total energy              =  -12715.49305780 Ry
     Harris-Foulkes estimate   =  -12720.89786653 Ry
     estimated scf accuracy    <     102.62049024 Ry

     iteration # 16     ecut=    80.00 Ry     beta=0.70
     Davidson diagonalization with overlap
     ethr =  7.93E-03,  avg # of iterations =  1.0

     negative rho (up, down):  6.477E+00 0.000E+00

     total cpu time spent up to now is     6204.2 secs

     total energy              =  -12709.80552437 Ry
     Harris-Foulkes estimate   =  -12716.97741500 Ry
     estimated scf accuracy    <      77.09572438 Ry

     iteration # 17     ecut=    80.00 Ry     beta=0.70
     Davidson diagonalization with overlap
     ethr =  5.96E-03,  avg # of iterations =  1.0

     negative rho (up, down):  3.528E+00 0.000E+00

     total cpu time spent up to now is     6371.0 secs

     total energy              =  -12707.37228014 Ry
     Harris-Foulkes estimate   =  -12711.64703244 Ry
     estimated scf accuracy    <      51.76853000 Ry

     iteration # 18     ecut=    80.00 Ry     beta=0.70
     Davidson diagonalization with overlap
     ethr =  4.00E-03,  avg # of iterations =  1.7

     negative rho (up, down):  2.964E+00 0.000E+00

     total cpu time spent up to now is     6546.5 secs

     total energy              =  -12707.00649929 Ry
     Harris-Foulkes estimate   =  -12708.36573357 Ry
     estimated scf accuracy    <      14.92518713 Ry

     iteration # 19     ecut=    80.00 Ry     beta=0.70
     Davidson diagonalization with overlap
     ethr =  1.15E-03,  avg # of iterations =  8.5

     negative rho (up, down):  1.834E+00 0.000E+00

     total cpu time spent up to now is     6815.7 secs

     total energy              =  -12705.01877434 Ry
     Harris-Foulkes estimate   =  -12707.32031721 Ry
     estimated scf accuracy    <      10.65782180 Ry

     iteration # 20     ecut=    80.00 Ry     beta=0.70
     Davidson diagonalization with overlap
     ethr =  8.24E-04,  avg # of iterations =  3.5

     negative rho (up, down):  2.227E+00 0.000E+00

     total cpu time spent up to now is     7010.7 secs

     total energy              =  -12705.05080473 Ry
     Harris-Foulkes estimate   =  -12705.74899498 Ry
     estimated scf accuracy    <      25.16162165 Ry

     iteration # 21     ecut=    80.00 Ry     beta=0.70
     Davidson diagonalization with overlap
     ethr =  8.24E-04,  avg # of iterations =  1.0

     negative rho (up, down):  2.626E+00 0.000E+00

     total cpu time spent up to now is     7178.2 secs

     total energy              =  -12705.01349162 Ry
     Harris-Foulkes estimate   =  -12705.76646499 Ry
     estimated scf accuracy    <       8.37378859 Ry

     iteration # 22     ecut=    80.00 Ry     beta=0.70
     Davidson diagonalization with overlap
     ethr =  6.47E-04,  avg # of iterations =  2.0

     negative rho (up, down):  1.835E+00 0.000E+00

     total cpu time spent up to now is     7356.1 secs

     total energy              =  -12703.49007803 Ry
     Harris-Foulkes estimate   =  -12705.30795276 Ry
     estimated scf accuracy    <       7.09412407 Ry

     iteration # 23     ecut=    80.00 Ry     beta=0.70
     Davidson diagonalization with overlap
     ethr =  5.48E-04,  avg # of iterations =  6.7

     negative rho (up, down):  2.008E+00 0.000E+00

     total cpu time spent up to now is     7593.0 secs

     total energy              =  -12703.45028545 Ry
     Harris-Foulkes estimate   =  -12704.07200693 Ry
     estimated scf accuracy    <      16.67547494 Ry

     iteration # 24     ecut=    80.00 Ry     beta=0.70
     Davidson diagonalization with overlap
     ethr =  5.48E-04,  avg # of iterations =  1.0

     negative rho (up, down):  1.538E+00 0.000E+00

     total cpu time spent up to now is     7760.2 secs

     total energy              =  -12701.55350762 Ry
     Harris-Foulkes estimate   =  -12703.71849722 Ry
     estimated scf accuracy    <       6.82070138 Ry

     iteration # 25     ecut=    80.00 Ry     beta=0.70
     Davidson diagonalization with overlap
     ethr =  5.27E-04,  avg # of iterations =  6.3

     negative rho (up, down):  1.417E+00 0.000E+00

     total cpu time spent up to now is     7995.7 secs

     total energy              =  -12701.04390373 Ry
     Harris-Foulkes estimate   =  -12701.75725725 Ry
     estimated scf accuracy    <       3.30492974 Ry

     iteration # 26     ecut=    80.00 Ry     beta=0.70
     Davidson diagonalization with overlap
     ethr =  2.55E-04,  avg # of iterations =  5.7

     negative rho (up, down):  1.211E+00 0.000E+00

     total cpu time spent up to now is     8229.6 secs

     total energy              =  -12700.49582261 Ry
     Harris-Foulkes estimate   =  -12701.25763077 Ry
     estimated scf accuracy    <       6.71270203 Ry

     iteration # 27     ecut=    80.00 Ry     beta=0.70
     Davidson diagonalization with overlap
     ethr =  2.55E-04,  avg # of iterations =  5.8

     negative rho (up, down):  1.220E+00 0.000E+00

     total cpu time spent up to now is     8461.6 secs

     total energy              =  -12700.74273882 Ry
     Harris-Foulkes estimate   =  -12700.90962328 Ry
     estimated scf accuracy    <       0.71976640 Ry

     iteration # 28     ecut=    80.00 Ry     beta=0.70
     Davidson diagonalization with overlap
     ethr =  5.56E-05,  avg # of iterations =  5.8

     negative rho (up, down):  9.546E-01 0.000E+00

     total cpu time spent up to now is     8706.5 secs

     total energy              =  -12700.73001690 Ry
     Harris-Foulkes estimate   =  -12700.80658695 Ry
     estimated scf accuracy    <       0.39863144 Ry

     iteration # 29     ecut=    80.00 Ry     beta=0.70
     Davidson diagonalization with overlap
     ethr =  3.08E-05,  avg # of iterations =  6.2

     negative rho (up, down):  4.197E-01 0.000E+00

     total cpu time spent up to now is     8937.1 secs

     total energy              =  -12700.68203901 Ry
     Harris-Foulkes estimate   =  -12700.75025406 Ry
     estimated scf accuracy    <       0.17608399 Ry

     iteration # 30     ecut=    80.00 Ry     beta=0.70
     Davidson diagonalization with overlap
     ethr =  1.36E-05,  avg # of iterations = 12.8

     negative rho (up, down):  3.179E-01 0.000E+00

     total cpu time spent up to now is     9278.1 secs

     total energy              =  -12700.68088256 Ry
     Harris-Foulkes estimate   =  -12700.69213514 Ry
     estimated scf accuracy    <       0.08839151 Ry

     iteration # 31     ecut=    80.00 Ry     beta=0.70
     Davidson diagonalization with overlap
     c_bands:  1 eigenvalues not converged
     ethr =  6.83E-06,  avg # of iterations =  8.8

     negative rho (up, down):  9.900E-02 0.000E+00

     total cpu time spent up to now is     9552.9 secs

     total energy              =  -12700.67629753 Ry
     Harris-Foulkes estimate   =  -12700.68621151 Ry
     estimated scf accuracy    <       0.03261482 Ry

     iteration # 32     ecut=    80.00 Ry     beta=0.70
     Davidson diagonalization with overlap
     ethr =  2.52E-06,  avg # of iterations = 13.3

     negative rho (up, down):  4.032E-02 0.000E+00

     total cpu time spent up to now is     9917.2 secs

     total energy              =  -12700.67666333 Ry
     Harris-Foulkes estimate   =  -12700.67870482 Ry
     estimated scf accuracy    <       0.00388717 Ry

     iteration # 33     ecut=    80.00 Ry     beta=0.70
     Davidson diagonalization with overlap
     c_bands:  1 eigenvalues not converged
     c_bands:  1 eigenvalues not converged
     c_bands:  1 eigenvalues not converged
     c_bands:  1 eigenvalues not converged
     ethr =  3.00E-07,  avg # of iterations = 17.2

     negative rho (up, down):  2.878E-02 0.000E+00

     total cpu time spent up to now is    10312.8 secs

     total energy              =  -12700.67659903 Ry
     Harris-Foulkes estimate   =  -12700.67696563 Ry
     estimated scf accuracy    <       0.00193229 Ry

     iteration # 34     ecut=    80.00 Ry     beta=0.70
     Davidson diagonalization with overlap
     c_bands:  1 eigenvalues not converged
     ethr =  1.49E-07,  avg # of iterations = 12.3

     negative rho (up, down):  2.953E-03 0.000E+00

     total cpu time spent up to now is    10615.8 secs

     total energy              =  -12700.67607905 Ry
     Harris-Foulkes estimate   =  -12700.67672140 Ry
     estimated scf accuracy    <       0.00073352 Ry

     iteration # 35     ecut=    80.00 Ry     beta=0.70
     Davidson diagonalization with overlap
     c_bands:  1 eigenvalues not converged
     ethr =  5.67E-08,  avg # of iterations = 14.7

     negative rho (up, down):  1.774E-03 0.000E+00

     total cpu time spent up to now is    10979.8 secs

     total energy              =  -12700.67608926 Ry
     Harris-Foulkes estimate   =  -12700.67613112 Ry
     estimated scf accuracy    <       0.00023521 Ry

     iteration # 36     ecut=    80.00 Ry     beta=0.70
     Davidson diagonalization with overlap
     c_bands:  1 eigenvalues not converged
     ethr =  1.82E-08,  avg # of iterations =  8.3

     negative rho (up, down):  6.408E-04 0.000E+00

     total cpu time spent up to now is    11259.0 secs

     total energy              =  -12700.67620710 Ry
     Harris-Foulkes estimate   =  -12700.67612443 Ry
     estimated scf accuracy    <       0.00008843 Ry

     iteration # 37     ecut=    80.00 Ry     beta=0.70
     Davidson diagonalization with overlap
     ethr =  6.83E-09,  avg # of iterations =  6.8

     negative rho (up, down):  2.085E-03 0.000E+00

     total cpu time spent up to now is    11514.0 secs

     total energy              =  -12700.67626267 Ry
     Harris-Foulkes estimate   =  -12700.67621737 Ry
     estimated scf accuracy    <       0.00003078 Ry

     iteration # 38     ecut=    80.00 Ry     beta=0.70
     Davidson diagonalization with overlap
     c_bands:  1 eigenvalues not converged
     c_bands:  4 eigenvalues not converged
     ethr =  2.38E-09,  avg # of iterations = 11.2

     negative rho (up, down):  2.097E-03 0.000E+00

     total cpu time spent up to now is    11817.6 secs

     total energy              =  -12700.67626558 Ry
     Harris-Foulkes estimate   =  -12700.67626524 Ry
     estimated scf accuracy    <       0.00000145 Ry

     iteration # 39     ecut=    80.00 Ry     beta=0.70
     Davidson diagonalization with overlap
     ethr =  1.12E-10,  avg # of iterations =  3.5

     negative rho (up, down):  2.001E-03 0.000E+00

     total cpu time spent up to now is    12095.4 secs

     total energy              =  -12700.67626559 Ry
     Harris-Foulkes estimate   =  -12700.67626596 Ry
     estimated scf accuracy    <       0.00000093 Ry

     iteration # 40     ecut=    80.00 Ry     beta=0.70
     Davidson diagonalization with overlap
     ethr =  7.20E-11,  avg # of iterations =  3.0

     negative rho (up, down):  1.818E-03 0.000E+00

     total cpu time spent up to now is    12295.6 secs

     total energy              =  -12700.67626569 Ry
     Harris-Foulkes estimate   =  -12700.67626566 Ry
     estimated scf accuracy    <       0.00000021 Ry

     iteration # 41     ecut=    80.00 Ry     beta=0.70
     Davidson diagonalization with overlap
     ethr =  1.61E-11,  avg # of iterations =  3.0

     negative rho (up, down):  1.820E-03 0.000E+00

     total cpu time spent up to now is    12500.6 secs

     total energy              =  -12700.67626567 Ry
     Harris-Foulkes estimate   =  -12700.67626571 Ry
     estimated scf accuracy    <       0.00000008 Ry

     iteration # 42     ecut=    80.00 Ry     beta=0.70
     Davidson diagonalization with overlap
     ethr =  5.93E-12,  avg # of iterations =  3.0

     negative rho (up, down):  1.851E-03 0.000E+00

     total cpu time spent up to now is    12701.3 secs

     total energy              =  -12700.67626576 Ry
     Harris-Foulkes estimate   =  -12700.67626568 Ry
     estimated scf accuracy    <       0.00000005 Ry

     iteration # 43     ecut=    80.00 Ry     beta=0.70
     Davidson diagonalization with overlap
     ethr =  4.04E-12,  avg # of iterations =  3.3

     negative rho (up, down):  1.860E-03 0.000E+00

     total cpu time spent up to now is    12903.8 secs

     total energy              =  -12700.67626584 Ry
     Harris-Foulkes estimate   =  -12700.67626576 Ry
     estimated scf accuracy    <       0.00000001 Ry

     iteration # 44     ecut=    80.00 Ry     beta=0.70
     Davidson diagonalization with overlap
     ethr =  1.02E-12,  avg # of iterations =  3.8

     negative rho (up, down):  1.868E-03 0.000E+00

     total cpu time spent up to now is    13114.9 secs

     End of self-consistent calculation

          k = 0.0000 0.0000 0.0000 (256287 PWs)   bands (ev):

   -18.8270 -15.9575 -15.7338 -15.3407 -14.6821 -14.4693 -14.4243 -13.9585
   -13.8908 -13.7826 -13.7718 -13.2688 -12.9431 -12.8538 -12.7751 -12.7350
   -12.7286 -11.6048 -11.1842 -11.1165 -11.0511 -10.8670  -9.9270  -9.8057
    -9.4943  -9.2199  -9.1759  -8.6854  -8.6098  -8.2828  -8.2613  -7.8849
    -7.5317  -7.4437  -7.3018  -7.2315  -7.2217  -7.1812  -7.1728  -6.9222
    -5.9682  -5.7372  -5.6900  -5.6773  -5.6596  -5.5765  -5.5453  -5.5086
    -5.4810  -5.1501  -5.1255  -4.6927  -4.4872  -4.4102  -4.2890  -4.2482
    -4.1580  -4.0794  -3.9983  -3.8135  -3.6494  -3.6426  -3.5609  -3.4886
    -3.4082  -3.2715  -3.2089  -3.1703  -3.0760  -3.0716  -3.0633  -3.0588
    -2.9319  -2.8328  -2.7996  -2.7774  -2.6732  -2.6711  -2.6615  -2.6518
    -2.6438  -2.5326  -2.5178  -2.4608  -2.4586  -2.4381  -2.4081  -2.3751
    -2.3697  -2.3642  -2.2367  -2.1739  -2.0467  -2.0370  -1.9903  -1.9762
    -1.8758  -1.8477  -1.8426  -1.8402  -1.8124  -1.8120  -1.8004  -1.7984
    -1.7823  -1.7498  -1.7445  -1.6733  -1.6695  -1.6678  -1.6652  -1.6635
    -1.6072  -1.4898  -1.4251  -1.4086  -1.3904  -1.3882  -1.3861  -1.3542
    -1.3438  -1.3247  -1.3115  -1.3075  -1.3027  -1.2631  -1.2399  -1.2172
    -1.2134  -1.2083  -1.2015  -1.1932  -1.1846  -1.1747  -1.1709  -1.1599
    -1.1470  -1.1361  -1.0980  -1.0690  -1.0550  -1.0411  -1.0385  -1.0312
    -1.0103  -1.0003  -0.9682  -0.9470  -0.9090  -0.9019  -0.8977  -0.8676
    -0.8535  -0.8489  -0.8390  -0.8361  -0.8137  -0.8120  -0.8114  -0.7736
    -0.7622  -0.7559  -0.7071  -0.6920  -0.6845  -0.6824  -0.6790  -0.6727
    -0.6702  -0.6657  -0.6645  -0.6610  -0.6534  -0.6469  -0.6364  -0.6265
    -0.5921  -0.5902  -0.5830  -0.5757  -0.5728  -0.5644  -0.5611  -0.5523
    -0.5479  -0.5347  -0.5128  -0.5112  -0.5086  -0.5057  -0.5053  -0.5037
    -0.5008  -0.4992  -0.4971  -0.4958  -0.4929  -0.4915  -0.4894  -0.4875
    -0.4829  -0.4726  -0.4673  -0.4598  -0.4580  -0.4177  -0.3389  -0.3339
    -0.3322  -0.3314  -0.3263  -0.3104  -0.2974  -0.2913  -0.2810  -0.2686
    -0.2571  -0.2508  -0.2480  -0.2456  -0.2425  -0.2232  -0.2133  -0.2095
    -0.2071  -0.2041  -0.1969  -0.1904  -0.1880  -0.1698  -0.1359  -0.1260
    -0.0892  -0.0854  -0.0795  -0.0716  -0.0671  -0.0604  -0.0591  -0.0548
    -0.0509  -0.0465  -0.0447  -0.0403  -0.0369  -0.0356  -0.0349  -0.0300
    -0.0277  -0.0252  -0.0183  -0.0073   0.0057   0.0281   0.0481   0.0593
     0.0653   0.0741   0.0760   0.0848   0.0884   0.0931   0.0948   0.0997
     0.1047   0.1096   0.1106   0.1156   0.1296   0.1309   0.1379   0.1384
     0.1404   0.1419   0.1454   0.1512   0.1573   0.1645   0.1653   0.1701
     0.1739   0.1764   0.1821   0.1953   0.2227   0.2315   0.2415   0.2468
     0.2535   0.2768   0.2797   0.2830   0.2876   0.2913   0.2940   0.2942
     0.2967   0.2989   0.2992   0.3056   0.3097   0.3172   0.3398   0.3496
     0.3511   0.3533   0.3653   0.3660   0.3771   0.3791   0.3826   0.3884
     0.3912   0.3957   0.3982   0.4014   0.4014   0.4073   0.4112   0.4175
     0.4192   0.4241   0.4256   0.4324   0.4349   0.4432   0.4457   0.4538
     0.4599   0.4758   0.4906   0.4993   0.5049   0.5198   0.5243   0.5391
     0.5511   0.5601   0.5625   0.5861   0.5923   0.6027   0.6030   0.6096
     0.6117   0.6262   0.6293   0.6382   0.6423   0.6428   0.6586   0.6637
     0.6864   0.6941   0.7009   0.7018   0.7087   0.7115   0.7151   0.7313
     0.7385   0.7405   0.7447   0.7516   0.7527   0.7701   0.7793   0.7837
     0.7896   0.7947   0.7965   0.8020   0.8113   0.8300   0.8353   0.8395
     0.8442   0.8542   0.8577   0.8608   0.8653   0.8678   0.8716   0.8773
     0.8876   0.8941   0.8968   0.8993   0.9050   0.9067   0.9089   0.9133
     0.9155   0.9199   0.9219   0.9245   0.9251   0.9338   0.9474   0.9587
     0.9653   0.9697   0.9720   0.9859   0.9878   0.9941   1.0037   1.0065
     1.0086   1.0123   1.0148   1.0199   1.0237   1.0334   1.0340   1.0378
     1.0419   1.0424   1.0486   1.0497   1.0523   1.0559   1.0579   1.0611
     1.0710   1.0752   1.0803   1.0869   1.0923   1.0947   1.1037   1.1052
     1.1098   1.1100   1.1105   1.1123   1.1144   1.1224   1.1241   1.1313
     1.1347   1.1402   1.1687   1.1700   1.1738   1.1783   1.1805   1.1871
     1.1934   1.1962   1.2165   1.2220   1.2259   1.2323   1.2413   1.2447
     1.2531   1.2577   1.2591   1.2616   1.2638   1.2744   1.2748   1.2825
     1.2849   1.2944   1.3028   1.3046   1.3066   1.3088   1.3106   1.3212
     1.3378   1.3385   1.3475   1.3485   1.3550   1.3567   1.3584   1.3604
     1.3631   1.3668   1.3698   1.3722   1.3771   1.3854   1.3905   1.3957
     1.3994   1.4007   1.4011   1.4158   1.4198   1.4249   1.4274   1.4330
     1.4365   1.4377   1.4473   1.4572   1.4596   1.4659   1.4710   1.4734
     1.4736   1.4766   1.4793   1.4803   1.4813   1.4820   1.4842   1.4855
     1.4936   1.4960   1.5010   1.5101   1.5170   1.5418   1.5420   1.5482
     1.5625   1.5635   1.5658   1.5681   1.5697   1.5736   1.5773   1.5783
     1.5839   1.5927   1.5961   1.5972   1.6005   1.6054   1.6110   1.6148
     1.6166   1.6203   1.6279   1.6296   1.6352   1.6411   1.6427   1.6441
     1.6502   1.6532   1.6601   1.6620   1.6640   1.6670   1.6725   1.6744
     1.6759   1.6772   1.6777   1.6862   1.6880   1.6916   1.6942   1.7066
     1.7084   1.7094   1.7139   1.7156   1.7226   1.7236   1.7267   1.7295
     1.7488   1.7549   1.7558   1.7564   1.7667   1.7796   1.7819   1.7832
     1.7852   1.7866   1.7902   1.7938   1.7954   1.7964   1.7982   1.8008
     1.8009   1.8028   1.8069   1.8077   1.8112   1.8229   1.8256   1.8286
     1.8339   1.8368   1.8387   1.8414   1.8437   1.8498   1.8633   1.8726
     1.8769   1.8846   1.9172   1.9215   1.9229   1.9262   1.9376   1.9418
     1.9431   1.9530   1.9697   1.9731   1.9866   1.9956   1.9983   1.9999
     2.0040   2.0052   2.0088   2.0167   2.2642   2.3194   2.4384   2.4608
     2.4840   2.5006   2.5445   2.5585   2.5658   2.5703   2.5722   2.5808
     2.5838   2.5885   2.7467   2.7557   2.7754   2.8118   2.8169   2.8190
     2.8321   2.8429   2.8476   3.0308   3.0620   3.0765   3.0840   3.1408
     3.2743   3.3400   3.4249   3.8246   3.8637   4.0754   4.1648   4.1711
     4.1981   4.2007   4.2140   4.2256   4.2340   4.3025   4.3377   4.3439
     4.3518   4.3589   4.3627   4.3642   4.3721   4.4825   4.5666   4.5810
     4.5955   4.6071   4.6965   4.7854   4.9274   5.1116   5.1889   5.2390
     5.5627   5.6761   5.7028   5.7389   5.9607   6.0272   6.0411   6.0739
     6.1750   6.2729   6.2912   6.5780   6.6343   6.6503   6.7015   6.7503
     6.7778   6.7921   6.8116   6.8166   6.8879   6.9188   7.0038   7.0653
     7.0889   7.1202   7.1261   7.1403   7.2617   7.2891   7.3155   7.4075
     7.4140   7.4219   7.4382   7.6094   7.6962   7.7594   7.8153   7.8224
     7.8369   7.9553   7.9784   8.0218   8.0384   8.0427   8.1069   8.4432
     8.4664   8.5013   8.5019   8.5083   8.5171   8.5325   8.5687   8.6723
     8.6767   8.6991   8.7206   8.7316   8.7622   8.7870   8.8537   8.8665
     8.9034   8.9596   8.9914   8.9945   9.0186   9.1201   9.1793   9.1854
     9.2167   9.2175   9.2811   9.2993   9.3160   9.3487   9.4192   9.4242
     9.4291   9.4633   9.4706   9.5184   9.6412   9.6805   9.7120   9.8193
     9.9259   9.9580   9.9673  10.0092  10.0618  10.0670  10.1675  10.1953

          k = 0.0000-0.2165 0.0000 (256176 PWs)   bands (ev):

   -18.8270 -15.9685 -15.7156 -15.2977 -14.9255 -14.4192 -14.0149 -14.0034
   -13.9291 -13.8791 -13.5326 -13.4682 -13.3566 -13.3392 -12.4922 -12.0854
   -12.0438 -11.9599 -11.7954 -11.7400 -10.5865 -10.2334 -10.1300 -10.0633
    -9.3270  -9.1063  -8.9591  -8.7919  -8.6298  -8.6216  -8.1602  -8.0535
    -7.8210  -7.8105  -7.4704  -6.9514  -6.8042  -6.6204  -6.5731  -6.5610
    -6.4929  -6.4872  -6.4026  -5.7408  -5.7066  -5.5414  -5.5288  -5.1263
    -4.9422  -4.8228  -4.8107  -4.6350  -4.5351  -4.4970  -4.4634  -4.4033
    -4.3754  -4.2865  -4.2527  -4.1415  -3.9840  -3.7033  -3.4800  -3.3845
    -3.2544  -3.0845  -3.0186  -2.9672  -2.9592  -2.9576  -2.9385  -2.9072
    -2.8809  -2.7309  -2.7242  -2.7208  -2.7046  -2.6829  -2.6814  -2.5576
    -2.5494  -2.5351  -2.5157  -2.4824  -2.4317  -2.4232  -2.3413  -2.2599
    -2.2575  -2.2429  -2.2387  -2.2349  -2.2327  -2.2269  -2.1492  -2.0398
    -2.0266  -1.9733  -1.9194  -1.9174  -1.9047  -1.8871  -1.8073  -1.7993
    -1.7925  -1.7909  -1.7419  -1.7050  -1.6349  -1.6328  -1.6153  -1.6148
    -1.5624  -1.5435  -1.5179  -1.5092  -1.4414  -1.4342  -1.4191  -1.4138
    -1.4074  -1.3974  -1.3872  -1.3856  -1.3716  -1.3664  -1.3039  -1.2940
    -1.2775  -1.2686  -1.2314  -1.2263  -1.1617  -1.1200  -1.1154  -1.1136
    -1.1004  -1.0217  -1.0167  -1.0126  -1.0080  -1.0029  -0.9666  -0.9607
    -0.9336  -0.9275  -0.9255  -0.9211  -0.9209  -0.9162  -0.9036  -0.8984
    -0.8842  -0.8722  -0.8716  -0.8643  -0.8537  -0.8450  -0.8341  -0.8113
    -0.8026  -0.7935  -0.7710  -0.7665  -0.7368  -0.7352  -0.7022  -0.7010
    -0.6971  -0.6888  -0.6574  -0.6505  -0.6320  -0.6305  -0.6283  -0.6228
    -0.6195  -0.6132  -0.5752  -0.5731  -0.5694  -0.5665  -0.5551  -0.5539
    -0.5457  -0.5432  -0.5390  -0.5333  -0.5189  -0.4800  -0.4767  -0.4709
    -0.4690  -0.4594  -0.4574  -0.4483  -0.4394  -0.4354  -0.4269  -0.4173
    -0.4033  -0.4003  -0.3862  -0.3858  -0.3684  -0.3106  -0.3077  -0.2983
    -0.2968  -0.2849  -0.2823  -0.2579  -0.2546  -0.2534  -0.2523  -0.2514
    -0.2492  -0.2199  -0.2164  -0.1970  -0.1898  -0.1872  -0.1845  -0.1839
    -0.1719  -0.1676  -0.1657  -0.1622  -0.1486  -0.1411  -0.1336  -0.1289
    -0.1285  -0.1150  -0.1062  -0.0983  -0.0966  -0.0902  -0.0809  -0.0797
    -0.0788  -0.0719  -0.0645  -0.0401  -0.0197  -0.0125  -0.0038   0.0020
     0.0044   0.0221   0.0276   0.0308   0.0418   0.0481   0.0552   0.0573
     0.0614   0.0703   0.0741   0.0774   0.0805   0.0914   0.0935   0.0972
     0.0990   0.1026   0.1046   0.1105   0.1120   0.1136   0.1214   0.1263
     0.1305   0.1355   0.1456   0.1474   0.1518   0.1572   0.1576   0.1758
     0.2022   0.2081   0.2115   0.2169   0.2181   0.2239   0.2255   0.2282
     0.2352   0.2403   0.2517   0.2577   0.2591   0.2703   0.2713   0.2780
     0.2788   0.2800   0.2826   0.2855   0.2870   0.2909   0.3142   0.3280
     0.3343   0.3437   0.3478   0.3563   0.3575   0.3600   0.3636   0.3650
     0.3698   0.3756   0.3863   0.3884   0.3927   0.3953   0.3988   0.4033
     0.4203   0.4223   0.4254   0.4336   0.4353   0.4395   0.4467   0.4568
     0.4643   0.4654   0.4717   0.4912   0.4929   0.4934   0.4966   0.5060
     0.5286   0.5315   0.5442   0.5494   0.5597   0.5614   0.5661   0.5793
     0.5830   0.5954   0.6154   0.6169   0.6251   0.6301   0.6461   0.6516
     0.6648   0.6857   0.7151   0.7274   0.7341   0.7472   0.7534   0.7551
     0.7597   0.7723   0.7758   0.7806   0.7830   0.7985   0.8062   0.8114
     0.8135   0.8180   0.8192   0.8254   0.8270   0.8277   0.8352   0.8358
     0.8404   0.8454   0.8525   0.8568   0.8632   0.8654   0.8778   0.8788
     0.8839   0.8863   0.8915   0.8983   0.8984   0.8994   0.9022   0.9056
     0.9066   0.9148   0.9185   0.9213   0.9251   0.9293   0.9317   0.9376
     0.9441   0.9451   0.9469   0.9477   0.9511   0.9550   0.9584   0.9591
     0.9713   0.9795   0.9993   1.0003   1.0137   1.0219   1.0254   1.0276
     1.0300   1.0353   1.0386   1.0408   1.0422   1.0433   1.0457   1.0472
     1.0504   1.0537   1.0824   1.0831   1.0841   1.0915   1.0946   1.0986
     1.1013   1.1044   1.1094   1.1102   1.1171   1.1190   1.1321   1.1386
     1.1411   1.1439   1.1471   1.1484   1.1954   1.1979   1.2366   1.2399
     1.2439   1.2487   1.2517   1.2549   1.2584   1.2618   1.2674   1.2700
     1.2743   1.2761   1.2812   1.2828   1.2916   1.2933   1.2963   1.3017
     1.3046   1.3071   1.3144   1.3173   1.3210   1.3265   1.3274   1.3284
     1.3289   1.3324   1.3328   1.3355   1.3374   1.3420   1.3424   1.3474
     1.3487   1.3509   1.3524   1.3540   1.3561   1.3575   1.3745   1.3806
     1.3826   1.3891   1.3897   1.3925   1.3933   1.3968   1.3987   1.4034
     1.4058   1.4067   1.4083   1.4153   1.4366   1.4532   1.4557   1.4740
     1.4857   1.4880   1.4971   1.5020   1.5051   1.5103   1.5147   1.5213
     1.5319   1.5328   1.5436   1.5469   1.5487   1.5526   1.5538   1.5574
     1.5586   1.5601   1.5620   1.5647   1.5663   1.5687   1.5697   1.5746
     1.5776   1.5857   1.5889   1.5916   1.5921   1.5923   1.5949   1.5955
     1.6011   1.6074   1.6252   1.6294   1.6318   1.6347   1.6409   1.6421
     1.6438   1.6458   1.6507   1.6574   1.6608   1.6633   1.6699   1.6730
     1.6744   1.6775   1.6794   1.6860   1.6885   1.6973   1.6993   1.7005
     1.7131   1.7156   1.7180   1.7250   1.7301   1.7323   1.7424   1.7431
     1.7450   1.7479   1.7543   1.7568   1.7612   1.7705   1.7781   1.7817
     1.7876   1.7915   1.7935   1.7951   1.8074   1.8075   1.8110   1.8132
     1.8141   1.8186   1.8206   1.8211   1.8409   1.8442   1.8493   1.8503
     1.8544   1.8590   1.8662   1.8670   1.8805   1.8846   1.8850   1.8867
     1.8910   1.8961   1.9029   1.9082   1.9298   1.9452   1.9470   1.9508
     1.9654   2.0270   2.0414   2.0622   2.0687   2.0698   2.0843   2.0991
     2.1438   2.1451   2.1481   2.1542   2.1647   2.1710   2.1742   2.1774
     2.1996   2.2163   2.2179   2.2657   2.3754   2.4206   2.7563   2.7739
     2.7742   2.7753   2.8470   2.8558   2.9003   2.9068   2.9181   2.9267
     2.9375   2.9411   3.0532   3.0745   3.0818   3.1002   3.1335   3.1358
     3.2804   3.2845   3.4842   3.5213   3.5215   3.5376   3.5636   3.7241
     3.7310   4.0048   4.0274   4.0348   4.2117   4.2664   4.3814   4.4175
     4.4328   4.4541   4.6088   4.6522   4.6644   4.6852   4.7706   4.8416
     4.8925   5.0040   5.0794   5.0858   5.1943   5.3491   5.4406   5.4468
     5.5016   5.6741   5.6964   5.7053   5.7114   5.7221   5.7883   5.8118
     5.9553   6.0251   6.0695   6.1122   6.4282   6.6628   6.6958   6.7233
     6.7643   6.7671   6.8737   6.8879   7.0057   7.0285   7.0693   7.1227
     7.1277   7.2710   7.2961   7.3796   7.3959   7.4193   7.4327   7.4442
     7.4618   7.4749   7.4812   7.4904   7.4970   7.5797   7.6323   7.6681
     7.6889   7.7174   7.8322   7.8900   8.0308   8.0704   8.0986   8.1120
     8.2407   8.4542   8.4607   8.5087   8.5278   8.5977   8.6718   8.6940
     8.7341   8.7414   8.7482   8.7619   8.8569   8.9177   8.9488   9.0504
     9.0568   9.0702   9.0991   9.1156   9.1336   9.1572   9.1584   9.1646
     9.1918   9.2157   9.3373   9.3845   9.4427   9.4771   9.5145   9.5239
     9.5829   9.7028   9.7148   9.7324   9.7520   9.7848   9.7977   9.8096
     9.8506   9.8984   9.9283   9.9841  10.0102  10.0817  10.1282  10.1746

          k = 0.2500 0.0000 0.0000 (256240 PWs)   bands (ev):

   -18.8207 -15.8498 -15.6107 -15.4094 -14.8744 -14.6439 -14.6334 -14.5422
   -13.9395 -13.5925 -13.5460 -12.9568 -12.7987 -12.7667 -12.6928 -12.1575
   -11.8731 -11.8430 -11.7220 -11.0891 -10.7906 -10.4672 -10.3380 -10.0981
    -9.8271  -9.6414  -9.5991  -9.1163  -8.9870  -8.8183  -8.5347  -7.9178
    -7.4515  -7.3593  -7.2271  -7.2128  -7.0951  -6.9147  -6.7039  -6.4924
    -5.9455  -5.7599  -5.6265  -5.5871  -5.5591  -5.4896  -4.9770  -4.9683
    -4.9542  -4.9207  -4.5360  -4.4555  -4.2702  -4.1635  -4.1359  -4.1244
    -4.0951  -4.0824  -4.0229  -3.9315  -3.8122  -3.6695  -3.6621  -3.6449
    -3.5622  -3.4962  -3.4941  -3.4629  -3.4156  -3.2926  -3.2497  -3.2355
    -3.2104  -3.1663  -3.0817  -3.0767  -2.9543  -2.9241  -2.8903  -2.8504
    -2.7973  -2.6860  -2.6199  -2.5631  -2.4926  -2.4542  -2.4487  -2.4134
    -2.2878  -2.2827  -2.2648  -2.1506  -2.0596  -2.0417  -1.9858  -1.9508
    -1.9189  -1.7581  -1.7508  -1.7441  -1.7298  -1.7169  -1.6740  -1.6517
    -1.6461  -1.5775  -1.5560  -1.5345  -1.4859  -1.4528  -1.4510  -1.4474
    -1.4456  -1.4236  -1.4038  -1.4009  -1.3930  -1.3785  -1.3709  -1.3632
    -1.3590  -1.3333  -1.3056  -1.2758  -1.2558  -1.2353  -1.2331  -1.2299
    -1.2272  -1.2161  -1.2054  -1.1811  -1.1604  -1.1556  -1.1497  -1.1431
    -1.1293  -1.0133  -0.9914  -0.9760  -0.9653  -0.9595  -0.9195  -0.9118
    -0.8978  -0.8884  -0.8861  -0.8834  -0.8777  -0.8642  -0.8556  -0.8433
    -0.8372  -0.8306  -0.8258  -0.8193  -0.8151  -0.8002  -0.7858  -0.7850
    -0.7769  -0.7736  -0.7673  -0.7599  -0.7500  -0.7355  -0.7290  -0.7228
    -0.7033  -0.7017  -0.6953  -0.6915  -0.6774  -0.6681  -0.6632  -0.6623
    -0.6566  -0.6456  -0.6421  -0.6334  -0.6309  -0.6299  -0.6281  -0.6267
    -0.6236  -0.6205  -0.6125  -0.6050  -0.5971  -0.5938  -0.5810  -0.5772
    -0.5716  -0.5524  -0.5431  -0.5197  -0.4993  -0.4859  -0.4647  -0.4636
    -0.4497  -0.4452  -0.4297  -0.4167  -0.4156  -0.4050  -0.3968  -0.3937
    -0.3902  -0.3780  -0.3747  -0.3617  -0.2581  -0.2494  -0.2472  -0.2394
    -0.2216  -0.2168  -0.2118  -0.2064  -0.1990  -0.1921  -0.1867  -0.1849
    -0.1766  -0.1751  -0.1700  -0.1679  -0.1639  -0.1558  -0.1405  -0.1327
    -0.1307  -0.1284  -0.1124  -0.1109  -0.1058  -0.1039  -0.0925  -0.0679
    -0.0498  -0.0479  -0.0430  -0.0361  -0.0349  -0.0298  -0.0266  -0.0193
    -0.0057  -0.0002   0.0136   0.0164   0.0283   0.0335   0.0358   0.0395
     0.0552   0.0587   0.0617   0.0653   0.0687   0.0761   0.0804   0.0867
     0.0914   0.0957   0.1087   0.1155   0.1220   0.1262   0.1450   0.1507
     0.1568   0.1583   0.1659   0.1678   0.1708   0.1774   0.1824   0.1848
     0.1978   0.2073   0.2106   0.2248   0.2270   0.2379   0.2441   0.2511
     0.2539   0.2840   0.2877   0.2896   0.3050   0.3065   0.3097   0.3151
     0.3289   0.3313   0.3383   0.3439   0.3447   0.3500   0.3524   0.3565
     0.3621   0.3630   0.3660   0.3684   0.3738   0.3767   0.3860   0.3895
     0.3915   0.4001   0.4024   0.4074   0.4147   0.4204   0.4231   0.4331
     0.4363   0.4471   0.4646   0.4688   0.4696   0.4723   0.4790   0.4848
     0.4954   0.4986   0.5014   0.5054   0.5108   0.5137   0.5254   0.5392
     0.5450   0.5727   0.5978   0.6111   0.6197   0.6229   0.6281   0.6316
     0.6364   0.6386   0.6397   0.6410   0.6437   0.6463   0.6484   0.6526
     0.6543   0.6623   0.6643   0.6691   0.6729   0.6770   0.6870   0.6887
     0.6928   0.6949   0.6999   0.7101   0.7185   0.7306   0.7345   0.7460
     0.7519   0.7655   0.7720   0.7766   0.7810   0.7965   0.8035   0.8052
     0.8099   0.8146   0.8288   0.8340   0.8387   0.8395   0.8439   0.8475
     0.8545   0.8567   0.8583   0.8610   0.8670   0.8722   0.8865   0.8895
     0.8927   0.8987   0.9035   0.9113   0.9133   0.9231   0.9334   0.9354
     0.9389   0.9453   0.9471   0.9509   0.9543   0.9589   0.9604   0.9668
     0.9757   0.9769   0.9810   0.9847   0.9879   0.9958   1.0033   1.0078
     1.0185   1.0205   1.0248   1.0281   1.0292   1.0319   1.0403   1.0505
     1.0586   1.0685   1.0758   1.0864   1.0945   1.1005   1.1034   1.1072
     1.1108   1.1133   1.1326   1.1334   1.1363   1.1397   1.1403   1.1457
     1.1495   1.1536   1.1580   1.1630   1.1781   1.1857   1.1888   1.2043
     1.2050   1.2108   1.2145   1.2236   1.2257   1.2383   1.2412   1.2469
     1.2509   1.2541   1.2579   1.2605   1.2625   1.2644   1.2691   1.2746
     1.2771   1.2886   1.2996   1.3037   1.3089   1.3144   1.3197   1.3311
     1.3353   1.3441   1.3479   1.3496   1.3540   1.3589   1.3635   1.3679
     1.3718   1.3744   1.3783   1.3794   1.3808   1.3852   1.3890   1.3913
     1.3926   1.3965   1.3983   1.4052   1.4081   1.4113   1.4139   1.4204
     1.4234   1.4268   1.4306   1.4319   1.4353   1.4391   1.4456   1.4492
     1.4588   1.4665   1.4684   1.4735   1.4797   1.4819   1.4858   1.4874
     1.4965   1.4981   1.5014   1.5050   1.5100   1.5151   1.5214   1.5261
     1.5277   1.5358   1.5403   1.5472   1.5513   1.5528   1.5572   1.5724
     1.5839   1.5911   1.5977   1.6050   1.6057   1.6092   1.6144   1.6181
     1.6209   1.6234   1.6255   1.6300   1.6353   1.6382   1.6403   1.6432
     1.6545   1.6569   1.6575   1.6663   1.6695   1.6711   1.6752   1.6768
     1.6787   1.6807   1.6823   1.6839   1.6869   1.6936   1.6952   1.6975
     1.7033   1.7098   1.7155   1.7177   1.7209   1.7217   1.7241   1.7265
     1.7283   1.7417   1.7442   1.7455   1.7657   1.7674   1.7758   1.7787
     1.7823   1.7842   1.7850   1.7881   1.7890   1.7966   1.7977   1.8005
     1.8028   1.8043   1.8062   1.8079   1.8169   1.8213   1.8250   1.8289
     1.8292   1.8315   1.8346   1.8436   1.8485   1.8511   1.8551   1.8605
     1.8680   1.8700   1.8726   1.8755   1.8788   1.8839   1.9116   1.9150
     1.9200   1.9299   1.9493   1.9852   1.9892   1.9914   1.9960   1.9985
     2.0167   2.0821   2.1043   2.1181   2.1228   2.1253   2.1512   2.1541
     2.2006   2.2588   2.3887   2.4051   2.4211   2.4233   2.4374   2.4399
     2.5529   2.5739   2.5975   2.9125   2.9166   2.9239   2.9415   3.3221
     3.3338   3.3366   3.5083   3.5479   3.5584   3.5757   3.5765   3.6198
     3.6417   3.7640   3.8192   3.9028   3.9192   3.9669   3.9789   4.0354
     4.0441   4.0619   4.0703   4.1003   4.1997   4.2198   4.2309   4.2983
     4.3198   4.3815   4.4601   4.5067   4.5175   4.6518   4.7046   4.8402
     4.9882   5.1377   5.1642   5.2350   5.4193   5.5004   5.5572   5.5743
     5.5889   5.6757   5.7536   5.8032   5.8193   5.8618   5.8785   5.9016
     5.9218   5.9636   5.9807   6.0514   6.0779   6.0904   6.1307   6.1426
     6.3506   6.3639   6.3694   6.4048   6.5746   6.7970   6.9525   7.0020
     7.0252   7.0432   7.0930   7.0998   7.1406   7.2478   7.3116   7.3642
     7.3818   7.3939   7.4009   7.4460   7.4915   7.5107   7.5759   7.6359
     7.6852   7.7906   7.8004   7.8888   7.9050   7.9267   7.9960   8.0000
     8.0387   8.0966   8.1502   8.1957   8.3426   8.3511   8.4031   8.4321
     8.4528   8.5320   8.5678   8.6308   8.6737   8.6754   8.6771   8.6900
     8.7112   8.7903   8.7969   8.9101   8.9820   9.0082   9.0582   9.2283
     9.2607   9.3916   9.3952   9.4445   9.4598   9.4671   9.4775   9.4857
     9.5149   9.5206   9.5452   9.5489   9.5695   9.5944   9.5979   9.6608
     9.7336   9.7544   9.8237   9.8313  10.0143  10.0678  10.0716  10.0755

          k = 0.2500-0.2165 0.0000 (256316 PWs)   bands (ev):

   -18.8207 -15.8446 -15.6645 -15.1766 -15.1306 -14.8567 -14.5020 -14.2001
   -14.0509 -13.7533 -13.4411 -13.0095 -12.9297 -12.7998 -12.4920 -12.2992
   -11.9365 -11.6600 -11.2641 -11.1362 -10.9823 -10.7704 -10.6096 -10.2915
    -9.7006  -9.4760  -9.1575  -8.9092  -8.7776  -8.7135  -8.4102  -8.2976
    -8.1118  -8.0769  -7.5781  -6.8310  -6.3591  -6.3168  -6.3063  -6.2428
    -6.1160  -6.1126  -5.9346  -5.6847  -5.6609  -5.3634  -5.3520  -5.0283
    -4.8565  -4.6300  -4.5608  -4.4736  -4.3750  -4.3335  -4.2965  -4.0801
    -4.0558  -4.0058  -3.9979  -3.9871  -3.8821  -3.8542  -3.8080  -3.7770
    -3.5580  -3.4784  -3.4049  -3.3771  -3.2360  -3.2291  -3.1699  -3.1223
    -3.1141  -3.1076  -2.9865  -2.9411  -2.9257  -2.8448  -2.8083  -2.7374
    -2.6803  -2.6292  -2.5876  -2.5803  -2.5690  -2.5611  -2.5481  -2.4698
    -2.3539  -2.3139  -2.2949  -2.1717  -2.1044  -1.9736  -1.9668  -1.9213
    -1.8391  -1.8347  -1.8207  -1.8111  -1.7976  -1.7215  -1.6675  -1.6583
    -1.6399  -1.6251  -1.6189  -1.6100  -1.5593  -1.4829  -1.4784  -1.4691
    -1.4665  -1.4507  -1.4086  -1.4027  -1.3845  -1.3700  -1.3679  -1.3613
    -1.3560  -1.3494  -1.3287  -1.3270  -1.3252  -1.3225  -1.3175  -1.3142
    -1.2720  -1.2374  -1.2294  -1.1201  -1.1118  -1.0841  -1.0262  -1.0122
    -1.0008  -0.9763  -0.9697  -0.9393  -0.9291  -0.9240  -0.9162  -0.9137
    -0.9007  -0.8967  -0.8856  -0.8841  -0.8765  -0.8755  -0.8713  -0.8667
    -0.8578  -0.8561  -0.8514  -0.8467  -0.8310  -0.8254  -0.8196  -0.7987
    -0.7818  -0.7802  -0.7772  -0.7737  -0.7702  -0.7609  -0.7567  -0.7452
    -0.7288  -0.7238  -0.6928  -0.6882  -0.6825  -0.6794  -0.6714  -0.6684
    -0.6465  -0.6454  -0.6244  -0.6201  -0.6123  -0.6074  -0.6027  -0.5969
    -0.5953  -0.5910  -0.5798  -0.5694  -0.5664  -0.5600  -0.5460  -0.5441
    -0.5302  -0.5182  -0.5143  -0.5082  -0.5068  -0.4921  -0.4344  -0.4297
    -0.4224  -0.4178  -0.4163  -0.4077  -0.4058  -0.3688  -0.3666  -0.3582
    -0.3541  -0.3532  -0.3473  -0.3372  -0.3278  -0.3211  -0.2938  -0.2903
    -0.2624  -0.2536  -0.2314  -0.2190  -0.2157  -0.2121  -0.2061  -0.2043
    -0.1767  -0.1723  -0.1637  -0.1564  -0.1532  -0.1398  -0.1385  -0.1353
    -0.1318  -0.1306  -0.1149  -0.1060  -0.1044  -0.1000  -0.0893  -0.0828
    -0.0571  -0.0545  -0.0495  -0.0450  -0.0413  -0.0335  -0.0234  -0.0205
    -0.0118  -0.0103  -0.0086  -0.0058   0.0010   0.0059   0.0110   0.0146
     0.0254   0.0286   0.0412   0.0511   0.0565   0.0676   0.0820   0.0858
     0.0915   0.1003   0.1109   0.1141   0.1193   0.1241   0.1353   0.1417
     0.1472   0.1489   0.1542   0.1763   0.1924   0.2050   0.2081   0.2356
     0.2411   0.2487   0.2512   0.2577   0.2603   0.2607   0.2686   0.2777
     0.2872   0.2927   0.2933   0.2975   0.3011   0.3062   0.3114   0.3126
     0.3197   0.3241   0.3290   0.3384   0.3435   0.3468   0.3507   0.3520
     0.3545   0.3593   0.3625   0.3638   0.3702   0.3720   0.3741   0.3838
     0.3869   0.3953   0.4093   0.4140   0.4216   0.4264   0.4305   0.4335
     0.4403   0.4462   0.4584   0.4614   0.4688   0.4783   0.4840   0.4904
     0.4972   0.4987   0.5104   0.5131   0.5207   0.5221   0.5280   0.5328
     0.5360   0.5380   0.5635   0.5710   0.5935   0.6111   0.6197   0.6331
     0.6353   0.6390   0.6414   0.6467   0.6491   0.6525   0.6551   0.6560
     0.6657   0.6703   0.6757   0.6803   0.6819   0.6846   0.6890   0.6904
     0.6953   0.7058   0.7199   0.7291   0.7351   0.7422   0.7487   0.7530
     0.7596   0.7661   0.7709   0.7836   0.7948   0.8001   0.8048   0.8112
     0.8124   0.8189   0.8227   0.8260   0.8290   0.8360   0.8368   0.8416
     0.8455   0.8488   0.8525   0.8682   0.8713   0.8751   0.8858   0.8890
     0.8964   0.8994   0.9177   0.9292   0.9311   0.9318   0.9505   0.9579
     0.9622   0.9631   0.9689   0.9728   0.9789   0.9814   0.9850   0.9865
     0.9889   0.9923   0.9983   1.0036   1.0118   1.0177   1.0187   1.0222
     1.0266   1.0289   1.0311   1.0335   1.0383   1.0409   1.0460   1.0505
     1.0524   1.0553   1.0606   1.0634   1.0666   1.0726   1.0793   1.0801
     1.0840   1.0854   1.0868   1.0930   1.1181   1.1195   1.1274   1.1291
     1.1385   1.1575   1.1639   1.1669   1.1795   1.1858   1.1879   1.1902
     1.1926   1.1966   1.2024   1.2124   1.2147   1.2153   1.2169   1.2195
     1.2207   1.2302   1.2331   1.2374   1.2461   1.2498   1.2552   1.2593
     1.2635   1.2660   1.2738   1.2875   1.2893   1.2969   1.3003   1.3102
     1.3138   1.3219   1.3266   1.3318   1.3334   1.3366   1.3394   1.3493
     1.3518   1.3628   1.3665   1.3717   1.3806   1.3875   1.3950   1.4013
     1.4071   1.4218   1.4254   1.4310   1.4420   1.4431   1.4480   1.4490
     1.4514   1.4519   1.4528   1.4560   1.4579   1.4591   1.4667   1.4704
     1.4747   1.4795   1.4821   1.4838   1.4996   1.5008   1.5145   1.5220
     1.5262   1.5306   1.5326   1.5358   1.5384   1.5403   1.5445   1.5460
     1.5494   1.5525   1.5548   1.5565   1.5585   1.5618   1.5635   1.5659
     1.5675   1.5715   1.5730   1.5776   1.5834   1.5849   1.5887   1.5931
     1.5970   1.6015   1.6096   1.6151   1.6218   1.6323   1.6343   1.6412
     1.6437   1.6501   1.6546   1.6573   1.6638   1.6703   1.6717   1.6753
     1.6792   1.6833   1.6912   1.6932   1.6955   1.6981   1.7029   1.7070
     1.7101   1.7128   1.7168   1.7204   1.7253   1.7322   1.7377   1.7423
     1.7435   1.7474   1.7481   1.7530   1.7549   1.7577   1.7617   1.7657
     1.7702   1.7712   1.7731   1.7771   1.7829   1.7857   1.7902   1.7943
     1.7998   1.8006   1.8011   1.8026   1.8050   1.8068   1.8104   1.8127
     1.8182   1.8219   1.8418   1.8439   1.8471   1.8513   1.8535   1.8621
     1.8685   1.8780   1.8865   1.8946   1.8974   1.9140   1.9170   1.9206
     1.9233   1.9260   1.9395   1.9515   1.9538   2.0003   2.0113   2.0197
     2.0691   2.0972   2.1118   2.1163   2.1240   2.1343   2.1428   2.1451
     2.1479   2.1563   2.1727   2.1926   2.4845   2.4876   2.5154   2.5197
     2.6429   2.6516   2.9398   2.9421   3.1085   3.1329   3.1359   3.1372
     3.1466   3.1564   3.1635   3.1710   3.3351   3.3426   3.3701   3.4264
     3.5934   3.8687   3.8870   3.9196   3.9381   3.9562   3.9906   4.1834
     4.1905   4.1980   4.2056   4.3083   4.3317   4.3816   4.4245   4.4356
     4.5085   4.5246   4.6979   4.7149   4.7300   4.7691   4.8513   4.8862
     4.9598   4.9786   5.0261   5.0442   5.1243   5.2316   5.2979   5.3126
     5.3357   5.4436   5.5005   5.6008   5.7167   5.7422   5.7836   5.7903
     5.8166   5.8337   5.9220   6.0978   6.1069   6.1609   6.2144   6.2341
     6.2725   6.3221   6.6825   6.8844   6.9175   6.9416   6.9856   7.0580
     7.0709   7.1351   7.1741   7.1873   7.2690   7.3453   7.3713   7.3972
     7.4326   7.4372   7.4556   7.5413   7.5628   7.5808   7.6403   7.6501
     7.6575   7.6752   7.6929   7.7113   7.7639   7.7747   7.9429   7.9882
     8.0922   8.1125   8.1684   8.2736   8.2748   8.2872   8.4049   8.5085
     8.5383   8.5491   8.5744   8.5891   8.6221   8.6515   8.7663   8.9100
     8.9166   8.9456   8.9743   8.9817   8.9915   9.0462   9.0523   9.0825
     9.1098   9.1850   9.2265   9.2944   9.3018   9.3317   9.3326   9.4046
     9.4550   9.4957   9.5098   9.5456   9.5652   9.5805   9.6032   9.6146
     9.6481   9.6695   9.6842   9.6966   9.7161   9.7700   9.8267   9.9953

          k =-0.5000 0.0000 0.0000 (256496 PWs)   bands (ev):

   -18.8143 -15.6687 -15.4453 -15.2860 -15.2674 -15.2125 -14.6384 -14.2488
   -14.1890 -14.1328 -13.2265 -12.5096 -12.4987 -12.3584 -12.1740 -12.1102
   -11.6004 -11.5809 -11.4560 -11.4463 -10.9913 -10.8804 -10.7100 -10.4101
   -10.0139  -9.9824  -9.6147  -9.4169  -9.0705  -8.8206  -8.6109  -8.5940
    -7.9177  -7.2571  -7.2287  -7.0632  -7.0334  -6.9892  -6.7699  -5.7694
    -5.6799  -5.5149  -4.9719  -4.9579  -4.9118  -4.6258  -4.5673  -4.4889
    -4.4726  -4.4645  -4.4596  -4.4361  -4.4334  -4.4142  -4.3918  -4.3612
    -4.3230  -4.1776  -4.1593  -4.1338  -4.0494  -4.0322  -3.9997  -3.7381
    -3.6887  -3.6658  -3.6374  -3.6121  -3.3713  -3.3040  -3.2420  -3.2387
    -3.2179  -3.2069  -3.0865  -3.0849  -3.0799  -3.0690  -3.0678  -3.0625
    -3.0282  -3.0172  -2.7832  -2.5890  -2.5061  -2.4930  -2.4560  -2.4465
    -2.4387  -2.4129  -2.2745  -2.2622  -2.2296  -2.1477  -2.1408  -2.0978
    -1.9713  -1.9605  -1.9590  -1.9204  -1.5460  -1.5360  -1.5328  -1.5299
    -1.5281  -1.5264  -1.4891  -1.4807  -1.4148  -1.4096  -1.4058  -1.3818
    -1.3095  -1.3052  -1.3039  -1.2924  -1.2864  -1.2635  -1.2559  -1.2524
    -1.2448  -1.1812  -1.1720  -1.1578  -1.1441  -1.1404  -1.1380  -1.1311
    -1.1101  -1.0804  -1.0786  -1.0690  -1.0633  -1.0582  -1.0494  -1.0120
    -1.0077  -1.0066  -1.0025  -0.9997  -0.9968  -0.9868  -0.9837  -0.9772
    -0.9626  -0.9454  -0.9418  -0.9405  -0.9271  -0.9222  -0.9206  -0.9106
    -0.9019  -0.8581  -0.8503  -0.8390  -0.8323  -0.8285  -0.8218  -0.8100
    -0.8089  -0.8039  -0.8007  -0.7995  -0.7821  -0.7777  -0.7693  -0.7626
    -0.7546  -0.7531  -0.7370  -0.7284  -0.7250  -0.7168  -0.7078  -0.7003
    -0.6678  -0.6569  -0.6409  -0.6338  -0.6312  -0.6276  -0.6267  -0.6153
    -0.6053  -0.5976  -0.5967  -0.5943  -0.5904  -0.5828  -0.5778  -0.5751
    -0.5724  -0.5688  -0.5546  -0.5459  -0.5348  -0.4875  -0.4813  -0.4733
    -0.4606  -0.4411  -0.4328  -0.4252  -0.3710  -0.3644  -0.3628  -0.3612
    -0.3550  -0.3319  -0.3241  -0.3207  -0.3183  -0.3046  -0.2997  -0.2916
    -0.2850  -0.2779  -0.2695  -0.2658  -0.2607  -0.2602  -0.2558  -0.2501
    -0.2436  -0.2372  -0.2206  -0.2101  -0.1808  -0.1617  -0.1352  -0.1336
    -0.1207  -0.1129  -0.1011  -0.0871  -0.0857  -0.0788  -0.0639  -0.0542
    -0.0534  -0.0497  -0.0445  -0.0415  -0.0253  -0.0193  -0.0145  -0.0127
    -0.0102  -0.0082   0.0164   0.0260   0.0330   0.0399   0.0461   0.0515
     0.0553   0.0600   0.0648   0.0686   0.0704   0.0873   0.0991   0.1029
     0.1038   0.1059   0.1096   0.1192   0.1342   0.1379   0.1397   0.1563
     0.1568   0.1784   0.2159   0.2213   0.2223   0.2246   0.2296   0.2325
     0.2397   0.2461   0.2575   0.2621   0.2802   0.2889   0.2957   0.3090
     0.3241   0.3251   0.3328   0.3341   0.3381   0.3393   0.3415   0.3445
     0.3452   0.3515   0.3567   0.3606   0.3641   0.3969   0.4005   0.4030
     0.4070   0.4106   0.4181   0.4215   0.4265   0.4300   0.4337   0.4355
     0.4389   0.4425   0.4445   0.4452   0.4571   0.4609   0.4653   0.4657
     0.4678   0.4703   0.4751   0.4778   0.4779   0.4794   0.4811   0.4814
     0.4870   0.4884   0.4907   0.5039   0.5083   0.5090   0.5135   0.5148
     0.5176   0.5245   0.5270   0.5422   0.5436   0.5522   0.5895   0.6008
     0.6152   0.6235   0.6532   0.6621   0.6655   0.6694   0.6749   0.6760
     0.6891   0.6919   0.6939   0.6981   0.6995   0.7033   0.7053   0.7060
     0.7063   0.7079   0.7089   0.7128   0.7141   0.7167   0.7198   0.7238
     0.7255   0.7308   0.7321   0.7400   0.7428   0.7510   0.7521   0.7554
     0.7667   0.7715   0.7787   0.7909   0.8276   0.8409   0.8477   0.8507
     0.8560   0.8654   0.8693   0.8711   0.8817   0.8846   0.8867   0.8878
     0.8902   0.8916   0.8939   0.8964   0.8983   0.9000   0.9019   0.9052
     0.9057   0.9086   0.9119   0.9142   0.9171   0.9294   0.9313   0.9443
     0.9490   0.9585   0.9648   0.9700   0.9728   0.9782   0.9844   0.9867
     0.9903   0.9933   0.9943   0.9974   0.9984   1.0066   1.0102   1.0130
     1.0161   1.0187   1.0242   1.0302   1.0320   1.0375   1.0578   1.0650
     1.0701   1.0742   1.0767   1.0795   1.0824   1.0858   1.0904   1.1138
     1.1155   1.1271   1.1314   1.1380   1.1420   1.1524   1.1686   1.1861
     1.1872   1.1951   1.1977   1.1983   1.2009   1.2018   1.2023   1.2037
     1.2091   1.2150   1.2170   1.2212   1.2261   1.2275   1.2315   1.2459
     1.2462   1.2537   1.2547   1.2602   1.2664   1.2686   1.2719   1.2748
     1.2784   1.2829   1.2904   1.3038   1.3055   1.3088   1.3099   1.3461
     1.3662   1.3760   1.3790   1.3820   1.3886   1.3978   1.4050   1.4111
     1.4150   1.4168   1.4215   1.4311   1.4350   1.4375   1.4433   1.4450
     1.4487   1.4516   1.4662   1.4724   1.4749   1.4781   1.4786   1.4819
     1.4848   1.4859   1.4885   1.4915   1.4964   1.4971   1.4994   1.5015
     1.5041   1.5067   1.5098   1.5110   1.5236   1.5323   1.5359   1.5389
     1.5448   1.5519   1.5608   1.5668   1.5719   1.5731   1.5773   1.5778
     1.5793   1.5911   1.5992   1.6011   1.6041   1.6045   1.6063   1.6102
     1.6109   1.6117   1.6157   1.6181   1.6222   1.6248   1.6288   1.6351
     1.6594   1.6682   1.6714   1.6733   1.6752   1.6779   1.6780   1.6791
     1.6812   1.6830   1.6861   1.6870   1.6887   1.6919   1.6935   1.6950
     1.6959   1.6981   1.6999   1.7018   1.7021   1.7047   1.7092   1.7107
     1.7124   1.7135   1.7268   1.7296   1.7344   1.7375   1.7389   1.7433
     1.7521   1.7544   1.7560   1.7620   1.7644   1.7749   1.7752   1.7834
     1.7849   1.7896   1.7930   1.7976   1.8016   1.8068   1.8088   1.8105
     1.8131   1.8215   1.8252   1.8275   1.8291   1.8326   1.8366   1.8395
     1.8412   1.8463   1.8489   1.8522   1.8595   1.8666   1.8747   1.8759
     1.8781   1.8784   1.8844   1.8851   1.8870   1.9084   1.9365   1.9491
     1.9561   1.9697   1.9720   1.9751   1.9777   1.9944   2.3715   2.3792
     2.3813   2.3836   2.5686   2.5874   2.5933   2.5966   2.6443   2.6447
     2.6499   2.6508   2.9051   2.9491   2.9517   2.9672   3.1794   3.1867
     3.1964   3.1983   3.5199   3.5392   3.5407   3.5520   3.6887   3.8265
     3.8362   4.0470   4.0778   4.0959   4.1028   4.2437   4.2613   4.2713
     4.2791   4.3429   4.3979   4.4278   4.4376   4.4708   4.4860   4.4965
     4.5563   4.7294   4.9330   5.0330   5.0542   5.0707   5.0941   5.1477
     5.1696   5.1839   5.2382   5.2630   5.3665   5.3764   5.3794   5.3875
     5.3899   5.4000   5.4086   5.4266   5.4400   5.4424   5.4606   5.4884
     5.7814   5.8295   5.8398   5.8758   5.9230   5.9583   6.0398   6.0842
     6.2490   6.3255   6.3283   6.3454   6.3520   6.3566   6.3656   6.3829
     6.4721   6.5898   6.6909   6.7169   6.7233   6.7365   6.7458   6.7842
     7.3436   7.4078   7.4339   7.4402   7.4468   7.4790   7.7244   7.8576
     7.8855   7.9291   7.9398   7.9451   7.9502   7.9597   7.9750   7.9889
     8.1107   8.1549   8.1638   8.2108   8.2205   8.2252   8.2525   8.3438
     8.3653   8.3779   8.3928   8.4324   8.4450   8.4588   8.4683   8.4885
     8.4982   8.5082   8.6746   8.6775   8.8331   9.1545   9.1586   9.1782
     9.1927   9.1974   9.2001   9.2009   9.2040   9.3014   9.3896   9.3939
     9.4203   9.4315   9.4448   9.5286   9.5607   9.6288   9.6487   9.7106
     9.7563   9.7808   9.8569   9.8622   9.8759   9.8870   9.9159   9.9283

          k =-0.5000-0.2165 0.0000 (256328 PWs)   bands (ev):

   -18.8143 -15.6349 -15.4822 -15.4637 -15.1480 -14.8491 -14.8287 -14.7617
   -13.9734 -13.4629 -13.3891 -13.3257 -12.5816 -12.2680 -11.6628 -11.6573
   -11.6205 -11.3981 -11.3323 -11.2614 -11.1990 -11.1896 -11.0717 -11.0681
    -9.9226  -9.6976  -9.4092  -9.3840  -8.8010  -8.7087  -8.4601  -8.4121
    -8.1070  -7.9233  -7.6737  -7.6627  -7.1597  -5.8586  -5.8154  -5.6703
    -5.6097  -5.4421  -5.1551  -5.0717  -4.9570  -4.9384  -4.8588  -4.8487
    -4.8386  -4.8355  -4.8128  -4.6771  -4.6705  -4.1607  -4.0444  -4.0016
    -3.9931  -3.9691  -3.8797  -3.8783  -3.8662  -3.8619  -3.8610  -3.8511
    -3.7437  -3.6075  -3.5835  -3.5345  -3.5269  -3.5054  -3.4076  -3.3871
    -3.3491  -3.3313  -3.3192  -3.2706  -3.2675  -3.1538  -3.1393  -3.1115
    -2.8433  -2.7596  -2.7493  -2.7209  -2.2648  -2.2479  -2.2373  -2.2286
    -2.2229  -2.1956  -2.1937  -2.1816  -2.1768  -2.1456  -2.0811  -2.0098
    -1.9935  -1.8121  -1.7589  -1.7521  -1.7442  -1.7366  -1.7013  -1.6943
    -1.6823  -1.6777  -1.6702  -1.6636  -1.6266  -1.4607  -1.4561  -1.4553
    -1.4470  -1.4400  -1.4343  -1.3816  -1.2290  -1.1833  -1.1773  -1.1613
    -1.1547  -1.1449  -1.1429  -1.1406  -1.1309  -1.1089  -1.1006  -1.0893
    -1.0857  -1.0811  -1.0803  -1.0652  -1.0466  -1.0431  -1.0372  -1.0342
    -1.0299  -1.0296  -1.0253  -1.0135  -1.0133  -1.0114  -1.0107  -1.0072
    -0.9587  -0.9557  -0.9475  -0.9407  -0.9055  -0.8860  -0.8830  -0.8760
    -0.8722  -0.8489  -0.8406  -0.8385  -0.8350  -0.8293  -0.8136  -0.8084
    -0.8043  -0.7881  -0.7733  -0.7709  -0.7668  -0.7660  -0.7630  -0.7618
    -0.7607  -0.7591  -0.7475  -0.7432  -0.7355  -0.7329  -0.7123  -0.7033
    -0.7004  -0.6962  -0.6956  -0.6897  -0.6874  -0.6860  -0.6843  -0.6836
    -0.6822  -0.6796  -0.6780  -0.6439  -0.5420  -0.5326  -0.5276  -0.5252
    -0.5092  -0.5041  -0.5025  -0.5018  -0.4924  -0.4318  -0.4266  -0.4180
    -0.4126  -0.4110  -0.4096  -0.4062  -0.4052  -0.3946  -0.3922  -0.3803
    -0.3705  -0.3575  -0.3486  -0.3462  -0.3441  -0.3375  -0.3308  -0.3238
    -0.3183  -0.3098  -0.3075  -0.3003  -0.2837  -0.2545  -0.2242  -0.2177
    -0.2159  -0.2131  -0.2050  -0.2011  -0.1917  -0.1502  -0.1477  -0.1368
    -0.1303  -0.1236  -0.0960  -0.0946  -0.0873  -0.0850  -0.0750  -0.0732
    -0.0661  -0.0562  -0.0522  -0.0469  -0.0386  -0.0346  -0.0336  -0.0265
    -0.0255  -0.0083  -0.0065   0.0022   0.0262   0.0710   0.0744   0.0776
     0.0831   0.0884   0.0980   0.1000   0.1019   0.1034   0.1105   0.1155
     0.1203   0.1489   0.1852   0.1884   0.1928   0.1954   0.2005   0.2018
     0.2051   0.2084   0.2101   0.2133   0.2220   0.2251   0.2444   0.2485
     0.2492   0.2519   0.2560   0.2575   0.2596   0.2626   0.2677   0.2719
     0.2786   0.2812   0.3210   0.3257   0.3324   0.3392   0.3448   0.3465
     0.3579   0.3675   0.3840   0.3945   0.3956   0.4003   0.4137   0.4163
     0.4248   0.4271   0.4301   0.4363   0.4392   0.4418   0.4448   0.4455
     0.4501   0.4513   0.4523   0.4576   0.4612   0.4635   0.4673   0.4680
     0.4692   0.4697   0.4701   0.4745   0.4819   0.4834   0.4882   0.4960
     0.5000   0.5121   0.5124   0.5129   0.5164   0.5192   0.5220   0.5298
     0.5365   0.5418   0.5531   0.5697   0.5735   0.5784   0.5834   0.5870
     0.5956   0.6071   0.6114   0.6328   0.6454   0.6619   0.6673   0.6747
     0.6791   0.6874   0.6897   0.6941   0.6966   0.6980   0.7020   0.7049
     0.7067   0.7139   0.7168   0.7171   0.7180   0.7224   0.7237   0.7247
     0.7268   0.7301   0.7341   0.7374   0.7391   0.7433   0.7474   0.7511
     0.7853   0.7940   0.8047   0.8110   0.8151   0.8240   0.8273   0.8290
     0.8329   0.8356   0.8364   0.8457   0.8525   0.8621   0.8651   0.8670
     0.8717   0.8745   0.8783   0.8788   0.8825   0.8977   0.9074   0.9124
     0.9188   0.9191   0.9234   0.9260   0.9283   0.9304   0.9342   0.9353
     0.9382   0.9420   0.9431   0.9457   0.9482   0.9526   0.9573   0.9616
     0.9688   0.9709   0.9930   1.0006   1.0130   1.0232   1.0314   1.0374
     1.0401   1.0424   1.0454   1.0490   1.0502   1.0513   1.0544   1.0568
     1.0605   1.0649   1.0671   1.0759   1.0834   1.0871   1.0885   1.0899
     1.0917   1.0948   1.0978   1.1066   1.1331   1.1346   1.1424   1.1461
     1.1478   1.1632   1.1736   1.1767   1.1808   1.1827   1.1860   1.1896
     1.2072   1.2093   1.2125   1.2144   1.2267   1.2351   1.2362   1.2388
     1.2727   1.2813   1.2947   1.3053   1.3155   1.3232   1.3263   1.3305
     1.3536   1.3602   1.3664   1.3730   1.3751   1.3800   1.3839   1.3891
     1.3901   1.3929   1.3965   1.3972   1.4036   1.4063   1.4082   1.4096
     1.4108   1.4111   1.4131   1.4146   1.4163   1.4204   1.4230   1.4287
     1.4291   1.4317   1.4356   1.4413   1.4459   1.4465   1.4498   1.4534
     1.4560   1.4583   1.4663   1.4669   1.4789   1.4815   1.4822   1.4850
     1.4888   1.4898   1.4944   1.4960   1.5001   1.5021   1.5036   1.5061
     1.5460   1.5512   1.5529   1.5533   1.5567   1.5580   1.5609   1.5692
     1.5763   1.5789   1.5847   1.5868   1.5910   1.5928   1.5981   1.6017
     1.6031   1.6057   1.6138   1.6193   1.6295   1.6322   1.6352   1.6372
     1.6395   1.6431   1.6437   1.6472   1.6510   1.6528   1.6543   1.6587
     1.6988   1.7078   1.7099   1.7142   1.7152   1.7156   1.7162   1.7188
     1.7198   1.7213   1.7227   1.7268   1.7286   1.7311   1.7326   1.7365
     1.7390   1.7414   1.7426   1.7434   1.7462   1.7479   1.7510   1.7524
     1.7532   1.7556   1.7585   1.7611   1.7643   1.7668   1.7681   1.7720
     1.7734   1.7787   1.7837   1.7884   1.8065   1.8099   1.8108   1.8123
     1.8185   1.8197   1.8236   1.8253   1.8270   1.8405   1.8427   1.8548
     1.8598   1.8646   1.8651   1.8667   1.8999   1.9068   1.9130   1.9177
     1.9338   1.9376   1.9388   1.9434   1.9557   1.9577   1.9626   1.9637
     1.9668   1.9694   1.9722   1.9768   1.9800   1.9822   1.9831   1.9977
     2.1907   2.1924   2.1983   2.1997   2.6283   2.6768   2.6878   2.6929
     2.9062   2.9080   2.9151   2.9247   3.1342   3.1394   3.1453   3.1483
     3.3562   3.4107   3.4300   3.4360   3.7025   3.8021   3.8069   3.8088
[...]
     atom    9 type  1   force =     0.00006758    0.00004064    0.00006579
     atom   10 type  1   force =     0.00004806    0.00024715    0.00005930
     atom   11 type  1   force =     0.00012203    0.00003902    0.00007937
     atom   12 type  1   force =     0.00022836    0.00017766   -0.00003842
     atom   13 type  1   force =     0.00014660    0.00006826    0.00017920
     atom   14 type  1   force =     0.00019413   -0.00011953    0.00000057
     atom   15 type  1   force =     0.00001984    0.00029086   -0.00022699
     atom   16 type  1   force =    -0.00008684   -0.00005577    0.00000451
     atom   17 type  1   force =    -0.00002427    0.00000158   -0.00049898
     atom   18 type  1   force =     0.00004252   -0.00022473   -0.00073617
     atom   19 type  1   force =     0.00009599   -0.00028107    0.00000226
     atom   20 type  1   force =     0.00000529   -0.00014873   -0.00060373
     atom   21 type  1   force =     0.00021814    0.00013841    0.00005523
     atom   22 type  1   force =     0.00023089    0.00031285   -0.00008601
     atom   23 type  1   force =     0.00008233    0.00032162    0.00032456
     atom   24 type  1   force =    -0.00004845    0.00002015   -0.00017830
     atom   25 type  1   force =     0.00017615    0.00037743    0.00054994
     atom   26 type  1   force =     0.00003099    0.00060171    0.00059702
     atom   27 type  1   force =     0.00010049    0.00040036    0.00040132
     atom   28 type  1   force =     0.00029571    0.00052296    0.00053227
     atom   29 type  1   force =     0.00017887   -0.00044377    0.00059662
     atom   30 type  1   force =     0.00001535   -0.00002420   -0.00029563
     atom   31 type  1   force =     0.00014416   -0.00045616    0.00040389
     atom   32 type  1   force =     0.00004326    0.00000434    0.00023743
     atom   33 type  1   force =     0.00015527   -0.00031938    0.00002728
     atom   34 type  1   force =     0.00006133   -0.00078112    0.00078357
     atom   35 type  1   force =     0.00016268   -0.00049704    0.00034995
     atom   36 type  1   force =     0.00032909   -0.00063518    0.00050526
     atom   37 type  1   force =     0.00000435   -0.00021209   -0.00012851
     atom   38 type  1   force =     0.00024732   -0.00028767   -0.00025572
     atom   39 type  1   force =     0.00015634   -0.00014329   -0.00024997
     atom   40 type  1   force =    -0.00004710   -0.00033774   -0.00011947
     atom   41 type  1   force =     0.00034446    0.00049262   -0.00005314
     atom   42 type  1   force =     0.00026202    0.00202239    0.00208723
     atom   43 type  1   force =     0.00016772    0.00016923    0.00001916
     atom   44 type  1   force =     0.00019664    0.00104462    0.00080817
     atom   45 type  1   force =     0.00037780    0.00059269    0.00093466
     atom   46 type  1   force =    -0.00031125   -0.00331793   -0.00200500
     atom   47 type  1   force =    -0.00047580    0.00027940    0.00053498
     atom   48 type  1   force =     0.00048944    0.00107675    0.00084054
     atom   49 type  1   force =    -0.00329700   -0.00010216    0.00024192
     atom   50 type  1   force =    -0.00024509    0.00319356   -0.00218876
     atom   51 type  1   force =     0.00234733    0.00008220   -0.00067295
     atom   52 type  1   force =     0.00038053   -0.00158749    0.00122325
     atom   53 type  1   force =     0.00033576   -0.00061207    0.00085272
     atom   54 type  1   force =     0.00041060   -0.00169741    0.00145156
     atom   55 type  1   force =    -0.00023666   -0.00051935    0.00072203
     atom   56 type  1   force =     0.00024723   -0.00116067    0.00086300
     atom   57 type  1   force =     0.00025278   -0.00050456   -0.00005321
     atom   58 type  1   force =     0.00007994   -0.00005969   -0.00007951
     atom   59 type  1   force =     0.00030576   -0.00015078    0.00002058
     atom   60 type  1   force =     0.00032232   -0.00017719   -0.00015550
     atom   61 type  1   force =     0.00043662    0.00183849    0.00055721
     atom   62 type  1   force =     0.00007141    0.00033261   -0.00011952
     atom   63 type  1   force =    -0.00064083    0.00115954   -0.00007555
     atom   64 type  1   force =     0.00042269    0.00060074    0.00009182
     atom   65 type  1   force =    -0.00173541    0.00241143    0.00064252
     atom   66 type  1   force =     0.00008905    0.00247230    0.00228197
     atom   67 type  1   force =    -0.00209511   -0.00639552   -0.00626576
     atom   68 type  1   force =     0.00020516    0.00150246    0.00229783
     atom   69 type  1   force =    -0.00230123   -0.00202449    0.00082044
     atom   70 type  1   force =    -0.00274983   -0.00014270   -0.00357314
     atom   71 type  1   force =    -0.00218157    0.00588175   -0.00506398
     atom   72 type  1   force =     0.00929428   -0.00017135   -0.00685987
     atom   73 type  1   force =     0.00033418   -0.00148750    0.00006799
     atom   74 type  1   force =     0.00003268   -0.00196249    0.00187615
     atom   75 type  1   force =    -0.00025019   -0.00101331   -0.00007898
     atom   76 type  1   force =    -0.00008178   -0.00200507    0.00271037
     atom   77 type  1   force =     0.00047621    0.00001408    0.00009949
     atom   78 type  1   force =     0.00018820   -0.00049878    0.00001709
     atom   79 type  1   force =     0.00032594   -0.00010716   -0.00008399
     atom   80 type  1   force =     0.00062250   -0.00036303    0.00008346
     atom   81 type  1   force =     0.00004136    0.00095087   -0.00037980
     atom   82 type  1   force =    -0.00051225    0.00026057   -0.00003034
     atom   83 type  1   force =     0.00007606    0.00002205   -0.00028691
     atom   84 type  1   force =     0.00068010    0.00236723   -0.00014452
     atom   85 type  1   force =    -0.00088488    0.00271833    0.00107533
     atom   86 type  1   force =    -0.00178855   -0.00598912    0.00051584
     atom   87 type  1   force =     0.00026619    0.00075678    0.00022708
     atom   88 type  1   force =     0.00336958   -0.00368948    0.00399927
     atom   89 type  1   force =     0.00145970    0.00033752    0.00522014
     atom   90 type  1   force =     0.00100658    0.00308361    0.00100882
     atom   91 type  1   force =     0.01357558    0.00033260   -0.02003401
     atom   92 type  1   force =     0.00154204    0.00168931    0.00350885
     atom   93 type  1   force =    -0.00199566   -0.00257210    0.00035709
     atom   94 type  1   force =    -0.00080095   -0.00098341    0.00004998
     atom   95 type  1   force =     0.00044920   -0.00012215    0.00030270
     atom   96 type  1   force =     0.00060756   -0.00169692    0.00028557
     atom   97 type  1   force =     0.00011351   -0.00070101   -0.00007404
     atom   98 type  1   force =    -0.00000509   -0.00014813   -0.00018968
     atom   99 type  1   force =     0.00021689   -0.00006619    0.00007877
     atom  100 type  1   force =     0.00061464    0.00010094   -0.00011799
     atom  101 type  2   force =     0.00035785    0.00739860   -0.00170702
     atom  102 type  2   force =    -0.00627772   -0.00301870   -0.00213031
     atom  103 type  2   force =    -0.00504890    0.00661689   -0.00209934
     atom  104 type  2   force =    -0.00433761   -0.00981873    0.00469415
     atom  105 type  2   force =    -0.00037434    0.00830598   -0.00109343
     atom  106 type  2   force =    -0.00184907   -0.00013998    0.00391300
     atom  107 type  2   force =     0.00428856    0.00608652   -0.00223499
     atom  108 type  2   force =     0.00639148   -0.00727851    0.00453189
     atom  109 type  2   force =     0.00016784    0.00757172   -0.00276153
     atom  110 type  2   force =     0.00741590   -0.00390066   -0.00096554
     atom  111 type  2   force =     0.00070935    0.00825124   -0.00051338
     atom  112 type  2   force =     0.00013410    0.00797577    0.00601300
     atom  113 type  2   force =    -0.01660387   -0.00695788   -0.00176055
     atom  114 type  2   force =     0.02183204   -0.00490024    0.01242013
     atom  115 type  2   force =    -0.00214470    0.00208355    0.00118271
     atom  116 type  2   force =     0.03146897   -0.02066719   -0.00788994
     atom  117 type  2   force =     0.00164607    0.01368932   -0.01278960
     atom  118 type  2   force =     0.00433730    0.02320599   -0.00031046
     atom  119 type  2   force =    -0.00640235    0.00474441    0.00079877
     atom  120 type  2   force =    -0.04516246   -0.03325961   -0.01997323
     atom  121 type  3   force =    -0.01960855   -0.00195967   -0.03445505
     atom  122 type  3   force =    -0.00598518    0.00563928    0.02296653
     atom  123 type  2   force =     0.02004049   -0.00397574   -0.00315483
     atom  124 type  2   force =    -0.02044936   -0.00180767    0.01811271
     atom  125 type  2   force =     0.00350735   -0.01052656    0.00866006
     atom  126 type  2   force =     0.00496627    0.01030995   -0.00746240
     atom  127 type  2   force =    -0.01691646    0.01044595   -0.00258911
     atom  128 type  2   force =    -0.00768652    0.00451647    0.00050583
     atom  129 type  2   force =    -0.00012515    0.00009258    0.01448370
     atom  130 type  2   force =     0.00056863   -0.00285145    0.00528489
     atom  131 type  2   force =     0.00460881    0.01079339   -0.01971869
     atom  132 type  2   force =    -0.00404136   -0.00304561    0.00646671
     atom  133 type  2   force =    -0.00791561   -0.00053725    0.01957431
     atom  134 type  2   force =    -0.00208093   -0.00274849    0.00585790
     atom  135 type  2   force =     0.02157720    0.01625783   -0.00291870
     atom  136 type  2   force =     0.01059897    0.01313121   -0.00274373
     atom  137 type  2   force =     0.00383679    0.01043925    0.00962429
     atom  138 type  2   force =     0.00019476    0.00205976    0.00239526
     atom  139 type  2   force =     0.00124835   -0.00423597   -0.00125489
     atom  140 type  2   force =    -0.00181251   -0.00286785    0.00025165
     atom  141 type  2   force =    -0.00365394   -0.01018323   -0.00309283
     atom  142 type  2   force =    -0.00207259   -0.00197563   -0.00013402
     atom  143 type  2   force =    -0.00010753   -0.00679759   -0.00223557
     atom  144 type  2   force =     0.00058260    0.00076933    0.00092717
     atom  145 type  2   force =     0.00326405   -0.00893430   -0.00165971
     atom  146 type  2   force =     0.00087054   -0.00135714    0.00081492
     atom  147 type  2   force =    -0.00173490   -0.00532817   -0.00288990
     atom  148 type  2   force =     0.00155413   -0.00223997   -0.00025852
     atom  149 type  2   force =     0.00119619   -0.01053898   -0.00050678
     atom  150 type  2   force =     0.00060289   -0.00207737    0.00015270

     Total force =     0.127998     Total SCF correction =     0.000448

     number of scf cycles    =  10
     number of bfgs steps    =   9

     energy   old            =  -12701.1087356286 Ry
     energy   new            =  -12701.1275386212 Ry

     CASE: energy  _new < energy  _old

     new trust radius        =       0.4630149157 bohr
     new conv_thr            =       0.0000000100 Ry


ATOMIC_POSITIONS (angstrom)
Cu       0.000372822  -0.004623832   7.354054469
Cu       1.845483307   1.693953788   7.347532906
Cu       3.688686572  -0.008774245   7.350494785
Cu       5.533251198   1.694422552   7.349032855
Cu       0.000590217   3.400386704   7.348659053
Cu       1.846058215   5.110220820   7.354552011
Cu       3.690064240   3.402032031   7.350721368
Cu       5.534783314   5.109109867   7.353351189
Cu       0.002809163   6.815076567   7.354414072
Cu       1.846301523   8.519957869   7.354432503
Cu       3.690235202   6.814926737   7.356329875
Cu       5.534565921   8.521144594   7.353396574
Cu       0.000486852  10.230342325   7.348126651
Cu       1.845567353  11.936657625   7.348191786
Cu       3.690222713  10.228497908   7.351676328
Cu       5.533253172  11.935878752   7.350135251
Cu       0.000659897  13.633418374   7.355914219
Cu       1.842250915  15.333098295   7.357701189
Cu       3.688439812  13.638090893   7.351218837
Cu       5.535653779  15.333698058   7.353286661
Cu       0.000973511   1.695472725   9.184089279
Cu       1.845024927  -0.006103687   9.185921638
Cu       3.691088939   1.695325801   9.182940870
Cu       5.534220708  -0.008682142   9.184682305
Cu       0.004591526   5.105450949   9.182789299
Cu       1.848467710   3.397145922   9.179350026
Cu       3.694209741   5.104406090   9.182868649
Cu       5.535929743   3.398814918   9.181543342
Cu       0.005226105   8.526510595   9.182027200
Cu       1.848903697   6.816028829   9.188449165
Cu       3.694067406   8.525749985   9.183817590
Cu       5.541937263   6.815587844   9.184203383
Cu       0.001690824  11.931411915   9.187890523
Cu       1.848806676  10.232371417   9.180625072
Cu       3.690793656  11.933405720   9.186352356
Cu       5.535931318  10.231437220   9.182720532
Cu       0.001193355  15.332730103   9.189838429
Cu       1.844811815  13.631474852   9.191672888
Cu       3.688533365  15.332506119   9.189890512
Cu       5.534704867  13.635614080   9.187307066
Cu       0.002317154  -0.010246231  11.030117198
Cu       1.850820159   1.696835954  11.026946141
Cu       3.691657419  -0.006381751  11.028993612
Cu       5.538081563   1.690443097  11.019980775
Cu       0.010321622   3.400502466  11.023761279
Cu       1.855437693   5.106607634  11.021107310
Cu       3.697576117   3.402709929  11.028174514
Cu       5.546333837   5.111215919  11.024696092
Cu       0.013636563   6.816675432  11.031680534
Cu       1.856664663   8.521797721  11.025820634
Cu       3.703427126   6.814021298  11.020045140
Cu       5.548232996   8.518981498  11.025267079
Cu       0.012017293  10.223929711  11.031258813
Cu       1.850482543  11.925298959  11.035034715
Cu       3.698652960  10.223138659  11.031329741
Cu       5.540072764  11.933635704  11.025429677
Cu       0.003841706  13.632967421  11.034375794
Cu       1.847789607  15.333633593  11.031284930
Cu       3.690962615  13.631540977  11.032961876
Cu       5.533764461  15.331360605  11.033123124
Cu       0.013436566   1.695672495  12.862993353
Cu       1.852812940  -0.008864241  12.872213174
Cu       3.697382300   1.696648580  12.868522176
Cu       5.538559032  -0.005630658  12.870619898
Cu       0.024062356   5.111494850  12.872838616
Cu       1.864210287   3.433711096  12.892125677
Cu       3.707644393   5.118175592  12.864115844
Cu       5.545753418   3.400824394  12.854894081
Cu       0.028932212   8.510236040  12.889394464
Cu       1.863761738   6.812320690  12.788343681
Cu       3.712130113   8.502539297  12.869635958
Cu       5.540340982   6.812889111  12.901536289
Cu       0.018372531  11.925656984  12.876974782
Cu       1.865796658  10.188531854  12.901996321
Cu       3.700234985  11.924571179  12.869399224
Cu       5.554696303  10.218790693  12.863219802
Cu       0.003033151  15.331429359  12.877765876
Cu       1.851506953  13.636587991  12.870981377
Cu       3.696049962  15.334009238  12.874515922
Cu       5.542473916  13.627655639  12.873613072
Cu       0.006780003   0.002074573  14.686390490
Cu       1.867170885   1.693999866  14.680039919
Cu       3.700443829  -0.007501079  14.698133156
Cu       5.532694255   1.710826929  14.674792824
Cu       0.047028424   3.414026119  14.673948111
Cu       1.874382642   5.181711706  14.794047293
Cu       3.675986897   3.418040154  14.687293159
Cu       5.545615817   5.106679839  14.683100338
Cu       0.033837141   6.798602158  14.748063177
Cu       1.873140000   8.440444420  14.791775258
Cu       3.790562212   6.790076989  14.587171577
Cu       5.550479564   8.507789992  14.697209056
Cu       0.061877865  10.206945251  14.703646236
Cu       1.867424031  11.943558578  14.683151767
Cu       3.680528247  10.208144915  14.683978716
Cu       5.550126824  11.905607185  14.679428490
Cu       0.003748668  13.630229295  14.699929445
Cu       1.854275776  15.330212711  14.694687535
Cu       3.711089576  13.627672303  14.682960237
Cu       5.541450451  15.334528617  14.691054563
C        0.002128132   0.718939215  17.594064338
C        0.002075851   2.142924147  17.591706204
C        1.229360010   0.005387471  17.607722046
C        1.232055877   2.859041608  17.637005408
C        2.457106266   0.715889368  17.582939792
C        2.455671849   2.137976892  17.589563555
C        3.688123370   0.003813687  17.589256362
C        3.683874180   2.856762664  17.611844785
C        4.916589073   0.717811535  17.579793099
C        4.916079475   2.140664781  17.561045511
C        6.148117469   0.009114320  17.595441246
C        6.147661391   2.857954682  17.571179593
C        0.004173458   4.979158228  17.773375259
C       -0.006274903   6.394231058  17.831230289
C        1.230330115   4.270491413  17.777397622
C        1.221644645   7.099793287  17.954350346
C        2.461514029   4.970651197  17.903502899
C        2.459923333   6.394887198  18.009429421
C        3.686520187   4.266070618  17.772357818
C        3.707563770   7.108605350  17.998388688
H        1.775174440   6.793986352  15.461247945
H        3.266682884   6.934133813  15.936950378
C        4.911141222   4.979280243  17.767947574
C        4.928584542   6.392769727  17.856455506
C        6.148182107   4.278317915  17.656287539
C        6.145562179   7.089483938  17.804627464
C        0.003946932   9.209884426  17.678376252
C        0.005742917  10.627318682  17.577437776
C        1.230367358   8.512239351  17.811913288
C        1.234895841  11.355978526  17.578010566
C        2.460711139   9.224325946  17.830457296
C        2.461693880  10.639935187  17.667448308
C        3.689645730   8.519660210  17.855859826
C        3.690573978  11.355353123  17.617813312
C        4.910965848   9.210648622  17.704221733
C        4.913941024  10.626476592  17.623014358
C        6.146477503   8.503056312  17.712022905
C        6.145570938  11.340843728  17.562411780
C       -0.000636815  13.491123572  17.569418487
C       -0.001128822  14.914940704  17.599178038
C        1.231841106  12.780528488  17.579639311
C        1.230177711  15.621185029  17.608480530
C        2.461374439  13.493439328  17.615051815
C        2.461054939  14.914940759  17.613515020
C        3.691913723  12.780092275  17.606281899
C        3.688463660  15.620452597  17.614673541
C        4.919556790  13.490725840  17.606649950
C        4.919744736  14.914657375  17.610363297
C        6.146639699  12.769856800  17.568565501
C        6.149114101  15.624150657  17.599794714



     Writing output data file gc.save
     Check: negative starting charge=   -0.001867
     NEW-OLD atomic charge density approx. for the potential
     Check: negative starting charge=   -0.001867

     negative rho (up, down):  1.930E-03 0.000E+00

     total cpu time spent up to now is    44590.3 secs

     Self-consistent Calculation

     iteration #  1     ecut=    80.00 Ry     beta=0.70
     Davidson diagonalization with overlap
     c_bands:  1 eigenvalues not converged
     c_bands:  2 eigenvalues not converged
     ethr =  1.00E-06,  avg # of iterations = 12.2

     negative rho (up, down):  3.022E-03 0.000E+00

     total cpu time spent up to now is    45226.8 secs

     total energy              =  -12701.14067170 Ry
     Harris-Foulkes estimate   =  -12701.14815435 Ry
     estimated scf accuracy    <       0.05790767 Ry

     iteration #  2     ecut=    80.00 Ry     beta=0.70
     Davidson diagonalization with overlap
     ethr =  4.48E-06,  avg # of iterations =  3.3

     negative rho (up, down):  3.981E-03 0.000E+00

     total cpu time spent up to now is    45438.2 secs

     total energy              =  -12701.14039294 Ry
     Harris-Foulkes estimate   =  -12701.14306506 Ry
     estimated scf accuracy    <       0.01674544 Ry

     iteration #  3     ecut=    80.00 Ry     beta=0.70
     Davidson diagonalization with overlap
