
     Program PWSCF v.5.4.0 starts on 26Apr2017 at 18:55:49 

     This program is part of the open-source Quantum ESPRESSO suite
     for quantum simulation of materials; please cite
         "P. Giannozzi et al., J. Phys.:Condens. Matter 21 395502 (2009);
          URL http://www.quantum-espresso.org", 
     in publications or presentations arising from this work. More details at
     http://www.quantum-espresso.org/quote

     Parallel version (MPI & OpenMP), running on      56 processor cores
     Number of MPI processes:                56
     Threads/MPI process:                     1
     R & G space division:  proc/nbgrp/npool/nimage =      56
     Waiting for input...
     Reading input from standard input
Warning: card &IONS ignored
Warning: card / ignored

     Current dimensions of program PWSCF are:
     Max number of different atomic species (ntypx) = 10
     Max number of k-points (npk) =  40000
     Max angular momentum in pseudopotentials (lmaxx) =  3

     -------------------------------------
     Parameters for Dispersion Correction:
     -------------------------------------
       atom      VdW radius       C_6     

        Cu         2.952        374.666
        C_h        2.744         60.710
        C          2.744         60.710
        H          1.892          4.857

     Subspace diagonalization in iterative solution of the eigenvalue problem:
     one sub-group per band group will be used
     scalapack distributed-memory algorithm (size of sub-group:  5*  5 procs)

 
     Parallelization info
     --------------------
     sticks:   dense  smooth     PW     G-vecs:    dense   smooth      PW
     Min         204     204     54                36612    36612    4962
     Max         205     205     55                36617    36617    4968
     Sum       11433   11433   3039              2050409  2050409  278033
 


     bravais-lattice index     =            0
     lattice parameter (alat)  =      13.9425  a.u.
     unit-cell volume          =   21209.0878 (a.u.)^3
     number of atoms/cell      =          151
     number of atomic types    =            4
     number of electrons       =      1298.00
     number of Kohn-Sham states=          779
     kinetic-energy cutoff     =      80.0000  Ry
     charge density cutoff     =     320.0000  Ry
     convergence threshold     =      1.0E-08
     mixing beta               =       0.7000
     number of iterations used =            8  local-TF  mixing
     Exchange-correlation      =  SLA  PW   PBE  PBE ( 1  4  3  4 0 0)

     celldm(1)=  13.942539  celldm(2)=   0.000000  celldm(3)=   0.000000
     celldm(4)=   0.000000  celldm(5)=   0.000000  celldm(6)=   0.000000

     crystal axes: (cart. coord. in units of alat)
               a(1) = (   1.000000   0.000000   0.000000 )  
               a(2) = (   0.000000   2.309401   0.000000 )  
               a(3) = (   0.000000   0.000000   3.388418 )  

     reciprocal axes: (cart. coord. in units 2 pi/alat)
               b(1) = (  1.000000  0.000000  0.000000 )  
               b(2) = (  0.000000  0.433013  0.000000 )  
               b(3) = (  0.000000  0.000000  0.295123 )  


     PseudoPot. # 1 for Cu read from file:
     /home/549/hxw549/Short/pseudopotentials/Cu.pbe-n-van_ak.UPF
     MD5 check sum: 601f7c30f7467666bec936e0661ce3e1
     Pseudo is Ultrasoft + core correction, Zval = 11.0
     Generated by new atomic code, or converted to UPF format
     Using radial grid of  867 points,  6 beta functions with: 
                l(1) =   0
                l(2) =   0
                l(3) =   1
                l(4) =   1
                l(5) =   2
                l(6) =   2
     Q(r) pseudized with  8 coefficients,  rinner =    1.400   1.400   1.400
                                                       1.400   1.400

     PseudoPot. # 2 for C  read from file:
     /home/549/hxw549/Short/pseudopotentials/C.star1s-pbe-mt_gipaw.UPF
     MD5 check sum: ef0cb3dee31bd9e4ba2a832a2c716264
     Pseudo is Norm-conserving, Zval =  5.0
     Generated by new atomic code, or converted to UPF format
     Using radial grid of 1073 points,  1 beta functions with: 
                l(1) =   0

     PseudoPot. # 3 for C  read from file:
     /home/549/hxw549/Short/pseudopotentials/C.pbe-mt_gipaw.UPF
     MD5 check sum: 5ac2f21f2c440b14befe521540822c15
     Pseudo is Norm-conserving, Zval =  4.0
     Generated by new atomic code, or converted to UPF format
     Using radial grid of 1073 points,  1 beta functions with: 
                l(1) =   0

     PseudoPot. # 4 for H  read from file:
     /home/549/hxw549/Short/pseudopotentials/H.pbe-van_ak.UPF
     MD5 check sum: 077eb6d537518a38cb46c6de387227b7
     Pseudo is Ultrasoft, Zval =  1.0
     Generated by new atomic code, or converted to UPF format
     Using radial grid of  615 points,  1 beta functions with: 
                l(1) =   0
     Q(r) pseudized with  8 coefficients,  rinner =    0.800

     atomic species   valence    mass     pseudopotential
        Cu            11.00    63.54600     Cu( 1.00)
        C_h            5.00    12.01070     C ( 1.00)
        C              4.00    12.01070     C ( 1.00)
        H              1.00     1.00783     H ( 1.00)

     No symmetry found



   Cartesian axes

     site n.     atom                  positions (alat units)
         1           Cu  tau(   1) = (   0.0023701   0.0005531   0.9912775  )
         2           Cu  tau(   2) = (   0.2522943   0.2298133   0.9926653  )
         3           Cu  tau(   3) = (   0.5025296   0.0001495   0.9914819  )
         4           Cu  tau(   4) = (   0.7524013   0.2299767   0.9924321  )
         5           Cu  tau(   5) = (   0.0025375   0.4601610   0.9926740  )
         6           Cu  tau(   6) = (   0.2531029   0.6915518   0.9925774  )
         7           Cu  tau(   7) = (   0.5026857   0.4598738   0.9931577  )
         8           Cu  tau(   8) = (   0.7528923   0.6915806   0.9923958  )
         9           Cu  tau(   9) = (   0.0033284   0.9235327   0.9914067  )
        10           Cu  tau(  10) = (   0.2536458   1.1551632   0.9916268  )
        11           Cu  tau(  11) = (   0.5031110   0.9237667   0.9921888  )
        12           Cu  tau(  12) = (   0.7532464   1.1549911   0.9918572  )
        13           Cu  tau(  13) = (   0.0031228   1.3872533   0.9902750  )
        14           Cu  tau(  14) = (   0.2531675   1.6194281   0.9899745  )
        15           Cu  tau(  15) = (   0.5035730   1.3876186   0.9919566  )
        16           Cu  tau(  16) = (   0.7530729   1.6196848   0.9896121  )
        17           Cu  tau(  17) = (   0.0031753   1.8498056   0.9901986  )
        18           Cu  tau(  18) = (   0.2527161   2.0803759   0.9900461  )
        19           Cu  tau(  19) = (   0.5026297   1.8505913   0.9887375  )
        20           Cu  tau(  20) = (   0.7525822   2.0801547   0.9906741  )
        21           Cu  tau(  21) = (   0.0029714   0.2294365   1.2412071  )
        22           Cu  tau(  22) = (   0.2530781  -0.0006502   1.2409225  )
        23           Cu  tau(  23) = (   0.5031218   0.2294308   1.2412588  )
        24           Cu  tau(  24) = (   0.7530282  -0.0002383   1.2413913  )
        25           Cu  tau(  25) = (   0.0037474   0.6915272   1.2388332  )
        26           Cu  tau(  26) = (   0.2534508   0.4599901   1.2402593  )
        27           Cu  tau(  27) = (   0.5034705   0.6915691   1.2392123  )
        28           Cu  tau(  28) = (   0.7531709   0.4594197   1.2392921  )
        29           Cu  tau(  29) = (   0.0044018   1.1568475   1.2366386  )
        30           Cu  tau(  30) = (   0.2539968   0.9236930   1.2387872  )
        31           Cu  tau(  31) = (   0.5040972   1.1559828   1.2392214  )
        32           Cu  tau(  32) = (   0.7544796   0.9232473   1.2393972  )
        33           Cu  tau(  33) = (   0.0041560   1.6193309   1.2388143  )
        34           Cu  tau(  34) = (   0.2536870   1.3888299   1.2368786  )
        35           Cu  tau(  35) = (   0.5035967   1.6211676   1.2364274  )
        36           Cu  tau(  36) = (   0.7545803   1.3894447   1.2365008  )
        37           Cu  tau(  37) = (   0.0032782   2.0794921   1.2408876  )
        38           Cu  tau(  38) = (   0.2531897   1.8496993   1.2398460  )
        39           Cu  tau(  39) = (   0.5034349   2.0792346   1.2399824  )
        40           Cu  tau(  40) = (   0.7540034   1.8497362   1.2391936  )
        41           Cu  tau(  41) = (   0.0038687  -0.0013266   1.4920112  )
        42           Cu  tau(  42) = (   0.2541654   0.2276460   1.4894066  )
        43           Cu  tau(  43) = (   0.5047584  -0.0006080   1.4915878  )
        44           Cu  tau(  44) = (   0.7547324   0.2291704   1.4909609  )
        45           Cu  tau(  45) = (   0.0039754   0.4590212   1.4890642  )
        46           Cu  tau(  46) = (   0.2548312   0.6910340   1.4878485  )
        47           Cu  tau(  47) = (   0.5047712   0.4598869   1.4896285  )
        48           Cu  tau(  48) = (   0.7553903   0.6899110   1.4873405  )
        49           Cu  tau(  49) = (   0.0070936   0.9252700   1.4857464  )
        50           Cu  tau(  50) = (   0.2544914   1.1583113   1.4855396  )
        51           Cu  tau(  51) = (   0.5052697   0.9225779   1.4862390  )
        52           Cu  tau(  52) = (   0.7578866   1.1594260   1.4829290  )
        53           Cu  tau(  53) = (   0.0061710   1.3887674   1.4884912  )
        54           Cu  tau(  54) = (   0.2537878   1.6193626   1.4889766  )
        55           Cu  tau(  55) = (   0.5051385   1.3936799   1.4817811  )
        56           Cu  tau(  56) = (   0.7568507   1.6201381   1.4883657  )
        57           Cu  tau(  57) = (   0.0050292   1.8504379   1.4908492  )
        58           Cu  tau(  58) = (   0.2543320   2.0794405   1.4914776  )
        59           Cu  tau(  59) = (   0.5047577   1.8492729   1.4900454  )
        60           Cu  tau(  60) = (   0.7543994   2.0791456   1.4919649  )
        61           Cu  tau(  61) = (   0.0047913   0.2306247   1.7402186  )
        62           Cu  tau(  62) = (   0.2550961   0.0001435   1.7427744  )
        63           Cu  tau(  63) = (   0.5057528   0.2283734   1.7411779  )
        64           Cu  tau(  64) = (   0.7561085  -0.0000909   1.7422458  )
        65           Cu  tau(  65) = (   0.0053721   0.6896092   1.7355837  )
        66           Cu  tau(  66) = (   0.2567127   0.4576389   1.7348078  )
        67           Cu  tau(  67) = (   0.5075110   0.6951879   1.7408955  )
        68           Cu  tau(  68) = (   0.7535993   0.4595840   1.7396673  )
        69           Cu  tau(  69) = (   0.0120203   1.1589231   1.7404964  )
        70           Cu  tau(  70) = (   0.2583518   0.9233354   1.7346766  )
        71           Cu  tau(  71) = (   0.5072397   1.1632500   1.7209039  )
        72           Cu  tau(  72) = (   0.7653629   0.9287559   1.7233979  )
        73           Cu  tau(  73) = (   0.0075763   1.6181725   1.7390357  )
        74           Cu  tau(  74) = (   0.2591149   1.3887432   1.7382630  )
        75           Cu  tau(  75) = (   0.5086521   1.6186265   1.7374447  )
        76           Cu  tau(  76) = (   0.7595798   1.3867089   1.7354095  )
        77           Cu  tau(  77) = (   0.0062193   2.0789308   1.7432689  )
        78           Cu  tau(  78) = (   0.2567959   1.8486716   1.7397377  )
        79           Cu  tau(  79) = (   0.5057943   2.0797658   1.7420088  )
        80           Cu  tau(  80) = (   0.7574506   1.8487447   1.7412123  )
        81           Cu  tau(  81) = (   0.0082092   0.0037877   1.9879006  )
        82           Cu  tau(  82) = (   0.2577954   0.2331451   1.9898915  )
        83           Cu  tau(  83) = (   0.5041099  -0.0007611   1.9906134  )
        84           Cu  tau(  84) = (   0.7525444   0.2285047   1.9906828  )
        85           Cu  tau(  85) = (   0.0021013   0.4544026   1.9933688  )
        86           Cu  tau(  86) = (   0.2452862   0.6835861   1.9744261  )
        87           Cu  tau(  87) = (   0.5057712   0.4603167   1.9876923  )
        88           Cu  tau(  88) = (   0.7597420   0.6875193   1.9843476  )
        89           Cu  tau(  89) = (  -0.0020278   0.9227397   1.9804540  )
        90           Cu  tau(  90) = (   0.2658969   1.1508642   1.9808554  )
        91           Cu  tau(  91) = (   0.5535786   0.9522431   1.9653777  )
        92           Cu  tau(  92) = (   0.7814193   1.1797657   1.9977810  )
        93           Cu  tau(  93) = (   0.0275559   1.3952747   1.9930356  )
        94           Cu  tau(  94) = (   0.2664933   1.6238450   1.9869247  )
        95           Cu  tau(  95) = (   0.5089217   1.3860883   1.9818804  )
        96           Cu  tau(  96) = (   0.7605104   1.6117712   1.9851316  )
        97           Cu  tau(  97) = (   0.0059979   1.8447571   1.9877681  )
        98           Cu  tau(  98) = (   0.2555181   2.0758967   1.9879824  )
        99           Cu  tau(  99) = (   0.5132582   1.8489597   1.9856103  )
       100           Cu  tau( 100) = (   0.7595416   2.0816111   1.9885779  )
       101           C   tau( 101) = (  -0.0103769   0.0944376   2.3890921  )
       102           C   tau( 102) = (  -0.0105203   0.2864691   2.4063589  )
       103           C   tau( 103) = (   0.1562699  -0.0021316   2.3849102  )
       104           C   tau( 104) = (   0.1556573   0.3820899   2.4221379  )
       105           C   tau( 105) = (   0.3226180   0.0944783   2.3904494  )
       106           C   tau( 106) = (   0.3223383   0.2862627   2.4088131  )
       107           C   tau( 107) = (   0.4895262  -0.0019479   2.3822011  )
       108           C   tau( 108) = (   0.4890551   0.3830602   2.4146001  )
       109           C   tau( 109) = (   0.6564742   0.0947236   2.3868576  )
       110           C   tau( 110) = (   0.6561136   0.2868244   2.4023497  )
       111           C   tau( 111) = (   0.8229854  -0.0018807   2.3819412  )
       112           C   tau( 112) = (   0.8228886   0.3824320   2.4140750  )
       113           C   tau( 113) = (  -0.0113374   0.6701957   2.4479895  )
       114           C   tau( 114) = (  -0.0122261   0.8629609   2.4539182  )
       115           C   tau( 115) = (   0.1552772   0.5730334   2.4485801  )
       116           C   tau( 116) = (   0.1541436   0.9597968   2.4617561  )
       117           C   tau( 117) = (   0.3213128   0.6692623   2.4599181  )
       118           C_h tau( 118) = (   0.3184984   0.8611734   2.4642354  )
       119           C   tau( 119) = (   0.4884460   0.5740072   2.4346705  )
       120           C   tau( 120) = (   0.4827484   0.9556609   2.3894952  )
       121           C   tau( 121) = (   0.4216377   0.9238752   2.1851263  )
       122           H   tau( 122) = (   0.4104643   0.7731797   2.1656364  )
       123           H   tau( 123) = (   0.2798076   0.9763551   2.1781611  )
       124           C   tau( 124) = (   0.6562846   0.6708059   2.4312793  )
       125           C   tau( 125) = (   0.6576716   0.8611452   2.4235509  )
       126           C   tau( 126) = (   0.8230035   0.5740997   2.4324330  )
       127           C   tau( 127) = (   0.8210756   0.9581713   2.4305772  )
       128           C   tau( 128) = (  -0.0108793   1.2468637   2.4107300  )
       129           C   tau( 129) = (  -0.0105860   1.4397120   2.3925802  )
       130           C   tau( 130) = (   0.1550752   1.1519598   2.4318622  )
       131           C   tau( 131) = (   0.1559600   1.5365928   2.3915931  )
       132           C   tau( 132) = (   0.3225252   1.2490795   2.4182764  )
       133           C   tau( 133) = (   0.3224784   1.4410472   2.4020022  )
       134           C   tau( 134) = (   0.4882033   1.1552145   2.4137647  )
       135           C   tau( 135) = (   0.4891463   1.5364117   2.3919873  )
       136           C   tau( 136) = (   0.6543677   1.2476657   2.4045687  )
       137           C   tau( 137) = (   0.6555603   1.4404126   2.3944468  )
       138           C   tau( 138) = (   0.8223089   1.1510513   2.4117753  )
       139           C   tau( 139) = (   0.8224651   1.5358903   2.3850960  )
       140           C   tau( 140) = (  -0.0103791   1.8251840   2.3752745  )
       141           C   tau( 141) = (  -0.0101573   2.0179628   2.3758076  )
       142           C   tau( 142) = (   0.1564209   1.7289726   2.3810649  )
       143           C   tau( 143) = (   0.1564182   2.1145480   2.3773901  )
       144           C   tau( 144) = (   0.3231115   1.8252836   2.3819357  )
       145           C   tau( 145) = (   0.3233013   2.0180263   2.3790683  )
       146           C   tau( 146) = (   0.4894996   1.7290179   2.3840607  )
       147           C   tau( 147) = (   0.4898444   2.1146176   2.3799633  )
       148           C   tau( 148) = (   0.6561199   1.8251554   2.3789644  )
       149           C   tau( 149) = (   0.6562931   2.0180054   2.3773154  )
       150           C   tau( 150) = (   0.8226788   1.7285066   2.3770501  )
       151           C   tau( 151) = (   0.8231952   2.1146619   2.3757520  )

     number of k points=     6  gaussian smearing, width (Ry)=  0.1000
                       cart. coord. in units 2pi/alat
        k(    1) = (   0.0000000   0.0000000   0.0000000), wk =   0.2500000
        k(    2) = (   0.0000000  -0.2165064   0.0000000), wk =   0.2500000
        k(    3) = (   0.2500000   0.0000000   0.0000000), wk =   0.5000000
        k(    4) = (   0.2500000  -0.2165064   0.0000000), wk =   0.5000000
        k(    5) = (  -0.5000000   0.0000000   0.0000000), wk =   0.2500000
        k(    6) = (  -0.5000000  -0.2165064   0.0000000), wk =   0.2500000

     Dense  grid:  2050409 G-vectors     FFT dimensions: (  80, 192, 270)

     Largest allocated arrays     est. size (Mb)     dimensions
        Kohn-Sham Wavefunctions        54.73 Mb     (    4604,  779)
        NL pseudopotentials           130.04 Mb     (    4604, 1851)
        Each V/rho on FFT grid          1.17 Mb     (   76800)
        Each G-vector array             0.28 Mb     (   36616)
        G-vector shells                 0.14 Mb     (   17932)
     Largest temporary arrays     est. size (Mb)     dimensions
        Auxiliary wavefunctions       218.90 Mb     (    4604, 3116)
        Each subspace H/S matrix        5.92 Mb     (     623,  623)
        Each <psi_i|beta_j> matrix     22.00 Mb     (    1851,  779)
        Arrays for rho mixing           9.38 Mb     (   76800,    8)

     Initial potential from superposition of free atoms
     Check: negative starting charge=   -0.001831

     starting charge 1272.31749, renormalised to 1298.00000

     negative rho (up, down):  1.868E-03 0.000E+00
     Starting wfc are 1294 randomized atomic wfcs

     total cpu time spent up to now is      108.3 secs

     Self-consistent Calculation

     iteration #  1     ecut=    80.00 Ry     beta=0.70
     Davidson diagonalization with overlap
     c_bands:  3 eigenvalues not converged
     c_bands:  4 eigenvalues not converged
     c_bands:  2 eigenvalues not converged
     c_bands:  3 eigenvalues not converged
     c_bands:  4 eigenvalues not converged
     c_bands:  2 eigenvalues not converged
     ethr =  1.00E-04,  avg # of iterations = 40.0

     negative rho (up, down):  2.750E+01 0.000E+00

     total cpu time spent up to now is     2283.2 secs

     total energy              =   -9447.49338044 Ry
     Harris-Foulkes estimate   =  -17598.60518096 Ry
     estimated scf accuracy    <  189798.23887083 Ry

     iteration #  2     ecut=    80.00 Ry     beta=0.70
     Davidson diagonalization with overlap
     ethr =  1.00E-02,  avg # of iterations = 16.0

     negative rho (up, down):  3.072E+01 0.000E+00

     total cpu time spent up to now is     3271.6 secs

     total energy              =  -11671.28953045 Ry
     Harris-Foulkes estimate   =  -13783.03326829 Ry
     estimated scf accuracy    <   36660.38798037 Ry

     iteration #  3     ecut=    80.00 Ry     beta=0.70
     Davidson diagonalization with overlap
     c_bands:  1 eigenvalues not converged
     ethr =  1.00E-02,  avg # of iterations = 22.2

     negative rho (up, down):  3.173E+01 0.000E+00

     total cpu time spent up to now is     4252.9 secs

     total energy              =  -12272.02918170 Ry
     Harris-Foulkes estimate   =  -13683.98342958 Ry
     estimated scf accuracy    <    5621.58801174 Ry

     iteration #  4     ecut=    80.00 Ry     beta=0.70
     Davidson diagonalization with overlap
     ethr =  1.00E-02,  avg # of iterations =  4.8

     negative rho (up, down):  2.111E+01 0.000E+00

     total cpu time spent up to now is     4746.7 secs

     total energy              =  -12851.01382033 Ry
     Harris-Foulkes estimate   =  -13075.00473390 Ry
     estimated scf accuracy    <     796.35968696 Ry

     iteration #  5     ecut=    80.00 Ry     beta=0.70
     Davidson diagonalization with overlap
     ethr =  1.00E-02,  avg # of iterations =  3.0

     negative rho (up, down):  1.743E+01 0.000E+00

     total cpu time spent up to now is     5023.3 secs

     total energy              =  -12864.70616722 Ry
     Harris-Foulkes estimate   =  -12924.38860547 Ry
     estimated scf accuracy    <    1952.72084828 Ry

     iteration #  6     ecut=    80.00 Ry     beta=0.70
     Davidson diagonalization with overlap
     ethr =  1.00E-02,  avg # of iterations =  1.3

     negative rho (up, down):  1.386E+01 0.000E+00

     total cpu time spent up to now is     5193.3 secs

     total energy              =  -12826.88370002 Ry
     Harris-Foulkes estimate   =  -12898.30474738 Ry
     estimated scf accuracy    <     965.64198279 Ry

     iteration #  7     ecut=    80.00 Ry     beta=0.70
     Davidson diagonalization with overlap
     ethr =  1.00E-02,  avg # of iterations =  2.0

     negative rho (up, down):  1.056E+01 0.000E+00

     total cpu time spent up to now is     5380.8 secs

     total energy              =  -12832.20529022 Ry
     Harris-Foulkes estimate   =  -12863.91195009 Ry
     estimated scf accuracy    <     617.21380251 Ry

     iteration #  8     ecut=    80.00 Ry     beta=0.70
     Davidson diagonalization with overlap
     ethr =  1.00E-02,  avg # of iterations =  1.0

     negative rho (up, down):  7.084E+00 0.000E+00

     total cpu time spent up to now is     5547.5 secs

     total energy              =  -12798.72894049 Ry
     Harris-Foulkes estimate   =  -12844.70403450 Ry
     estimated scf accuracy    <     671.76309220 Ry

     iteration #  9     ecut=    80.00 Ry     beta=0.70
     Davidson diagonalization with overlap
     ethr =  1.00E-02,  avg # of iterations =  1.5

     negative rho (up, down):  6.382E+00 0.000E+00

     total cpu time spent up to now is     5719.5 secs

     total energy              =  -12795.89872878 Ry
     Harris-Foulkes estimate   =  -12810.54515889 Ry
     estimated scf accuracy    <     369.68664959 Ry

     iteration # 10     ecut=    80.00 Ry     beta=0.70
     Davidson diagonalization with overlap
     ethr =  1.00E-02,  avg # of iterations =  1.5

     negative rho (up, down):  3.756E+00 0.000E+00

     total cpu time spent up to now is     5891.9 secs

     total energy              =  -12773.92550825 Ry
     Harris-Foulkes estimate   =  -12800.85387177 Ry
     estimated scf accuracy    <     220.74354026 Ry

     iteration # 11     ecut=    80.00 Ry     beta=0.70
     Davidson diagonalization with overlap
     ethr =  1.00E-02,  avg # of iterations =  2.0

     negative rho (up, down):  1.006E+00 0.000E+00

     total cpu time spent up to now is     6072.0 secs

     total energy              =  -12738.30529920 Ry
     Harris-Foulkes estimate   =  -12781.51470812 Ry
     estimated scf accuracy    <     217.85409699 Ry

     iteration # 12     ecut=    80.00 Ry     beta=0.70
     Davidson diagonalization with overlap
     ethr =  1.00E-02,  avg # of iterations =  2.7

     negative rho (up, down):  1.066E+00 0.000E+00

     total cpu time spent up to now is     6259.7 secs

     total energy              =  -12744.58646783 Ry
     Harris-Foulkes estimate   =  -12752.53139587 Ry
     estimated scf accuracy    <     153.33969167 Ry

     iteration # 13     ecut=    80.00 Ry     beta=0.70
     Davidson diagonalization with overlap
     ethr =  1.00E-02,  avg # of iterations =  1.0

     negative rho (up, down):  1.337E+00 0.000E+00

     total cpu time spent up to now is     6426.4 secs

     total energy              =  -12734.48892364 Ry
     Harris-Foulkes estimate   =  -12754.82080108 Ry
     estimated scf accuracy    <      70.60007999 Ry

     iteration # 14     ecut=    80.00 Ry     beta=0.70
     Davidson diagonalization with overlap
     ethr =  5.44E-03,  avg # of iterations =  1.5

     negative rho (up, down):  4.864E+00 0.000E+00

     total cpu time spent up to now is     6600.1 secs

     total energy              =  -12729.96246353 Ry
     Harris-Foulkes estimate   =  -12737.59332566 Ry
     estimated scf accuracy    <      41.32492380 Ry

     iteration # 15     ecut=    80.00 Ry     beta=0.70
     Davidson diagonalization with overlap
     ethr =  3.18E-03,  avg # of iterations =  2.5

     negative rho (up, down):  1.638E+00 0.000E+00

     total cpu time spent up to now is     6785.7 secs

     total energy              =  -12729.90404442 Ry
     Harris-Foulkes estimate   =  -12732.22370780 Ry
     estimated scf accuracy    <      25.64765127 Ry

     iteration # 16     ecut=    80.00 Ry     beta=0.70
     Davidson diagonalization with overlap
     ethr =  1.98E-03,  avg # of iterations =  3.2

     negative rho (up, down):  4.473E+00 0.000E+00

     total cpu time spent up to now is     6977.2 secs

     total energy              =  -12727.43941669 Ry
     Harris-Foulkes estimate   =  -12732.47010099 Ry
     estimated scf accuracy    <      22.35458846 Ry

     iteration # 17     ecut=    80.00 Ry     beta=0.70
     Davidson diagonalization with overlap
     ethr =  1.72E-03,  avg # of iterations =  2.7

     negative rho (up, down):  4.794E+00 0.000E+00

     total cpu time spent up to now is     7164.7 secs

     total energy              =  -12727.17168943 Ry
     Harris-Foulkes estimate   =  -12728.22987735 Ry
     estimated scf accuracy    <      10.56117396 Ry

     iteration # 18     ecut=    80.00 Ry     beta=0.70
     Davidson diagonalization with overlap
     ethr =  8.14E-04,  avg # of iterations =  7.3

     negative rho (up, down):  3.592E+00 0.000E+00

     total cpu time spent up to now is     7414.4 secs

     total energy              =  -12726.20459210 Ry
     Harris-Foulkes estimate   =  -12727.42429962 Ry
     estimated scf accuracy    <       8.38525549 Ry

     iteration # 19     ecut=    80.00 Ry     beta=0.70
     Davidson diagonalization with overlap
     ethr =  6.46E-04,  avg # of iterations =  1.5

     negative rho (up, down):  2.765E+00 0.000E+00

     total cpu time spent up to now is     7587.2 secs

     total energy              =  -12725.58679872 Ry
     Harris-Foulkes estimate   =  -12726.38412086 Ry
     estimated scf accuracy    <       9.23983579 Ry

     iteration # 20     ecut=    80.00 Ry     beta=0.70
     Davidson diagonalization with overlap
     ethr =  6.46E-04,  avg # of iterations =  1.0

     negative rho (up, down):  2.130E+00 0.000E+00

     total cpu time spent up to now is     7755.0 secs

     total energy              =  -12724.87968641 Ry
     Harris-Foulkes estimate   =  -12725.67271930 Ry
     estimated scf accuracy    <       8.22250773 Ry

     iteration # 21     ecut=    80.00 Ry     beta=0.70
     Davidson diagonalization with overlap
     ethr =  6.33E-04,  avg # of iterations =  1.0

     negative rho (up, down):  1.048E+00 0.000E+00

     total cpu time spent up to now is     7922.3 secs

     total energy              =  -12723.07237980 Ry
     Harris-Foulkes estimate   =  -12725.20345970 Ry
     estimated scf accuracy    <       7.49006425 Ry

     iteration # 22     ecut=    80.00 Ry     beta=0.70
     Davidson diagonalization with overlap
     ethr =  5.77E-04,  avg # of iterations =  1.0

     negative rho (up, down):  7.425E-01 0.000E+00

     total cpu time spent up to now is     8090.1 secs

     total energy              =  -12721.80827374 Ry
     Harris-Foulkes estimate   =  -12723.21851716 Ry
     estimated scf accuracy    <       5.25502783 Ry

     iteration # 23     ecut=    80.00 Ry     beta=0.70
     Davidson diagonalization with overlap
     ethr =  4.05E-04,  avg # of iterations =  4.3

     negative rho (up, down):  9.783E-01 0.000E+00

     total cpu time spent up to now is     8297.6 secs

     total energy              =  -12721.20974446 Ry
     Harris-Foulkes estimate   =  -12722.01253678 Ry
     estimated scf accuracy    <       4.89745157 Ry

     iteration # 24     ecut=    80.00 Ry     beta=0.70
     Davidson diagonalization with overlap
     ethr =  3.77E-04,  avg # of iterations =  5.7

     negative rho (up, down):  1.228E+00 0.000E+00

     total cpu time spent up to now is     8524.6 secs

     total energy              =  -12721.05962961 Ry
     Harris-Foulkes estimate   =  -12721.42330233 Ry
     estimated scf accuracy    <       2.41526143 Ry

     iteration # 25     ecut=    80.00 Ry     beta=0.70
     Davidson diagonalization with overlap
     ethr =  1.86E-04,  avg # of iterations =  6.3

     negative rho (up, down):  1.110E+00 0.000E+00

     total cpu time spent up to now is     8766.6 secs

     total energy              =  -12720.89279949 Ry
     Harris-Foulkes estimate   =  -12721.18215239 Ry
     estimated scf accuracy    <       1.40565525 Ry

     iteration # 26     ecut=    80.00 Ry     beta=0.70
     Davidson diagonalization with overlap
     ethr =  1.08E-04,  avg # of iterations =  5.7

     negative rho (up, down):  9.998E-01 0.000E+00

     total cpu time spent up to now is     8992.8 secs

     total energy              =  -12720.72893278 Ry
     Harris-Foulkes estimate   =  -12720.94922233 Ry
     estimated scf accuracy    <       0.74178383 Ry

     iteration # 27     ecut=    80.00 Ry     beta=0.70
     Davidson diagonalization with overlap
     ethr =  5.71E-05,  avg # of iterations =  7.3

     negative rho (up, down):  6.863E-01 0.000E+00

     total cpu time spent up to now is     9260.8 secs

     total energy              =  -12720.72119951 Ry
     Harris-Foulkes estimate   =  -12720.78391292 Ry
     estimated scf accuracy    <       0.26092532 Ry

     iteration # 28     ecut=    80.00 Ry     beta=0.70
     Davidson diagonalization with overlap
     c_bands:  1 eigenvalues not converged
     ethr =  2.01E-05,  avg # of iterations =  8.5

     negative rho (up, down):  3.668E-01 0.000E+00

     total cpu time spent up to now is     9526.7 secs

     total energy              =  -12720.70985801 Ry
     Harris-Foulkes estimate   =  -12720.74565788 Ry
     estimated scf accuracy    <       0.14740821 Ry

     iteration # 29     ecut=    80.00 Ry     beta=0.70
     Davidson diagonalization with overlap
     c_bands:  1 eigenvalues not converged
     ethr =  1.14E-05,  avg # of iterations = 12.3

     negative rho (up, down):  9.216E-02 0.000E+00

     total cpu time spent up to now is     9864.1 secs

     total energy              =  -12720.72060108 Ry
     Harris-Foulkes estimate   =  -12720.72073144 Ry
     estimated scf accuracy    <       0.03814875 Ry

     iteration # 30     ecut=    80.00 Ry     beta=0.70
     Davidson diagonalization with overlap
     c_bands:  1 eigenvalues not converged
     c_bands:  1 eigenvalues not converged
     ethr =  2.94E-06,  avg # of iterations = 17.0

     negative rho (up, down):  5.269E-02 0.000E+00

     total cpu time spent up to now is    10277.3 secs

     total energy              =  -12720.72205973 Ry
     Harris-Foulkes estimate   =  -12720.72311490 Ry
     estimated scf accuracy    <       0.00823464 Ry

     iteration # 31     ecut=    80.00 Ry     beta=0.70
     Davidson diagonalization with overlap
     c_bands:  1 eigenvalues not converged
     c_bands:  2 eigenvalues not converged
     ethr =  6.34E-07,  avg # of iterations = 15.2

     negative rho (up, down):  2.338E-02 0.000E+00

     total cpu time spent up to now is    10643.2 secs

     total energy              =  -12720.72360662 Ry
     Harris-Foulkes estimate   =  -12720.72340489 Ry
     estimated scf accuracy    <       0.00539221 Ry

     iteration # 32     ecut=    80.00 Ry     beta=0.70
     Davidson diagonalization with overlap
     c_bands:  3 eigenvalues not converged
     ethr =  4.15E-07,  avg # of iterations = 10.0

     negative rho (up, down):  1.704E-02 0.000E+00

     total cpu time spent up to now is    10940.0 secs

     total energy              =  -12720.72416667 Ry
     Harris-Foulkes estimate   =  -12720.72404597 Ry
     estimated scf accuracy    <       0.00152339 Ry

     iteration # 33     ecut=    80.00 Ry     beta=0.70
     Davidson diagonalization with overlap
     c_bands:  1 eigenvalues not converged
     c_bands:  1 eigenvalues not converged
     ethr =  1.17E-07,  avg # of iterations = 13.2

     negative rho (up, down):  2.497E-03 0.000E+00

     total cpu time spent up to now is    11273.7 secs

     total energy              =  -12720.72414000 Ry
     Harris-Foulkes estimate   =  -12720.72438112 Ry
     estimated scf accuracy    <       0.00107828 Ry

     iteration # 34     ecut=    80.00 Ry     beta=0.70
     Davidson diagonalization with overlap
     c_bands:  2 eigenvalues not converged
     ethr =  8.31E-08,  avg # of iterations =  9.8

     negative rho (up, down):  1.764E-03 0.000E+00

     total cpu time spent up to now is    11570.0 secs

     total energy              =  -12720.72439797 Ry
     Harris-Foulkes estimate   =  -12720.72424380 Ry
     estimated scf accuracy    <       0.00027119 Ry

     iteration # 35     ecut=    80.00 Ry     beta=0.70
     Davidson diagonalization with overlap
     c_bands:  1 eigenvalues not converged
     ethr =  2.09E-08,  avg # of iterations = 10.0

     negative rho (up, down):  1.593E-03 0.000E+00

     total cpu time spent up to now is    11861.2 secs

     total energy              =  -12720.72446821 Ry
     Harris-Foulkes estimate   =  -12720.72441668 Ry
     estimated scf accuracy    <       0.00003238 Ry

     iteration # 36     ecut=    80.00 Ry     beta=0.70
     Davidson diagonalization with overlap
     c_bands:  1 eigenvalues not converged
     ethr =  2.49E-09,  avg # of iterations = 10.5

     negative rho (up, down):  1.593E-03 0.000E+00

     total cpu time spent up to now is    12161.6 secs

     total energy              =  -12720.72448644 Ry
     Harris-Foulkes estimate   =  -12720.72447154 Ry
     estimated scf accuracy    <       0.00001397 Ry

     iteration # 37     ecut=    80.00 Ry     beta=0.70
     Davidson diagonalization with overlap
     ethr =  1.08E-09,  avg # of iterations =  4.3

     negative rho (up, down):  1.952E-03 0.000E+00

     total cpu time spent up to now is    12379.6 secs

     total energy              =  -12720.72449553 Ry
     Harris-Foulkes estimate   =  -12720.72448830 Ry
     estimated scf accuracy    <       0.00000741 Ry

     iteration # 38     ecut=    80.00 Ry     beta=0.70
     Davidson diagonalization with overlap
     ethr =  5.71E-10,  avg # of iterations =  5.8

     negative rho (up, down):  2.139E-03 0.000E+00

     total cpu time spent up to now is    12609.2 secs

     total energy              =  -12720.72449734 Ry
     Harris-Foulkes estimate   =  -12720.72449623 Ry
     estimated scf accuracy    <       0.00000182 Ry

     iteration # 39     ecut=    80.00 Ry     beta=0.70
     Davidson diagonalization with overlap
     ethr =  1.41E-10,  avg # of iterations =  3.0

     negative rho (up, down):  2.027E-03 0.000E+00

     total cpu time spent up to now is    12814.7 secs

     total energy              =  -12720.72449767 Ry
     Harris-Foulkes estimate   =  -12720.72449759 Ry
     estimated scf accuracy    <       0.00000058 Ry

     iteration # 40     ecut=    80.00 Ry     beta=0.70
     Davidson diagonalization with overlap
     ethr =  4.51E-11,  avg # of iterations =  2.0

     negative rho (up, down):  2.031E-03 0.000E+00

     total cpu time spent up to now is    13004.1 secs

     total energy              =  -12720.72449770 Ry
     Harris-Foulkes estimate   =  -12720.72449774 Ry
     estimated scf accuracy    <       0.00000029 Ry

     iteration # 41     ecut=    80.00 Ry     beta=0.70
     Davidson diagonalization with overlap
     ethr =  2.21E-11,  avg # of iterations =  3.0

     negative rho (up, down):  2.056E-03 0.000E+00

     total cpu time spent up to now is    13204.5 secs

     total energy              =  -12720.72449777 Ry
     Harris-Foulkes estimate   =  -12720.72449773 Ry
     estimated scf accuracy    <       0.00000003 Ry

     iteration # 42     ecut=    80.00 Ry     beta=0.70
     Davidson diagonalization with overlap
     ethr =  2.05E-12,  avg # of iterations =  3.7

     negative rho (up, down):  2.047E-03 0.000E+00

     total cpu time spent up to now is    13586.1 secs

     total energy              =  -12720.72449780 Ry
     Harris-Foulkes estimate   =  -12720.72449778 Ry
     estimated scf accuracy    <       0.00000002 Ry

     iteration # 43     ecut=    80.00 Ry     beta=0.70
     Davidson diagonalization with overlap
     ethr =  1.40E-12,  avg # of iterations =  1.8

     negative rho (up, down):  2.047E-03 0.000E+00

     total cpu time spent up to now is    13760.5 secs

     End of self-consistent calculation

          k = 0.0000 0.0000 0.0000 (256287 PWs)   bands (ev):

   -16.9967 -16.1494 -15.9234 -15.2424 -14.8827 -14.5815 -14.4723 -14.1670
   -14.1083 -13.9748 -13.9623 -13.3166 -13.1811 -13.0349 -12.9799 -12.9361
   -12.9131 -11.5183 -11.4815 -11.3638 -11.2354 -11.0820 -10.3933 -10.0305
    -9.5716  -9.5083  -9.3620  -9.2297  -8.6790  -8.6216  -8.4999  -8.4356
    -7.8386  -7.6861  -7.6086  -7.4790  -7.4212  -7.4087  -7.3854  -7.3659
    -6.1943  -6.1261  -6.0154  -5.9843  -5.8969  -5.8074  -5.7461  -5.7333
    -5.7068  -5.4688  -5.4484  -4.9675  -4.7875  -4.7082  -4.6471  -4.6277
    -4.5174  -4.3897  -4.3480  -4.2629  -4.1190  -4.0305  -3.9652  -3.9493
    -3.8593  -3.8051  -3.5092  -3.4406  -3.4019  -3.3839  -3.3798  -3.3383
    -3.2870  -3.2071  -3.1373  -3.1141  -3.0304  -2.9973  -2.9937  -2.9858
    -2.9711  -2.9374  -2.8952  -2.8557  -2.7770  -2.7410  -2.6901  -2.6448
    -2.6363  -2.5911  -2.5646  -2.5415  -2.4782  -2.4456  -2.3197  -2.3094
    -2.2831  -2.2788  -2.1754  -2.1636  -2.1606  -2.1494  -2.1368  -2.1342
    -2.1311  -2.1277  -2.0082  -2.0016  -1.9971  -1.9949  -1.9741  -1.9339
    -1.9312  -1.8901  -1.8691  -1.8215  -1.7591  -1.7425  -1.7210  -1.7152
    -1.7053  -1.6940  -1.6719  -1.6536  -1.6416  -1.6359  -1.6020  -1.5869
    -1.5701  -1.5581  -1.5514  -1.5427  -1.5246  -1.5178  -1.5131  -1.5021
    -1.4941  -1.4885  -1.4575  -1.4454  -1.4066  -1.4029  -1.3870  -1.3345
    -1.3273  -1.3029  -1.2969  -1.2793  -1.2571  -1.2436  -1.2395  -1.2295
    -1.2242  -1.2005  -1.1894  -1.1750  -1.1682  -1.1665  -1.1479  -1.1419
    -1.0683  -1.0572  -1.0518  -1.0433  -1.0411  -1.0332  -1.0278  -1.0205
    -1.0119  -1.0079  -1.0050  -1.0005  -0.9975  -0.9866  -0.9770  -0.9761
    -0.9647  -0.9544  -0.9330  -0.9256  -0.9231  -0.9069  -0.9041  -0.8960
    -0.8877  -0.8729  -0.8650  -0.8522  -0.8513  -0.8473  -0.8423  -0.8415
    -0.8355  -0.8346  -0.8329  -0.8286  -0.8272  -0.8265  -0.8231  -0.8184
    -0.8171  -0.8120  -0.7858  -0.7666  -0.7583  -0.7433  -0.6965  -0.6762
    -0.6712  -0.6677  -0.6671  -0.6557  -0.6489  -0.6449  -0.6233  -0.6201
    -0.6107  -0.6065  -0.5907  -0.5809  -0.5789  -0.5764  -0.5657  -0.5547
    -0.5516  -0.5475  -0.5463  -0.5425  -0.5398  -0.5323  -0.5217  -0.5134
    -0.5052  -0.4720  -0.4664  -0.4341  -0.4262  -0.4211  -0.4157  -0.4056
    -0.4038  -0.3948  -0.3913  -0.3888  -0.3875  -0.3841  -0.3793  -0.3782
    -0.3719  -0.3691  -0.3671  -0.3655  -0.3603  -0.3448  -0.3380  -0.3307
    -0.3188  -0.2873  -0.2860  -0.2805  -0.2753  -0.2709  -0.2610  -0.2470
    -0.2468  -0.2439  -0.2397  -0.2333  -0.2320  -0.2263  -0.2222  -0.2132
    -0.2123  -0.2094  -0.2087  -0.2004  -0.1970  -0.1925  -0.1844  -0.1815
    -0.1792  -0.1727  -0.1719  -0.1628  -0.1566  -0.1541  -0.1360  -0.1220
    -0.1079  -0.1053  -0.0968  -0.0925  -0.0809  -0.0695  -0.0650  -0.0552
    -0.0467  -0.0444  -0.0418  -0.0371  -0.0357  -0.0307  -0.0235  -0.0064
    -0.0019   0.0010   0.0123   0.0215   0.0240   0.0253   0.0313   0.0385
     0.0413   0.0441   0.0482   0.0540   0.0579   0.0621   0.0647   0.0663
     0.0697   0.0753   0.0807   0.0831   0.0853   0.0879   0.0963   0.1060
     0.1092   0.1121   0.1219   0.1262   0.1457   0.1511   0.1559   0.1708
     0.1794   0.1903   0.1986   0.2160   0.2327   0.2354   0.2426   0.2474
     0.2587   0.2670   0.2717   0.2750   0.2784   0.2804   0.2961   0.3032
     0.3128   0.3164   0.3365   0.3483   0.3507   0.3607   0.3610   0.3644
     0.3700   0.3821   0.3900   0.3968   0.4001   0.4060   0.4111   0.4155
     0.4266   0.4315   0.4401   0.4514   0.4550   0.4585   0.4725   0.4760
     0.4804   0.4893   0.4961   0.5021   0.5111   0.5177   0.5240   0.5267
     0.5278   0.5328   0.5400   0.5413   0.5511   0.5521   0.5574   0.5632
     0.5647   0.5684   0.5727   0.5761   0.5803   0.5817   0.5837   0.5900
     0.5929   0.6023   0.6084   0.6237   0.6256   0.6301   0.6352   0.6527
     0.6565   0.6604   0.6657   0.6689   0.6723   0.6784   0.6799   0.6853
     0.6882   0.6935   0.6963   0.7014   0.7076   0.7088   0.7096   0.7167
     0.7180   0.7247   0.7290   0.7354   0.7379   0.7440   0.7512   0.7532
     0.7646   0.7655   0.7674   0.7686   0.7708   0.7733   0.7758   0.7825
     0.7869   0.7921   0.8002   0.8129   0.8235   0.8284   0.8340   0.8376
     0.8448   0.8482   0.8609   0.8663   0.8688   0.8735   0.8779   0.8859
     0.8944   0.8976   0.9033   0.9101   0.9148   0.9183   0.9242   0.9306
     0.9324   0.9397   0.9467   0.9527   0.9540   0.9577   0.9631   0.9663
     0.9726   0.9784   0.9832   0.9932   0.9983   1.0012   1.0046   1.0083
     1.0140   1.0157   1.0198   1.0228   1.0257   1.0286   1.0381   1.0414
     1.0476   1.0514   1.0584   1.0601   1.0619   1.0633   1.0695   1.0786
     1.0849   1.0894   1.0908   1.0968   1.1021   1.1046   1.1089   1.1170
     1.1218   1.1291   1.1327   1.1366   1.1395   1.1397   1.1406   1.1436
     1.1445   1.1479   1.1499   1.1543   1.1603   1.1730   1.1778   1.1874
     1.1936   1.2000   1.2078   1.2118   1.2176   1.2211   1.2245   1.2283
     1.2321   1.2341   1.2349   1.2450   1.2489   1.2510   1.2557   1.2625
     1.2680   1.2692   1.2740   1.2758   1.2788   1.2839   1.2854   1.2894
     1.2927   1.2986   1.3014   1.3062   1.3094   1.3126   1.3185   1.3215
     1.3237   1.3278   1.3301   1.3313   1.3350   1.3375   1.3406   1.3466
     1.3508   1.3559   1.3657   1.3684   1.3738   1.3748   1.3768   1.3784
     1.3848   1.3861   1.4012   1.4053   1.4099   1.4123   1.4172   1.4241
     1.4301   1.4328   1.4329   1.4389   1.4424   1.4449   1.4460   1.4482
     1.4489   1.4514   1.4556   1.4583   1.4600   1.4661   1.4695   1.4760
     1.4793   1.4811   1.4873   1.4899   1.4969   1.4979   1.5012   1.5049
     1.5156   1.5334   1.5376   1.5409   1.5508   1.5656   1.5773   1.5858
     1.5914   1.6017   1.6054   1.6090   1.6280   1.6305   1.6335   1.6434
     1.6487   1.6601   1.6661   1.6672   1.6706   1.6772   1.8962   1.9477
     1.9755   2.0605   2.1365   2.1432   2.1586   2.1964   2.2135   2.2209
     2.2217   2.2304   2.2381   2.2492   2.2561   2.3006   2.4178   2.4354
     2.4589   2.4671   2.4812   2.5248   2.5398   2.6969   2.7140   2.7567
     2.7785   2.8829   3.0110   3.0911   3.1469   3.2453   3.5400   3.6071
     3.7662   3.8086   3.8248   3.8595   3.8727   3.8851   3.9049   3.9481
     3.9635   3.9964   4.0132   4.0142   4.0194   4.0238   4.0719   4.1024
     4.1528   4.2277   4.2526   4.3217   4.4212   4.7010   4.7410   4.8238
     4.8523   4.9852   5.0618   5.3138   5.3354   5.3910   5.4691   5.6898
     5.7166   5.7434   5.7881   5.8948   5.9421   5.9705   6.3180   6.3280
     6.3808   6.4383   6.4559   6.4759   6.4982   6.5218   6.5564   6.6569
     6.7226   6.7280   6.7905   6.8143   6.8462   6.8775   6.9038   6.9175
     7.0370   7.0556   7.1158   7.1969   7.3670   7.3912   7.4120   7.5448
     7.5868   7.6488   7.6827   7.6869   7.7260   7.8282   7.9408   8.0891
     8.1013   8.1299   8.1527   8.2091   8.2270   8.2893   8.3174   8.3321
     8.3499   8.3680   8.3708   8.3940   8.4300   8.5170   8.5835   8.5981
     8.6382   8.6419   8.7131   8.7268   8.7531   8.7984   8.8417   8.8468
     8.8577   8.8850   9.0214   9.0447   9.0680   9.0845   9.1456   9.1908
     9.2348   9.2497   9.2666   9.3464   9.3558   9.5402   9.5469   9.5600
     9.5893   9.7060   9.7364   9.8190   9.8391   9.8767   9.9821  10.0615
    10.0645  10.1704  10.1908

          k = 0.0000-0.2165 0.0000 (256176 PWs)   bands (ev):

   -16.9958 -16.2017 -15.7515 -15.4939 -14.8381 -14.4541 -14.2456 -14.2394
   -14.1129 -14.0770 -13.6971 -13.6487 -13.5551 -13.5313 -12.4427 -12.3429
   -12.2622 -12.1449 -11.9893 -11.9595 -10.7140 -10.4730 -10.3987 -10.2520
    -9.8867  -9.2343  -9.1344  -8.9575  -8.8958  -8.8459  -8.8148  -8.1974
    -8.1277  -8.0463  -7.9912  -7.2259  -7.0821  -6.8944  -6.8423  -6.7899
    -6.7472  -6.6984  -6.6805  -6.0578  -5.9485  -5.8693  -5.8397  -5.3374
    -5.2487  -5.1095  -5.0714  -4.9273  -4.8360  -4.8290  -4.7948  -4.7273
    -4.6442  -4.6049  -4.5494  -4.4602  -4.4150  -4.1889  -3.9561  -3.8977
    -3.7435  -3.6826  -3.4821  -3.3991  -3.2907  -3.2873  -3.2642  -3.2619
    -3.1965  -3.1221  -3.0691  -3.0406  -3.0062  -3.0012  -2.9638  -2.9209
    -2.8900  -2.8202  -2.7963  -2.7729  -2.7146  -2.6856  -2.6478  -2.5722
    -2.5664  -2.5617  -2.5586  -2.5551  -2.5384  -2.5151  -2.5001  -2.4458
    -2.4097  -2.3588  -2.2653  -2.2360  -2.1967  -2.1935  -2.1821  -2.1693
    -2.1348  -2.1106  -2.0945  -2.0860  -2.0068  -1.9713  -1.9643  -1.9439
    -1.9415  -1.8876  -1.8654  -1.8273  -1.8107  -1.7577  -1.7541  -1.7414
    -1.7266  -1.7218  -1.7155  -1.7139  -1.7038  -1.6963  -1.6844  -1.6502
    -1.6318  -1.6210  -1.6165  -1.5861  -1.5034  -1.4602  -1.4550  -1.4458
    -1.4180  -1.4007  -1.3614  -1.3550  -1.3533  -1.3400  -1.3098  -1.3041
    -1.2931  -1.2668  -1.2604  -1.2573  -1.2540  -1.2528  -1.2516  -1.2470
    -1.2301  -1.2220  -1.2168  -1.2114  -1.2046  -1.2026  -1.1860  -1.1748
    -1.1593  -1.1388  -1.1292  -1.1272  -1.1089  -1.0718  -1.0679  -1.0663
    -1.0381  -1.0325  -1.0294  -1.0262  -0.9877  -0.9797  -0.9731  -0.9681
    -0.9650  -0.9584  -0.9570  -0.9506  -0.9375  -0.9117  -0.9087  -0.9035
    -0.8956  -0.8914  -0.8894  -0.8843  -0.8731  -0.8562  -0.8509  -0.8327
    -0.8146  -0.8093  -0.8044  -0.7970  -0.7941  -0.7869  -0.7861  -0.7771
    -0.7641  -0.7599  -0.7484  -0.7386  -0.7326  -0.7274  -0.6876  -0.6496
    -0.6400  -0.6327  -0.6307  -0.6184  -0.6151  -0.6033  -0.5927  -0.5907
    -0.5882  -0.5861  -0.5829  -0.5758  -0.5618  -0.5484  -0.5372  -0.5294
    -0.5248  -0.5201  -0.5136  -0.5099  -0.5026  -0.5003  -0.4862  -0.4819
    -0.4725  -0.4705  -0.4638  -0.4579  -0.4381  -0.4341  -0.4287  -0.4267
    -0.4195  -0.4153  -0.4097  -0.4070  -0.4021  -0.3794  -0.3688  -0.3565
    -0.3444  -0.3333  -0.3286  -0.3172  -0.3043  -0.2965  -0.2942  -0.2900
    -0.2808  -0.2759  -0.2744  -0.2721  -0.2662  -0.2530  -0.2507  -0.2471
    -0.2429  -0.2395  -0.2353  -0.2308  -0.2251  -0.2237  -0.2224  -0.2219
    -0.2155  -0.2039  -0.2005  -0.1962  -0.1892  -0.1830  -0.1817  -0.1801
    -0.1670  -0.1556  -0.1380  -0.1355  -0.1269  -0.1233  -0.1192  -0.1141
    -0.1092  -0.0976  -0.0918  -0.0909  -0.0816  -0.0733  -0.0687  -0.0647
    -0.0641  -0.0598  -0.0580  -0.0546  -0.0498  -0.0490  -0.0430  -0.0284
    -0.0249  -0.0086  -0.0011   0.0012   0.0070   0.0181   0.0196   0.0288
     0.0324   0.0331   0.0378   0.0423   0.0489   0.0521   0.0546   0.0593
     0.0732   0.0779   0.0874   0.0905   0.0911   0.0985   0.1000   0.1107
     0.1132   0.1157   0.1203   0.1260   0.1316   0.1459   0.1473   0.1556
     0.1563   0.1615   0.1681   0.1845   0.1894   0.2022   0.2070   0.2111
     0.2212   0.2286   0.2359   0.2490   0.2513   0.2739   0.2777   0.2863
     0.2996   0.3079   0.3151   0.3214   0.3356   0.3475   0.3725   0.4002
     0.4023   0.4078   0.4138   0.4242   0.4265   0.4366   0.4380   0.4474
     0.4525   0.4566   0.4628   0.4667   0.4754   0.4770   0.4811   0.4848
     0.4884   0.4908   0.4962   0.5020   0.5062   0.5116   0.5169   0.5197
     0.5334   0.5369   0.5384   0.5409   0.5476   0.5504   0.5551   0.5560
     0.5569   0.5610   0.5627   0.5653   0.5731   0.5761   0.5792   0.5870
     0.5883   0.5916   0.5971   0.6016   0.6039   0.6078   0.6140   0.6165
     0.6205   0.6252   0.6281   0.6326   0.6476   0.6528   0.6657   0.6741
     0.6784   0.6811   0.6815   0.6843   0.6871   0.6926   0.6945   0.7014
     0.7036   0.7076   0.7116   0.7137   0.7271   0.7314   0.7361   0.7436
     0.7451   0.7511   0.7554   0.7632   0.7675   0.7750   0.7772   0.7818
     0.7857   0.7957   0.7990   0.8017   0.8070   0.8127   0.8290   0.8423
     0.8539   0.8649   0.8837   0.8945   0.9032   0.9059   0.9121   0.9163
     0.9188   0.9211   0.9216   0.9323   0.9329   0.9352   0.9373   0.9482
     0.9504   0.9542   0.9557   0.9607   0.9657   0.9717   0.9789   0.9806
     0.9843   0.9852   0.9872   0.9878   0.9914   0.9931   0.9970   0.9997
     1.0044   1.0062   1.0068   1.0079   1.0098   1.0119   1.0144   1.0171
     1.0237   1.0255   1.0320   1.0387   1.0422   1.0500   1.0506   1.0513
     1.0558   1.0586   1.0599   1.0647   1.0727   1.0760   1.0884   1.0943
     1.1103   1.1128   1.1218   1.1415   1.1450   1.1527   1.1618   1.1660
     1.1677   1.1763   1.1830   1.1873   1.1892   1.1956   1.1989   1.2014
     1.2047   1.2077   1.2100   1.2132   1.2140   1.2163   1.2211   1.2238
     1.2257   1.2278   1.2393   1.2406   1.2443   1.2457   1.2469   1.2516
     1.2531   1.2583   1.2607   1.2716   1.2762   1.2795   1.2802   1.2884
     1.2897   1.2941   1.2958   1.3004   1.3039   1.3089   1.3102   1.3151
     1.3208   1.3221   1.3251   1.3308   1.3355   1.3403   1.3447   1.3477
     1.3517   1.3540   1.3562   1.3676   1.3719   1.3837   1.3858   1.3888
     1.3909   1.3969   1.4001   1.4041   1.4056   1.4124   1.4196   1.4208
     1.4292   1.4298   1.4319   1.4376   1.4437   1.4474   1.4516   1.4590
     1.4620   1.4667   1.4696   1.4706   1.4715   1.4743   1.4802   1.4902
     1.5020   1.5051   1.5067   1.5112   1.5151   1.5227   1.5295   1.5353
     1.5388   1.5397   1.5425   1.5455   1.5553   1.5591   1.5701   1.5714
     1.6014   1.6041   1.6075   1.6881   1.7020   1.7158   1.7319   1.7374
     1.7597   1.7710   1.7783   1.7854   1.7926   1.8141   1.8193   1.8287
     1.8292   1.8507   1.8656   1.8779   1.8847   1.9482   2.1363   2.1492
     2.1784   2.4217   2.4251   2.4377   2.4962   2.5148   2.5267   2.5579
     2.5864   2.6005   2.6014   2.6110   2.7069   2.7292   2.7300   2.7746
     2.7846   2.8213   2.9283   2.9392   2.9447   3.1206   3.1880   3.1881
     3.2360   3.2781   3.4104   3.5599   3.6954   3.7477   3.8038   4.0220
     4.0514   4.0836   4.1296   4.1458   4.2089   4.3083   4.3379   4.3658
     4.4494   4.5132   4.5769   4.6400   4.7040   4.7540   4.7969   4.9921
     5.0926   5.1118   5.2199   5.3048   5.3633   5.3769   5.3877   5.3993
     5.5512   5.5605   5.5950   5.7186   5.7859   5.8845   5.9235   6.3137
     6.3506   6.4041   6.4242   6.4388   6.4966   6.5227   6.6402   6.6725
     6.6868   6.7676   6.8153   6.8472   6.9615   7.0510   7.0519   7.0782
     7.0890   7.1292   7.1333   7.1544   7.1981   7.2511   7.3039   7.3355
     7.3789   7.4672   7.4735   7.5804   7.7000   7.7425   7.7502   7.7693
     8.1200   8.1529   8.1934   8.2604   8.3499   8.3678   8.4126   8.4287
     8.4452   8.4580   8.4614   8.4919   8.5741   8.6762   8.6951   8.7129
     8.7192   8.7287   8.7400   8.7605   8.7917   8.8292   8.8849   8.9546
     8.9898   9.0491   9.0991   9.1323   9.2407   9.2589   9.3381   9.3539
     9.3548   9.3577   9.3754   9.4179   9.4518   9.4666   9.4710   9.4845
     9.4897   9.4956   9.5476   9.6902   9.7715   9.8005   9.8850   9.9068
     9.9089  10.0319  10.1809

          k = 0.2500 0.0000 0.0000 (256240 PWs)   bands (ev):

   -16.9428 -16.0363 -15.8005 -15.4390 -15.0450 -14.8395 -14.8014 -14.7368
   -13.9515 -13.8033 -13.5628 -13.1328 -13.0314 -12.9631 -12.8873 -12.2097
   -12.1161 -12.0232 -11.9222 -11.1206 -11.0616 -10.6886 -10.5781 -10.3101
   -10.0942  -9.8951  -9.6921  -9.5640  -9.2852  -9.0382  -8.9974  -8.5251
    -7.7879  -7.6310  -7.5058  -7.4146  -7.3901  -7.2903  -6.9156  -6.7267
    -6.1516  -6.0744  -5.9120  -5.8261  -5.8069  -5.7790  -5.3207  -5.2977
    -5.2773  -5.1596  -4.8316  -4.8090  -4.6695  -4.5692  -4.4514  -4.4306
    -4.4093  -4.3573  -4.2918  -4.2142  -4.1894  -4.0906  -4.0046  -3.9731
    -3.9598  -3.8597  -3.8183  -3.8007  -3.7418  -3.6560  -3.5616  -3.5117
    -3.4553  -3.4297  -3.3764  -3.3561  -3.3299  -3.2873  -3.1965  -3.1696
    -3.1255  -3.0574  -2.9865  -2.9313  -2.8782  -2.8369  -2.7813  -2.7796
    -2.7551  -2.6621  -2.5705  -2.5460  -2.5048  -2.3886  -2.3606  -2.3316
    -2.2866  -2.2596  -2.1540  -2.0876  -2.0784  -2.0698  -2.0542  -2.0108
    -1.9642  -1.9280  -1.9102  -1.8963  -1.8627  -1.8091  -1.7990  -1.7875
    -1.7819  -1.7744  -1.7719  -1.7574  -1.7451  -1.7279  -1.7156  -1.6851
    -1.6752  -1.6290  -1.6227  -1.6152  -1.5886  -1.5800  -1.5683  -1.5674
    -1.5569  -1.5544  -1.5462  -1.5434  -1.5294  -1.4930  -1.4920  -1.4833
    -1.4780  -1.4685  -1.4312  -1.3547  -1.3232  -1.3131  -1.2941  -1.2688
    -1.2520  -1.2412  -1.2268  -1.2225  -1.2183  -1.2122  -1.1971  -1.1871
    -1.1800  -1.1744  -1.1685  -1.1622  -1.1550  -1.1400  -1.1277  -1.1188
    -1.1132  -1.1073  -1.0974  -1.0958  -1.0883  -1.0845  -1.0620  -1.0593
    -1.0452  -1.0362  -1.0293  -1.0270  -1.0187  -1.0081  -1.0033  -0.9986
    -0.9946  -0.9907  -0.9794  -0.9718  -0.9690  -0.9651  -0.9625  -0.9617
    -0.9582  -0.9523  -0.9497  -0.9425  -0.9398  -0.9245  -0.9102  -0.8934
    -0.8842  -0.8814  -0.8723  -0.8529  -0.8313  -0.8271  -0.8087  -0.7993
    -0.7949  -0.7847  -0.7792  -0.7725  -0.7641  -0.7540  -0.7438  -0.7405
    -0.7325  -0.7305  -0.7254  -0.7199  -0.7057  -0.6920  -0.6611  -0.5925
    -0.5851  -0.5812  -0.5675  -0.5596  -0.5504  -0.5450  -0.5346  -0.5326
    -0.5303  -0.5250  -0.5153  -0.5114  -0.5063  -0.4985  -0.4934  -0.4801
    -0.4751  -0.4690  -0.4665  -0.4580  -0.4563  -0.4455  -0.4433  -0.4383
    -0.4329  -0.4149  -0.3892  -0.3829  -0.3815  -0.3783  -0.3739  -0.3730
    -0.3698  -0.3621  -0.3565  -0.3423  -0.3356  -0.3256  -0.3168  -0.3113
    -0.3060  -0.2934  -0.2845  -0.2823  -0.2775  -0.2745  -0.2703  -0.2616
    -0.2493  -0.2472  -0.2429  -0.2381  -0.2313  -0.2285  -0.2195  -0.2105
    -0.2068  -0.1962  -0.1913  -0.1843  -0.1768  -0.1712  -0.1689  -0.1629
    -0.1582  -0.1404  -0.1367  -0.1332  -0.1265  -0.1193  -0.1102  -0.1032
    -0.0984  -0.0930  -0.0871  -0.0756  -0.0641  -0.0502  -0.0476  -0.0436
    -0.0349  -0.0253  -0.0125  -0.0098  -0.0085  -0.0016   0.0039   0.0083
     0.0096   0.0127   0.0150   0.0190   0.0236   0.0288   0.0349   0.0379
     0.0412   0.0490   0.0520   0.0542   0.0580   0.0648   0.0691   0.0758
     0.0814   0.0886   0.0999   0.1090   0.1132   0.1224   0.1270   0.1281
     0.1347   0.1418   0.1451   0.1595   0.1635   0.1678   0.1726   0.1776
     0.1914   0.2005   0.2164   0.2269   0.2457   0.2654   0.2714   0.2798
     0.2844   0.2886   0.2916   0.2954   0.2982   0.3035   0.3053   0.3068
     0.3106   0.3136   0.3172   0.3211   0.3278   0.3306   0.3352   0.3407
     0.3453   0.3493   0.3523   0.3549   0.3584   0.3633   0.3686   0.3798
     0.3964   0.4059   0.4125   0.4182   0.4293   0.4320   0.4452   0.4516
     0.4557   0.4631   0.4695   0.4706   0.4756   0.4840   0.4910   0.4974
     0.5000   0.5055   0.5084   0.5121   0.5195   0.5223   0.5265   0.5341
     0.5354   0.5405   0.5473   0.5574   0.5635   0.5653   0.5700   0.5752
     0.5795   0.5846   0.5889   0.5952   0.6018   0.6046   0.6080   0.6139
     0.6205   0.6257   0.6297   0.6338   0.6357   0.6401   0.6466   0.6530
     0.6620   0.6655   0.6718   0.6757   0.6797   0.6813   0.6878   0.6888
     0.7020   0.7070   0.7116   0.7254   0.7313   0.7368   0.7481   0.7558
     0.7623   0.7644   0.7698   0.7752   0.7803   0.7872   0.7899   0.7951
     0.7992   0.8009   0.8054   0.8119   0.8184   0.8279   0.8314   0.8380
     0.8431   0.8530   0.8594   0.8606   0.8725   0.8774   0.8823   0.8906
     0.8934   0.8997   0.9025   0.9089   0.9127   0.9157   0.9186   0.9210
     0.9267   0.9284   0.9365   0.9435   0.9516   0.9531   0.9602   0.9694
     0.9752   0.9828   0.9857   0.9936   0.9982   1.0010   1.0057   1.0118
     1.0158   1.0210   1.0248   1.0285   1.0324   1.0370   1.0392   1.0409
     1.0437   1.0474   1.0492   1.0550   1.0587   1.0603   1.0656   1.0690
     1.0719   1.0762   1.0821   1.0844   1.0868   1.0892   1.0907   1.0975
     1.1006   1.1096   1.1115   1.1158   1.1214   1.1270   1.1306   1.1361
     1.1389   1.1425   1.1496   1.1522   1.1546   1.1608   1.1628   1.1692
     1.1738   1.1779   1.1874   1.1921   1.2000   1.2014   1.2062   1.2099
     1.2153   1.2193   1.2318   1.2439   1.2479   1.2553   1.2601   1.2614
     1.2690   1.2728   1.2756   1.2774   1.2816   1.2847   1.2874   1.2935
     1.2957   1.3008   1.3020   1.3033   1.3080   1.3148   1.3208   1.3220
     1.3236   1.3255   1.3279   1.3309   1.3333   1.3383   1.3431   1.3455
     1.3507   1.3544   1.3570   1.3625   1.3707   1.3733   1.3763   1.3800
     1.3848   1.3910   1.3943   1.3969   1.3995   1.4052   1.4162   1.4177
     1.4214   1.4255   1.4354   1.4381   1.4397   1.4427   1.4452   1.4481
     1.4523   1.4550   1.4585   1.4605   1.4617   1.4658   1.4705   1.4756
     1.4769   1.4805   1.4854   1.4881   1.4937   1.4973   1.5042   1.5062
     1.5102   1.5156   1.5193   1.5265   1.5295   1.5324   1.5380   1.5400
     1.5594   1.5700   1.5730   1.5862   1.5995   1.6334   1.6402   1.6427
     1.6505   1.6644   1.6701   1.7344   1.7594   1.7822   1.7902   1.8005
     1.8074   1.8185   1.8564   1.9859   2.0126   2.0461   2.0739   2.0881
     2.1058   2.1480   2.1954   2.2402   2.2723   2.4833   2.5643   2.5703
     2.6064   2.6752   2.9050   2.9909   2.9945   3.0770   3.2000   3.2069
     3.2368   3.2385   3.2675   3.3816   3.4511   3.4994   3.5674   3.6166
     3.6590   3.6754   3.7054   3.7213   3.7323   3.7955   3.8177   3.8724
     3.9368   3.9778   4.0543   4.1272   4.1753   4.2507   4.3107   4.3346
     4.4570   4.5173   4.6719   4.7659   4.8322   4.8479   4.9808   5.1682
     5.2256   5.2365   5.2889   5.3088   5.3831   5.4389   5.4747   5.5135
     5.5402   5.5549   5.5914   5.6339   5.6842   5.6993   5.7954   5.8030
     5.8404   5.9017   5.9840   6.0253   6.0467   6.0596   6.1902   6.2630
     6.6155   6.6829   6.7328   6.7651   6.7811   6.8154   6.8460   6.8709
     6.9259   6.9824   7.0206   7.0718   7.0894   7.1134   7.2073   7.2628
     7.3087   7.4343   7.4637   7.4810   7.5369   7.5663   7.6283   7.7097
     7.7519   7.7713   7.8121   7.9074   7.9944   8.0609   8.0756   8.1551
     8.1838   8.2412   8.2707   8.2774   8.2921   8.3304   8.3477   8.4140
     8.4697   8.5035   8.6455   8.6660   8.8565   8.9462   8.9926   9.0162
     9.0190   9.0387   9.1195   9.1234   9.1511   9.1727   9.2066   9.2272
     9.2605   9.3191   9.3487   9.3955   9.4087   9.4552   9.4647   9.5619
     9.5823   9.6660   9.7121   9.7318   9.7433   9.8132   9.8348   9.8716
     9.8940   9.9078   9.9807

          k = 0.2500-0.2165 0.0000 (256316 PWs)   bands (ev):

   -16.9422 -16.0777 -15.6973 -15.3742 -15.2569 -15.0906 -14.5746 -14.4018
   -14.1022 -13.9596 -13.5017 -13.1664 -13.1188 -13.0036 -12.6471 -12.5056
   -11.9997 -11.9139 -11.4074 -11.3327 -11.1540 -11.0008 -10.8062 -10.5331
   -10.0181  -9.5961  -9.5117  -9.2035  -9.0628  -8.9752  -8.9049  -8.4847
    -8.4350  -8.3158  -8.2668  -6.9827  -6.7694  -6.6855  -6.5213  -6.4643
    -6.3549  -6.3386  -6.1951  -5.9603  -5.8956  -5.6913  -5.6639  -5.2672
    -5.1209  -4.9746  -4.8160  -4.7623  -4.6833  -4.6684  -4.6273  -4.5340
    -4.4475  -4.4027  -4.3324  -4.2979  -4.2674  -4.2059  -4.0543  -4.0350
    -3.8981  -3.8402  -3.7028  -3.6411  -3.6159  -3.5692  -3.5036  -3.4665
    -3.4420  -3.4330  -3.4111  -3.2792  -3.2706  -3.2144  -3.1299  -3.0947
    -3.0360  -2.9477  -2.9266  -2.9230  -2.8931  -2.8756  -2.8698  -2.8142
    -2.7405  -2.6716  -2.6254  -2.5799  -2.5052  -2.4423  -2.3007  -2.2930
    -2.2793  -2.1963  -2.1715  -2.1517  -2.1484  -2.1293  -2.0889  -2.0012
    -1.9876  -1.9780  -1.9649  -1.9388  -1.8900  -1.8293  -1.8157  -1.8036
    -1.7970  -1.7918  -1.7600  -1.7398  -1.7191  -1.7004  -1.6940  -1.6900
    -1.6812  -1.6758  -1.6680  -1.6650  -1.6583  -1.6555  -1.6501  -1.6403
    -1.6389  -1.6048  -1.5670  -1.5650  -1.5540  -1.4571  -1.4456  -1.4010
    -1.3608  -1.3157  -1.3115  -1.3072  -1.2777  -1.2677  -1.2618  -1.2534
    -1.2456  -1.2437  -1.2366  -1.2291  -1.2261  -1.2167  -1.2113  -1.2100
    -1.2070  -1.1958  -1.1919  -1.1844  -1.1820  -1.1719  -1.1624  -1.1555
    -1.1483  -1.1228  -1.1172  -1.1083  -1.1047  -1.0949  -1.0927  -1.0906
    -1.0747  -1.0714  -1.0489  -1.0292  -1.0237  -1.0155  -1.0118  -1.0043
    -0.9981  -0.9881  -0.9796  -0.9751  -0.9686  -0.9543  -0.9478  -0.9429
    -0.9404  -0.9351  -0.9322  -0.9170  -0.9092  -0.9039  -0.8965  -0.8868
    -0.8581  -0.8539  -0.8472  -0.8415  -0.8373  -0.7978  -0.7945  -0.7663
    -0.7636  -0.7589  -0.7541  -0.7485  -0.7466  -0.7413  -0.7096  -0.7048
    -0.6948  -0.6904  -0.6870  -0.6821  -0.6779  -0.6720  -0.6530  -0.6319
    -0.6247  -0.6077  -0.5969  -0.5868  -0.5789  -0.5557  -0.5516  -0.5472
    -0.5425  -0.5286  -0.5182  -0.5111  -0.5053  -0.4974  -0.4913  -0.4869
    -0.4831  -0.4685  -0.4658  -0.4534  -0.4389  -0.4312  -0.4285  -0.4195
    -0.4099  -0.4037  -0.3947  -0.3915  -0.3851  -0.3796  -0.3730  -0.3643
    -0.3604  -0.3550  -0.3505  -0.3474  -0.3444  -0.3418  -0.3393  -0.3297
    -0.3255  -0.3211  -0.3150  -0.3123  -0.3087  -0.3000  -0.2907  -0.2747
    -0.2695  -0.2630  -0.2486  -0.2411  -0.2352  -0.2300  -0.2218  -0.2194
    -0.2103  -0.2038  -0.2020  -0.1983  -0.1799  -0.1671  -0.1579  -0.1428
    -0.1394  -0.1245  -0.1080  -0.1000  -0.0942  -0.0888  -0.0849  -0.0793
    -0.0749  -0.0692  -0.0647  -0.0597  -0.0478  -0.0439  -0.0406  -0.0388
    -0.0312  -0.0269  -0.0218  -0.0196  -0.0116  -0.0101  -0.0030   0.0033
     0.0078   0.0096   0.0145   0.0182   0.0216   0.0258   0.0275   0.0296
     0.0332   0.0364   0.0413   0.0450   0.0486   0.0632   0.0682   0.0746
     0.0853   0.0913   0.0928   0.1063   0.1161   0.1278   0.1373   0.1429
     0.1509   0.1534   0.1594   0.1653   0.1676   0.1705   0.1748   0.1794
     0.1854   0.1884   0.1928   0.1997   0.2074   0.2239   0.2294   0.2538
     0.2685   0.2814   0.2874   0.2917   0.2983   0.3035   0.3076   0.3092
     0.3151   0.3181   0.3200   0.3249   0.3288   0.3354   0.3417   0.3442
     0.3487   0.3524   0.3544   0.3590   0.3647   0.3744   0.3835   0.3887
     0.3961   0.4108   0.4142   0.4178   0.4273   0.4352   0.4412   0.4448
     0.4602   0.4703   0.4745   0.4772   0.4821   0.4857   0.4900   0.4966
     0.4989   0.5048   0.5071   0.5100   0.5161   0.5200   0.5314   0.5333
     0.5441   0.5476   0.5586   0.5681   0.5756   0.5862   0.5903   0.5962
     0.6004   0.6055   0.6135   0.6209   0.6234   0.6287   0.6303   0.6389
     0.6434   0.6481   0.6510   0.6547   0.6585   0.6613   0.6658   0.6739
     0.6771   0.6814   0.6850   0.6870   0.6904   0.6927   0.6955   0.6982
     0.6998   0.7055   0.7094   0.7126   0.7190   0.7212   0.7267   0.7281
     0.7353   0.7376   0.7408   0.7448   0.7499   0.7620   0.7669   0.7755
     0.7822   0.7868   0.7897   0.8007   0.8127   0.8212   0.8257   0.8317
     0.8413   0.8445   0.8508   0.8543   0.8560   0.8675   0.8712   0.8729
     0.8741   0.8756   0.8781   0.8833   0.8862   0.8885   0.9041   0.9080
     0.9128   0.9190   0.9216   0.9270   0.9317   0.9356   0.9485   0.9562
     0.9594   0.9618   0.9676   0.9684   0.9808   0.9856   0.9876   0.9931
     0.9978   0.9997   1.0063   1.0142   1.0197   1.0319   1.0375   1.0403
     1.0541   1.0576   1.0658   1.0681   1.0802   1.0864   1.0931   1.0974
     1.1009   1.1042   1.1058   1.1075   1.1102   1.1122   1.1138   1.1158
     1.1187   1.1205   1.1261   1.1300   1.1364   1.1403   1.1491   1.1574
     1.1612   1.1714   1.1767   1.1804   1.1838   1.1866   1.1894   1.1958
     1.1974   1.2016   1.2043   1.2061   1.2096   1.2130   1.2151   1.2187
     1.2223   1.2238   1.2264   1.2309   1.2331   1.2348   1.2399   1.2424
     1.2464   1.2530   1.2552   1.2627   1.2651   1.2687   1.2798   1.2839
     1.2897   1.2914   1.2964   1.2997   1.3049   1.3076   1.3195   1.3229
     1.3249   1.3291   1.3328   1.3386   1.3438   1.3474   1.3528   1.3550
     1.3587   1.3628   1.3654   1.3683   1.3750   1.3783   1.3794   1.3844
     1.3888   1.3927   1.3970   1.3993   1.4018   1.4035   1.4066   1.4114
     1.4160   1.4196   1.4212   1.4245   1.4276   1.4328   1.4366   1.4413
     1.4465   1.4510   1.4520   1.4557   1.4570   1.4598   1.4613   1.4638
     1.4673   1.4720   1.4748   1.4809   1.4962   1.4985   1.5010   1.5060
     1.5129   1.5149   1.5214   1.5241   1.5337   1.5452   1.5477   1.5649
     1.5698   1.5727   1.5776   1.5893   1.5976   1.6048   1.6437   1.6611
     1.6791   1.6901   1.7237   1.7329   1.7647   1.7740   1.7811   1.7865
     1.7989   1.8020   1.8352   1.8419   1.8644   1.8906   2.1401   2.1418
     2.1697   2.1853   2.2438   2.2973   2.4573   2.5953   2.6008   2.7677
     2.7858   2.7983   2.8027   2.8130   2.8197   2.8434   2.9051   2.9553
     3.0060   3.0648   3.0838   3.2760   3.5334   3.5446   3.6035   3.6590
     3.6688   3.7871   3.8314   3.8505   3.8902   3.9852   4.0198   4.0633
     4.0774   4.1486   4.1761   4.1889   4.2401   4.3870   4.3996   4.4632
     4.5583   4.6181   4.6286   4.6791   4.7073   4.7958   4.8357   4.9018
     4.9545   5.0272   5.0391   5.1313   5.2149   5.2694   5.3404   5.3844
     5.4326   5.4581   5.4968   5.5402   5.6683   5.7344   5.7740   5.8142
     5.8992   5.9195   6.0075   6.0437   6.0862   6.5026   6.5610   6.5820
     6.6083   6.6404   6.7393   6.7849   6.8514   6.8870   6.9473   6.9816
     7.0240   7.0446   7.0980   7.1259   7.1937   7.2140   7.2539   7.2610
     7.2948   7.3554   7.3987   7.4340   7.4451   7.4690   7.5981   7.6466
     7.7021   7.7925   7.8532   7.8862   7.9092   7.9312   8.0224   8.1430
     8.1997   8.2264   8.2409   8.3755   8.4345   8.5490   8.5931   8.6292
     8.6333   8.6380   8.6964   8.7188   8.7700   8.8008   8.8631   8.8832
     8.8993   8.9146   8.9366   9.0666   9.0926   9.1133   9.1599   9.1915
     9.2149   9.2275   9.2319   9.2568   9.2898   9.3243   9.3424   9.3571
     9.4281   9.4818   9.5209   9.5263   9.6489   9.6556   9.8242   9.9010
     9.9420   9.9598   9.9845

          k =-0.5000 0.0000 0.0000 (256496 PWs)   bands (ev):

   -16.8778 -15.8163 -15.6583 -15.4842 -15.4529 -15.4054 -14.6631 -14.4567
   -14.3729 -14.3271 -13.0100 -12.7927 -12.6443 -12.5567 -12.3022 -12.1972
   -11.8273 -11.8186 -11.6525 -11.6381 -11.1354 -11.1126 -10.8847 -10.6439
   -10.2756 -10.0885  -9.9757  -9.6447  -9.5498  -8.9721  -8.8946  -8.8181
    -8.7745  -7.6469  -7.5041  -7.4083  -7.2664  -7.2354  -7.2001  -6.0454
    -5.9633  -5.6297  -5.2951  -5.2803  -5.1876  -5.0399  -4.8716  -4.8548
    -4.8191  -4.7855  -4.7811  -4.7527  -4.7163  -4.6414  -4.6066  -4.5914
    -4.5501  -4.4522  -4.4345  -4.3913  -4.3478  -4.2901  -4.2420  -4.1952
    -4.0791  -3.9558  -3.9371  -3.8798  -3.8246  -3.6892  -3.6570  -3.6253
    -3.5139  -3.4799  -3.4604  -3.4305  -3.4063  -3.3937  -3.3730  -3.3256
    -3.3036  -3.2458  -3.2382  -3.1540  -2.9845  -2.8328  -2.7428  -2.7269
    -2.6738  -2.6701  -2.6510  -2.6211  -2.5754  -2.5552  -2.5394  -2.4556
    -2.3491  -2.3359  -2.3061  -2.2816  -2.1790  -2.1431  -1.8969  -1.8676
    -1.8616  -1.8598  -1.8558  -1.8505  -1.8202  -1.7906  -1.7490  -1.7481
    -1.7389  -1.7036  -1.6551  -1.6335  -1.6270  -1.6229  -1.6003  -1.5881
    -1.5798  -1.5786  -1.5660  -1.5235  -1.5078  -1.4764  -1.4735  -1.4591
    -1.4130  -1.4099  -1.3999  -1.3997  -1.3903  -1.3878  -1.3798  -1.3558
    -1.3518  -1.3454  -1.3417  -1.3403  -1.3354  -1.3299  -1.3290  -1.3251
    -1.3122  -1.3010  -1.2912  -1.2789  -1.2772  -1.2762  -1.2578  -1.2545
    -1.2490  -1.2389  -1.2219  -1.1979  -1.1910  -1.1865  -1.1746  -1.1659
    -1.1544  -1.1522  -1.1488  -1.1443  -1.1364  -1.1319  -1.1212  -1.1063
    -1.0986  -1.0949  -1.0867  -1.0783  -1.0692  -1.0665  -1.0574  -1.0381
    -1.0333  -1.0125  -0.9945  -0.9827  -0.9680  -0.9662  -0.9620  -0.9566
    -0.9486  -0.9453  -0.9389  -0.9306  -0.9243  -0.9182  -0.9114  -0.9102
    -0.9057  -0.9033  -0.9015  -0.8942  -0.8859  -0.8710  -0.8636  -0.8477
    -0.8252  -0.8173  -0.8098  -0.7935  -0.7717  -0.7617  -0.7040  -0.6982
    -0.6940  -0.6867  -0.6687  -0.6620  -0.6535  -0.6486  -0.6444  -0.6385
    -0.6367  -0.6217  -0.6156  -0.6084  -0.6075  -0.6018  -0.5948  -0.5902
    -0.5862  -0.5856  -0.5728  -0.5695  -0.5550  -0.5434  -0.4887  -0.4852
    -0.4565  -0.4456  -0.4400  -0.4391  -0.4377  -0.4321  -0.4226  -0.4138
    -0.3990  -0.3939  -0.3878  -0.3831  -0.3780  -0.3691  -0.3588  -0.3540
    -0.3525  -0.3497  -0.3488  -0.3325  -0.3226  -0.3181  -0.3153  -0.3077
    -0.3018  -0.2905  -0.2823  -0.2760  -0.2717  -0.2684  -0.2620  -0.2560
    -0.2437  -0.2354  -0.2322  -0.2311  -0.2252  -0.2134  -0.2000  -0.1983
    -0.1897  -0.1707  -0.1635  -0.1481  -0.1342  -0.1252  -0.1172  -0.1156
    -0.1121  -0.1088  -0.1053  -0.0976  -0.0863  -0.0790  -0.0698  -0.0599
    -0.0464  -0.0362  -0.0243  -0.0198  -0.0163  -0.0097  -0.0079  -0.0039
     0.0001   0.0013   0.0057   0.0067   0.0119   0.0157   0.0240   0.0362
     0.0548   0.0567   0.0723   0.0789   0.0808   0.0843   0.0876   0.0893
     0.0924   0.0970   0.0999   0.1013   0.1044   0.1094   0.1133   0.1164
     0.1168   0.1210   0.1259   0.1337   0.1344   0.1361   0.1390   0.1420
     0.1426   0.1465   0.1498   0.1529   0.1562   0.1566   0.1656   0.1699
     0.1721   0.1737   0.1788   0.1811   0.1863   0.1945   0.2058   0.2141
     0.2153   0.2505   0.3021   0.3106   0.3127   0.3175   0.3253   0.3332
     0.3370   0.3381   0.3471   0.3555   0.3587   0.3593   0.3627   0.3657
     0.3681   0.3703   0.3721   0.3754   0.3780   0.3801   0.3839   0.3859
     0.3891   0.3919   0.3956   0.4002   0.4043   0.4071   0.4128   0.4141
     0.4215   0.4236   0.4269   0.4292   0.4422   0.4694   0.4789   0.4957
     0.5083   0.5115   0.5143   0.5179   0.5210   0.5284   0.5331   0.5379
     0.5447   0.5469   0.5498   0.5512   0.5520   0.5550   0.5590   0.5612
     0.5645   0.5668   0.5698   0.5712   0.5728   0.5772   0.5824   0.5924
     0.5966   0.5984   0.6056   0.6116   0.6201   0.6281   0.6367   0.6402
     0.6439   0.6457   0.6473   0.6546   0.6564   0.6594   0.6609   0.6654
     0.6730   0.6744   0.6779   0.6805   0.6826   0.6882   0.6898   0.6946
     0.7083   0.7197   0.7225   0.7310   0.7338   0.7368   0.7386   0.7459
     0.7573   0.7660   0.7708   0.7814   0.7854   0.7907   0.7982   0.8175
     0.8214   0.8253   0.8374   0.8458   0.8529   0.8570   0.8573   0.8587
     0.8601   0.8607   0.8678   0.8705   0.8800   0.8811   0.8833   0.8840
     0.8912   0.8990   0.9035   0.9051   0.9088   0.9103   0.9142   0.9230
     0.9274   0.9304   0.9356   0.9392   0.9448   0.9568   0.9639   0.9644
     0.9707   1.0048   1.0124   1.0298   1.0312   1.0316   1.0381   1.0423
     1.0544   1.0569   1.0640   1.0696   1.0755   1.0775   1.0829   1.0891
     1.0978   1.1019   1.1033   1.1069   1.1113   1.1223   1.1284   1.1299
     1.1322   1.1388   1.1411   1.1437   1.1461   1.1476   1.1495   1.1535
     1.1559   1.1598   1.1626   1.1644   1.1683   1.1706   1.1803   1.1869
     1.1942   1.1955   1.1989   1.2054   1.2134   1.2180   1.2235   1.2248
     1.2310   1.2337   1.2376   1.2411   1.2519   1.2532   1.2587   1.2590
     1.2596   1.2612   1.2630   1.2662   1.2691   1.2711   1.2791   1.2838
     1.2921   1.3015   1.3053   1.3149   1.3209   1.3230   1.3288   1.3301
     1.3311   1.3339   1.3356   1.3370   1.3389   1.3397   1.3407   1.3442
     1.3451   1.3478   1.3498   1.3515   1.3537   1.3577   1.3596   1.3601
     1.3626   1.3667   1.3693   1.3715   1.3779   1.3811   1.3914   1.3923
     1.3956   1.4013   1.4043   1.4116   1.4146   1.4239   1.4278   1.4321
     1.4345   1.4369   1.4427   1.4457   1.4490   1.4530   1.4544   1.4604
     1.4614   1.4675   1.4693   1.4733   1.4761   1.4850   1.4858   1.4898
     1.4926   1.4960   1.5000   1.5032   1.5050   1.5107   1.5185   1.5208
     1.5311   1.5341   1.5351   1.5367   1.5384   1.5434   1.5547   1.5668
     1.5885   1.6007   1.6103   1.6231   1.6252   1.6265   1.6378   1.6494
     1.9296   2.0267   2.0497   2.0726   2.1568   2.2374   2.2524   2.2646
     2.3011   2.3052   2.3133   2.3208   2.4235   2.5975   2.6239   2.6306
     2.7669   2.8196   2.8397   2.8696   2.8771   3.0537   3.1894   3.2017
     3.2153   3.2647   3.4897   3.5234   3.7245   3.7610   3.7910   3.8615
     3.9049   3.9132   3.9261   3.9945   4.0591   4.0799   4.1017   4.1144
     4.1707   4.3500   4.3992   4.5263   4.6414   4.7048   4.7428   4.7596
     4.7815   4.8143   4.8440   4.8581   4.9173   4.9373   4.9672   5.0188
     5.0345   5.0401   5.0490   5.0575   5.0660   5.0934   5.1376   5.1939
     5.2450   5.3389   5.3553   5.4672   5.5111   5.5541   5.5785   5.6481
     5.7065   5.7104   5.8154   5.9384   5.9744   5.9916   6.0187   6.0290
     6.0463   6.0819   6.1939   6.2569   6.3603   6.4073   6.4376   6.4784
     6.5164   6.5532   6.6155   7.0479   7.0756   7.1094   7.1479   7.1499
     7.2668   7.4905   7.5550   7.5898   7.6110   7.6156   7.6205   7.6343
     7.7843   7.8139   7.8322   7.8506   7.8758   7.8807   7.9533   7.9948
     8.0335   8.0450   8.0601   8.0818   8.1036   8.1278   8.1872   8.2632
     8.3002   8.7376   8.7553   8.7612   8.7645   8.8091   8.8333   8.8465
     8.8611   8.9175   9.0146   9.0168   9.0388   9.0584   9.1347   9.1669
     9.2074   9.2960   9.3223   9.4164   9.4356   9.4656   9.5059   9.5161
     9.5178   9.5215   9.5244   9.5301   9.5482   9.5683   9.8126   9.8723
     9.8880   9.9649   9.9806

          k =-0.5000-0.2165 0.0000 (256328 PWs)   bands (ev):

   -16.8776 -15.7463 -15.7112 -15.7007 -15.2543 -15.0510 -15.0108 -14.9563
   -13.8966 -13.6892 -13.5714 -13.5232 -12.4068 -12.3612 -11.8999 -11.8940
   -11.7882 -11.6405 -11.5529 -11.4714 -11.4008 -11.3844 -11.2941 -11.2759
   -10.1580  -9.7855  -9.6776  -9.6157  -9.4838  -8.9406  -8.7687  -8.6266
    -8.6236  -8.0576  -8.0226  -7.9057  -7.8877  -6.3591  -6.0214  -5.9660
    -5.8143  -5.6425  -5.4612  -5.2700  -5.2222  -5.1848  -5.1677  -5.1645
    -5.1495  -5.1335  -5.0699  -4.9132  -4.9074  -4.4970  -4.4581  -4.3590
    -4.2803  -4.2550  -4.2223  -4.1886  -4.1777  -4.1701  -4.1663  -4.1121
    -4.0784  -4.0440  -4.0007  -3.8824  -3.8522  -3.8152  -3.7875  -3.6771
    -3.6400  -3.5772  -3.5561  -3.5278  -3.5201  -3.4220  -3.3946  -3.3870
    -3.3311  -3.1725  -3.1395  -3.0704  -2.9736  -2.8443  -2.5901  -2.5596
    -2.5585  -2.5551  -2.5370  -2.5213  -2.5135  -2.5061  -2.4514  -2.4478
    -2.2951  -2.2402  -2.1918  -2.0993  -2.0662  -2.0550  -2.0486  -2.0272
    -2.0173  -2.0106  -1.9962  -1.9928  -1.9502  -1.8804  -1.8605  -1.7925
    -1.7893  -1.7829  -1.7753  -1.7497  -1.6293  -1.5919  -1.5750  -1.5497
    -1.4937  -1.4853  -1.4784  -1.4687  -1.4678  -1.4530  -1.4444  -1.4265
    -1.4234  -1.4223  -1.4134  -1.4125  -1.4007  -1.3849  -1.3743  -1.3702
    -1.3678  -1.3659  -1.3619  -1.3593  -1.3558  -1.3515  -1.3480  -1.3452
    -1.3411  -1.3396  -1.2957  -1.2933  -1.2906  -1.2682  -1.2406  -1.2281
    -1.2216  -1.1974  -1.1889  -1.1807  -1.1782  -1.1708  -1.1665  -1.1617
    -1.1553  -1.1396  -1.1290  -1.1264  -1.1171  -1.1111  -1.1068  -1.1027
    -1.1004  -1.0986  -1.0939  -1.0809  -1.0713  -1.0672  -1.0484  -1.0429
    -1.0393  -1.0329  -1.0310  -1.0280  -1.0230  -1.0207  -1.0201  -1.0197
    -1.0167  -1.0138  -0.9813  -0.9764  -0.9306  -0.9239  -0.8865  -0.8669
    -0.8648  -0.8627  -0.8451  -0.8418  -0.8371  -0.8356  -0.8241  -0.8016
    -0.7660  -0.7609  -0.7536  -0.7493  -0.7458  -0.7393  -0.7388  -0.7363
    -0.7333  -0.7254  -0.7161  -0.6991  -0.6865  -0.6838  -0.6777  -0.6678
    -0.6671  -0.6606  -0.6550  -0.6492  -0.6458  -0.6448  -0.6345  -0.5985
    -0.5590  -0.5542  -0.5520  -0.5420  -0.5372  -0.5314  -0.5179  -0.4906
    -0.4849  -0.4797  -0.4686  -0.4680  -0.4370  -0.4295  -0.4262  -0.4154
    -0.4137  -0.4094  -0.4056  -0.3996  -0.3972  -0.3901  -0.3801  -0.3779
    -0.3753  -0.3653  -0.3586  -0.3560  -0.3459  -0.3258  -0.2967  -0.2797
    -0.2650  -0.2589  -0.2531  -0.2526  -0.2428  -0.2422  -0.2401  -0.2354
    -0.2241  -0.2223  -0.2178  -0.2087  -0.1704  -0.1664  -0.1520  -0.1494
    -0.1449  -0.1386  -0.1365  -0.1332  -0.1321  -0.1264  -0.1202  -0.1135
    -0.1068  -0.1004  -0.0964  -0.0954  -0.0947  -0.0880  -0.0845  -0.0820
    -0.0744  -0.0735  -0.0705  -0.0642  -0.0544  -0.0443  -0.0264  -0.0140
    -0.0087   0.0022   0.0115   0.0232   0.0314   0.0408   0.0481   0.0675
     0.0729   0.0782   0.0809   0.0877   0.0922   0.0944   0.0983   0.1018
     0.1029   0.1062   0.1087   0.1118   0.1151   0.1228   0.1234   0.1263
     0.1284   0.1293   0.1298   0.1302   0.1338   0.1355   0.1405   0.1437
     0.1443   0.1467   0.1534   0.1688   0.1705   0.1726   0.1760   0.1810
     0.1871   0.1882   0.1985   0.2165   0.2207   0.2242   0.2347   0.2401
     0.2424   0.2478   0.2561   0.2646   0.2682   0.2902   0.3235   0.3387
     0.3405   0.3455   0.3464   0.3575   0.3588   0.3652   0.3662   0.3691
     0.3739   0.3775   0.3790   0.3840   0.3866   0.3901   0.3932   0.3963
     0.3972   0.3999   0.4066   0.4093   0.4157   0.4248   0.4339   0.4376
     0.4435   0.4488   0.4557   0.4612   0.4713   0.4775   0.4844   0.4855
     0.4885   0.4905   0.4917   0.4972   0.5005   0.5118   0.5162   0.5206
     0.5209   0.5322   0.5365   0.5400   0.5431   0.5505   0.5523   0.5568
     0.5612   0.5659   0.5694   0.5772   0.5833   0.5869   0.5878   0.5908
     0.5964   0.5998   0.6014   0.6036   0.6055   0.6088   0.6120   0.6155
     0.6247   0.6269   0.6280   0.6406   0.6450   0.6505   0.6540   0.6687
     0.6819   0.6876   0.6926   0.6970   0.6979   0.7039   0.7076   0.7138
     0.7183   0.7244   0.7260   0.7301   0.7380   0.7392   0.7401   0.7447
     0.7490   0.7523   0.7529   0.7557   0.7670   0.7708   0.7819   0.7929
     0.8004   0.8030   0.8170   0.8259   0.8317   0.8343   0.8378   0.8423
     0.8453   0.8569   0.8638   0.8724   0.8746   0.8756   0.8823   0.8885
     0.8909   0.9044   0.9071   0.9302   0.9348   0.9444   0.9517   0.9606
     0.9750   0.9766   0.9827   0.9998   1.0110   1.0177   1.0209   1.0305
     1.0312   1.0339   1.0393   1.0425   1.0446   1.0499   1.0537   1.0569
     1.0589   1.0622   1.0655   1.0662   1.0673   1.0680   1.0715   1.0749
     1.0775   1.0819   1.0822   1.0873   1.0921   1.0980   1.0991   1.1007
     1.1078   1.1110   1.1137   1.1186   1.1226   1.1291   1.1353   1.1379
     1.1406   1.1436   1.1452   1.1488   1.1513   1.1574   1.1585   1.1608
     1.1634   1.1685   1.1799   1.1920   1.2076   1.2101   1.2124   1.2147
     1.2210   1.2222   1.2276   1.2293   1.2363   1.2382   1.2428   1.2504
     1.2529   1.2598   1.2624   1.2675   1.2765   1.2788   1.2804   1.2835
     1.2894   1.2932   1.2983   1.2987   1.3004   1.3035   1.3057   1.3102
     1.3143   1.3176   1.3293   1.3382   1.3499   1.3559   1.3599   1.3614
     1.3699   1.3712   1.3723   1.3757   1.3765   1.3800   1.3819   1.3852
     1.3873   1.3899   1.3907   1.3947   1.3961   1.3978   1.4019   1.4047
     1.4065   1.4094   1.4099   1.4121   1.4128   1.4179   1.4198   1.4230
     1.4251   1.4259   1.4289   1.4316   1.4371   1.4443   1.4526   1.4609
     1.4641   1.4676   1.4706   1.4760   1.4799   1.4812   1.4907   1.4961
     1.4980   1.5114   1.5153   1.5157   1.5227   1.5261   1.5466   1.5537
     1.5658   1.5709   1.5830   1.5864   1.5925   1.5954   1.6008   1.6085
     1.6147   1.6196   1.6228   1.6278   1.6299   1.6342   1.6359   1.6514
     1.6662   1.6772   1.8336   1.8472   1.8708   1.8809   2.1110   2.3447
     2.3498   2.3654   2.5084   2.5653   2.5730   2.5882   2.6085   2.7582
     2.7909   2.8215   2.8664   2.9522   3.0714   3.1152   3.1483   3.3721
     3.4584   3.4722   3.4781   3.4879   3.6436   3.6516   3.6956   3.7960
     3.9336   3.9492   3.9525   3.9602   4.1908   4.2293   4.2359   4.2487
     4.2723   4.3259   4.3315   4.3962   4.4169   4.5213   4.5463   4.5610
     4.6018   4.6702   4.6762   4.7519   4.8353   4.9411   4.9490   5.0115
     5.0611   5.0917   5.1428   5.1541   5.1664   5.1832   5.2086   5.2640
     5.2838   5.3037   5.3317   5.3694   5.4210   5.4686   5.5596   5.6167
     5.6431   5.7439   5.7559   5.7581   5.7647   5.7785   5.8263   5.8436
     5.8805   5.8923   6.1421   6.7432   6.7543   6.8391   6.8508   6.9522
     7.0504   7.0714   7.0977   7.1281   7.1644   7.1773   7.1814   7.1933
     7.2125   7.2894   7.2926   7.3464   7.3634   7.3891   7.4250   7.4398
     7.5364   7.5574   7.6371   7.8245   7.8469   7.8871   7.9264   7.9861
     8.0290   8.0468   8.2132   8.2535   8.2756   8.3153   8.3585   8.3738
     8.4059   8.4080   8.7701   8.8604   8.8726   8.8903   8.9061   8.9150
     8.9208   8.9350   8.9514   8.9529   9.0087   9.0230   9.0963   9.1413
     9.1432   9.1461   9.1591   9.2519   9.3792   9.3928   9.4010   9.4410
     9.4580   9.5091   9.5268   9.5366   9.5474   9.5734   9.5926   9.9275
     9.9529  10.0059  10.0078

     the Fermi energy is     3.3425 ev

!    total energy              =  -12720.72449782 Ry
     Harris-Foulkes estimate   =  -12720.72449780 Ry
     estimated scf accuracy    <          4.4E-09 Ry

     The total energy is the sum of the following terms:

     one-electron contribution = -107927.82547637 Ry
     hartree contribution      =   55329.21197557 Ry
     xc contribution           =   -4452.56058465 Ry
     ewald contribution        =   44336.80090521 Ry
     Dispersion Correction     =      -2.98925395 Ry
     smearing contrib. (-TS)   =      -3.36206363 Ry

     convergence has been achieved in  43 iterations

     Writing output data file gc.save
 
     init_run     :    100.00s CPU    107.46s WALL (       1 calls)
     electrons    :  12804.78s CPU  13652.42s WALL (       1 calls)

     Called by init_run:
     wfcinit      :     97.57s CPU    104.46s WALL (       1 calls)
     potinit      :      0.46s CPU      0.50s WALL (       1 calls)

     Called by electrons:
     c_bands      :  11844.88s CPU  12598.93s WALL (      43 calls)
     sum_band     :    797.75s CPU    866.08s WALL (      43 calls)
     v_of_rho     :      2.87s CPU      3.51s WALL (      44 calls)
     newd         :      8.83s CPU     14.05s WALL (      44 calls)
     mix_rho      :    150.37s CPU    169.78s WALL (      43 calls)

     Called by c_bands:
     init_us_2    :     36.12s CPU     36.58s WALL (     522 calls)
     cegterg      :  11669.62s CPU  12418.01s WALL (     267 calls)

     Called by sum_band:
     sum_band:bec :      4.48s CPU      5.04s WALL (     258 calls)
     addusdens    :      8.41s CPU     13.65s WALL (      43 calls)

     Called by *egterg:
     h_psi        :   4181.95s CPU   4512.50s WALL (    1954 calls)
     s_psi        :   1019.70s CPU   1031.06s WALL (    1954 calls)
     g_psi        :     10.87s CPU     10.87s WALL (    1681 calls)
     cdiaghg      :   3540.10s CPU   3672.41s WALL (    1942 calls)

     Called by h_psi:
     add_vuspsi   :   1025.69s CPU   1038.58s WALL (    1954 calls)

     General routines
     calbec       :   1409.13s CPU   1419.49s WALL (    2212 calls)
     fft          :      4.11s CPU      4.71s WALL (     571 calls)
     ffts         :     88.51s CPU     99.94s WALL (   22816 calls)
     fftw         :   2384.56s CPU   2646.43s WALL ( 1313510 calls)
     davcio       :      0.29s CPU      3.95s WALL (       6 calls)
 
     Parallel routines
     fft_scatter  :   1537.66s CPU   1684.38s WALL ( 1336897 calls)
 
     PWSCF        :     3h35m CPU        3h49m WALL

 
   This run was terminated on:  22:45:19  26Apr2017            

=------------------------------------------------------------------------------=
   JOB DONE.
=------------------------------------------------------------------------------=
