
     Program PWSCF v.5.4.0 starts on 30Jan2017 at 22:37: 5 

     This program is part of the open-source Quantum ESPRESSO suite
     for quantum simulation of materials; please cite
         "P. Giannozzi et al., J. Phys.:Condens. Matter 21 395502 (2009);
          URL http://www.quantum-espresso.org", 
     in publications or presentations arising from this work. More details at
     http://www.quantum-espresso.org/quote

     Parallel version (MPI & OpenMP), running on      56 processor cores
     Number of MPI processes:                56
     Threads/MPI process:                     1
     R & G space division:  proc/nbgrp/npool/nimage =      56
     Waiting for input...
     Reading input from standard input

     Current dimensions of program PWSCF are:
     Max number of different atomic species (ntypx) = 10
     Max number of k-points (npk) =  40000
     Max angular momentum in pseudopotentials (lmaxx) =  3
     WARNING: atomic wfc #  2 for atom type 3 has zero norm
     WARNING: atomic wfc #  4 for atom type 3 has zero norm
     WARNING: atomic wfc #  5 for atom type 3 has zero norm

     -------------------------------------
     Parameters for Dispersion Correction:
     -------------------------------------
       atom      VdW radius       C_6     

        Cu         2.952        374.666
        C          2.744         60.710
        O          2.536         24.284
        H          1.892          4.857

     Subspace diagonalization in iterative solution of the eigenvalue problem:
     one sub-group per band group will be used
     scalapack distributed-memory algorithm (size of sub-group:  5*  5 procs)

 
     Parallelization info
     --------------------
     sticks:   dense  smooth     PW     G-vecs:    dense   smooth      PW
     Min         204     204     54                36612    36612    4962
     Max         205     205     55                36617    36617    4968
     Sum       11433   11433   3039              2050409  2050409  278033
 


     bravais-lattice index     =            0
     lattice parameter (alat)  =      13.9425  a.u.
     unit-cell volume          =   21209.0878 (a.u.)^3
     number of atoms/cell      =          150
     number of atomic types    =            4
     number of electrons       =      1299.00
     number of Kohn-Sham states=          780
     kinetic-energy cutoff     =      80.0000  Ry
     charge density cutoff     =     320.0000  Ry
     convergence threshold     =      1.0E-08
     mixing beta               =       0.7000
     number of iterations used =            8  local-TF  mixing
     Exchange-correlation      =  SLA  PW   PBE  PBE ( 1  4  3  4 0 0)
     nstep                     =           50


     celldm(1)=  13.942539  celldm(2)=   0.000000  celldm(3)=   0.000000
     celldm(4)=   0.000000  celldm(5)=   0.000000  celldm(6)=   0.000000

     crystal axes: (cart. coord. in units of alat)
               a(1) = (   1.000000   0.000000   0.000000 )  
               a(2) = (   0.000000   2.309401   0.000000 )  
               a(3) = (   0.000000   0.000000   3.388418 )  

     reciprocal axes: (cart. coord. in units 2 pi/alat)
               b(1) = (  1.000000  0.000000  0.000000 )  
               b(2) = (  0.000000  0.433013  0.000000 )  
               b(3) = (  0.000000  0.000000  0.295123 )  


     PseudoPot. # 1 for Cu read from file:
     /home/549/hxw549/Short/pseudopotentials/Cu.pbe-n-van_ak.UPF
     MD5 check sum: 601f7c30f7467666bec936e0661ce3e1
     Pseudo is Ultrasoft + core correction, Zval = 11.0
     Generated by new atomic code, or converted to UPF format
     Using radial grid of  867 points,  6 beta functions with: 
                l(1) =   0
                l(2) =   0
                l(3) =   1
                l(4) =   1
                l(5) =   2
                l(6) =   2
     Q(r) pseudized with  8 coefficients,  rinner =    1.400   1.400   1.400
                                                       1.400   1.400

     PseudoPot. # 2 for C  read from file:
     /home/549/hxw549/Short/pseudopotentials/C.pbe-mt_gipaw.UPF
     MD5 check sum: 5ac2f21f2c440b14befe521540822c15
     Pseudo is Norm-conserving, Zval =  4.0
     Generated by new atomic code, or converted to UPF format
     Using radial grid of 1073 points,  1 beta functions with: 
                l(1) =   0

     PseudoPot. # 3 for O  read from file:
     /home/549/hxw549/Short/pseudopotentials/O.pbe-van_gipaw.UPF
     MD5 check sum: 5ce2a047509d4f331db576c963e74b29
     Pseudo is Ultrasoft, Zval =  6.0
     Generated by new atomic code, or converted to UPF format
     Using radial grid of 1095 points,  4 beta functions with: 
                l(1) =   0
                l(2) =   0
                l(3) =   1
                l(4) =   1
     Q(r) pseudized with 0 coefficients 


     PseudoPot. # 4 for H  read from file:
     /home/549/hxw549/Short/pseudopotentials/H.pbe-van_ak.UPF
     MD5 check sum: 077eb6d537518a38cb46c6de387227b7
     Pseudo is Ultrasoft, Zval =  1.0
     Generated by new atomic code, or converted to UPF format
     Using radial grid of  615 points,  1 beta functions with: 
                l(1) =   0
     Q(r) pseudized with  8 coefficients,  rinner =    0.800

     atomic species   valence    mass     pseudopotential
        Cu            11.00    63.54600     Cu( 1.00)
        C              4.00    12.01070     C ( 1.00)
        O              6.00    15.99940     O ( 1.00)
        H              1.00     1.00783     H ( 1.00)

     No symmetry found



   Cartesian axes

     site n.     atom                  positions (alat units)
         1           Cu  tau(   1) = (  -0.0000081   0.0001634   0.9978611  )
         2           Cu  tau(   2) = (   0.2499603   0.2308283   0.9974647  )
         3           Cu  tau(   3) = (   0.4999608  -0.0000844   0.9975769  )
         4           Cu  tau(   4) = (   0.7500001   0.2308382   0.9975417  )
         5           Cu  tau(   5) = (  -0.0000014   0.4616908   0.9973503  )
         6           Cu  tau(   6) = (   0.2501027   0.6927721   0.9973783  )
         7           Cu  tau(   7) = (   0.4999946   0.4618506   0.9975724  )
         8           Cu  tau(   8) = (   0.7499844   0.6927910   0.9974721  )
         9           Cu  tau(   9) = (  -0.0000234   0.9237236   0.9972586  )
        10           Cu  tau(  10) = (   0.2501357   1.1546412   0.9974124  )
        11           Cu  tau(  11) = (   0.4999866   0.9237023   0.9975526  )
        12           Cu  tau(  12) = (   0.7499395   1.1546225   0.9975023  )
        13           Cu  tau(  13) = (  -0.0000076   1.3857023   0.9973616  )
        14           Cu  tau(  14) = (   0.2499537   1.6165878   0.9975801  )
        15           Cu  tau(  15) = (   0.4999978   1.3855696   0.9977238  )
        16           Cu  tau(  16) = (   0.7500038   1.6166281   0.9976115  )
        17           Cu  tau(  17) = (   0.0000099   1.8473350   0.9979274  )
        18           Cu  tau(  18) = (   0.2499132   2.0785162   0.9979250  )
        19           Cu  tau(  19) = (   0.4999414   1.8475949   0.9976049  )
        20           Cu  tau(  20) = (   0.7500361   2.0784540   0.9976750  )
        21           Cu  tau(  21) = (   0.0000930   0.2309087   1.2462392  )
        22           Cu  tau(  22) = (   0.2498566   0.0003319   1.2464328  )
        23           Cu  tau(  23) = (   0.4998974   0.2299242   1.2449315  )
        24           Cu  tau(  24) = (   0.7500971  -0.0000910   1.2459364  )
        25           Cu  tau(  25) = (   0.0002960   0.6922586   1.2447203  )
        26           Cu  tau(  26) = (   0.2497813   0.4611677   1.2449395  )
        27           Cu  tau(  27) = (   0.5001330   0.6926932   1.2455483  )
        28           Cu  tau(  28) = (   0.7503386   0.4610531   1.2448013  )
        29           Cu  tau(  29) = (   0.0002616   1.1551417   1.2446448  )
        30           Cu  tau(  30) = (   0.2502934   0.9236408   1.2451495  )
        31           Cu  tau(  31) = (   0.5001301   1.1545731   1.2456550  )
        32           Cu  tau(  32) = (   0.7500138   0.9236700   1.2454914  )
        33           Cu  tau(  33) = (   0.0000902   1.6164026   1.2463056  )
        34           Cu  tau(  34) = (   0.2497426   1.3861909   1.2449494  )
        35           Cu  tau(  35) = (   0.4999002   1.6177118   1.2448689  )
        36           Cu  tau(  36) = (   0.7503896   1.3863292   1.2448074  )
        37           Cu  tau(  37) = (   0.0000478   2.0784842   1.2460031  )
        38           Cu  tau(  38) = (   0.2498399   1.8472705   1.2463712  )
        39           Cu  tau(  39) = (   0.4998978   2.0784532   1.2457893  )
        40           Cu  tau(  40) = (   0.7501098   1.8475913   1.2459788  )
        41           Cu  tau(  41) = (   0.0001856  -0.0003195   1.4955457  )
        42           Cu  tau(  42) = (   0.2495352   0.2314793   1.4966494  )
        43           Cu  tau(  43) = (   0.4998331  -0.0003710   1.4950432  )
        44           Cu  tau(  44) = (   0.7505940   0.2299782   1.4948838  )
        45           Cu  tau(  45) = (   0.0005256   0.4612344   1.4952314  )
        46           Cu  tau(  46) = (   0.2503108   0.6899119   1.4924605  )
        47           Cu  tau(  47) = (   0.5000260   0.4580973   1.4912988  )
        48           Cu  tau(  48) = (   0.7516067   0.6899774   1.4918151  )
        49           Cu  tau(  49) = (   0.0018591   0.9238388   1.4913338  )
        50           Cu  tau(  50) = (   0.2500089   1.1575445   1.4922149  )
        51           Cu  tau(  51) = (   0.5016592   0.9235919   1.4944828  )
        52           Cu  tau(  52) = (   0.7517748   1.1574098   1.4918533  )
        53           Cu  tau(  53) = (   0.0006584   1.3858178   1.4957876  )
        54           Cu  tau(  54) = (   0.2494128   1.6157970   1.4967299  )
        55           Cu  tau(  55) = (   0.5000120   1.3896209   1.4907901  )
        56           Cu  tau(  56) = (   0.7507705   1.6172705   1.4950216  )
        57           Cu  tau(  57) = (   0.0001170   1.8476690   1.4954541  )
        58           Cu  tau(  58) = (   0.2499559   2.0784858   1.4955799  )
        59           Cu  tau(  59) = (   0.4998978   1.8478462   1.4952188  )
        60           Cu  tau(  60) = (   0.7500210   2.0784781   1.4955159  )
        61           Cu  tau(  61) = (   0.0007946   0.2300320   1.7438686  )
        62           Cu  tau(  62) = (   0.2501940  -0.0004364   1.7450082  )
        63           Cu  tau(  63) = (   0.4999517   0.2297727   1.7433026  )
        64           Cu  tau(  64) = (   0.7500662  -0.0003413   1.7448356  )
        65           Cu  tau(  65) = (   0.0042122   0.6914945   1.7435736  )
        66           Cu  tau(  66) = (   0.2507788   0.4613690   1.7463007  )
        67           Cu  tau(  67) = (   0.5027604   0.6881950   1.7365463  )
        68           Cu  tau(  68) = (   0.7518720   0.4592074   1.7422222  )
        69           Cu  tau(  69) = (   0.0055308   1.1556792   1.7463164  )
        70           Cu  tau(  70) = (   0.2512957   0.9237410   1.7299832  )
        71           Cu  tau(  71) = (   0.5021808   1.1596468   1.7355543  )
        72           Cu  tau(  72) = (   0.7603529   0.9240923   1.7347932  )
        73           Cu  tau(  73) = (   0.0009270   1.6171148   1.7446571  )
        74           Cu  tau(  74) = (   0.2499777   1.3832367   1.7498057  )
        75           Cu  tau(  75) = (   0.5000412   1.6166888   1.7430851  )
        76           Cu  tau(  76) = (   0.7529031   1.3874316   1.7428651  )
        77           Cu  tau(  77) = (   0.0000804   2.0782178   1.7452477  )
        78           Cu  tau(  78) = (   0.2499937   1.8478049   1.7446450  )
        79           Cu  tau(  79) = (   0.5000811   2.0785855   1.7452683  )
        80           Cu  tau(  80) = (   0.7503369   1.8475970   1.7447595  )
        81           Cu  tau(  81) = (   0.0004509   0.0001296   1.9905407  )
        82           Cu  tau(  82) = (   0.2511864   0.2293995   1.9909008  )
        83           Cu  tau(  83) = (   0.5005876   0.0001976   1.9920923  )
        84           Cu  tau(  84) = (   0.7519731   0.2307674   1.9899190  )
        85           Cu  tau(  85) = (   0.0045069   0.4583020   1.9902508  )
        86           Cu  tau(  86) = (   0.2491139   0.6808004   1.9910164  )
        87           Cu  tau(  87) = (   0.5024785   0.4573844   1.9900265  )
        88           Cu  tau(  88) = (   0.7570901   0.6816718   1.9879195  )
        89           Cu  tau(  89) = (  -0.0102675   0.9218760   1.9927100  )
        90           Cu  tau(  90) = (   0.2537906   1.1553815   1.9971949  )
        91           Cu  tau(  91) = (   0.5393300   0.9254001   1.9709594  )
        92           Cu  tau(  92) = (   0.7598418   1.1658442   1.9899533  )
        93           Cu  tau(  93) = (   0.0083264   1.3872563   1.9936961  )
        94           Cu  tau(  94) = (   0.2511942   1.6183421   1.9905376  )
        95           Cu  tau(  95) = (   0.5011905   1.3872377   1.9889098  )
        96           Cu  tau(  96) = (   0.7522387   1.6157143   1.9900791  )
        97           Cu  tau(  97) = (   0.0001639   1.8475130   1.9920757  )
        98           Cu  tau(  98) = (   0.2503744   2.0780833   1.9914896  )
        99           Cu  tau(  99) = (   0.5009107   1.8465106   1.9901791  )
       100           Cu  tau( 100) = (   0.7501924   2.0783533   1.9913752  )
       101           C   tau( 101) = (  -0.0002924   0.0969937   2.3854660  )
       102           C   tau( 102) = (   0.0000098   0.2896521   2.3841964  )
       103           C   tau( 103) = (   0.1663791   0.0007536   2.3866907  )
       104           C   tau( 104) = (   0.1664553   0.3859546   2.3870162  )
       105           C   tau( 105) = (   0.3328529   0.0969479   2.3836697  )
       106           C   tau( 106) = (   0.3331954   0.2896293   2.3860532  )
       107           C   tau( 107) = (   0.4996894   0.0005723   2.3839658  )
       108           C   tau( 108) = (   0.4999072   0.3859882   2.3860857  )
       109           C   tau( 109) = (   0.6665649   0.0970071   2.3831236  )
       110           C   tau( 110) = (   0.6667176   0.2897298   2.3808174  )
       111           C   tau( 111) = (   0.8330193   0.0007170   2.3862628  )
       112           C   tau( 112) = (   0.8334304   0.3860396   2.3809915  )
       113           C   tau( 113) = (   0.0002326   0.6745071   2.3936841  )
       114           C   tau( 114) = (   0.0004101   0.8669874   2.3963803  )
       115           C   tau( 115) = (   0.1670591   0.5786799   2.3921562  )
       116           C   tau( 116) = (   0.1664716   0.9627690   2.4130982  )
       117           C   tau( 117) = (   0.3334246   0.6743834   2.4084049  )
       118           C   tau( 118) = (   0.3332758   0.8663451   2.4203144  )
       119           C   tau( 119) = (   0.4997656   0.5786400   2.3938556  )
       120           C   tau( 120) = (   0.4997301   0.9624188   2.4145037  )
       121           O   tau( 121) = (   0.2603291   0.9189763   2.2855568  )
       122           H   tau( 122) = (   0.3958658   0.9189763   2.2855568  )
       123           C   tau( 123) = (   0.6668103   0.6747554   2.3940492  )
       124           C   tau( 124) = (   0.6663170   0.8668645   2.4038203  )
       125           C   tau( 125) = (   0.8336803   0.5786724   2.3879795  )
       126           C   tau( 126) = (   0.8329808   0.9628350   2.3949976  )
       127           C   tau( 127) = (   0.0002716   1.2507357   2.3877300  )
       128           C   tau( 128) = (   0.0002848   1.4429545   2.3776873  )
       129           C   tau( 129) = (   0.1668984   1.1543747   2.3987677  )
       130           C   tau( 130) = (   0.1669505   1.5395933   2.3815343  )
       131           C   tau( 131) = (   0.3336537   1.2510353   2.4002906  )
       132           C   tau( 132) = (   0.3337240   1.4432847   2.3918861  )
       133           C   tau( 133) = (   0.4999100   1.1544416   2.4067025  )
       134           C   tau( 134) = (   0.5001505   1.5397080   2.3899454  )
       135           C   tau( 135) = (   0.6661853   1.2506276   2.3925093  )
       136           C   tau( 136) = (   0.6663679   1.4428858   2.3869154  )
       137           C   tau( 137) = (   0.8333508   1.1549057   2.3929345  )
       138           C   tau( 138) = (   0.8329703   1.5392929   2.3793910  )
       139           C   tau( 139) = (  -0.0001549   1.8284168   2.3825987  )
       140           C   tau( 140) = (  -0.0003498   2.0212270   2.3880416  )
       141           C   tau( 141) = (   0.1668275   1.7321956   2.3830011  )
       142           C   tau( 142) = (   0.1664164   2.1174087   2.3883288  )
       143           C   tau( 143) = (   0.3333189   1.8283245   2.3877965  )
       144           C   tau( 144) = (   0.3331995   2.0210739   2.3887166  )
       145           C   tau( 145) = (   0.5000524   1.7321500   2.3873007  )
       146           C   tau( 146) = (   0.4997004   2.1172826   2.3887600  )
       147           C   tau( 147) = (   0.6665697   1.8283077   2.3871378  )
       148           C   tau( 148) = (   0.6663708   2.0211625   2.3887760  )
       149           C   tau( 149) = (   0.8329818   1.7320388   2.3821176  )
       150           C   tau( 150) = (   0.8331890   2.1175337   2.3881764  )

     number of k points=     6  gaussian smearing, width (Ry)=  0.1000
                       cart. coord. in units 2pi/alat
        k(    1) = (   0.0000000   0.0000000   0.0000000), wk =   0.2500000
        k(    2) = (   0.0000000  -0.2165064   0.0000000), wk =   0.2500000
        k(    3) = (   0.2500000   0.0000000   0.0000000), wk =   0.5000000
        k(    4) = (   0.2500000  -0.2165064   0.0000000), wk =   0.5000000
        k(    5) = (  -0.5000000   0.0000000   0.0000000), wk =   0.2500000
        k(    6) = (  -0.5000000  -0.2165064   0.0000000), wk =   0.2500000

     Dense  grid:  2050409 G-vectors     FFT dimensions: (  80, 192, 270)

     Largest allocated arrays     est. size (Mb)     dimensions
        Kohn-Sham Wavefunctions        54.80 Mb     (    4604,  780)
        NL pseudopotentials           130.46 Mb     (    4604, 1857)
        Each V/rho on FFT grid          1.17 Mb     (   76800)
        Each G-vector array             0.28 Mb     (   36616)
        G-vector shells                 0.14 Mb     (   17932)
     Largest temporary arrays     est. size (Mb)     dimensions
        Auxiliary wavefunctions       219.18 Mb     (    4604, 3120)
        Each subspace H/S matrix        5.94 Mb     (     624,  624)
        Each <psi_i|beta_j> matrix     22.10 Mb     (    1857,  780)
        Arrays for rho mixing           9.38 Mb     (   76800,    8)

     Initial potential from superposition of free atoms
     Check: negative starting charge=   -0.001838

     starting charge 1273.81750, renormalised to 1299.00000

     negative rho (up, down):  1.874E-03 0.000E+00
     Starting wfc are 1289 randomized atomic wfcs

     total cpu time spent up to now is      106.9 secs

     Self-consistent Calculation

     iteration #  1     ecut=    80.00 Ry     beta=0.70
     Davidson diagonalization with overlap
     c_bands:  2 eigenvalues not converged
     c_bands:  5 eigenvalues not converged
     ethr =  1.00E-04,  avg # of iterations = 20.7

     negative rho (up, down):  2.930E+01 0.000E+00

     total cpu time spent up to now is     1833.1 secs

     total energy              =   -9220.46920561 Ry
     Harris-Foulkes estimate   =  -17147.30441666 Ry
     estimated scf accuracy    <  180597.28342325 Ry

     iteration #  2     ecut=    80.00 Ry     beta=0.70
     Davidson diagonalization with overlap
     ethr =  1.00E-02,  avg # of iterations = 12.3

     negative rho (up, down):  3.086E+01 0.000E+00

     total cpu time spent up to now is     2737.1 secs

     total energy              =  -12373.87750610 Ry
     Harris-Foulkes estimate   =  -13656.87534974 Ry
     estimated scf accuracy    <   17026.59739179 Ry

     iteration #  3     ecut=    80.00 Ry     beta=0.70
     Davidson diagonalization with overlap
     ethr =  1.00E-02,  avg # of iterations =  7.0

     negative rho (up, down):  3.303E+01 0.000E+00

     total cpu time spent up to now is     3276.3 secs

     total energy              =  -12534.64350047 Ry
     Harris-Foulkes estimate   =  -13370.95562441 Ry
     estimated scf accuracy    <    6243.81061657 Ry

     iteration #  4     ecut=    80.00 Ry     beta=0.70
     Davidson diagonalization with overlap
     ethr =  1.00E-02,  avg # of iterations =  6.0

     negative rho (up, down):  2.982E+01 0.000E+00

     total cpu time spent up to now is     3740.9 secs

     total energy              =  -12875.74018657 Ry
     Harris-Foulkes estimate   =  -13191.81391813 Ry
     estimated scf accuracy    <    6525.55439728 Ry

     iteration #  5     ecut=    80.00 Ry     beta=0.70
     Davidson diagonalization with overlap
     ethr =  1.00E-02,  avg # of iterations =  4.8

     negative rho (up, down):  2.075E+01 0.000E+00

     total cpu time spent up to now is     4122.4 secs

     total energy              =  -12895.03626924 Ry
     Harris-Foulkes estimate   =  -13079.88094938 Ry
     estimated scf accuracy    <    1051.11894745 Ry

     iteration #  6     ecut=    80.00 Ry     beta=0.70
     Davidson diagonalization with overlap
     ethr =  1.00E-02,  avg # of iterations =  3.0

     negative rho (up, down):  1.227E+01 0.000E+00

     total cpu time spent up to now is     4363.6 secs

     total energy              =  -12876.61683277 Ry
     Harris-Foulkes estimate   =  -12956.32661440 Ry
     estimated scf accuracy    <     687.19767953 Ry

     iteration #  7     ecut=    80.00 Ry     beta=0.70
     Davidson diagonalization with overlap
     ethr =  1.00E-02,  avg # of iterations =  2.0

     negative rho (up, down):  9.045E+00 0.000E+00

     total cpu time spent up to now is     4544.2 secs

     total energy              =  -12851.56628569 Ry
     Harris-Foulkes estimate   =  -12888.67764619 Ry
     estimated scf accuracy    <     825.70096356 Ry

     iteration #  8     ecut=    80.00 Ry     beta=0.70
     Davidson diagonalization with overlap
     ethr =  1.00E-02,  avg # of iterations =  1.8

     negative rho (up, down):  7.648E+00 0.000E+00

     total cpu time spent up to now is     4719.2 secs

     total energy              =  -12838.60278481 Ry
     Harris-Foulkes estimate   =  -12856.98448074 Ry
     estimated scf accuracy    <     338.50821645 Ry

     iteration #  9     ecut=    80.00 Ry     beta=0.70
     Davidson diagonalization with overlap
     ethr =  1.00E-02,  avg # of iterations =  1.2

     negative rho (up, down):  2.880E+00 0.000E+00

     total cpu time spent up to now is     4885.7 secs

     total energy              =  -12788.49340328 Ry
     Harris-Foulkes estimate   =  -12844.02925062 Ry
     estimated scf accuracy    <     470.47503447 Ry

     iteration # 10     ecut=    80.00 Ry     beta=0.70
     Davidson diagonalization with overlap
     ethr =  1.00E-02,  avg # of iterations =  2.8

     negative rho (up, down):  1.264E+00 0.000E+00

     total cpu time spent up to now is     5072.0 secs

     total energy              =  -12755.63532248 Ry
     Harris-Foulkes estimate   =  -12803.81788992 Ry
     estimated scf accuracy    <     688.28011078 Ry

     iteration # 11     ecut=    80.00 Ry     beta=0.70
     Davidson diagonalization with overlap
     ethr =  1.00E-02,  avg # of iterations =  3.0

     negative rho (up, down):  7.528E-01 0.000E+00

     total cpu time spent up to now is     5261.5 secs

     total energy              =  -12754.39791026 Ry
     Harris-Foulkes estimate   =  -12777.39494268 Ry
     estimated scf accuracy    <     161.99574261 Ry

     iteration # 12     ecut=    80.00 Ry     beta=0.70
     Davidson diagonalization with overlap
     ethr =  1.00E-02,  avg # of iterations =  2.0

     negative rho (up, down):  1.109E+00 0.000E+00

     total cpu time spent up to now is     5441.0 secs

     total energy              =  -12755.55018344 Ry
     Harris-Foulkes estimate   =  -12770.26478512 Ry
     estimated scf accuracy    <      95.27917147 Ry

     iteration # 13     ecut=    80.00 Ry     beta=0.70
     Davidson diagonalization with overlap
     ethr =  7.33E-03,  avg # of iterations =  1.0

     negative rho (up, down):  4.813E+00 0.000E+00

     total cpu time spent up to now is     5606.4 secs

     total energy              =  -12742.85354313 Ry
     Harris-Foulkes estimate   =  -12759.86975613 Ry
     estimated scf accuracy    <      88.02833487 Ry

     iteration # 14     ecut=    80.00 Ry     beta=0.70
     Davidson diagonalization with overlap
     ethr =  6.78E-03,  avg # of iterations =  1.2

     negative rho (up, down):  7.409E+00 0.000E+00

     total cpu time spent up to now is     5772.8 secs

     total energy              =  -12742.11069624 Ry
     Harris-Foulkes estimate   =  -12748.35421960 Ry
     estimated scf accuracy    <      57.21902763 Ry

     iteration # 15     ecut=    80.00 Ry     beta=0.70
     Davidson diagonalization with overlap
     ethr =  4.40E-03,  avg # of iterations =  2.7

     negative rho (up, down):  5.903E+00 0.000E+00

     total cpu time spent up to now is     5956.9 secs

     total energy              =  -12738.28490190 Ry
     Harris-Foulkes estimate   =  -12744.24720724 Ry
     estimated scf accuracy    <      67.84568906 Ry

     iteration # 16     ecut=    80.00 Ry     beta=0.70
     Davidson diagonalization with overlap
     ethr =  4.40E-03,  avg # of iterations =  2.3

     negative rho (up, down):  3.996E+00 0.000E+00

     total cpu time spent up to now is     6137.5 secs

     total energy              =  -12738.51501692 Ry
     Harris-Foulkes estimate   =  -12740.88530271 Ry
     estimated scf accuracy    <      26.52559315 Ry

     iteration # 17     ecut=    80.00 Ry     beta=0.70
     Davidson diagonalization with overlap
     ethr =  2.04E-03,  avg # of iterations =  4.8

     negative rho (up, down):  2.793E+00 0.000E+00

     total cpu time spent up to now is     6349.2 secs

     total energy              =  -12736.46810963 Ry
     Harris-Foulkes estimate   =  -12738.90575016 Ry
     estimated scf accuracy    <      14.21524383 Ry

     iteration # 18     ecut=    80.00 Ry     beta=0.70
     Davidson diagonalization with overlap
     ethr =  1.09E-03,  avg # of iterations =  6.2

     negative rho (up, down):  3.540E+00 0.000E+00

     total cpu time spent up to now is     6584.6 secs

     total energy              =  -12736.59101781 Ry
     Harris-Foulkes estimate   =  -12737.10557144 Ry
     estimated scf accuracy    <      21.74198291 Ry

     iteration # 19     ecut=    80.00 Ry     beta=0.70
     Davidson diagonalization with overlap
     ethr =  1.09E-03,  avg # of iterations =  1.7

     negative rho (up, down):  2.363E+00 0.000E+00

     total cpu time spent up to now is     6758.3 secs

     total energy              =  -12735.84966615 Ry
     Harris-Foulkes estimate   =  -12737.70139514 Ry
     estimated scf accuracy    <      10.31456822 Ry

     iteration # 20     ecut=    80.00 Ry     beta=0.70
     Davidson diagonalization with overlap
     ethr =  7.94E-04,  avg # of iterations =  1.7

     negative rho (up, down):  2.817E+00 0.000E+00

     total cpu time spent up to now is     6931.9 secs

     total energy              =  -12735.34813610 Ry
     Harris-Foulkes estimate   =  -12736.04922017 Ry
     estimated scf accuracy    <       9.41926812 Ry

     iteration # 21     ecut=    80.00 Ry     beta=0.70
     Davidson diagonalization with overlap
     ethr =  7.25E-04,  avg # of iterations =  2.0

     negative rho (up, down):  2.158E+00 0.000E+00

     total cpu time spent up to now is     7109.7 secs

     total energy              =  -12734.05942908 Ry
     Harris-Foulkes estimate   =  -12735.70986814 Ry
     estimated scf accuracy    <       6.70841356 Ry

     iteration # 22     ecut=    80.00 Ry     beta=0.70
     Davidson diagonalization with overlap
     ethr =  5.16E-04,  avg # of iterations =  4.2

     negative rho (up, down):  1.875E+00 0.000E+00

     total cpu time spent up to now is     7314.1 secs

     total energy              =  -12732.91058541 Ry
     Harris-Foulkes estimate   =  -12734.20022407 Ry
     estimated scf accuracy    <       5.23701810 Ry

     iteration # 23     ecut=    80.00 Ry     beta=0.70
     Davidson diagonalization with overlap
     ethr =  4.03E-04,  avg # of iterations =  5.7

     negative rho (up, down):  1.273E+00 0.000E+00

     total cpu time spent up to now is     7538.1 secs

     total energy              =  -12731.42351791 Ry
     Harris-Foulkes estimate   =  -12733.14664196 Ry
     estimated scf accuracy    <       6.94504649 Ry

     iteration # 24     ecut=    80.00 Ry     beta=0.70
     Davidson diagonalization with overlap
     ethr =  4.03E-04,  avg # of iterations =  2.3

     negative rho (up, down):  1.060E+00 0.000E+00

     total cpu time spent up to now is     7721.7 secs

     total energy              =  -12731.71748910 Ry
     Harris-Foulkes estimate   =  -12731.88196429 Ry
     estimated scf accuracy    <       4.08964382 Ry

     iteration # 25     ecut=    80.00 Ry     beta=0.70
     Davidson diagonalization with overlap
     ethr =  3.15E-04,  avg # of iterations =  3.0

     negative rho (up, down):  1.124E+00 0.000E+00

     total cpu time spent up to now is     7910.9 secs

     total energy              =  -12730.97409081 Ry
     Harris-Foulkes estimate   =  -12732.07517813 Ry
     estimated scf accuracy    <       2.70591319 Ry

     iteration # 26     ecut=    80.00 Ry     beta=0.70
     Davidson diagonalization with overlap
     ethr =  2.08E-04,  avg # of iterations =  7.5

     negative rho (up, down):  1.042E+00 0.000E+00

     total cpu time spent up to now is     8188.1 secs

     total energy              =  -12731.00385770 Ry
     Harris-Foulkes estimate   =  -12731.09930085 Ry
     estimated scf accuracy    <       0.55830288 Ry

     iteration # 27     ecut=    80.00 Ry     beta=0.70
     Davidson diagonalization with overlap
     ethr =  4.30E-05,  avg # of iterations =  6.7

     negative rho (up, down):  7.007E-01 0.000E+00

     total cpu time spent up to now is     8441.0 secs

     total energy              =  -12730.95827779 Ry
     Harris-Foulkes estimate   =  -12731.04458199 Ry
     estimated scf accuracy    <       0.46638278 Ry

     iteration # 28     ecut=    80.00 Ry     beta=0.70
     Davidson diagonalization with overlap
     ethr =  3.59E-05,  avg # of iterations =  5.3

     negative rho (up, down):  5.321E-01 0.000E+00

     total cpu time spent up to now is     8663.1 secs

     total energy              =  -12730.95280217 Ry
     Harris-Foulkes estimate   =  -12730.98337274 Ry
     estimated scf accuracy    <       0.20513771 Ry

     iteration # 29     ecut=    80.00 Ry     beta=0.70
     Davidson diagonalization with overlap
     ethr =  1.58E-05,  avg # of iterations =  5.7

     negative rho (up, down):  1.897E-01 0.000E+00

     total cpu time spent up to now is     8894.5 secs

     total energy              =  -12730.94312683 Ry
     Harris-Foulkes estimate   =  -12730.96273041 Ry
     estimated scf accuracy    <       0.06306467 Ry

     iteration # 30     ecut=    80.00 Ry     beta=0.70
     Davidson diagonalization with overlap
     c_bands:  1 eigenvalues not converged
     ethr =  4.85E-06,  avg # of iterations = 15.3

     negative rho (up, down):  1.262E-01 0.000E+00

     total cpu time spent up to now is     9278.2 secs

     total energy              =  -12730.94428706 Ry
     Harris-Foulkes estimate   =  -12730.94781072 Ry
     estimated scf accuracy    <       0.02221663 Ry

     iteration # 31     ecut=    80.00 Ry     beta=0.70
     Davidson diagonalization with overlap
     c_bands:  1 eigenvalues not converged
     ethr =  1.71E-06,  avg # of iterations = 14.2

     negative rho (up, down):  9.964E-02 0.000E+00

     total cpu time spent up to now is     9631.7 secs

     total energy              =  -12730.94424168 Ry
     Harris-Foulkes estimate   =  -12730.94562757 Ry
     estimated scf accuracy    <       0.00675550 Ry

     iteration # 32     ecut=    80.00 Ry     beta=0.70
     Davidson diagonalization with overlap
     ethr =  5.20E-07,  avg # of iterations =  7.5

     negative rho (up, down):  6.147E-02 0.000E+00

     total cpu time spent up to now is     9885.9 secs

     total energy              =  -12730.94385635 Ry
     Harris-Foulkes estimate   =  -12730.94483954 Ry
     estimated scf accuracy    <       0.00368190 Ry

     iteration # 33     ecut=    80.00 Ry     beta=0.70
     Davidson diagonalization with overlap
     c_bands:  2 eigenvalues not converged
     ethr =  2.83E-07,  avg # of iterations = 11.0

     negative rho (up, down):  3.940E-02 0.000E+00

     total cpu time spent up to now is    10194.2 secs

     total energy              =  -12730.94299958 Ry
     Harris-Foulkes estimate   =  -12730.94421555 Ry
     estimated scf accuracy    <       0.00201727 Ry

     iteration # 34     ecut=    80.00 Ry     beta=0.70
     Davidson diagonalization with overlap
     ethr =  1.55E-07,  avg # of iterations =  9.3

     negative rho (up, down):  7.810E-03 0.000E+00

     total cpu time spent up to now is    10479.7 secs

     total energy              =  -12730.94255233 Ry
     Harris-Foulkes estimate   =  -12730.94315473 Ry
     estimated scf accuracy    <       0.00080617 Ry

     iteration # 35     ecut=    80.00 Ry     beta=0.70
     Davidson diagonalization with overlap
     c_bands:  1 eigenvalues not converged
     c_bands:  2 eigenvalues not converged
     c_bands:  4 eigenvalues not converged
     ethr =  6.21E-08,  avg # of iterations = 13.7

     negative rho (up, down):  2.841E-03 0.000E+00

     total cpu time spent up to now is    10825.4 secs

     total energy              =  -12730.94248591 Ry
     Harris-Foulkes estimate   =  -12730.94260918 Ry
     estimated scf accuracy    <       0.00039273 Ry

     iteration # 36     ecut=    80.00 Ry     beta=0.70
     Davidson diagonalization with overlap
     c_bands:  1 eigenvalues not converged
     c_bands:  2 eigenvalues not converged
     ethr =  3.02E-08,  avg # of iterations = 11.2

     negative rho (up, down):  1.698E-03 0.000E+00

     total cpu time spent up to now is    11122.3 secs

     total energy              =  -12730.94264923 Ry
     Harris-Foulkes estimate   =  -12730.94251090 Ry
     estimated scf accuracy    <       0.00019225 Ry

     iteration # 37     ecut=    80.00 Ry     beta=0.70
     Davidson diagonalization with overlap
     ethr =  1.48E-08,  avg # of iterations =  9.5

     negative rho (up, down):  2.766E-03 0.000E+00

     total cpu time spent up to now is    11408.3 secs

     total energy              =  -12730.94265939 Ry
     Harris-Foulkes estimate   =  -12730.94266171 Ry
     estimated scf accuracy    <       0.00004175 Ry

     iteration # 38     ecut=    80.00 Ry     beta=0.70
     Davidson diagonalization with overlap
     ethr =  3.21E-09,  avg # of iterations =  3.7

     negative rho (up, down):  2.191E-03 0.000E+00

     total cpu time spent up to now is    11618.4 secs

     total energy              =  -12730.94266796 Ry
     Harris-Foulkes estimate   =  -12730.94266418 Ry
     estimated scf accuracy    <       0.00001877 Ry

     iteration # 39     ecut=    80.00 Ry     beta=0.70
     Davidson diagonalization with overlap
     ethr =  1.44E-09,  avg # of iterations =  2.8

     negative rho (up, down):  1.939E-03 0.000E+00

     total cpu time spent up to now is    11813.3 secs

     total energy              =  -12730.94267253 Ry
     Harris-Foulkes estimate   =  -12730.94266935 Ry
     estimated scf accuracy    <       0.00000349 Ry

     iteration # 40     ecut=    80.00 Ry     beta=0.70
     Davidson diagonalization with overlap
     ethr =  2.68E-10,  avg # of iterations =  4.2

     negative rho (up, down):  2.034E-03 0.000E+00

     total cpu time spent up to now is    12037.2 secs

     total energy              =  -12730.94267299 Ry
     Harris-Foulkes estimate   =  -12730.94267310 Ry
     estimated scf accuracy    <       0.00000109 Ry

     iteration # 41     ecut=    80.00 Ry     beta=0.70
     Davidson diagonalization with overlap
     ethr =  8.42E-11,  avg # of iterations =  1.8

     negative rho (up, down):  1.913E-03 0.000E+00

     total cpu time spent up to now is    12221.5 secs

     total energy              =  -12730.94267316 Ry
     Harris-Foulkes estimate   =  -12730.94267308 Ry
     estimated scf accuracy    <       0.00000022 Ry

     iteration # 42     ecut=    80.00 Ry     beta=0.70
     Davidson diagonalization with overlap
     ethr =  1.72E-11,  avg # of iterations =  3.5

     negative rho (up, down):  1.883E-03 0.000E+00

     total cpu time spent up to now is    12469.8 secs

     total energy              =  -12730.94267314 Ry
     Harris-Foulkes estimate   =  -12730.94267320 Ry
     estimated scf accuracy    <       0.00000009 Ry

     iteration # 43     ecut=    80.00 Ry     beta=0.70
     Davidson diagonalization with overlap
     ethr =  6.79E-12,  avg # of iterations =  3.0

     negative rho (up, down):  1.883E-03 0.000E+00

     total cpu time spent up to now is    12668.7 secs

     total energy              =  -12730.94267312 Ry
     Harris-Foulkes estimate   =  -12730.94267315 Ry
     estimated scf accuracy    <       0.00000002 Ry

     iteration # 44     ecut=    80.00 Ry     beta=0.70
     Davidson diagonalization with overlap
     ethr =  1.26E-12,  avg # of iterations =  2.8

     negative rho (up, down):  1.863E-03 0.000E+00

     total cpu time spent up to now is    12866.6 secs

     End of self-consistent calculation

          k = 0.0000 0.0000 0.0000 (256287 PWs)   bands (ev):

   -28.4452 -16.9029 -15.9765 -15.7262 -15.5343 -14.7851 -14.4998 -13.9714
   -13.9539 -13.8242 -13.7333 -13.4415 -13.3071 -13.1669 -12.7603 -12.7132
   -12.6949 -12.2499 -12.0396 -11.4311 -11.0624 -10.9754 -10.8239 -10.5624
   -10.2668  -9.8988  -9.2786  -9.2156  -8.8773  -8.8086  -8.4303  -8.2732
    -8.0867  -7.8256  -7.7873  -7.3695  -7.2371  -7.1877  -7.1358  -7.1278
    -6.7201  -6.4111  -6.2400  -5.7123  -5.6430  -5.5777  -5.5503  -5.5000
    -5.4701  -5.3559  -5.1216  -5.0983  -4.8449  -4.6765  -4.5488  -4.3070
    -4.2517  -4.2316  -4.1508  -4.1086  -3.9056  -3.8097  -3.7066  -3.6595
    -3.6116  -3.6082  -3.4040  -3.2086  -3.1393  -3.0914  -3.0538  -3.0429
    -3.0323  -3.0294  -2.9715  -2.8003  -2.7908  -2.6939  -2.6472  -2.6432
    -2.6247  -2.6188  -2.6135  -2.5797  -2.4603  -2.4516  -2.4175  -2.3796
    -2.3566  -2.3280  -2.2963  -2.2568  -2.2066  -2.0733  -2.0061  -1.9627
    -1.9438  -1.9316  -1.8613  -1.8324  -1.8210  -1.8078  -1.7967  -1.7836
    -1.7825  -1.7713  -1.7703  -1.7110  -1.6517  -1.6419  -1.6387  -1.6367
    -1.6311  -1.5958  -1.5672  -1.4589  -1.3992  -1.3932  -1.3834  -1.3606
    -1.3513  -1.3386  -1.3187  -1.2981  -1.2956  -1.2811  -1.2789  -1.2736
    -1.2321  -1.2071  -1.1880  -1.1798  -1.1693  -1.1621  -1.1577  -1.1554
    -1.1450  -1.1423  -1.1312  -1.1208  -1.0967  -1.0587  -1.0268  -1.0188
    -1.0054  -0.9875  -0.9728  -0.9599  -0.9266  -0.9169  -0.8997  -0.8789
    -0.8721  -0.8672  -0.8390  -0.8247  -0.8103  -0.8077  -0.7851  -0.7828
    -0.7733  -0.7374  -0.7262  -0.6813  -0.6671  -0.6648  -0.6575  -0.6539
    -0.6519  -0.6452  -0.6419  -0.6367  -0.6352  -0.6330  -0.6257  -0.6238
    -0.6104  -0.6067  -0.5883  -0.5635  -0.5572  -0.5565  -0.5471  -0.5390
    -0.5345  -0.5278  -0.5197  -0.5160  -0.4842  -0.4804  -0.4801  -0.4765
    -0.4752  -0.4719  -0.4710  -0.4690  -0.4682  -0.4659  -0.4626  -0.4619
    -0.4595  -0.4572  -0.4554  -0.4408  -0.4362  -0.4243  -0.3958  -0.3106
    -0.3053  -0.3038  -0.3010  -0.2976  -0.2841  -0.2806  -0.2664  -0.2633
    -0.2527  -0.2402  -0.2272  -0.2201  -0.2188  -0.2161  -0.2123  -0.1950
    -0.1856  -0.1811  -0.1786  -0.1750  -0.1687  -0.1612  -0.1596  -0.1419
    -0.1078  -0.1074  -0.0983  -0.0595  -0.0567  -0.0514  -0.0433  -0.0391
    -0.0318  -0.0304  -0.0256  -0.0223  -0.0181  -0.0162  -0.0118  -0.0084
    -0.0067  -0.0018  -0.0007   0.0098   0.0131   0.0258   0.0329   0.0512
     0.0578   0.0764   0.0880   0.0940   0.1029   0.1047   0.1132   0.1172
     0.1216   0.1236   0.1272   0.1330   0.1389   0.1423   0.1435   0.1579
     0.1586   0.1675   0.1691   0.1712   0.1738   0.1753   0.1793   0.1844
     0.1932   0.1952   0.1984   0.2019   0.2046   0.2098   0.2282   0.2513
     0.2602   0.2697   0.2753   0.2846   0.3023   0.3071   0.3107   0.3126
     0.3165   0.3173   0.3206   0.3230   0.3240   0.3270   0.3274   0.3397
     0.3473   0.3681   0.3784   0.3786   0.3824   0.3938   0.3958   0.4063
     0.4076   0.4124   0.4156   0.4194   0.4229   0.4292   0.4300   0.4308
     0.4393   0.4412   0.4470   0.4501   0.4520   0.4533   0.4613   0.4732
     0.4773   0.4800   0.4878   0.4924   0.5169   0.5222   0.5311   0.5472
     0.5514   0.5568   0.5750   0.5836   0.5889   0.5966   0.6151   0.6230
     0.6313   0.6332   0.6385   0.6404   0.6533   0.6594   0.6661   0.6706
     0.6780   0.6863   0.6912   0.7150   0.7208   0.7295   0.7306   0.7391
     0.7446   0.7461   0.7555   0.7603   0.7676   0.7728   0.7804   0.7814
     0.7991   0.8082   0.8120   0.8232   0.8296   0.8315   0.8352   0.8408
     0.8583   0.8659   0.8733   0.8769   0.8849   0.8889   0.8901   0.8951
     0.8959   0.9033   0.9084   0.9152   0.9228   0.9276   0.9289   0.9347
     0.9354   0.9410   0.9439   0.9448   0.9472   0.9516   0.9528   0.9545
     0.9610   0.9766   0.9878   0.9939   0.9981   1.0009   1.0128   1.0181
     1.0288   1.0349   1.0356   1.0385   1.0409   1.0458   1.0489   1.0550
     1.0637   1.0655   1.0681   1.0703   1.0767   1.0787   1.0804   1.0853
     1.0862   1.0890   1.0915   1.1067   1.1084   1.1143   1.1184   1.1248
     1.1329   1.1360   1.1387   1.1391   1.1414   1.1441   1.1479   1.1500
     1.1544   1.1573   1.1736   1.1913   1.1977   1.2020   1.2065   1.2079
     1.2085   1.2149   1.2219   1.2234   1.2446   1.2506   1.2566   1.2592
     1.2677   1.2730   1.2782   1.2815   1.2871   1.2906   1.2918   1.2949
     1.3029   1.3036   1.3053   1.3154   1.3231   1.3315   1.3329   1.3355
     1.3372   1.3381   1.3495   1.3666   1.3677   1.3753   1.3768   1.3844
     1.3865   1.3907   1.3915   1.3975   1.4007   1.4035   1.4063   1.4155
     1.4186   1.4231   1.4272   1.4286   1.4302   1.4431   1.4519   1.4540
     1.4563   1.4601   1.4632   1.4661   1.4779   1.4812   1.4819   1.4901
     1.4985   1.5011   1.5021   1.5043   1.5053   1.5079   1.5085   1.5101
     1.5109   1.5136   1.5165   1.5254   1.5287   1.5370   1.5434   1.5593
     1.5696   1.5705   1.5777   1.5901   1.5929   1.5953   1.5981   1.6017
     1.6042   1.6061   1.6120   1.6238   1.6248   1.6262   1.6280   1.6285
     1.6338   1.6397   1.6446   1.6462   1.6489   1.6570   1.6638   1.6654
     1.6694   1.6709   1.6739   1.6814   1.6845   1.6888   1.6897   1.6918
     1.6956   1.7005   1.7031   1.7051   1.7060   1.7076   1.7165   1.7176
     1.7247   1.7332   1.7367   1.7416   1.7439   1.7473   1.7503   1.7517
     1.7552   1.7597   1.7770   1.7780   1.7836   1.7844   1.7900   1.7954
     1.8071   1.8102   1.8118   1.8132   1.8192   1.8222   1.8242   1.8258
     1.8274   1.8293   1.8300   1.8340   1.8353   1.8385   1.8409   1.8426
     1.8526   1.8547   1.8596   1.8622   1.8648   1.8695   1.8701   1.8775
     1.8888   1.9023   1.9044   1.9136   1.9338   1.9458   1.9500   1.9512
     1.9587   1.9684   1.9705   1.9772   1.9809   1.9982   2.0013   2.0150
     2.0239   2.0266   2.0285   2.0326   2.0373   2.0400   2.0452   2.2919
     2.3481   2.4874   2.4946   2.5286   2.5326   2.5508   2.5897   2.5951
     2.5983   2.5999   2.6107   2.6166   2.6190   2.7485   2.7845   2.8005
     2.8432   2.8472   2.8503   2.8553   2.8675   2.9187   3.0944   3.1069
     3.1092   3.1675   3.2814   3.3850   3.5265   3.6599   3.8895   3.9036
     4.1816   4.1973   4.2187   4.2282   4.2393   4.2532   4.2892   4.3222
     4.3309   4.3637   4.3687   4.3798   4.3886   4.3904   4.3920   4.4126
     4.5795   4.5894   4.6106   4.6378   4.6925   4.8367   5.0189   5.1430
     5.1651   5.2782   5.5430   5.7025   5.7262   5.7862   5.8086   6.0294
     6.0602   6.0771   6.1221   6.2870   6.3164   6.4218   6.6101   6.7280
     6.7568   6.7829   6.8178   6.8338   6.8384   6.8596   6.9218   6.9497
     6.9875   7.0892   7.1091   7.1507   7.1694   7.1759   7.2750   7.2973
     7.3206   7.4189   7.4388   7.4498   7.4668   7.5945   7.7229   7.7790
     7.8072   7.8627   7.8655   7.8879   8.0001   8.0470   8.0542   8.0661
     8.0934   8.2443   8.4891   8.5244   8.5254   8.5279   8.5359   8.5622
     8.6711   8.6936   8.7016   8.7052   8.7309   8.7610   8.7815   8.8038
     8.8720   8.9033   8.9336   8.9624   9.0134   9.0230   9.0465   9.0756
     9.1790   9.2121   9.2261   9.2429   9.2789   9.3078   9.3288   9.3431
     9.4231   9.4532   9.4554   9.4810   9.5028   9.5284   9.5981   9.7064
     9.7256   9.7449   9.9493   9.9635   9.9790   9.9919  10.0851  10.0912
    10.2185  10.2507  10.3402  10.3790

          k = 0.0000-0.2165 0.0000 (256176 PWs)   bands (ev):

   -28.4452 -16.9029 -15.9419 -15.8358 -15.3337 -15.0877 -14.1473 -13.9687
   -13.9329 -13.9111 -13.6779 -13.5916 -13.3818 -13.3110 -12.8868 -12.7006
   -12.3573 -11.9423 -11.7806 -11.7340 -11.5928 -11.2833 -10.5659 -10.2918
   -10.0656  -9.7502  -9.5109  -9.3303  -8.8702  -8.6050  -8.5916  -8.2733
    -8.2005  -7.9386  -7.8099  -7.5141  -7.3094  -7.2806  -6.6548  -6.5847
    -6.5451  -6.4652  -6.4531  -6.1510  -5.8995  -5.8059  -5.5133  -5.5042
    -5.4644  -5.1152  -4.8238  -4.7110  -4.6029  -4.5586  -4.5486  -4.4993
    -4.4683  -4.4300  -4.2806  -4.2177  -4.1649  -4.1114  -3.8667  -3.7301
    -3.5592  -3.4176  -3.3309  -3.1846  -3.1259  -2.9340  -2.9316  -2.9256
    -2.9221  -2.8625  -2.8468  -2.7115  -2.6962  -2.6827  -2.6566  -2.6552
    -2.6191  -2.5567  -2.5013  -2.4920  -2.4486  -2.4160  -2.3871  -2.3206
    -2.2882  -2.2267  -2.2155  -2.2110  -2.2061  -2.2050  -2.1918  -2.1804
    -2.1364  -2.0806  -1.9593  -1.8917  -1.8863  -1.8770  -1.8528  -1.8309
    -1.7838  -1.7662  -1.7622  -1.7496  -1.7166  -1.6967  -1.6062  -1.6044
    -1.5864  -1.5860  -1.5479  -1.4895  -1.4824  -1.4543  -1.4069  -1.3894
    -1.3818  -1.3771  -1.3699  -1.3590  -1.3575  -1.3431  -1.3380  -1.3015
    -1.2760  -1.2670  -1.2652  -1.2463  -1.2040  -1.1806  -1.0943  -1.0870
    -1.0852  -1.0742  -1.0481  -1.0076  -0.9882  -0.9800  -0.9752  -0.9538
    -0.9370  -0.9319  -0.9053  -0.8976  -0.8970  -0.8930  -0.8912  -0.8876
    -0.8826  -0.8714  -0.8555  -0.8457  -0.8434  -0.8358  -0.8272  -0.8192
    -0.8075  -0.8007  -0.7804  -0.7463  -0.7397  -0.7258  -0.7083  -0.7067
    -0.6737  -0.6728  -0.6685  -0.6606  -0.6365  -0.6254  -0.6213  -0.6030
    -0.6017  -0.5997  -0.5940  -0.5881  -0.5846  -0.5501  -0.5463  -0.5438
    -0.5370  -0.5275  -0.5250  -0.5241  -0.5161  -0.5103  -0.5085  -0.4834
    -0.4482  -0.4433  -0.4419  -0.4353  -0.4284  -0.4218  -0.4190  -0.4109
    -0.4065  -0.3942  -0.3889  -0.3766  -0.3720  -0.3572  -0.3547  -0.3399
    -0.2821  -0.2795  -0.2699  -0.2676  -0.2562  -0.2538  -0.2288  -0.2258
    -0.2244  -0.2234  -0.2226  -0.2209  -0.1920  -0.1886  -0.1874  -0.1685
    -0.1613  -0.1567  -0.1560  -0.1435  -0.1397  -0.1378  -0.1330  -0.1205
    -0.1118  -0.1002  -0.0998  -0.0996  -0.0803  -0.0754  -0.0686  -0.0666
    -0.0609  -0.0518  -0.0501  -0.0496  -0.0433  -0.0225  -0.0103  -0.0014
     0.0161   0.0240   0.0305   0.0339   0.0534   0.0569   0.0639   0.0763
     0.0837   0.0886   0.0914   0.0935   0.1026   0.1056   0.1095   0.1204
     0.1235   0.1255   0.1291   0.1316   0.1325   0.1388   0.1410   0.1455
     0.1523   0.1548   0.1599   0.1635   0.1749   0.1799   0.1858   0.1859
     0.1886   0.2257   0.2352   0.2383   0.2451   0.2474   0.2510   0.2520
     0.2559   0.2625   0.2699   0.2792   0.2810   0.2870   0.2959   0.2986
     0.2998   0.3065   0.3074   0.3084   0.3113   0.3152   0.3159   0.3214
     0.3430   0.3558   0.3567   0.3652   0.3759   0.3856   0.3869   0.3896
     0.3915   0.3941   0.4000   0.4043   0.4155   0.4187   0.4211   0.4224
     0.4294   0.4496   0.4508   0.4547   0.4618   0.4639   0.4706   0.4724
     0.4751   0.4835   0.4934   0.4938   0.5001   0.5195   0.5214   0.5218
     0.5236   0.5349   0.5552   0.5596   0.5723   0.5798   0.5864   0.5907
     0.5933   0.6059   0.6101   0.6113   0.6252   0.6464   0.6527   0.6613
     0.6665   0.6696   0.6788   0.6934   0.7160   0.7428   0.7552   0.7647
     0.7758   0.7820   0.7842   0.7877   0.8036   0.8089   0.8109   0.8152
     0.8274   0.8345   0.8416   0.8426   0.8503   0.8538   0.8554   0.8569
     0.8595   0.8644   0.8666   0.8692   0.8750   0.8797   0.8855   0.8915
     0.8994   0.9073   0.9080   0.9164   0.9195   0.9250   0.9270   0.9273
     0.9317   0.9338   0.9371   0.9403   0.9505   0.9544   0.9560   0.9573
     0.9607   0.9659   0.9716   0.9737   0.9756   0.9778   0.9803   0.9826
     0.9842   0.9871   0.9918   0.9995   1.0088   1.0301   1.0316   1.0445
     1.0507   1.0540   1.0566   1.0606   1.0638   1.0674   1.0706   1.0714
     1.0721   1.0744   1.0761   1.0814   1.0893   1.1115   1.1119   1.1133
     1.1199   1.1307   1.1313   1.1353   1.1376   1.1406   1.1446   1.1500
     1.1547   1.1639   1.1702   1.1709   1.1750   1.1761   1.1799   1.2251
     1.2297   1.2605   1.2671   1.2707   1.2753   1.2797   1.2852   1.2870
     1.2896   1.2963   1.2982   1.3024   1.3047   1.3092   1.3110   1.3200
     1.3217   1.3238   1.3264   1.3308   1.3341   1.3439   1.3459   1.3482
     1.3543   1.3560   1.3568   1.3574   1.3600   1.3615   1.3645   1.3666
     1.3695   1.3706   1.3754   1.3766   1.3806   1.3810   1.3821   1.3847
     1.3861   1.4016   1.4034   1.4140   1.4172   1.4197   1.4231   1.4257
     1.4295   1.4305   1.4322   1.4346   1.4352   1.4371   1.4401   1.4551
     1.4812   1.4852   1.5026   1.5144   1.5246   1.5271   1.5300   1.5373
     1.5380   1.5453   1.5585   1.5608   1.5621   1.5716   1.5757   1.5792
     1.5819   1.5830   1.5854   1.5865   1.5878   1.5899   1.5938   1.5951
     1.5974   1.6024   1.6057   1.6073   1.6163   1.6191   1.6200   1.6202
     1.6221   1.6243   1.6281   1.6291   1.6359   1.6531   1.6575   1.6617
     1.6628   1.6674   1.6699   1.6713   1.6742   1.6815   1.6858   1.6894
     1.6928   1.7007   1.7013   1.7061   1.7071   1.7076   1.7158   1.7166
     1.7258   1.7273   1.7285   1.7416   1.7433   1.7474   1.7514   1.7605
     1.7678   1.7699   1.7714   1.7744   1.7772   1.7827   1.7854   1.7919
     1.7987   1.8065   1.8095   1.8167   1.8196   1.8216   1.8235   1.8359
     1.8363   1.8396   1.8413   1.8426   1.8461   1.8479   1.8491   1.8701
     1.8783   1.8789   1.8806   1.8868   1.8919   1.8943   1.8994   1.9092
     1.9122   1.9139   1.9156   1.9190   1.9254   1.9312   1.9367   1.9516
     1.9750   1.9778   1.9795   2.0043   2.0687   2.0861   2.0972   2.1156
     2.1189   2.1317   2.1394   2.1713   2.1732   2.1791   2.1851   2.1972
     2.2035   2.2069   2.2071   2.2221   2.2449   2.2466   2.3863   2.4843
     2.7416   2.7942   2.8030   2.8045   2.8097   2.8767   2.8850   2.9364
     2.9451   2.9458   2.9654   2.9675   2.9690   3.0935   3.1032   3.1273
     3.1531   3.1630   3.1703   3.3089   3.3131   3.4996   3.5499   3.5501
     3.5822   3.6861   3.7561   3.8399   4.0570   4.0640   4.2072   4.3078
     4.4331   4.4393   4.4742   4.4995   4.6037   4.6746   4.6839   4.7112
     4.7484   4.8660   4.8850   5.0319   5.0642   5.1069   5.1264   5.3322
     5.4750   5.4810   5.5640   5.6085   5.7200   5.7338   5.7496   5.7656
     5.8327   5.8354   6.0157   6.0452   6.1026   6.1428   6.4008   6.6655
     6.7098   6.7416   6.7924   6.7943   6.8699   6.9100   6.9247   7.0397
     7.0777   7.1019   7.1677   7.2603   7.3211   7.3595   7.3940   7.4146
     7.4344   7.4609   7.4755   7.4949   7.5030   7.5102   7.5126   7.5235
     7.6691   7.6940   7.7127   7.7379   7.8032   7.8806   8.0350   8.0739
     8.1201   8.1385   8.2198   8.4313   8.4830   8.5364   8.5427   8.6186
     8.7093   8.7511   8.7631   8.7670   8.7835   8.7934   8.9074   8.9294
     8.9449   9.0231   9.0745   9.0908   9.1172   9.1278   9.1458   9.1622
     9.1819   9.1827   9.1953   9.2626   9.3575   9.4161   9.4260   9.4721
     9.5074   9.5458   9.5700   9.7127   9.7309   9.7422   9.7674   9.7970
     9.8189   9.8378   9.8628   9.9117   9.9268  10.0146  10.0311  10.0663
    10.1050  10.1664  10.1989  10.2075

          k = 0.2500 0.0000 0.0000 (256240 PWs)   bands (ev):

   -28.4452 -16.9567 -15.8325 -15.6090 -15.3455 -14.8277 -14.7388 -14.5300
   -14.3432 -14.1477 -13.6762 -13.1454 -12.9806 -12.8856 -12.6545 -12.6413
   -12.1989 -12.0015 -11.7221 -11.5901 -11.3193 -10.7672 -10.6257 -10.4036
   -10.2446 -10.0633  -9.8961  -9.6789  -9.3315  -9.0821  -8.9260  -8.6867
    -8.1441  -8.0321  -7.7998  -7.3376  -7.1970  -7.0620  -6.9020  -6.7783
    -6.5829  -6.1189  -5.9435  -5.6252  -5.5512  -5.4919  -5.4611  -5.2086
    -5.1443  -4.9483  -4.9253  -4.6598  -4.5659  -4.5098  -4.2767  -4.1599
    -4.1034  -4.0970  -4.0836  -4.0166  -3.9673  -3.8272  -3.7181  -3.6497
    -3.6361  -3.6141  -3.6033  -3.4849  -3.4675  -3.4570  -3.3126  -3.2842
    -3.2183  -3.1727  -3.1351  -3.1155  -3.0611  -3.0268  -2.9640  -2.8624
    -2.8542  -2.8213  -2.7190  -2.6315  -2.5927  -2.5299  -2.4594  -2.4277
    -2.4229  -2.3906  -2.2999  -2.2592  -2.2317  -2.1455  -2.0447  -2.0245
    -1.9838  -1.9554  -1.9131  -1.8209  -1.7301  -1.7221  -1.7155  -1.6996
    -1.6382  -1.6249  -1.6064  -1.5276  -1.5056  -1.4825  -1.4479  -1.4238
    -1.4228  -1.4214  -1.4178  -1.4135  -1.3948  -1.3801  -1.3631  -1.3468
    -1.3402  -1.3341  -1.3200  -1.2790  -1.2508  -1.2273  -1.2171  -1.2077
    -1.2035  -1.2015  -1.1960  -1.1810  -1.1535  -1.1496  -1.1320  -1.1221
    -1.1161  -1.1142  -1.0951  -1.0415  -0.9848  -0.9575  -0.9457  -0.9319
    -0.9144  -0.8890  -0.8788  -0.8660  -0.8586  -0.8569  -0.8522  -0.8436
    -0.8271  -0.8235  -0.8119  -0.8075  -0.8018  -0.7960  -0.7866  -0.7658
    -0.7597  -0.7566  -0.7478  -0.7446  -0.7385  -0.7311  -0.7223  -0.7099
    -0.7010  -0.6896  -0.6730  -0.6678  -0.6652  -0.6564  -0.6481  -0.6395
    -0.6354  -0.6334  -0.6270  -0.6174  -0.6139  -0.6051  -0.6017  -0.5997
    -0.5980  -0.5968  -0.5921  -0.5890  -0.5826  -0.5743  -0.5702  -0.5624
    -0.5501  -0.5478  -0.5240  -0.5156  -0.4994  -0.4781  -0.4656  -0.4577
    -0.4363  -0.4354  -0.4218  -0.4149  -0.4011  -0.3887  -0.3867  -0.3765
    -0.3699  -0.3649  -0.3635  -0.3502  -0.3470  -0.3332  -0.2701  -0.2271
    -0.2223  -0.2165  -0.2100  -0.1923  -0.1865  -0.1800  -0.1751  -0.1700
    -0.1626  -0.1582  -0.1570  -0.1458  -0.1436  -0.1380  -0.1373  -0.1310
    -0.1191  -0.1075  -0.1027  -0.0986  -0.0947  -0.0835  -0.0818  -0.0771
    -0.0753  -0.0643  -0.0264  -0.0208  -0.0182  -0.0144  -0.0070  -0.0052
     0.0012   0.0039   0.0130   0.0253   0.0287   0.0446   0.0488   0.0578
     0.0608   0.0632   0.0709   0.0856   0.0877   0.0913   0.0965   0.1051
     0.1088   0.1148   0.1191   0.1277   0.1314   0.1444   0.1483   0.1542
     0.1615   0.1740   0.1850   0.1860   0.1928   0.1966   0.1997   0.2061
     0.2127   0.2225   0.2348   0.2386   0.2447   0.2517   0.2603   0.2695
     0.2733   0.2781   0.2821   0.2918   0.3135   0.3189   0.3279   0.3344
     0.3357   0.3402   0.3556   0.3583   0.3601   0.3713   0.3739   0.3773
     0.3819   0.3840   0.3900   0.3919   0.3935   0.3967   0.4021   0.4064
     0.4173   0.4184   0.4273   0.4288   0.4327   0.4374   0.4475   0.4495
     0.4575   0.4624   0.4661   0.4859   0.4923   0.4973   0.4987   0.5050
     0.5085   0.5142   0.5236   0.5273   0.5313   0.5344   0.5400   0.5429
     0.5567   0.5690   0.5856   0.5996   0.6171   0.6364   0.6413   0.6482
     0.6517   0.6582   0.6623   0.6668   0.6675   0.6694   0.6726   0.6734
     0.6781   0.6815   0.6846   0.6880   0.6936   0.6974   0.7011   0.7062
     0.7125   0.7158   0.7187   0.7211   0.7257   0.7284   0.7458   0.7480
     0.7613   0.7723   0.7802   0.7887   0.8001   0.8042   0.8064   0.8213
     0.8289   0.8335   0.8397   0.8426   0.8464   0.8586   0.8634   0.8672
     0.8685   0.8731   0.8762   0.8845   0.8867   0.8897   0.8965   0.8996
     0.9054   0.9150   0.9199   0.9240   0.9298   0.9389   0.9404   0.9429
     0.9518   0.9630   0.9635   0.9657   0.9735   0.9756   0.9796   0.9852
     0.9872   0.9889   0.9966   1.0045   1.0060   1.0104   1.0148   1.0200
     1.0262   1.0294   1.0368   1.0478   1.0489   1.0535   1.0571   1.0593
     1.0613   1.0715   1.0813   1.0893   1.0978   1.1135   1.1179   1.1288
     1.1322   1.1347   1.1379   1.1414   1.1437   1.1616   1.1639   1.1663
     1.1694   1.1753   1.1797   1.1834   1.1869   1.1912   1.2061   1.2120
     1.2172   1.2258   1.2335   1.2354   1.2431   1.2461   1.2542   1.2593
     1.2689   1.2702   1.2796   1.2821   1.2826   1.2859   1.2890   1.2925
     1.2954   1.3003   1.3041   1.3085   1.3263   1.3320   1.3341   1.3415
     1.3468   1.3537   1.3604   1.3703   1.3756   1.3789   1.3808   1.3848
     1.3894   1.3934   1.3960   1.3998   1.4041   1.4073   1.4088   1.4105
     1.4140   1.4185   1.4205   1.4245   1.4261   1.4320   1.4354   1.4386
     1.4422   1.4470   1.4502   1.4526   1.4591   1.4601   1.4626   1.4671
     1.4691   1.4786   1.4823   1.4873   1.4964   1.4993   1.5022   1.5082
     1.5111   1.5130   1.5165   1.5252   1.5272   1.5323   1.5375   1.5405
     1.5441   1.5539   1.5551   1.5569   1.5668   1.5752   1.5789   1.5807
     1.5853   1.5910   1.6121   1.6153   1.6200   1.6316   1.6341   1.6345
     1.6417   1.6477   1.6495   1.6511   1.6536   1.6587   1.6643   1.6663
     1.6686   1.6716   1.6770   1.6828   1.6852   1.6892   1.6953   1.6988
     1.7017   1.7044   1.7057   1.7070   1.7092   1.7113   1.7173   1.7198
     1.7232   1.7251   1.7270   1.7345   1.7436   1.7456   1.7484   1.7496
     1.7533   1.7573   1.7603   1.7700   1.7736   1.7753   1.7912   1.7944
     1.8031   1.8061   1.8103   1.8114   1.8133   1.8146   1.8174   1.8200
     1.8255   1.8264   1.8292   1.8321   1.8340   1.8364   1.8395   1.8498
     1.8528   1.8575   1.8583   1.8591   1.8607   1.8664   1.8752   1.8791
     1.8812   1.8866   1.8956   1.8985   1.9022   1.9044   1.9061   1.9104
     1.9254   1.9430   1.9445   1.9554   1.9778   1.9859   2.0159   2.0198
     2.0236   2.0365   2.0464   2.0827   2.1342   2.1432   2.1495   2.1555
     2.1776   2.1806   2.2293   2.2425   2.2992   2.4171   2.4339   2.4488
     2.4632   2.4686   2.4944   2.5835   2.6257   2.6509   2.9408   2.9459
     2.9504   2.9745   3.3562   3.3648   3.3827   3.5750   3.5823   3.5980
     3.6050   3.6068   3.6516   3.7197   3.8364   3.8492   3.9449   3.9655
     4.0099   4.0359   4.0767   4.0867   4.0951   4.1151   4.1649   4.2496
     4.2692   4.3219   4.3672   4.4210   4.5324   4.5723   4.6040   4.6837
     4.7414   4.8145   5.0950   5.1260   5.1770   5.2154   5.3652   5.5022
     5.5929   5.5965   5.6178   5.6508   5.7280   5.8305   5.8354   5.8969
     5.9170   5.9333   5.9393   6.0050   6.0590   6.0790   6.1131   6.1256
     6.1683   6.2101   6.2679   6.3826   6.3961   6.4009   6.4644   6.8407
     6.9794   7.0248   7.0444   7.1006   7.1234   7.1403   7.1610   7.2083
     7.3519   7.3885   7.3961   7.4183   7.4221   7.4562   7.4852   7.5086
     7.5351   7.6521   7.6650   7.7865   7.8290   7.8430   7.9305   7.9452
     7.9815   8.0289   8.0697   8.1078   8.1694   8.1791   8.3638   8.3736
     8.4319   8.4469   8.4825   8.5418   8.5793   8.6479   8.6933   8.7016
     8.7037   8.7108   8.7280   8.7695   8.8246   8.8400   8.9721   9.0336
     9.0366   9.2303   9.2571   9.3772   9.4215   9.4390   9.4711   9.4871
     9.4912   9.5003   9.5161   9.5445   9.5476   9.5731   9.5761   9.6143
     9.6238   9.6283   9.7224   9.7727   9.8503   9.8598   9.9377  10.0831
    10.0953  10.0979  10.1162  10.1670

          k = 0.2500-0.2165 0.0000 (256316 PWs)   bands (ev):

   -28.4452 -16.9567 -15.8201 -15.6604 -15.2264 -14.9043 -14.8262 -14.5812
   -14.2704 -13.8665 -13.7458 -13.4845 -12.9398 -12.8749 -12.6540 -12.4263
   -12.2955 -11.9289 -11.8131 -11.4361 -11.1170 -10.9101 -10.8394 -10.6655
   -10.2684 -10.0630  -9.7705  -9.6096  -9.1328  -8.8619  -8.7047  -8.5645
    -8.4442  -8.1672  -8.0935  -7.8598  -7.2737  -7.0776  -6.3834  -6.2394
    -6.1598  -6.0983  -6.0499  -5.9491  -5.7313  -5.6382  -5.3354  -5.3291
    -5.3099  -4.9881  -4.8066  -4.6218  -4.4550  -4.4117  -4.3562  -4.3045
    -4.2760  -4.2246  -3.9820  -3.9754  -3.9597  -3.9515  -3.8902  -3.7862
    -3.7653  -3.5940  -3.5385  -3.4311  -3.3708  -3.3097  -3.2060  -3.1872
    -3.1530  -3.1057  -3.0869  -3.0399  -3.0199  -2.9482  -2.8752  -2.8340
    -2.7738  -2.6951  -2.6735  -2.6439  -2.5976  -2.5546  -2.5364  -2.5331
    -2.4858  -2.4057  -2.3446  -2.3053  -2.2519  -2.1743  -2.0110  -1.9461
    -1.9388  -1.9119  -1.8113  -1.8052  -1.7946  -1.7890  -1.7739  -1.7504
    -1.6727  -1.6389  -1.6270  -1.6190  -1.5964  -1.5817  -1.5438  -1.4581
    -1.4491  -1.4397  -1.4379  -1.3841  -1.3796  -1.3731  -1.3480  -1.3372
    -1.3321  -1.3276  -1.3216  -1.3113  -1.2995  -1.2983  -1.2966  -1.2943
    -1.2865  -1.2617  -1.2242  -1.2091  -1.2006  -1.1151  -1.0867  -1.0826
    -0.9860  -0.9794  -0.9488  -0.9442  -0.9363  -0.9028  -0.9000  -0.8953
    -0.8876  -0.8847  -0.8784  -0.8680  -0.8609  -0.8559  -0.8516  -0.8459
    -0.8424  -0.8373  -0.8340  -0.8281  -0.8208  -0.8151  -0.8035  -0.8017
    -0.7923  -0.7780  -0.7519  -0.7500  -0.7471  -0.7441  -0.7407  -0.7320
    -0.7280  -0.7013  -0.6936  -0.6812  -0.6662  -0.6603  -0.6544  -0.6515
    -0.6432  -0.6403  -0.6200  -0.6175  -0.6121  -0.5950  -0.5847  -0.5823
    -0.5760  -0.5733  -0.5675  -0.5662  -0.5580  -0.5507  -0.5399  -0.5347
    -0.5303  -0.5182  -0.5142  -0.4903  -0.4870  -0.4810  -0.4779  -0.4748
    -0.4048  -0.3951  -0.3914  -0.3883  -0.3824  -0.3790  -0.3684  -0.3396
    -0.3387  -0.3296  -0.3258  -0.3246  -0.3187  -0.3076  -0.2936  -0.2710
    -0.2637  -0.2422  -0.2311  -0.2303  -0.2218  -0.1891  -0.1855  -0.1797
    -0.1775  -0.1742  -0.1509  -0.1476  -0.1437  -0.1343  -0.1284  -0.1216
    -0.1165  -0.1116  -0.1076  -0.1046  -0.1029  -0.0783  -0.0722  -0.0637
    -0.0609  -0.0542  -0.0336  -0.0260  -0.0219  -0.0186  -0.0106  -0.0023
     0.0077   0.0154   0.0166   0.0186   0.0225   0.0287   0.0304   0.0358
     0.0410   0.0438   0.0523   0.0552   0.0575   0.0694   0.0810   0.0898
     0.0962   0.1117   0.1175   0.1253   0.1297   0.1366   0.1427   0.1467
     0.1568   0.1637   0.1705   0.1751   0.1770   0.1838   0.2075   0.2207
     0.2340   0.2367   0.2659   0.2734   0.2784   0.2801   0.2870   0.2895
     0.2965   0.3069   0.3125   0.3163   0.3215   0.3227   0.3292   0.3314
     0.3364   0.3403   0.3415   0.3478   0.3548   0.3586   0.3699   0.3744
     0.3777   0.3794   0.3820   0.3837   0.3876   0.3918   0.3930   0.3984
     0.4011   0.4051   0.4142   0.4155   0.4241   0.4381   0.4484   0.4545
     0.4576   0.4619   0.4648   0.4695   0.4865   0.4899   0.4955   0.5108
     0.5174   0.5212   0.5268   0.5301   0.5395   0.5418   0.5489   0.5505
     0.5572   0.5598   0.5626   0.5680   0.5887   0.5948   0.5999   0.6231
     0.6395   0.6568   0.6624   0.6667   0.6680   0.6688   0.6760   0.6777
     0.6826   0.6839   0.6899   0.6934   0.6991   0.7045   0.7093   0.7129
     0.7166   0.7197   0.7256   0.7311   0.7383   0.7511   0.7572   0.7671
     0.7718   0.7800   0.7835   0.7897   0.7956   0.7997   0.8186   0.8262
     0.8329   0.8389   0.8404   0.8451   0.8507   0.8553   0.8574   0.8611
     0.8660   0.8677   0.8727   0.8773   0.8798   0.8832   0.8992   0.9035
     0.9157   0.9169   0.9257   0.9347   0.9472   0.9574   0.9584   0.9605
     0.9779   0.9867   0.9904   0.9922   1.0007   1.0027   1.0089   1.0104
     1.0119   1.0144   1.0195   1.0219   1.0294   1.0389   1.0408   1.0432
     1.0500   1.0522   1.0555   1.0577   1.0610   1.0635   1.0672   1.0703
     1.0741   1.0780   1.0806   1.0831   1.0865   1.0922   1.0930   1.1000
     1.1035   1.1083   1.1095   1.1134   1.1150   1.1188   1.1346   1.1462
     1.1517   1.1574   1.1585   1.1787   1.1859   1.1939   1.1956   1.2121
     1.2162   1.2184   1.2205   1.2241   1.2282   1.2350   1.2413   1.2433
     1.2447   1.2456   1.2493   1.2511   1.2586   1.2645   1.2712   1.2754
     1.2799   1.2859   1.2900   1.2928   1.2984   1.3026   1.3187   1.3246
     1.3326   1.3395   1.3443   1.3461   1.3546   1.3565   1.3598   1.3628
     1.3651   1.3681   1.3791   1.3878   1.3940   1.3985   1.4085   1.4093
     1.4192   1.4280   1.4311   1.4487   1.4510   1.4585   1.4712   1.4718
     1.4748   1.4770   1.4788   1.4804   1.4814   1.4836   1.4855   1.4869
     1.4918   1.4959   1.4988   1.5065   1.5104   1.5114   1.5152   1.5289
     1.5323   1.5432   1.5542   1.5555   1.5588   1.5619   1.5641   1.5681
     1.5703   1.5723   1.5764   1.5797   1.5811   1.5840   1.5853   1.5891
     1.5914   1.5942   1.5959   1.5999   1.6037   1.6065   1.6088   1.6129
     1.6156   1.6188   1.6207   1.6294   1.6391   1.6402   1.6439   1.6596
     1.6614   1.6681   1.6720   1.6733   1.6841   1.6859   1.6876   1.6982
     1.7011   1.7035   1.7114   1.7126   1.7147   1.7212   1.7220   1.7281
     1.7303   1.7339   1.7385   1.7407   1.7430   1.7472   1.7497   1.7540
     1.7636   1.7673   1.7707   1.7737   1.7764   1.7787   1.7814   1.7855
     1.7877   1.7935   1.7961   1.7984   1.8008   1.8027   1.8083   1.8143
     1.8191   1.8226   1.8282   1.8293   1.8298   1.8311   1.8331   1.8359
     1.8389   1.8417   1.8466   1.8503   1.8541   1.8706   1.8727   1.8797
     1.8821   1.8873   1.8914   1.9061   1.9101   1.9182   1.9236   1.9278
     1.9430   1.9456   1.9504   1.9538   1.9651   1.9764   1.9816   2.0269
     2.0490   2.0560   2.0805   2.1223   2.1432   2.1500   2.1545   2.1648
     2.1709   2.1728   2.1752   2.1852   2.2210   2.2441   2.2995   2.5146
     2.5166   2.5466   2.5510   2.6714   2.6820   2.9678   2.9705   3.1568
     3.1614   3.1646   3.1702   3.1806   3.1891   3.1992   3.2208   3.3617
     3.3705   3.4306   3.4556   3.7239   3.9109   3.9159   3.9705   3.9721
     4.0191   4.0833   4.2147   4.2193   4.2296   4.2597   4.3675   4.3883
     4.4463   4.4563   4.5443   4.5470   4.6898   4.7526   4.7617   4.8123
     4.9096   4.9309   4.9783   5.0517   5.0676   5.0901   5.2229   5.2577
     5.2856   5.3637   5.3670   5.4702   5.6267   5.6363   5.6725   5.7891
     5.8154   5.8261   5.8491   5.8853   5.9206   6.0888   6.1394   6.1797
     6.2416   6.2615   6.3140   6.3419   6.3737   6.8797   6.9318   6.9604
     6.9842   7.0752   7.0876   7.1527   7.1984   7.2065   7.3069   7.3600
     7.3759   7.4164   7.4370   7.4635   7.4766   7.5547   7.5907   7.6164
     7.6591   7.6773   7.6801   7.7113   7.7210   7.7362   7.7609   7.7982
     7.8030   8.0257   8.0403   8.1307   8.1507   8.2853   8.2974   8.3086
     8.3139   8.5513   8.5647   8.5683   8.5977   8.6107   8.6474   8.6777
     8.7634   8.9008   8.9415   8.9507   9.0016   9.0055   9.0196   9.0729
     9.0791   9.0996   9.1097   9.2014   9.2229   9.2811   9.3204   9.3530
     9.3572   9.3952   9.4881   9.4954   9.5440   9.5570   9.5777   9.6015
     9.6244   9.6299   9.6712   9.6894   9.7055   9.7120   9.7252   9.7963
     9.8190   9.9647  10.0212  10.0791

          k =-0.5000 0.0000 0.0000 (256496 PWs)   bands (ev):

   -28.4452 -17.0032 -15.4510 -15.4350 -15.3139 -15.1702 -14.8785 -14.8553
   -14.4119 -14.0941 -13.8774 -13.7505 -12.8241 -12.3253 -12.2742 -12.2637
   -11.6623 -11.6054 -11.4595 -11.4168 -11.3804 -11.0034 -10.8921 -10.6730
   -10.5315 -10.3133 -10.1773  -9.9787  -9.4020  -9.3140  -9.1009  -8.7106
    -8.5782  -8.0996  -7.8488  -7.6582  -7.1278  -7.0071  -6.9439  -6.7325
    -6.5109  -6.1273  -5.6433  -5.0780  -4.9425  -4.9278  -4.8659  -4.7023
    -4.5970  -4.4443  -4.4363  -4.4334  -4.4094  -4.3844  -4.3651  -4.3545
    -4.3255  -4.2820  -4.1766  -4.1596  -4.0520  -4.0319  -4.0121  -3.9744
    -3.8347  -3.7226  -3.6344  -3.6085  -3.5614  -3.5343  -3.4172  -3.3793
    -3.2613  -3.2118  -3.1859  -3.1410  -3.1186  -3.0570  -3.0509  -3.0386
    -3.0307  -3.0246  -2.9849  -2.9713  -2.7111  -2.6040  -2.5481  -2.4816
    -2.4499  -2.4165  -2.3793  -2.2967  -2.2429  -2.2262  -2.2018  -2.1929
    -2.0639  -1.9764  -1.9427  -1.9320  -1.9289  -1.8790  -1.6275  -1.5653
    -1.5170  -1.5056  -1.5036  -1.5011  -1.4989  -1.4923  -1.4234  -1.3832
    -1.3805  -1.3689  -1.3555  -1.2788  -1.2757  -1.2644  -1.2581  -1.2350
    -1.2276  -1.2261  -1.2173  -1.2156  -1.1670  -1.1341  -1.1102  -1.1085
    -1.1063  -1.0723  -1.0670  -1.0519  -1.0500  -1.0460  -1.0375  -1.0301
    -1.0238  -0.9835  -0.9791  -0.9782  -0.9730  -0.9702  -0.9688  -0.9592
    -0.9555  -0.9490  -0.9296  -0.9176  -0.9147  -0.9121  -0.9111  -0.8970
    -0.8932  -0.8834  -0.8778  -0.8439  -0.8296  -0.8216  -0.8107  -0.8035
    -0.7983  -0.7932  -0.7763  -0.7742  -0.7703  -0.7665  -0.7612  -0.7495
    -0.7353  -0.7340  -0.7250  -0.7244  -0.7188  -0.7084  -0.6979  -0.6968
    -0.6834  -0.6789  -0.6716  -0.6279  -0.6138  -0.6127  -0.6051  -0.6025
    -0.5991  -0.5978  -0.5751  -0.5724  -0.5679  -0.5627  -0.5622  -0.5525
    -0.5494  -0.5468  -0.5439  -0.5373  -0.5323  -0.5151  -0.5104  -0.5024
    -0.4585  -0.4534  -0.4446  -0.4290  -0.4125  -0.4006  -0.3388  -0.3371
    -0.3335  -0.3303  -0.3136  -0.2982  -0.2948  -0.2906  -0.2802  -0.2771
    -0.2761  -0.2644  -0.2589  -0.2423  -0.2413  -0.2365  -0.2346  -0.2326
    -0.2294  -0.2174  -0.2112  -0.2099  -0.2030  -0.1876  -0.1429  -0.1219
    -0.1084  -0.1027  -0.1009  -0.0897  -0.0729  -0.0576  -0.0516  -0.0478
    -0.0391  -0.0255  -0.0225  -0.0183  -0.0174   0.0009   0.0078   0.0140
     0.0158   0.0183   0.0199   0.0232   0.0468   0.0540   0.0617   0.0652
     0.0709   0.0744   0.0835   0.0855   0.0927   0.0956   0.0984   0.1006
     0.1282   0.1315   0.1327   0.1356   0.1424   0.1509   0.1553   0.1693
     0.1723   0.1845   0.1871   0.2434   0.2493   0.2505   0.2531   0.2569
     0.2609   0.2672   0.2728   0.2855   0.2888   0.2991   0.3183   0.3208
     0.3240   0.3463   0.3523   0.3612   0.3621   0.3632   0.3669   0.3697
     0.3713   0.3734   0.3769   0.3788   0.3851   0.3883   0.3933   0.4256
     0.4300   0.4328   0.4364   0.4403   0.4476   0.4495   0.4552   0.4582
     0.4621   0.4660   0.4675   0.4696   0.4716   0.4737   0.4831   0.4865
     0.4928   0.4937   0.4948   0.4968   0.5029   0.5063   0.5069   0.5080
     0.5097   0.5101   0.5152   0.5168   0.5207   0.5324   0.5356   0.5369
     0.5414   0.5430   0.5468   0.5542   0.5557   0.5681   0.5743   0.5786
     0.6293   0.6418   0.6511   0.6605   0.6811   0.6905   0.6939   0.6970
     0.7029   0.7035   0.7160   0.7197   0.7224   0.7256   0.7280   0.7304
     0.7332   0.7347   0.7355   0.7365   0.7381   0.7407   0.7430   0.7459
     0.7471   0.7525   0.7541   0.7580   0.7605   0.7701   0.7729   0.7786
     0.7839   0.7848   0.7951   0.7991   0.8082   0.8170   0.8555   0.8703
     0.8734   0.8765   0.8852   0.8936   0.8974   0.8987   0.9053   0.9139
     0.9154   0.9166   0.9188   0.9200   0.9214   0.9254   0.9263   0.9277
     0.9286   0.9334   0.9354   0.9368   0.9408   0.9431   0.9495   0.9617
     0.9652   0.9732   0.9787   0.9891   0.9970   0.9986   1.0057   1.0111
     1.0137   1.0152   1.0193   1.0223   1.0256   1.0268   1.0302   1.0347
     1.0383   1.0408   1.0440   1.0480   1.0526   1.0594   1.0630   1.0666
     1.0846   1.0931   1.0980   1.1022   1.1046   1.1080   1.1136   1.1150
     1.1168   1.1322   1.1429   1.1524   1.1571   1.1605   1.1712   1.1727
     1.1970   1.2041   1.2130   1.2223   1.2247   1.2275   1.2293   1.2302
     1.2310   1.2340   1.2382   1.2432   1.2464   1.2524   1.2541   1.2561
     1.2588   1.2724   1.2745   1.2813   1.2830   1.2884   1.2965   1.2997
     1.3003   1.3028   1.3072   1.3108   1.3209   1.3301   1.3334   1.3369
     1.3391   1.3483   1.3847   1.3969   1.4046   1.4077   1.4101   1.4221
     1.4295   1.4373   1.4431   1.4442   1.4467   1.4529   1.4577   1.4620
     1.4707   1.4731   1.4776   1.4809   1.4947   1.5013   1.5047   1.5059
     1.5073   1.5099   1.5124   1.5141   1.5166   1.5196   1.5227   1.5249
     1.5280   1.5291   1.5315   1.5353   1.5376   1.5385   1.5523   1.5579
     1.5649   1.5663   1.5678   1.5693   1.5879   1.5932   1.6007   1.6029
     1.6048   1.6059   1.6084   1.6186   1.6250   1.6288   1.6296   1.6338
     1.6341   1.6355   1.6382   1.6394   1.6425   1.6456   1.6498   1.6516
     1.6556   1.6611   1.6901   1.6922   1.6965   1.7000   1.7019   1.7041
     1.7068   1.7083   1.7103   1.7118   1.7133   1.7153   1.7169   1.7209
     1.7220   1.7236   1.7253   1.7264   1.7283   1.7307   1.7330   1.7340
     1.7372   1.7382   1.7396   1.7417   1.7525   1.7587   1.7651   1.7652
     1.7718   1.7764   1.7793   1.7821   1.7839   1.7882   1.7910   1.8020
     1.8039   1.8057   1.8119   1.8129   1.8177   1.8223   1.8279   1.8321
     1.8358   1.8384   1.8385   1.8458   1.8543   1.8566   1.8587   1.8644
     1.8654   1.8660   1.8696   1.8716   1.8767   1.8802   1.8861   1.8950
     1.9006   1.9034   1.9061   1.9069   1.9070   1.9125   1.9153   1.9309
     1.9368   1.9652   1.9783   1.9859   1.9980   2.0008   2.0038   2.0221
     2.0452   2.4048   2.4074   2.4117   2.4329   2.6117   2.6187   2.6258
     2.6364   2.6730   2.6743   2.6794   2.6847   2.9727   2.9785   2.9958
     3.0150   3.2081   3.2143   3.2224   3.2356   3.5543   3.5600   3.5716
     3.5774   3.7469   3.8508   3.8840   4.0982   4.1124   4.1334   4.1849
     4.2882   4.2979   4.3073   4.3231   4.4392   4.4537   4.4551   4.5001
     4.5090   4.5878   4.7360   4.9379   5.0200   5.0457   5.0907   5.1021
     5.1177   5.1651   5.1970   5.2168   5.2457   5.2737   5.3943   5.4087
     5.4124   5.4149   5.4210   5.4288   5.4357   5.4595   5.4695   5.4807
     5.5334   5.5532   5.6299   5.8500   5.8800   5.9054   5.9484   5.9918
     6.0569   6.0818   6.1749   6.3470   6.3562   6.3635   6.3806   6.3888
     6.4080   6.4114   6.4625   6.6677   6.7019   6.7424   6.7461   6.7750
     6.8281   6.8994   7.2642   7.4009   7.4328   7.4636   7.4705   7.5084
     7.5253   7.8278   7.8805   7.9443   7.9572   7.9682   7.9731   7.9774
     7.9860   7.9983   8.0137   8.1823   8.1913   8.2175   8.2472   8.2500
     8.2601   8.3582   8.3653   8.3960   8.4123   8.4473   8.4619   8.4741
     8.4965   8.5098   8.5245   8.5326   8.5355   8.6985   8.7032   9.1584
     9.1834   9.1933   9.2109   9.2214   9.2232   9.2265   9.2289   9.2587
     9.3816   9.4155   9.4427   9.4492   9.4702   9.4866   9.5507   9.6347
     9.6671   9.7298   9.7967   9.8456   9.8834   9.8877   9.8965   9.9126
     9.9512   9.9554   9.9574   9.9600

          k =-0.5000-0.2165 0.0000 (256328 PWs)   bands (ev):

   -28.4452 -17.0032 -15.4792 -15.4284 -15.2481 -15.2065 -14.9506 -14.7200
   -14.4252 -14.3741 -13.6974 -13.2894 -13.1630 -13.0375 -11.8784 -11.6902
   -11.6242 -11.5872 -11.4300 -11.2578 -11.2149 -11.1835 -11.0779 -11.0395
   -11.0293 -10.3262  -9.9989  -9.7764  -9.3655  -9.1860  -8.7759  -8.6521
    -8.4350  -8.2873  -8.1720  -7.7281  -7.6469  -7.2409  -6.8649  -6.4885
    -5.8954  -5.5609  -5.4950  -5.3220  -5.0963  -4.9276  -4.8964  -4.8223
    -4.8109  -4.8070  -4.7894  -4.7398  -4.6388  -4.6349  -4.3743  -4.1825
    -3.9808  -3.9706  -3.9610  -3.9436  -3.8614  -3.8346  -3.8342  -3.8247
    -3.8200  -3.7812  -3.7303  -3.6635  -3.5536  -3.5243  -3.4996  -3.4950
    -3.4102  -3.3127  -3.2895  -3.2619  -3.2470  -3.2402  -3.1943  -3.1345
    -3.0784  -2.9698  -2.8294  -2.7914  -2.6878  -2.6224  -2.4084  -2.3413
    -2.2250  -2.2123  -2.2070  -2.1988  -2.1692  -2.1577  -2.1504  -2.1481
    -2.1343  -1.9490  -1.8899  -1.8112  -1.7692  -1.7274  -1.7172  -1.6832
    -1.6741  -1.6715  -1.6596  -1.6502  -1.6356  -1.6292  -1.5887  -1.5483
    -1.4319  -1.4270  -1.4261  -1.4170  -1.3484  -1.2953  -1.2131  -1.1909
    -1.1315  -1.1262  -1.1164  -1.1146  -1.1128  -1.1081  -1.0987  -1.0806
    -1.0719  -1.0594  -1.0565  -1.0524  -1.0516  -1.0243  -1.0181  -1.0147
    -1.0085  -1.0055  -1.0011  -1.0010  -0.9970  -0.9850  -0.9847  -0.9832
    -0.9820  -0.9788  -0.9306  -0.9282  -0.9269  -0.9171  -0.9063  -0.8668
    -0.8605  -0.8538  -0.8516  -0.8454  -0.8203  -0.8121  -0.8098  -0.8063
    -0.8009  -0.7861  -0.7791  -0.7702  -0.7668  -0.7445  -0.7427  -0.7383
    -0.7368  -0.7343  -0.7329  -0.7286  -0.7242  -0.7162  -0.7065  -0.6988
    -0.6839  -0.6809  -0.6746  -0.6718  -0.6676  -0.6668  -0.6603  -0.6577
    -0.6560  -0.6550  -0.6516  -0.6499  -0.6437  -0.6165  -0.5264  -0.5065
    -0.4999  -0.4970  -0.4792  -0.4755  -0.4740  -0.4728  -0.4665  -0.4166
    -0.4025  -0.3918  -0.3868  -0.3826  -0.3812  -0.3778  -0.3770  -0.3654
    -0.3581  -0.3524  -0.3449  -0.3267  -0.3229  -0.3189  -0.3150  -0.3113
    -0.3028  -0.2961  -0.2906  -0.2819  -0.2797  -0.2739  -0.2652  -0.2175
    -0.2026  -0.1938  -0.1874  -0.1846  -0.1768  -0.1750  -0.1689  -0.1456
    -0.1220  -0.1151  -0.1035  -0.0972  -0.0674  -0.0657  -0.0577  -0.0567
    -0.0467  -0.0448  -0.0372  -0.0283  -0.0238  -0.0181  -0.0109  -0.0079
    -0.0062  -0.0001   0.0023   0.0070   0.0215   0.0245   0.0529   0.0987
     0.1007   0.1057   0.1113   0.1166   0.1263   0.1281   0.1303   0.1316
     0.1389   0.1441   0.1486   0.1752   0.2127   0.2179   0.2236   0.2257
     0.2283   0.2305   0.2330   0.2377   0.2399   0.2416   0.2502   0.2528
     0.2732   0.2769   0.2774   0.2805   0.2847   0.2864   0.2883   0.2908
     0.2968   0.3003   0.3066   0.3092   0.3494   0.3534   0.3608   0.3627
     0.3669   0.3731   0.3850   0.3958   0.4124   0.4137   0.4246   0.4291
     0.4341   0.4439   0.4507   0.4557   0.4585   0.4631   0.4675   0.4708
     0.4731   0.4740   0.4788   0.4795   0.4803   0.4846   0.4868   0.4899
     0.4941   0.4963   0.4969   0.4983   0.4992   0.4993   0.5105   0.5117
     0.5158   0.5186   0.5255   0.5291   0.5409   0.5414   0.5423   0.5442
     0.5476   0.5511   0.5615   0.5651   0.5712   0.5816   0.5984   0.6021
     0.6071   0.6145   0.6232   0.6341   0.6383   0.6703   0.6890   0.6908
     0.7033   0.7055   0.7163   0.7175   0.7201   0.7230   0.7273   0.7305
     0.7343   0.7354   0.7426   0.7455   0.7459   0.7480   0.7502   0.7520
     0.7524   0.7547   0.7599   0.7610   0.7664   0.7670   0.7703   0.7755
     0.7799   0.8086   0.8185   0.8301   0.8358   0.8428   0.8490   0.8512
     0.8566   0.8573   0.8623   0.8630   0.8713   0.8775   0.8834   0.8920
     0.8950   0.8961   0.9009   0.9047   0.9074   0.9075   0.9161   0.9261
     0.9351   0.9421   0.9465   0.9477   0.9550   0.9558   0.9588   0.9621
     0.9640   0.9658   0.9674   0.9705   0.9730   0.9760   0.9784   0.9809
     0.9862   0.9916   0.9985   1.0022   1.0214   1.0264   1.0365   1.0508
     1.0644   1.0682   1.0694   1.0719   1.0734   1.0759   1.0791   1.0812
     1.0827   1.0860   1.0906   1.0947   1.1027   1.1100   1.1142   1.1157
     1.1182   1.1185   1.1206   1.1235   1.1311   1.1480   1.1489   1.1609
     1.1730   1.1741   1.1788   1.1875   1.2028   1.2053   1.2091   1.2121
     1.2144   1.2263   1.2357   1.2378   1.2409   1.2432   1.2630   1.2644
     1.2648   1.2766   1.2987   1.3092   1.3205   1.3237   1.3335   1.3432
     1.3518   1.3555   1.3644   1.3825   1.3866   1.3953   1.4047   1.4063
     1.4110   1.4176   1.4180   1.4215   1.4239   1.4257   1.4321   1.4346
     1.4365   1.4377   1.4394   1.4398   1.4409   1.4412   1.4434   1.4483
     1.4496   1.4513   1.4578   1.4581   1.4664   1.4690   1.4714   1.4764
     1.4778   1.4785   1.4840   1.4890   1.4935   1.4944   1.5019   1.5089
     1.5111   1.5137   1.5171   1.5179   1.5199   1.5236   1.5293   1.5298
     1.5310   1.5374   1.5605   1.5761   1.5802   1.5819   1.5824   1.5853
     1.5902   1.5960   1.6007   1.6087   1.6099   1.6132   1.6184   1.6213
     1.6273   1.6297   1.6313   1.6409   1.6473   1.6521   1.6580   1.6600
     1.6631   1.6655   1.6674   1.6716   1.6725   1.6762   1.6795   1.6811
[...]
     atom   57 type  1   force =     0.00019737   -0.00016255   -0.00008865
     atom   58 type  1   force =     0.00017055   -0.00008386   -0.00007002
     atom   59 type  1   force =     0.00021805   -0.00001446   -0.00007137
     atom   60 type  1   force =     0.00011450   -0.00021579   -0.00010792
     atom   61 type  1   force =     0.00039726    0.00053804   -0.00021578
     atom   62 type  1   force =     0.00023685    0.00014459   -0.00008772
     atom   63 type  1   force =    -0.00020555    0.00031441   -0.00021349
     atom   64 type  1   force =     0.00035365    0.00009553   -0.00017476
     atom   65 type  1   force =    -0.00064675    0.00065658   -0.00064225
     atom   66 type  1   force =     0.00000901   -0.00030438    0.00053749
     atom   67 type  1   force =     0.00105693   -0.00160891   -0.00327353
     atom   68 type  1   force =     0.00057446    0.00035316    0.00088577
     atom   69 type  1   force =    -0.00167280   -0.00048987   -0.00154821
     atom   70 type  1   force =    -0.00235430    0.00033906   -0.01353084
     atom   71 type  1   force =     0.00143555    0.00100283   -0.00265900
     atom   72 type  1   force =    -0.00166764   -0.00029610    0.00097063
     atom   73 type  1   force =     0.00031947   -0.00022783   -0.00036343
     atom   74 type  1   force =     0.00005121    0.00384740   -0.00345851
     atom   75 type  1   force =     0.00027256    0.00007465   -0.00019151
     atom   76 type  1   force =     0.00040260   -0.00036306    0.00080060
     atom   77 type  1   force =     0.00032220   -0.00007165    0.00010703
     atom   78 type  1   force =     0.00030206   -0.00026846    0.00005055
     atom   79 type  1   force =     0.00031405   -0.00013793   -0.00015583
     atom   80 type  1   force =     0.00049969   -0.00017850   -0.00005973
     atom   81 type  1   force =     0.00019261    0.00053955   -0.00020937
     atom   82 type  1   force =     0.00026843    0.00020826   -0.00015273
     atom   83 type  1   force =     0.00012273   -0.00040197   -0.00021760
     atom   84 type  1   force =     0.00001445    0.00101202   -0.00029031
     atom   85 type  1   force =    -0.00013853    0.00105689   -0.00042375
     atom   86 type  1   force =    -0.00446548   -0.01742980   -0.00723928
     atom   87 type  1   force =     0.00136878   -0.00148958    0.00034841
     atom   88 type  1   force =    -0.00029387   -0.00180190    0.00053494
     atom   89 type  1   force =    -0.00427562    0.00058145    0.00304115
     atom   90 type  1   force =    -0.00548106    0.01758397   -0.00847535
     atom   91 type  1   force =     0.00190724   -0.00011429   -0.00028283
     atom   92 type  1   force =    -0.00114721    0.00090269   -0.00052649
     atom   93 type  1   force =    -0.00280522    0.00038899   -0.00108239
     atom   94 type  1   force =     0.00003106   -0.00027533    0.00013784
     atom   95 type  1   force =     0.00295483    0.00311280    0.00026501
     atom   96 type  1   force =     0.00040864   -0.00034624   -0.00004022
     atom   97 type  1   force =     0.00024100   -0.00041324    0.00006185
     atom   98 type  1   force =     0.00020709   -0.00016101   -0.00008725
     atom   99 type  1   force =     0.00048508    0.00013658    0.00004079
     atom  100 type  1   force =     0.00048684    0.00002102   -0.00010667
     atom  101 type  2   force =    -0.00104963    0.00145425   -0.00116596
     atom  102 type  2   force =    -0.00481608    0.00238674    0.00021905
     atom  103 type  2   force =    -0.00174077    0.00456858   -0.00176130
     atom  104 type  2   force =     0.00196582   -0.00863049    0.00791887
     atom  105 type  2   force =     0.00146668    0.00283448   -0.00273683
     atom  106 type  2   force =    -0.00346156    0.00613634    0.00450809
     atom  107 type  2   force =     0.00252075    0.00275070   -0.00168295
     atom  108 type  2   force =     0.00490944   -0.00327334    0.00623491
     atom  109 type  2   force =     0.00165409    0.00373157   -0.00213436
     atom  110 type  2   force =     0.00189713    0.00064130    0.00138778
     atom  111 type  2   force =    -0.00082604    0.00509386   -0.00192998
     atom  112 type  2   force =     0.00019783   -0.00237874    0.00075352
     atom  113 type  2   force =    -0.00298947   -0.00254376   -0.00184566
     atom  114 type  2   force =     0.01689009    0.01068138    0.02999984
     atom  115 type  2   force =    -0.00369417    0.01206935    0.00108270
     atom  116 type  2   force =    -0.01524616    0.00940357   -0.01617691
     atom  117 type  2   force =     0.00629394   -0.00324455   -0.01679708
     atom  118 type  2   force =     0.00037842   -0.00716188    0.00862481
     atom  119 type  2   force =    -0.01162511    0.00741336   -0.00094704
     atom  120 type  2   force =     0.00322231   -0.00136423   -0.00894667
     atom  121 type  3   force =     0.04437989   -0.00040891    0.00877522
     atom  122 type  4   force =    -0.03636431   -0.00557131   -0.01606031
     atom  123 type  2   force =     0.00415921   -0.00895986    0.01065071
     atom  124 type  2   force =    -0.00866882    0.00783013   -0.00390793
     atom  125 type  2   force =     0.00159616    0.00279776    0.00519815
     atom  126 type  2   force =    -0.00012048   -0.00527182    0.00424620
     atom  127 type  2   force =     0.00148746   -0.00398435   -0.00253159
     atom  128 type  2   force =    -0.00286696    0.00116729   -0.00270303
     atom  129 type  2   force =    -0.00487374   -0.00927106    0.02664363
     atom  130 type  2   force =     0.00352913   -0.00145584    0.00556039
     atom  131 type  2   force =     0.00578713   -0.00251370   -0.00508613
     atom  132 type  2   force =    -0.00244296    0.00401583    0.00091710
     atom  133 type  2   force =    -0.00961359    0.00029302   -0.00196858
     atom  134 type  2   force =     0.00770159   -0.00475623    0.00190367
     atom  135 type  2   force =    -0.00065996    0.00151397    0.01094233
     atom  136 type  2   force =     0.00094009    0.00517928    0.00122450
     atom  137 type  2   force =     0.00216232    0.00780426    0.00290443
     atom  138 type  2   force =    -0.00200829    0.00234977    0.00116266
     atom  139 type  2   force =     0.00001679   -0.00390805   -0.00129609
     atom  140 type  2   force =     0.00010167   -0.00427942   -0.00035022
     atom  141 type  2   force =     0.00018956   -0.00362482   -0.00029917
     atom  142 type  2   force =    -0.00208984    0.00092016    0.00009409
     atom  143 type  2   force =     0.00125462   -0.00601366   -0.00158052
     atom  144 type  2   force =     0.00073777   -0.00419509    0.00014366
     atom  145 type  2   force =     0.00124496   -0.00337027   -0.00099969
     atom  146 type  2   force =     0.00214734   -0.00008147    0.00054006
     atom  147 type  2   force =     0.00073152   -0.00401247   -0.00226710
     atom  148 type  2   force =    -0.00033947   -0.00517086   -0.00045630
     atom  149 type  2   force =    -0.00225478   -0.00165319    0.00003626
     atom  150 type  2   force =     0.00003432    0.00022938   -0.00042390

     Total force =     0.100479     Total SCF correction =     0.000396

     number of scf cycles    =   9
     number of bfgs steps    =   8

     energy   old            =  -12731.8804676777 Ry
     energy   new            =  -12731.8929408137 Ry

     CASE: energy  _new < energy  _old

     new trust radius        =       0.1361585573 bohr
     new conv_thr            =       0.0000000100 Ry


ATOMIC_POSITIONS (angstrom)
Cu       0.000204861  -0.002042013   7.358060943
Cu       1.844676251   1.697393736   7.352089072
Cu       3.688578995  -0.005918084   7.354142930
Cu       5.533510013   1.697743481   7.353209293
Cu       0.000271685   3.402481682   7.352007072
Cu       1.845666469   5.110432404   7.355435099
Cu       3.689572270   3.404386986   7.354580880
Cu       5.534096296   5.110111058   7.355414792
Cu       0.001340643   6.815132147   7.355698725
Cu       1.845893993   8.519756414   7.355488143
Cu       3.689774851   6.814988778   7.356988024
Cu       5.533813927   8.520113710   7.355577513
Cu       0.000188539  10.228032178   7.351693703
Cu       1.844652972  11.933204189   7.352748162
Cu       3.689667817  10.226078398   7.355588827
Cu       5.533569950  11.932905276   7.353926536
Cu       0.000434697  13.632034207   7.359261624
Cu       1.842804253  15.334328903   7.360843677
Cu       3.688360518  13.636382642   7.354411409
Cu       5.534914376  15.334373437   7.356974736
Cu       0.000901592   1.698035236   9.188062781
Cu       1.843898794  -0.002489802   9.191103195
Cu       3.689597405   1.694408903   9.182567509
Cu       5.534479835  -0.005962749   9.187748905
Cu       0.003364449   5.104920040   9.181568730
Cu       1.846439401   3.397074425   9.179535040
Cu       3.692939942   5.106211720   9.184973986
Cu       5.535469697   3.398662796   9.181513114
Cu       0.003575008   8.526377072   9.181101731
Cu       1.848996648   6.815540866   9.187475683
Cu       3.692723279   8.523719622   9.185825955
Cu       5.538136417   6.815270970   9.185401581
Cu       0.001393450  11.930412834   9.190311114
Cu       1.846524401  10.232909452   9.180246991
Cu       3.689388475  11.935950573   9.184238225
Cu       5.535561814  10.231809058   9.181963328
Cu       0.000956801  15.334027119   9.191078982
Cu       1.843660352  13.630542800   9.194421034
Cu       3.688103587  15.333722922   9.190571179
Cu       5.534855681  13.634910502   9.189421918
Cu       0.002005268  -0.008334021  11.031198313
Cu       1.846348554   1.699273051  11.031902445
Cu       3.689460509  -0.005089469  11.029341239
Cu       5.537869001   1.690563495  11.021575282
Cu       0.007100889   3.399659361  11.025136072
Cu       1.854954515   5.096927506  11.013126236
Cu       3.695083686   3.392987983  11.018195006
Cu       5.545693028   5.100642092  11.017517260
Cu       0.014252996   6.816744807  11.013789438
Cu       1.854937123   8.532340154  11.017151924
Cu       3.705004193   6.814049572  11.019311330
Cu       5.546921289   8.530737744  11.016975011
Cu       0.008698248  10.227382100  11.030404301
Cu       1.845748991  11.923918227  11.039396308
Cu       3.695118257  10.235579893  11.019085951
Cu       5.539611659  11.935448153  11.025569949
Cu       0.002798290  13.634141214  11.033389333
Cu       1.846238940  15.334249043  11.032852350
Cu       3.689230675  13.632520679  11.032234400
Cu       5.533449326  15.333133801  11.033651812
Cu       0.010193251   1.691740786  12.862111572
Cu       1.850158928  -0.007488141  12.873432142
Cu       3.694567265   1.693851749  12.864895133
Cu       5.535969537  -0.005116477  12.871771025
Cu       0.033542687   5.104494919  12.864930140
Cu       1.859378697   3.413421373  12.882328960
Cu       3.705750180   5.089801064  12.842468636
Cu       5.546755184   3.390371980  12.846211122
Cu       0.034685177   8.520895513  12.874554792
Cu       1.867052813   6.808514071  12.782527227
Cu       3.711205082   8.535248501  12.837768286
Cu       5.579206228   6.816652299  12.836998849
Cu       0.013756911  11.931264202  12.873866289
Cu       1.858723397  10.210383935  12.892521405
Cu       3.695889067  11.927392070  12.864649192
Cu       5.555263375  10.232156367  12.854008642
Cu       0.001693336  15.332193178  12.877352740
Cu       1.848848663  13.635866052  12.871733220
Cu       3.693085621  15.334969386  12.875657378
Cu       5.538957796  13.629774940  12.873668693
Cu       0.005409189   0.000385947  14.687010538
Cu       1.863697682   1.690566675  14.685629716
Cu       3.698238564  -0.003849804  14.698103670
Cu       5.537741573   1.702012778  14.678179461
Cu       0.031051213   3.381514468  14.678901336
Cu       1.869041623   5.061275998  14.696967232
Cu       3.698692168   3.393260579  14.687567844
Cu       5.566871545   5.049541041  14.673889633
Cu      -0.097977480   6.804774040  14.681317586
Cu       1.871571897   8.581024916  14.661380232
Cu       3.875951287   6.811087400  14.561143474
Cu       5.573667262   8.576965807  14.687903824
Cu       0.048487516  10.240905002  14.708533690
Cu       1.863951224  11.945262560  14.687414799
Cu       3.700181175  10.230582617  14.682437295
Cu       5.550077782  11.915278643  14.681713150
Cu       0.002746164  13.631287066  14.699579128
Cu       1.851654971  15.331375526  14.694286221
Cu       3.705174278  13.626073397  14.683115932
Cu       5.538294971  15.334383576  14.691661259
C        0.003418252   0.715071606  17.591749858
C        0.005084107   2.136074132  17.586733106
C        1.229618981   0.002164297  17.609750156
C        1.234556209   2.841125652  17.635926355
C        2.460071794   0.711255133  17.587579784
C        2.461930578   2.134637686  17.590679463
C        3.690909088   0.000457158  17.589679136
C        3.693361405   2.846359227  17.605860785
C        4.919865957   0.716390222  17.575386239
C        4.920282212   2.137432294  17.555232450
C        6.149512106   0.005794328  17.599824993
C        6.152565092   2.844722720  17.575966061
C        0.005228562   4.967002368  17.738692916
C        0.005078514   6.386478173  17.805194365
C        1.236692230   4.254373465  17.793808165
C        1.220760973   7.098355066  18.040213076
C        2.465019952   4.960082598  17.945651435
C        2.453844317   6.389050076  18.091444705
C        3.696173974   4.261090582  17.772197523
C        3.701991581   7.100084585  17.991455218
O        2.059447133   6.832220736  15.545870742
H        2.651029982   6.884532852  16.358872174
C        4.925853117   4.971945031  17.732921681
C        4.926402070   6.385658666  17.835492264
C        6.154260387   4.266522201  17.628148511
C        6.150166435   7.095666094  17.738418767
C        0.002242193   9.220484069  17.662523465
C        0.001308549  10.642719425  17.582371831
C        1.229930788   8.514558329  17.837439598
C        1.232386589  11.353982636  17.589077685
C        2.464126419   9.228636873  17.802493262
C        2.460298107  10.642857993  17.663199974
C        3.700036258   8.523493467  17.864976780
C        3.688581325  11.355321540  17.622642953
C        4.922748115   9.221689513  17.681100110
C        4.916815179  10.642304448  17.601337277
C        6.152667432   8.510554184  17.687384158
C        6.146789949  11.350059026  17.559296877
C       -0.001634475  13.490266086  17.571689306
C       -0.000869926  14.911551827  17.606385984
C        1.230276957  12.777901879  17.578762968
C        1.228197199  15.621776468  17.612844920
C        2.458336607  13.490948663  17.614959005
C        2.459612260  14.911608614  17.617431489
C        3.686502824  12.778551965  17.612504427
C        3.689591225  15.620582028  17.618993417
C        4.918099396  13.488019469  17.606713136
C        4.917913372  14.910441531  17.614321512
C        6.146232039  12.773148977  17.569947516
C        6.148974381  15.622767839  17.609387661



     Writing output data file gc.save
     Check: negative starting charge=   -0.001825
     NEW-OLD atomic charge density approx. for the potential
     Check: negative starting charge=   -0.001821

     negative rho (up, down):  1.879E-03 0.000E+00

     total cpu time spent up to now is    41940.6 secs

     Self-consistent Calculation

     iteration #  1     ecut=    80.00 Ry     beta=0.70
     Davidson diagonalization with overlap
     ethr =  1.00E-06,  avg # of iterations =  5.0

     negative rho (up, down):  2.394E-03 0.000E+00

     total cpu time spent up to now is    42466.6 secs

     total energy              =  -12731.90174062 Ry
     Harris-Foulkes estimate   =  -12731.90495508 Ry
     estimated scf accuracy    <       0.02218063 Ry

     iteration #  2     ecut=    80.00 Ry     beta=0.70
     Davidson diagonalization with overlap
     ethr =  1.71E-06,  avg # of iterations =  2.2

     negative rho (up, down):  2.772E-03 0.000E+00

     total cpu time spent up to now is    42672.0 secs

     total energy              =  -12731.90169389 Ry
     Harris-Foulkes estimate   =  -12731.90285927 Ry
     estimated scf accuracy    <       0.00538698 Ry

     iteration #  3     ecut=    80.00 Ry     beta=0.70
     Davidson diagonalization with overlap
     ethr =  4.15E-07,  avg # of iterations =  2.2

     negative rho (up, down):  3.401E-03 0.000E+00

     total cpu time spent up to now is    42865.2 secs

     total energy              =  -12731.90170169 Ry
     Harris-Foulkes estimate   =  -12731.90240947 Ry
     estimated scf accuracy    <       0.00619555 Ry

     iteration #  4     ecut=    80.00 Ry     beta=0.70
     Davidson diagonalization with overlap
     ethr =  4.15E-07,  avg # of iterations =  5.7

     negative rho (up, down):  3.494E-03 0.000E+00

     total cpu time spent up to now is    43104.7 secs

     total energy              =  -12731.90197628 Ry
     Harris-Foulkes estimate   =  -12731.90201383 Ry
     estimated scf accuracy    <       0.00037766 Ry

     iteration #  5     ecut=    80.00 Ry     beta=0.70
     Davidson diagonalization with overlap
     ethr =  2.91E-08,  avg # of iterations =  3.0

     negative rho (up, down):  3.352E-03 0.000E+00

     total cpu time spent up to now is    43310.1 secs

     total energy              =  -12731.90197739 Ry
     Harris-Foulkes estimate   =  -12731.90200513 Ry
     estimated scf accuracy    <       0.00024153 Ry

     iteration #  6     ecut=    80.00 Ry     beta=0.70
     Davidson diagonalization with overlap
     ethr =  1.86E-08,  avg # of iterations =  1.5

     negative rho (up, down):  2.926E-03 0.000E+00

     total cpu time spent up to now is    43494.8 secs

     total energy              =  -12731.90198051 Ry
     Harris-Foulkes estimate   =  -12731.90199276 Ry
     estimated scf accuracy    <       0.00011654 Ry

     iteration #  7     ecut=    80.00 Ry     beta=0.70
     Davidson diagonalization with overlap
     ethr =  8.97E-09,  avg # of iterations =  1.3

     negative rho (up, down):  2.601E-03 0.000E+00

     total cpu time spent up to now is    43671.5 secs

     total energy              =  -12731.90198350 Ry
     Harris-Foulkes estimate   =  -12731.90198569 Ry
     estimated scf accuracy    <       0.00001332 Ry

     iteration #  8     ecut=    80.00 Ry     beta=0.70
     Davidson diagonalization with overlap
     ethr =  1.03E-09,  avg # of iterations =  2.2

     negative rho (up, down):  2.304E-03 0.000E+00

     total cpu time spent up to now is    43856.5 secs

     total energy              =  -12731.90198390 Ry
     Harris-Foulkes estimate   =  -12731.90198454 Ry
     estimated scf accuracy    <       0.00000350 Ry

     iteration #  9     ecut=    80.00 Ry     beta=0.70
     Davidson diagonalization with overlap
     ethr =  2.70E-10,  avg # of iterations =  2.0

     negative rho (up, down):  2.097E-03 0.000E+00

     total cpu time spent up to now is    44051.3 secs

     total energy              =  -12731.90198427 Ry
     Harris-Foulkes estimate   =  -12731.90198430 Ry
     estimated scf accuracy    <       0.00000150 Ry

     iteration # 10     ecut=    80.00 Ry     beta=0.70
     Davidson diagonalization with overlap
     ethr =  1.16E-10,  avg # of iterations =  4.3

     negative rho (up, down):  1.986E-03 0.000E+00

     total cpu time spent up to now is    44271.4 secs

     total energy              =  -12731.90198455 Ry
     Harris-Foulkes estimate   =  -12731.90198440 Ry
     estimated scf accuracy    <       0.00000046 Ry

     iteration # 11     ecut=    80.00 Ry     beta=0.70
     Davidson diagonalization with overlap
     ethr =  3.52E-11,  avg # of iterations =  2.3

     negative rho (up, down):  1.938E-03 0.000E+00

     total cpu time spent up to now is    44466.1 secs

     total energy              =  -12731.90198469 Ry
     Harris-Foulkes estimate   =  -12731.90198459 Ry
     estimated scf accuracy    <       0.00000021 Ry

     iteration # 12     ecut=    80.00 Ry     beta=0.70
     Davidson diagonalization with overlap
