
     Program PWSCF v.5.4.0 starts on  9Apr2017 at 10:57:49 

     This program is part of the open-source Quantum ESPRESSO suite
     for quantum simulation of materials; please cite
         "P. Giannozzi et al., J. Phys.:Condens. Matter 21 395502 (2009);
          URL http://www.quantum-espresso.org", 
     in publications or presentations arising from this work. More details at
     http://www.quantum-espresso.org/quote

     Parallel version (MPI & OpenMP), running on      56 processor cores
     Number of MPI processes:                56
     Threads/MPI process:                     1
     R & G space division:  proc/nbgrp/npool/nimage =      56
     Waiting for input...
     Reading input from standard input

     Current dimensions of program PWSCF are:
     Max number of different atomic species (ntypx) = 10
     Max number of k-points (npk) =  40000
     Max angular momentum in pseudopotentials (lmaxx) =  3
     WARNING: atomic wfc #  2 for atom type 3 has zero norm
     WARNING: atomic wfc #  4 for atom type 3 has zero norm
     WARNING: atomic wfc #  5 for atom type 3 has zero norm

     -------------------------------------
     Parameters for Dispersion Correction:
     -------------------------------------
       atom      VdW radius       C_6     

        Cu         2.952        374.666
        C          2.744         60.710
        O          2.536         24.284
        H          1.892          4.857

     Subspace diagonalization in iterative solution of the eigenvalue problem:
     one sub-group per band group will be used
     scalapack distributed-memory algorithm (size of sub-group:  5*  5 procs)

 
     Parallelization info
     --------------------
     sticks:   dense  smooth     PW     G-vecs:    dense   smooth      PW
     Min         204     204     54                36612    36612    4962
     Max         205     205     55                36617    36617    4968
     Sum       11433   11433   3039              2050409  2050409  278033
 
     Generating pointlists ...
     new r_m :   0.1385 (alat units)  1.9312 (a.u.) for type    1
     new r_m :   0.0316 (alat units)  0.4404 (a.u.) for type    2
     new r_m :   0.0316 (alat units)  0.4404 (a.u.) for type    3
     new r_m :   0.0553 (alat units)  0.7717 (a.u.) for type    4


     bravais-lattice index     =            0
     lattice parameter (alat)  =      13.9425  a.u.
     unit-cell volume          =   21209.0878 (a.u.)^3
     number of atoms/cell      =          150
     number of atomic types    =            4
     number of electrons       =      1299.00
     number of Kohn-Sham states=          780
     kinetic-energy cutoff     =      80.0000  Ry
     charge density cutoff     =     320.0000  Ry
     convergence threshold     =      1.0E-08
     mixing beta               =       0.7000
     number of iterations used =            8  local-TF  mixing
     Exchange-correlation      =  SLA  PW   PBE  PBE ( 1  4  3  4 0 0)
     nstep                     =           50


     celldm(1)=  13.942539  celldm(2)=   0.000000  celldm(3)=   0.000000
     celldm(4)=   0.000000  celldm(5)=   0.000000  celldm(6)=   0.000000

     crystal axes: (cart. coord. in units of alat)
               a(1) = (   1.000000   0.000000   0.000000 )  
               a(2) = (   0.000000   2.309401   0.000000 )  
               a(3) = (   0.000000   0.000000   3.388418 )  

     reciprocal axes: (cart. coord. in units 2 pi/alat)
               b(1) = (  1.000000  0.000000  0.000000 )  
               b(2) = (  0.000000  0.433013  0.000000 )  
               b(3) = (  0.000000  0.000000  0.295123 )  


     PseudoPot. # 1 for Cu read from file:
     /home/549/hxw549/Short/pseudopotentials/Cu.pbe-n-van_ak.UPF
     MD5 check sum: 601f7c30f7467666bec936e0661ce3e1
     Pseudo is Ultrasoft + core correction, Zval = 11.0
     Generated by new atomic code, or converted to UPF format
     Using radial grid of  867 points,  6 beta functions with: 
                l(1) =   0
                l(2) =   0
                l(3) =   1
                l(4) =   1
                l(5) =   2
                l(6) =   2
     Q(r) pseudized with  8 coefficients,  rinner =    1.400   1.400   1.400
                                                       1.400   1.400

     PseudoPot. # 2 for C  read from file:
     /home/549/hxw549/Short/pseudopotentials/C.pbe-mt_gipaw.UPF
     MD5 check sum: 5ac2f21f2c440b14befe521540822c15
     Pseudo is Norm-conserving, Zval =  4.0
     Generated by new atomic code, or converted to UPF format
     Using radial grid of 1073 points,  1 beta functions with: 
                l(1) =   0

     PseudoPot. # 3 for O  read from file:
     /home/549/hxw549/Short/pseudopotentials/O.pbe-van_gipaw.UPF
     MD5 check sum: 5ce2a047509d4f331db576c963e74b29
     Pseudo is Ultrasoft, Zval =  6.0
     Generated by new atomic code, or converted to UPF format
     Using radial grid of 1095 points,  4 beta functions with: 
                l(1) =   0
                l(2) =   0
                l(3) =   1
                l(4) =   1
     Q(r) pseudized with 0 coefficients 


     PseudoPot. # 4 for H  read from file:
     /home/549/hxw549/Short/pseudopotentials/H.pbe-van_ak.UPF
     MD5 check sum: 077eb6d537518a38cb46c6de387227b7
     Pseudo is Ultrasoft, Zval =  1.0
     Generated by new atomic code, or converted to UPF format
     Using radial grid of  615 points,  1 beta functions with: 
                l(1) =   0
     Q(r) pseudized with  8 coefficients,  rinner =    0.800

     atomic species   valence    mass     pseudopotential
        Cu            11.00    63.54600     Cu( 1.00)
        C              4.00    12.01070     C ( 1.00)
        O              6.00    15.99940     O ( 1.00)
        H              1.00     1.00783     H ( 1.00)

     Starting magnetic structure 
     atomic species   magnetization
        Cu           0.000
        C            0.000
        O            1.000
        H            0.000

     No symmetry found



   Cartesian axes

     site n.     atom                  positions (alat units)
         1           Cu  tau(   1) = (  -0.0000238   0.0002260   0.9981099  )
         2           Cu  tau(   2) = (   0.2499947   0.2311897   0.9981251  )
         3           Cu  tau(   3) = (   0.4999831   0.0002149   0.9981112  )
         4           Cu  tau(   4) = (   0.7499867   0.2311755   0.9980969  )
         5           Cu  tau(   5) = (   0.0000096   0.4619621   0.9979929  )
         6           Cu  tau(   6) = (   0.2499866   0.6927622   0.9976668  )
         7           Cu  tau(   7) = (   0.4999954   0.4619607   0.9978826  )
         8           Cu  tau(   8) = (   0.7500352   0.6927595   0.9976649  )
         9           Cu  tau(   9) = (   0.0000207   0.9236739   0.9975506  )
        10           Cu  tau(  10) = (   0.2500191   1.1545746   0.9977166  )
        11           Cu  tau(  11) = (   0.5000073   0.9236479   0.9975325  )
        12           Cu  tau(  12) = (   0.7500006   1.1545685   0.9977093  )
        13           Cu  tau(  13) = (  -0.0000077   1.3853811   0.9980180  )
        14           Cu  tau(  14) = (   0.2499983   1.6161561   0.9982689  )
        15           Cu  tau(  15) = (   0.5000058   1.3853977   0.9980617  )
        16           Cu  tau(  16) = (   0.7499748   1.6162250   0.9982107  )
        17           Cu  tau(  17) = (   0.0000111   1.8471800   0.9982106  )
        18           Cu  tau(  18) = (   0.2499546   2.0784395   0.9981263  )
        19           Cu  tau(  19) = (   0.4999426   1.8471932   0.9981807  )
        20           Cu  tau(  20) = (   0.7499939   2.0783919   0.9980742  )
        21           Cu  tau(  21) = (   0.0000246   0.2312923   1.2465770  )
        22           Cu  tau(  22) = (   0.2500152   0.0001959   1.2463274  )
        23           Cu  tau(  23) = (   0.5000376   0.2314189   1.2465958  )
        24           Cu  tau(  24) = (   0.7500000   0.0001950   1.2463142  )
        25           Cu  tau(  25) = (   0.0000827   0.6931388   1.2463864  )
        26           Cu  tau(  26) = (   0.2500664   0.4623549   1.2466171  )
        27           Cu  tau(  27) = (   0.5000572   0.6930470   1.2462509  )
        28           Cu  tau(  28) = (   0.7500411   0.4623422   1.2465521  )
        29           Cu  tau(  29) = (   0.0000681   1.1542431   1.2462983  )
        30           Cu  tau(  30) = (   0.2500759   0.9236520   1.2461665  )
        31           Cu  tau(  31) = (   0.5000727   1.1541906   1.2462971  )
        32           Cu  tau(  32) = (   0.7500739   0.9236488   1.2461145  )
        33           Cu  tau(  33) = (   0.0000255   1.6159538   1.2466510  )
        34           Cu  tau(  34) = (   0.2500808   1.3849494   1.2466751  )
        35           Cu  tau(  35) = (   0.5000239   1.6159648   1.2467738  )
        36           Cu  tau(  36) = (   0.7500209   1.3849686   1.2466224  )
        37           Cu  tau(  37) = (  -0.0000006   2.0784084   1.2462016  )
        38           Cu  tau(  38) = (   0.2500070   1.8471735   1.2464092  )
        39           Cu  tau(  39) = (   0.4999934   2.0783847   1.2461611  )
        40           Cu  tau(  40) = (   0.7499989   1.8471657   1.2463958  )
        41           Cu  tau(  41) = (   0.0000727  -0.0000699   1.4957572  )
        42           Cu  tau(  42) = (   0.2501971   0.2312781   1.4959154  )
        43           Cu  tau(  43) = (   0.5000731  -0.0000326   1.4956150  )
        44           Cu  tau(  44) = (   0.7500313   0.2313791   1.4959792  )
        45           Cu  tau(  45) = (   0.0001223   0.4626521   1.4961335  )
        46           Cu  tau(  46) = (   0.2502671   0.6936639   1.4965887  )
        47           Cu  tau(  47) = (   0.5001834   0.4629489   1.4965587  )
        48           Cu  tau(  48) = (   0.7500912   0.6936629   1.4965339  )
        49           Cu  tau(  49) = (   0.0001477   0.9239200   1.4966566  )
        50           Cu  tau(  50) = (   0.2502448   1.1537321   1.4966077  )
        51           Cu  tau(  51) = (   0.5002303   0.9236122   1.4966541  )
        52           Cu  tau(  52) = (   0.7501356   1.1536869   1.4966011  )
        53           Cu  tau(  53) = (   0.0001578   1.3844686   1.4964117  )
        54           Cu  tau(  54) = (   0.2501253   1.6158314   1.4960637  )
        55           Cu  tau(  55) = (   0.5001704   1.3841729   1.4966340  )
        56           Cu  tau(  56) = (   0.7501021   1.6157601   1.4960776  )
        57           Cu  tau(  57) = (   0.0000507   1.8472305   1.4956921  )
        58           Cu  tau(  58) = (   0.2500430   2.0783767   1.4956521  )
        59           Cu  tau(  59) = (   0.5000853   1.8474164   1.4957796  )
        60           Cu  tau(  60) = (   0.7500622   2.0783804   1.4956079  )
        61           Cu  tau(  61) = (   0.0001758   0.2310631   1.7443204  )
        62           Cu  tau(  62) = (   0.2502701  -0.0002760   1.7450507  )
        63           Cu  tau(  63) = (   0.5002205   0.2306708   1.7449083  )
        64           Cu  tau(  64) = (   0.7500503  -0.0002822   1.7449479  )
        65           Cu  tau(  65) = (   0.0001734   0.6935574   1.7460313  )
        66           Cu  tau(  66) = (   0.2508141   0.4625860   1.7451573  )
        67           Cu  tau(  67) = (   0.5003470   0.6943495   1.7480244  )
        68           Cu  tau(  68) = (   0.7496512   0.4627947   1.7454468  )
        69           Cu  tau(  69) = (   0.0002508   1.1538224   1.7475279  )
        70           Cu  tau(  70) = (   0.2506815   0.9239401   1.7478873  )
        71           Cu  tau(  71) = (   0.5003652   1.1528240   1.7479385  )
        72           Cu  tau(  72) = (   0.7498723   0.9238599   1.7482008  )
        73           Cu  tau(  73) = (   0.0002104   1.6161280   1.7449434  )
        74           Cu  tau(  74) = (   0.2501998   1.3842922   1.7457316  )
        75           Cu  tau(  75) = (   0.5002703   1.6161325   1.7443434  )
        76           Cu  tau(  76) = (   0.7504093   1.3841599   1.7457932  )
        77           Cu  tau(  77) = (   0.0001506   2.0781311   1.7452865  )
        78           Cu  tau(  78) = (   0.2500097   1.8474974   1.7448616  )
        79           Cu  tau(  79) = (   0.5001324   2.0785967   1.7453644  )
        80           Cu  tau(  80) = (   0.7503294   1.8475096   1.7448333  )
        81           Cu  tau(  81) = (   0.0002518   0.0002436   1.9906255  )
        82           Cu  tau(  82) = (   0.2500314   0.2307221   1.9904158  )
        83           Cu  tau(  83) = (   0.5001560   0.0000089   1.9925585  )
        84           Cu  tau(  84) = (   0.7503877   0.2307906   1.9902625  )
        85           Cu  tau(  85) = (   0.0003474   0.4618961   1.9891037  )
        86           Cu  tau(  86) = (   0.2523131   0.6922172   1.9929625  )
        87           Cu  tau(  87) = (   0.5000719   0.4597816   1.9923649  )
        88           Cu  tau(  88) = (   0.7480671   0.6920637   1.9937815  )
        89           Cu  tau(  89) = (   0.0002096   0.9219937   1.9931446  )
        90           Cu  tau(  90) = (   0.2502604   1.1549268   1.9950080  )
        91           Cu  tau(  91) = (   0.5003003   0.9247802   2.0010315  )
        92           Cu  tau(  92) = (   0.7503717   1.1550813   1.9953115  )
        93           Cu  tau(  93) = (   0.0004663   1.3862293   1.9924773  )
        94           Cu  tau(  94) = (   0.2499331   1.6166027   1.9901566  )
        95           Cu  tau(  95) = (   0.5002923   1.3862627   1.9904135  )
        96           Cu  tau(  96) = (   0.7507311   1.6164302   1.9900510  )
        97           Cu  tau(  97) = (   0.0001748   1.8473016   1.9922058  )
        98           Cu  tau(  98) = (   0.2502041   2.0781745   1.9915883  )
        99           Cu  tau(  99) = (   0.5003262   1.8468119   1.9903860  )
       100           Cu  tau( 100) = (   0.7502108   2.0783129   1.9914789  )
       101           C   tau( 101) = (  -0.0003149   0.0965100   2.3881220  )
       102           C   tau( 102) = (  -0.0001965   0.2887396   2.3863387  )
       103           C   tau( 103) = (   0.1663155   0.0004359   2.3886855  )
       104           C   tau( 104) = (   0.1662439   0.3848407   2.3828061  )
       105           C   tau( 105) = (   0.3328713   0.0965696   2.3863787  )
       106           C   tau( 106) = (   0.3328917   0.2888101   2.3828783  )
       107           C   tau( 107) = (   0.4996643   0.0002673   2.3855551  )
       108           C   tau( 108) = (   0.4998058   0.3856635   2.3806266  )
       109           C   tau( 109) = (   0.6665294   0.0965879   2.3852494  )
       110           C   tau( 110) = (   0.6666849   0.2888526   2.3822988  )
       111           C   tau( 111) = (   0.8330068   0.0004097   2.3879424  )
       112           C   tau( 112) = (   0.8334435   0.3848189   2.3826253  )
       113           C   tau( 113) = (  -0.0000108   0.6734180   2.3761591  )
       114           C   tau( 114) = (  -0.0000193   0.8659152   2.3711379  )
       115           C   tau( 115) = (   0.1661894   0.5770487   2.3775110  )
       116           C   tau( 116) = (   0.1669571   0.9618721   2.3771840  )
       117           C   tau( 117) = (   0.3326286   0.6740461   2.3782287  )
       118           C   tau( 118) = (   0.3309500   0.8648892   2.3836210  )
       119           C   tau( 119) = (   0.4999201   0.5773268   2.3803618  )
       120           C   tau( 120) = (   0.5001047   0.9620977   2.5197310  )
       121           O   tau( 121) = (   0.5017283   0.9601426   2.5962592  )
       122           H   tau( 122) = (   0.5966041   0.9601426   2.6911349  )
       123           C   tau( 123) = (   0.6672628   0.6739780   2.3777119  )
       124           C   tau( 124) = (   0.6689827   0.8649033   2.3825772  )
       125           C   tau( 125) = (   0.8337206   0.5770576   2.3773198  )
       126           C   tau( 126) = (   0.8330459   0.9619034   2.3767209  )
       127           C   tau( 127) = (  -0.0000747   1.2509098   2.3791404  )
       128           C   tau( 128) = (  -0.0002185   1.4440550   2.3780961  )
       129           C   tau( 129) = (   0.1666185   1.1551756   2.3797271  )
       130           C   tau( 130) = (   0.1664632   1.5404836   2.3809450  )
       131           C   tau( 131) = (   0.3338644   1.2520710   2.3821606  )
       132           C   tau( 132) = (   0.3332198   1.4446490   2.3817343  )
       133           C   tau( 133) = (   0.4998777   1.1584205   2.3884480  )
       134           C   tau( 134) = (   0.4997169   1.5406150   2.3848059  )
       135           C   tau( 135) = (   0.6658678   1.2520782   2.3823541  )
       136           C   tau( 136) = (   0.6662775   1.4446333   2.3815164  )
       137           C   tau( 137) = (   0.8332462   1.1551883   2.3796632  )
       138           C   tau( 138) = (   0.8329891   1.5405003   2.3802353  )
       139           C   tau( 139) = (  -0.0003525   1.8290905   2.3841460  )
       140           C   tau( 140) = (  -0.0003780   2.0214157   2.3874067  )
       141           C   tau( 141) = (   0.1664672   1.7328546   2.3846486  )
       142           C   tau( 142) = (   0.1662477   2.1174983   2.3880837  )
       143           C   tau( 143) = (   0.3330006   1.8289262   2.3877366  )
       144           C   tau( 144) = (   0.3330139   2.0212634   2.3883003  )
       145           C   tau( 145) = (   0.4996241   1.7329494   2.3871833  )
       146           C   tau( 146) = (   0.4996037   2.1173492   2.3885064  )
       147           C   tau( 147) = (   0.6662286   1.8289388   2.3873898  )
       148           C   tau( 148) = (   0.6661888   2.0212694   2.3879381  )
       149           C   tau( 149) = (   0.8328102   1.7328971   2.3841097  )
       150           C   tau( 150) = (   0.8329945   2.1174691   2.3877494  )

     number of k points=     6  gaussian smearing, width (Ry)=  0.1000
                       cart. coord. in units 2pi/alat
        k(    1) = (   0.0000000   0.0000000   0.0000000), wk =   0.1250000
        k(    2) = (   0.0000000  -0.2165064   0.0000000), wk =   0.1250000
        k(    3) = (   0.2500000   0.0000000   0.0000000), wk =   0.2500000
        k(    4) = (   0.2500000  -0.2165064   0.0000000), wk =   0.2500000
        k(    5) = (  -0.5000000   0.0000000   0.0000000), wk =   0.1250000
        k(    6) = (  -0.5000000  -0.2165064   0.0000000), wk =   0.1250000

     Dense  grid:  2050409 G-vectors     FFT dimensions: (  80, 192, 270)

     Largest allocated arrays     est. size (Mb)     dimensions
        Kohn-Sham Wavefunctions        54.80 Mb     (    4604,  780)
        NL pseudopotentials           130.46 Mb     (    4604, 1857)
        Each V/rho on FFT grid          2.34 Mb     (   76800,   2)
        Each G-vector array             0.28 Mb     (   36616)
        G-vector shells                 0.14 Mb     (   17932)
     Largest temporary arrays     est. size (Mb)     dimensions
        Auxiliary wavefunctions       219.18 Mb     (    4604, 3120)
        Each subspace H/S matrix        5.94 Mb     (     624,  624)
        Each <psi_i|beta_j> matrix     22.10 Mb     (    1857,  780)
        Arrays for rho mixing           9.38 Mb     (   76800,    8)

     Initial potential from superposition of free atoms
     Check: negative starting charge=(component1):   -0.000884
     Check: negative starting charge=(component2):   -0.000887

     starting charge 1273.81750, renormalised to 1299.00000

     negative rho (up, down):  9.014E-04 9.046E-04
     Starting wfc are 1289 randomized atomic wfcs

     total cpu time spent up to now is      217.8 secs

     Self-consistent Calculation

     iteration #  1     ecut=    80.00 Ry     beta=0.70
     Davidson diagonalization with overlap
     c_bands:  2 eigenvalues not converged
     c_bands:  2 eigenvalues not converged
     c_bands:  5 eigenvalues not converged
     ethr =  1.00E-04,  avg # of iterations = 20.8

     negative rho (up, down):  1.284E+01 1.336E+01

     total cpu time spent up to now is     3786.1 secs

     total energy              =   -9616.39544752 Ry
     Harris-Foulkes estimate   =  -17080.49872851 Ry
     estimated scf accuracy    <  176834.31251722 Ry

     total magnetization       =     1.52 Bohr mag/cell
     absolute magnetization    =     1.96 Bohr mag/cell

     iteration #  2     ecut=    80.00 Ry     beta=0.70
     Davidson diagonalization with overlap
     ethr =  1.00E-02,  avg # of iterations = 11.2

     negative rho (up, down):  1.368E+01 1.385E+01

     total cpu time spent up to now is     5686.9 secs

     total energy              =  -12376.05729571 Ry
     Harris-Foulkes estimate   =  -13591.23058021 Ry
     estimated scf accuracy    <   16119.16654698 Ry

     total magnetization       =     0.48 Bohr mag/cell
     absolute magnetization    =     0.92 Bohr mag/cell

     iteration #  3     ecut=    80.00 Ry     beta=0.70
     Davidson diagonalization with overlap
     ethr =  1.00E-02,  avg # of iterations =  6.8

     negative rho (up, down):  1.488E+01 1.493E+01

     total cpu time spent up to now is     6901.7 secs

     total energy              =  -12494.41729573 Ry
     Harris-Foulkes estimate   =  -13314.62594511 Ry
     estimated scf accuracy    <    6139.67740651 Ry

     total magnetization       =     0.27 Bohr mag/cell
     absolute magnetization    =     0.50 Bohr mag/cell

     iteration #  4     ecut=    80.00 Ry     beta=0.70
     Davidson diagonalization with overlap
     ethr =  1.00E-02,  avg # of iterations =  5.2

     negative rho (up, down):  1.355E+01 1.355E+01

     total cpu time spent up to now is     8001.6 secs

     total energy              =  -12838.09163799 Ry
     Harris-Foulkes estimate   =  -13140.96507284 Ry
     estimated scf accuracy    <    6679.11071625 Ry

     total magnetization       =     0.01 Bohr mag/cell
     absolute magnetization    =     0.15 Bohr mag/cell

     iteration #  5     ecut=    80.00 Ry     beta=0.70
     Davidson diagonalization with overlap
     ethr =  1.00E-02,  avg # of iterations =  4.8

     negative rho (up, down):  9.328E+00 9.347E+00

     total cpu time spent up to now is     8812.9 secs

     total energy              =  -12853.30811231 Ry
     Harris-Foulkes estimate   =  -13031.17707358 Ry
     estimated scf accuracy    <     953.89924493 Ry

     total magnetization       =    -0.00 Bohr mag/cell
     absolute magnetization    =     0.10 Bohr mag/cell

     iteration #  6     ecut=    80.00 Ry     beta=0.70
     Davidson diagonalization with overlap
     ethr =  1.00E-02,  avg # of iterations =  3.0

     negative rho (up, down):  5.541E+00 5.554E+00

     total cpu time spent up to now is     9306.4 secs

     total energy              =  -12846.64034491 Ry
     Harris-Foulkes estimate   =  -12917.72294312 Ry
     estimated scf accuracy    <     766.76714162 Ry

     total magnetization       =     0.01 Bohr mag/cell
     absolute magnetization    =     0.06 Bohr mag/cell

     iteration #  7     ecut=    80.00 Ry     beta=0.70
     Davidson diagonalization with overlap
     ethr =  1.00E-02,  avg # of iterations =  2.0

     negative rho (up, down):  4.151E+00 4.157E+00

     total cpu time spent up to now is     9685.2 secs

     total energy              =  -12828.73582891 Ry
     Harris-Foulkes estimate   =  -12856.12491306 Ry
     estimated scf accuracy    <     671.11651387 Ry

     total magnetization       =     0.00 Bohr mag/cell
     absolute magnetization    =     0.05 Bohr mag/cell

     iteration #  8     ecut=    80.00 Ry     beta=0.70
     Davidson diagonalization with overlap
     ethr =  1.00E-02,  avg # of iterations =  1.5

     negative rho (up, down):  3.668E+00 3.673E+00

     total cpu time spent up to now is    10035.9 secs

     total energy              =  -12819.92863585 Ry
     Harris-Foulkes estimate   =  -12832.72398033 Ry
     estimated scf accuracy    <     406.73258324 Ry

     total magnetization       =     0.00 Bohr mag/cell
     absolute magnetization    =     0.05 Bohr mag/cell

     iteration #  9     ecut=    80.00 Ry     beta=0.70
     Davidson diagonalization with overlap
     ethr =  1.00E-02,  avg # of iterations =  1.0

     negative rho (up, down):  1.284E+00 1.284E+00

     total cpu time spent up to now is    10375.4 secs

     total energy              =  -12773.25013022 Ry
     Harris-Foulkes estimate   =  -12823.85669071 Ry
     estimated scf accuracy    <     326.20168154 Ry

     total magnetization       =     0.01 Bohr mag/cell
     absolute magnetization    =     0.04 Bohr mag/cell

     iteration # 10     ecut=    80.00 Ry     beta=0.70
     Davidson diagonalization with overlap
     ethr =  1.00E-02,  avg # of iterations =  3.3

     negative rho (up, down):  3.709E-01 3.708E-01

     total cpu time spent up to now is    10771.8 secs

     total energy              =  -12746.95454411 Ry
     Harris-Foulkes estimate   =  -12779.24289098 Ry
     estimated scf accuracy    <     176.84860315 Ry

     total magnetization       =    -0.00 Bohr mag/cell
     absolute magnetization    =     0.06 Bohr mag/cell

     iteration # 11     ecut=    80.00 Ry     beta=0.70
     Davidson diagonalization with overlap
     ethr =  1.00E-02,  avg # of iterations =  2.6

     negative rho (up, down):  1.916E+00 1.916E+00

     total cpu time spent up to now is    11151.9 secs

     total energy              =  -12739.33748202 Ry
     Harris-Foulkes estimate   =  -12759.42079989 Ry
     estimated scf accuracy    <     131.22552620 Ry

     total magnetization       =     0.01 Bohr mag/cell
     absolute magnetization    =     0.07 Bohr mag/cell

     iteration # 12     ecut=    80.00 Ry     beta=0.70
     Davidson diagonalization with overlap
     ethr =  1.00E-02,  avg # of iterations =  2.0

     negative rho (up, down):  7.165E-01 7.196E-01

     total cpu time spent up to now is    11515.1 secs

     total energy              =  -12739.08967275 Ry
     Harris-Foulkes estimate   =  -12747.23571887 Ry
     estimated scf accuracy    <      68.74656642 Ry

     total magnetization       =     0.02 Bohr mag/cell
     absolute magnetization    =     0.08 Bohr mag/cell

     iteration # 13     ecut=    80.00 Ry     beta=0.70
     Davidson diagonalization with overlap
     ethr =  5.29E-03,  avg # of iterations =  1.9

     negative rho (up, down):  2.287E+00 2.289E+00

     total cpu time spent up to now is    11876.6 secs

     total energy              =  -12733.12887605 Ry
     Harris-Foulkes estimate   =  -12745.31817334 Ry
     estimated scf accuracy    <      54.71588306 Ry

     total magnetization       =     0.01 Bohr mag/cell
     absolute magnetization    =     0.04 Bohr mag/cell

     iteration # 14     ecut=    80.00 Ry     beta=0.70
     Davidson diagonalization with overlap
     ethr =  4.21E-03,  avg # of iterations =  2.1

     negative rho (up, down):  1.937E+00 1.938E+00

     total cpu time spent up to now is    12241.5 secs

     total energy              =  -12730.82386500 Ry
     Harris-Foulkes estimate   =  -12737.10136495 Ry
     estimated scf accuracy    <      37.70837104 Ry

     total magnetization       =     0.01 Bohr mag/cell
     absolute magnetization    =     0.03 Bohr mag/cell

     iteration # 15     ecut=    80.00 Ry     beta=0.70
     Davidson diagonalization with overlap
     ethr =  2.90E-03,  avg # of iterations =  3.6

     negative rho (up, down):  2.407E+00 2.408E+00

     total cpu time spent up to now is    12640.7 secs

     total energy              =  -12731.65182516 Ry
     Harris-Foulkes estimate   =  -12733.60534983 Ry
     estimated scf accuracy    <      21.20133386 Ry

     total magnetization       =     0.01 Bohr mag/cell
     absolute magnetization    =     0.04 Bohr mag/cell

     iteration # 16     ecut=    80.00 Ry     beta=0.70
     Davidson diagonalization with overlap
     ethr =  1.63E-03,  avg # of iterations =  6.9

     negative rho (up, down):  2.229E+00 2.228E+00

     total cpu time spent up to now is    13126.4 secs

     total energy              =  -12730.81797936 Ry
     Harris-Foulkes estimate   =  -12732.03202674 Ry
     estimated scf accuracy    <      11.54757796 Ry

     total magnetization       =     0.00 Bohr mag/cell
     absolute magnetization    =     0.03 Bohr mag/cell

     iteration # 17     ecut=    80.00 Ry     beta=0.70
     Davidson diagonalization with overlap
     ethr =  8.89E-04,  avg # of iterations =  6.6

     negative rho (up, down):  1.028E+00 1.026E+00

     total cpu time spent up to now is    13601.3 secs

     total energy              =  -12728.80666042 Ry
     Harris-Foulkes estimate   =  -12731.01111611 Ry
     estimated scf accuracy    <       7.91561340 Ry

     total magnetization       =     0.00 Bohr mag/cell
     absolute magnetization    =     0.03 Bohr mag/cell

     iteration # 18     ecut=    80.00 Ry     beta=0.70
     Davidson diagonalization with overlap
     ethr =  6.09E-04,  avg # of iterations =  5.2

     negative rho (up, down):  1.329E+00 1.328E+00

     total cpu time spent up to now is    14040.6 secs

     total energy              =  -12728.43836885 Ry
     Harris-Foulkes estimate   =  -12729.03819341 Ry
     estimated scf accuracy    <      10.71737043 Ry

     total magnetization       =     0.00 Bohr mag/cell
     absolute magnetization    =     0.02 Bohr mag/cell

     iteration # 19     ecut=    80.00 Ry     beta=0.70
     Davidson diagonalization with overlap
     ethr =  6.09E-04,  avg # of iterations =  6.8

     negative rho (up, down):  9.238E-01 9.233E-01

     total cpu time spent up to now is    14521.4 secs

     total energy              =  -12728.46591581 Ry
     Harris-Foulkes estimate   =  -12728.68997533 Ry
     estimated scf accuracy    <       7.96225916 Ry

     total magnetization       =     0.00 Bohr mag/cell
     absolute magnetization    =     0.02 Bohr mag/cell

     iteration # 20     ecut=    80.00 Ry     beta=0.70
     Davidson diagonalization with overlap
     ethr =  6.09E-04,  avg # of iterations =  4.4

     negative rho (up, down):  1.918E-01 1.920E-01

     total cpu time spent up to now is    14942.0 secs

     total energy              =  -12726.64972162 Ry
     Harris-Foulkes estimate   =  -12728.63018812 Ry
     estimated scf accuracy    <       7.07359887 Ry

     total magnetization       =     0.00 Bohr mag/cell
     absolute magnetization    =     0.01 Bohr mag/cell

     iteration # 21     ecut=    80.00 Ry     beta=0.70
     Davidson diagonalization with overlap
     ethr =  5.45E-04,  avg # of iterations =  7.9

     negative rho (up, down):  1.158E-01 1.157E-01

     total cpu time spent up to now is    15448.3 secs

     total energy              =  -12725.75447846 Ry
     Harris-Foulkes estimate   =  -12726.95798301 Ry
     estimated scf accuracy    <       7.18513057 Ry

     total magnetization       =     0.00 Bohr mag/cell
     absolute magnetization    =     0.01 Bohr mag/cell

     iteration # 22     ecut=    80.00 Ry     beta=0.70
     Davidson diagonalization with overlap
     ethr =  5.45E-04,  avg # of iterations =  3.4

     negative rho (up, down):  3.179E-01 3.178E-01

     total cpu time spent up to now is    15843.9 secs

     total energy              =  -12725.27712401 Ry
     Harris-Foulkes estimate   =  -12726.12480639 Ry
     estimated scf accuracy    <       3.27057681 Ry

     total magnetization       =    -0.00 Bohr mag/cell
     absolute magnetization    =     0.01 Bohr mag/cell

     iteration # 23     ecut=    80.00 Ry     beta=0.70
     Davidson diagonalization with overlap
     ethr =  2.52E-04,  avg # of iterations =  6.6

     negative rho (up, down):  2.941E-01 2.940E-01

     total cpu time spent up to now is    16331.1 secs

     total energy              =  -12725.16840762 Ry
     Harris-Foulkes estimate   =  -12725.43632521 Ry
     estimated scf accuracy    <       1.59270025 Ry

     total magnetization       =    -0.00 Bohr mag/cell
     absolute magnetization    =     0.01 Bohr mag/cell

     iteration # 24     ecut=    80.00 Ry     beta=0.70
     Davidson diagonalization with overlap
     ethr =  1.23E-04,  avg # of iterations =  7.9

     negative rho (up, down):  3.358E-01 3.357E-01

     total cpu time spent up to now is    16849.1 secs

     total energy              =  -12724.97872584 Ry
     Harris-Foulkes estimate   =  -12725.23188151 Ry
     estimated scf accuracy    <       0.89619946 Ry

     total magnetization       =    -0.00 Bohr mag/cell
     absolute magnetization    =     0.01 Bohr mag/cell

     iteration # 25     ecut=    80.00 Ry     beta=0.70
     Davidson diagonalization with overlap
     ethr =  6.90E-05,  avg # of iterations =  6.7

     negative rho (up, down):  4.187E-01 4.186E-01

     total cpu time spent up to now is    17378.1 secs

     total energy              =  -12724.95950292 Ry
     Harris-Foulkes estimate   =  -12725.02850864 Ry
     estimated scf accuracy    <       0.51263822 Ry

     total magnetization       =    -0.00 Bohr mag/cell
     absolute magnetization    =     0.01 Bohr mag/cell

     iteration # 26     ecut=    80.00 Ry     beta=0.70
     Davidson diagonalization with overlap
     ethr =  3.95E-05,  avg # of iterations =  6.7

     negative rho (up, down):  1.382E-01 1.381E-01

     total cpu time spent up to now is    17898.2 secs

     total energy              =  -12724.87273944 Ry
     Harris-Foulkes estimate   =  -12724.98260620 Ry
     estimated scf accuracy    <       0.23751038 Ry

     total magnetization       =    -0.00 Bohr mag/cell
     absolute magnetization    =     0.00 Bohr mag/cell

     iteration # 27     ecut=    80.00 Ry     beta=0.70
     Davidson diagonalization with overlap
     c_bands:  1 eigenvalues not converged
     c_bands:  3 eigenvalues not converged
     c_bands:  1 eigenvalues not converged
     c_bands:  3 eigenvalues not converged
     ethr =  1.83E-05,  avg # of iterations = 17.5

     negative rho (up, down):  1.448E-01 1.447E-01

     total cpu time spent up to now is    18749.8 secs

     total energy              =  -12724.87696688 Ry
     Harris-Foulkes estimate   =  -12724.90444574 Ry
     estimated scf accuracy    <       0.11572860 Ry

     total magnetization       =    -0.00 Bohr mag/cell
     absolute magnetization    =     0.00 Bohr mag/cell

     iteration # 28     ecut=    80.00 Ry     beta=0.70
     Davidson diagonalization with overlap
     ethr =  8.91E-06,  avg # of iterations =  8.8

     negative rho (up, down):  8.145E-02 8.144E-02

     total cpu time spent up to now is    19351.4 secs

     total energy              =  -12724.87991136 Ry
     Harris-Foulkes estimate   =  -12724.89094303 Ry
     estimated scf accuracy    <       0.04534473 Ry

     total magnetization       =    -0.00 Bohr mag/cell
     absolute magnetization    =     0.00 Bohr mag/cell

     iteration # 29     ecut=    80.00 Ry     beta=0.70
     Davidson diagonalization with overlap
     c_bands:  1 eigenvalues not converged
     c_bands:  1 eigenvalues not converged
     c_bands:  1 eigenvalues not converged
     c_bands:  1 eigenvalues not converged
     ethr =  3.49E-06,  avg # of iterations = 16.2

     negative rho (up, down):  4.112E-02 4.112E-02

     total cpu time spent up to now is    20127.7 secs

     total energy              =  -12724.88177433 Ry
     Harris-Foulkes estimate   =  -12724.88372845 Ry
     estimated scf accuracy    <       0.00690272 Ry

     total magnetization       =    -0.00 Bohr mag/cell
     absolute magnetization    =     0.00 Bohr mag/cell

     iteration # 30     ecut=    80.00 Ry     beta=0.70
     Davidson diagonalization with overlap
     c_bands:  1 eigenvalues not converged
     ethr =  5.31E-07,  avg # of iterations = 16.1

     negative rho (up, down):  2.630E-02 2.630E-02

     total cpu time spent up to now is    20908.0 secs

     total energy              =  -12724.88150100 Ry
     Harris-Foulkes estimate   =  -12724.88242136 Ry
     estimated scf accuracy    <       0.00433666 Ry

     total magnetization       =    -0.00 Bohr mag/cell
     absolute magnetization    =     0.00 Bohr mag/cell

     iteration # 31     ecut=    80.00 Ry     beta=0.70
     Davidson diagonalization with overlap
     c_bands:  2 eigenvalues not converged
     c_bands:  1 eigenvalues not converged
     ethr =  3.34E-07,  avg # of iterations =  9.3

     negative rho (up, down):  1.331E-02 1.331E-02

     total cpu time spent up to now is    21493.2 secs

     total energy              =  -12724.88106360 Ry
     Harris-Foulkes estimate   =  -12724.88177675 Ry
     estimated scf accuracy    <       0.00043482 Ry

     total magnetization       =    -0.00 Bohr mag/cell
     absolute magnetization    =     0.00 Bohr mag/cell

     iteration # 32     ecut=    80.00 Ry     beta=0.70
     Davidson diagonalization with overlap
     c_bands:  2 eigenvalues not converged
     ethr =  3.35E-08,  avg # of iterations = 12.8

     negative rho (up, down):  5.734E-03 5.734E-03

     total cpu time spent up to now is    22168.1 secs

     total energy              =  -12724.88073942 Ry
     Harris-Foulkes estimate   =  -12724.88108734 Ry
     estimated scf accuracy    <       0.00019296 Ry

     total magnetization       =    -0.00 Bohr mag/cell
     absolute magnetization    =     0.00 Bohr mag/cell

     iteration # 33     ecut=    80.00 Ry     beta=0.70
     Davidson diagonalization with overlap
     ethr =  1.49E-08,  avg # of iterations =  9.5

     negative rho (up, down):  1.784E-03 1.784E-03

     total cpu time spent up to now is    22738.0 secs

     total energy              =  -12724.88061889 Ry
     Harris-Foulkes estimate   =  -12724.88075496 Ry
     estimated scf accuracy    <       0.00008466 Ry

     total magnetization       =    -0.00 Bohr mag/cell
     absolute magnetization    =     0.00 Bohr mag/cell

     iteration # 34     ecut=    80.00 Ry     beta=0.70
     Davidson diagonalization with overlap
     ethr =  6.52E-09,  avg # of iterations = 11.6

     negative rho (up, down):  9.357E-04 9.357E-04

     total cpu time spent up to now is    23364.0 secs

     total energy              =  -12724.88064245 Ry
     Harris-Foulkes estimate   =  -12724.88062619 Ry
     estimated scf accuracy    <       0.00001868 Ry

     total magnetization       =    -0.00 Bohr mag/cell
     absolute magnetization    =     0.00 Bohr mag/cell

     iteration # 35     ecut=    80.00 Ry     beta=0.70
     Davidson diagonalization with overlap
     ethr =  1.44E-09,  avg # of iterations =  5.6

     negative rho (up, down):  8.453E-04 8.453E-04

     total cpu time spent up to now is    23846.8 secs

     total energy              =  -12724.88065717 Ry
     Harris-Foulkes estimate   =  -12724.88064462 Ry
     estimated scf accuracy    <       0.00001108 Ry

     total magnetization       =    -0.00 Bohr mag/cell
     absolute magnetization    =     0.00 Bohr mag/cell

     iteration # 36     ecut=    80.00 Ry     beta=0.70
     Davidson diagonalization with overlap
     ethr =  8.53E-10,  avg # of iterations =  5.8

     negative rho (up, down):  8.299E-04 8.299E-04

     total cpu time spent up to now is    24321.8 secs

     total energy              =  -12724.88065725 Ry
     Harris-Foulkes estimate   =  -12724.88065834 Ry
     estimated scf accuracy    <       0.00000421 Ry

     total magnetization       =    -0.00 Bohr mag/cell
     absolute magnetization    =     0.00 Bohr mag/cell

     iteration # 37     ecut=    80.00 Ry     beta=0.70
     Davidson diagonalization with overlap
     ethr =  3.24E-10,  avg # of iterations =  3.0

     negative rho (up, down):  8.186E-04 8.186E-04

     total cpu time spent up to now is    24725.9 secs

     total energy              =  -12724.88065881 Ry
     Harris-Foulkes estimate   =  -12724.88065776 Ry
     estimated scf accuracy    <       0.00000139 Ry

     total magnetization       =    -0.00 Bohr mag/cell
     absolute magnetization    =     0.00 Bohr mag/cell

     iteration # 38     ecut=    80.00 Ry     beta=0.70
     Davidson diagonalization with overlap
     ethr =  1.07E-10,  avg # of iterations =  3.0

     negative rho (up, down):  8.028E-04 8.028E-04

     total cpu time spent up to now is    25124.3 secs

     total energy              =  -12724.88065984 Ry
     Harris-Foulkes estimate   =  -12724.88065894 Ry
     estimated scf accuracy    <       0.00000046 Ry

     total magnetization       =    -0.00 Bohr mag/cell
     absolute magnetization    =     0.00 Bohr mag/cell

     iteration # 39     ecut=    80.00 Ry     beta=0.70
     Davidson diagonalization with overlap
     ethr =  3.57E-11,  avg # of iterations =  3.2

     negative rho (up, down):  7.637E-04 7.637E-04

     total cpu time spent up to now is    25531.9 secs

     total energy              =  -12724.88066009 Ry
     Harris-Foulkes estimate   =  -12724.88065990 Ry
     estimated scf accuracy    <       0.00000022 Ry

     total magnetization       =    -0.00 Bohr mag/cell
     absolute magnetization    =     0.00 Bohr mag/cell

     iteration # 40     ecut=    80.00 Ry     beta=0.70
     Davidson diagonalization with overlap
     ethr =  1.68E-11,  avg # of iterations =  3.2

     negative rho (up, down):  7.450E-04 7.450E-04

     total cpu time spent up to now is    25946.5 secs

     total energy              =  -12724.88066004 Ry
     Harris-Foulkes estimate   =  -12724.88066012 Ry
     estimated scf accuracy    <       0.00000005 Ry

     total magnetization       =    -0.00 Bohr mag/cell
     absolute magnetization    =     0.00 Bohr mag/cell

     iteration # 41     ecut=    80.00 Ry     beta=0.70
     Davidson diagonalization with overlap
     ethr =  3.64E-12,  avg # of iterations =  3.5

     negative rho (up, down):  7.523E-04 7.523E-04

     total cpu time spent up to now is    26384.2 secs

     total energy              =  -12724.88066012 Ry
     Harris-Foulkes estimate   =  -12724.88066004 Ry
     estimated scf accuracy    <       0.00000002 Ry

     total magnetization       =    -0.00 Bohr mag/cell
     absolute magnetization    =     0.00 Bohr mag/cell

     iteration # 42     ecut=    80.00 Ry     beta=0.70
     Davidson diagonalization with overlap
     ethr =  1.22E-12,  avg # of iterations =  3.0

     negative rho (up, down):  7.524E-04 7.524E-04
 
     Magnetic moment per site:
     atom:    1    charge:    9.6035    magn:   -0.0000    constr:    0.0000
     atom:    2    charge:    9.6036    magn:    0.0000    constr:    0.0000
     atom:    3    charge:    9.6034    magn:   -0.0000    constr:    0.0000
     atom:    4    charge:    9.6036    magn:    0.0000    constr:    0.0000
     atom:    5    charge:    9.6036    magn:   -0.0000    constr:    0.0000
     atom:    6    charge:    9.6035    magn:   -0.0000    constr:    0.0000
     atom:    7    charge:    9.6036    magn:   -0.0000    constr:    0.0000
     atom:    8    charge:    9.6035    magn:    0.0000    constr:    0.0000
     atom:    9    charge:    9.6036    magn:   -0.0000    constr:    0.0000
     atom:   10    charge:    9.6038    magn:   -0.0000    constr:    0.0000
     atom:   11    charge:    9.6036    magn:   -0.0000    constr:    0.0000
     atom:   12    charge:    9.6038    magn:   -0.0000    constr:    0.0000
     atom:   13    charge:    9.6038    magn:   -0.0000    constr:    0.0000
     atom:   14    charge:    9.6036    magn:    0.0000    constr:    0.0000
     atom:   15    charge:    9.6038    magn:   -0.0000    constr:    0.0000
     atom:   16    charge:    9.6035    magn:   -0.0000    constr:    0.0000
     atom:   17    charge:    9.6033    magn:   -0.0000    constr:    0.0000
     atom:   18    charge:    9.6033    magn:    0.0000    constr:    0.0000
     atom:   19    charge:    9.6032    magn:   -0.0000    constr:    0.0000
     atom:   20    charge:    9.6031    magn:   -0.0000    constr:    0.0000
     atom:   21    charge:    9.6794    magn:    0.0000    constr:    0.0000
     atom:   22    charge:    9.6797    magn:    0.0000    constr:    0.0000
     atom:   23    charge:    9.6792    magn:   -0.0000    constr:    0.0000
     atom:   24    charge:    9.6796    magn:    0.0000    constr:    0.0000
     atom:   25    charge:    9.6795    magn:   -0.0000    constr:    0.0000
     atom:   26    charge:    9.6793    magn:    0.0000    constr:    0.0000
     atom:   27    charge:    9.6797    magn:    0.0000    constr:    0.0000
     atom:   28    charge:    9.6794    magn:    0.0000    constr:    0.0000
     atom:   29    charge:    9.6797    magn:   -0.0000    constr:    0.0000
     atom:   30    charge:    9.6798    magn:    0.0000    constr:    0.0000
     atom:   31    charge:    9.6798    magn:   -0.0000    constr:    0.0000
     atom:   32    charge:    9.6798    magn:    0.0000    constr:    0.0000
     atom:   33    charge:    9.6793    magn:    0.0000    constr:    0.0000
     atom:   34    charge:    9.6794    magn:    0.0000    constr:    0.0000
     atom:   35    charge:    9.6790    magn:    0.0000    constr:    0.0000
     atom:   36    charge:    9.6793    magn:    0.0000    constr:    0.0000
     atom:   37    charge:    9.6797    magn:    0.0000    constr:    0.0000
     atom:   38    charge:    9.6796    magn:    0.0000    constr:    0.0000
     atom:   39    charge:    9.6798    magn:    0.0000    constr:    0.0000
     atom:   40    charge:    9.6795    magn:    0.0000    constr:    0.0000
     atom:   41    charge:    9.6813    magn:   -0.0000    constr:    0.0000
     atom:   42    charge:    9.6809    magn:    0.0000    constr:    0.0000
     atom:   43    charge:    9.6816    magn:   -0.0000    constr:    0.0000
     atom:   44    charge:    9.6808    magn:    0.0000    constr:    0.0000
     atom:   45    charge:    9.6808    magn:   -0.0000    constr:    0.0000
     atom:   46    charge:    9.6804    magn:    0.0000    constr:    0.0000
     atom:   47    charge:    9.6801    magn:   -0.0000    constr:    0.0000
     atom:   48    charge:    9.6805    magn:    0.0000    constr:    0.0000
     atom:   49    charge:    9.6803    magn:    0.0000    constr:    0.0000
     atom:   50    charge:    9.6805    magn:   -0.0000    constr:    0.0000
     atom:   51    charge:    9.6808    magn:    0.0000    constr:    0.0000
     atom:   52    charge:    9.6805    magn:   -0.0000    constr:    0.0000
     atom:   53    charge:    9.6801    magn:   -0.0000    constr:    0.0000
     atom:   54    charge:    9.6806    magn:   -0.0000    constr:    0.0000
     atom:   55    charge:    9.6799    magn:   -0.0000    constr:    0.0000
     atom:   56    charge:    9.6806    magn:   -0.0000    constr:    0.0000
     atom:   57    charge:    9.6814    magn:   -0.0000    constr:    0.0000
     atom:   58    charge:    9.6815    magn:   -0.0000    constr:    0.0000
     atom:   59    charge:    9.6813    magn:   -0.0000    constr:    0.0000
     atom:   60    charge:    9.6816    magn:   -0.0000    constr:    0.0000
     atom:   61    charge:    9.6850    magn:   -0.0000    constr:    0.0000
     atom:   62    charge:    9.6840    magn:    0.0000    constr:    0.0000
     atom:   63    charge:    9.6844    magn:   -0.0000    constr:    0.0000
     atom:   64    charge:    9.6841    magn:    0.0000    constr:    0.0000
     atom:   65    charge:    9.6834    magn:    0.0000    constr:    0.0000
     atom:   66    charge:    9.6839    magn:   -0.0000    constr:    0.0000
     atom:   67    charge:    9.6808    magn:   -0.0000    constr:    0.0000
     atom:   68    charge:    9.6838    magn:    0.0000    constr:    0.0000
     atom:   69    charge:    9.6817    magn:   -0.0000    constr:    0.0000
     atom:   70    charge:    9.6812    magn:   -0.0000    constr:    0.0000
     atom:   71    charge:    9.6808    magn:    0.0000    constr:    0.0000
     atom:   72    charge:    9.6810    magn:   -0.0000    constr:    0.0000
     atom:   73    charge:    9.6838    magn:    0.0000    constr:    0.0000
     atom:   74    charge:    9.6828    magn:   -0.0000    constr:    0.0000
     atom:   75    charge:    9.6850    magn:    0.0000    constr:    0.0000
     atom:   76    charge:    9.6830    magn:    0.0000    constr:    0.0000
     atom:   77    charge:    9.6838    magn:    0.0000    constr:    0.0000
     atom:   78    charge:    9.6842    magn:   -0.0000    constr:    0.0000
     atom:   79    charge:    9.6835    magn:    0.0000    constr:    0.0000
     atom:   80    charge:    9.6843    magn:    0.0000    constr:    0.0000
     atom:   81    charge:    9.6190    magn:   -0.0000    constr:    0.0000
     atom:   82    charge:    9.6206    magn:    0.0000    constr:    0.0000
     atom:   83    charge:    9.6158    magn:   -0.0000    constr:    0.0000
     atom:   84    charge:    9.6205    magn:   -0.0000    constr:    0.0000
     atom:   85    charge:    9.6210    magn:    0.0000    constr:    0.0000
     atom:   86    charge:    9.6178    magn:    0.0000    constr:    0.0000
     atom:   87    charge:    9.6207    magn:   -0.0000    constr:    0.0000
     atom:   88    charge:    9.6167    magn:    0.0000    constr:    0.0000
     atom:   89    charge:    9.6180    magn:    0.0000    constr:    0.0000
     atom:   90    charge:    9.6132    magn:    0.0000    constr:    0.0000
     atom:   91    charge:    9.5980    magn:    0.0000    constr:    0.0000
     atom:   92    charge:    9.6128    magn:    0.0000    constr:    0.0000
     atom:   93    charge:    9.6191    magn:   -0.0000    constr:    0.0000
     atom:   94    charge:    9.6209    magn:   -0.0000    constr:    0.0000
     atom:   95    charge:    9.6205    magn:   -0.0000    constr:    0.0000
     atom:   96    charge:    9.6210    magn:    0.0000    constr:    0.0000
     atom:   97    charge:    9.6173    magn:   -0.0000    constr:    0.0000
     atom:   98    charge:    9.6171    magn:    0.0000    constr:    0.0000
     atom:   99    charge:    9.6187    magn:    0.0000    constr:    0.0000
     atom:  100    charge:    9.6174    magn:    0.0000    constr:    0.0000
     atom:  101    charge:    0.0899    magn:    0.0000    constr:    0.0000
     atom:  102    charge:    0.0881    magn:    0.0000    constr:    0.0000
     atom:  103    charge:    0.0914    magn:   -0.0000    constr:    0.0000
     atom:  104    charge:    0.0907    magn:    0.0000    constr:    0.0000
     atom:  105    charge:    0.0913    magn:    0.0000    constr:    0.0000
     atom:  106    charge:    0.0914    magn:    0.0000    constr:    0.0000
     atom:  107    charge:    0.0875    magn:   -0.0000    constr:    0.0000
     atom:  108    charge:    0.0899    magn:   -0.0000    constr:    0.0000
     atom:  109    charge:    0.0908    magn:   -0.0000    constr:    0.0000
     atom:  110    charge:    0.0910    magn:    0.0000    constr:    0.0000
     atom:  111    charge:    0.0915    magn:    0.0000    constr:    0.0000
     atom:  112    charge:    0.0910    magn:   -0.0000    constr:    0.0000
     atom:  113    charge:    0.0905    magn:   -0.0000    constr:    0.0000
     atom:  114    charge:    0.0873    magn:    0.0000    constr:    0.0000
     atom:  115    charge:    0.0920    magn:    0.0000    constr:    0.0000
     atom:  116    charge:    0.0919    magn:    0.0000    constr:    0.0000
     atom:  117    charge:    0.0920    magn:   -0.0000    constr:    0.0000
     atom:  118    charge:    0.0922    magn:    0.0000    constr:    0.0000
     atom:  119    charge:    0.0903    magn:    0.0000    constr:    0.0000
     atom:  120    charge:    0.2985    magn:   -0.0000    constr:    0.0000
     atom:  121    charge:    0.5658    magn:   -0.0000    constr:    0.0000
     atom:  122    charge:    0.3573    magn:   -0.0000    constr:    0.0000
     atom:  123    charge:    0.0920    magn:   -0.0000    constr:    0.0000
     atom:  124    charge:    0.0924    magn:    0.0000    constr:    0.0000
     atom:  125    charge:    0.0920    magn:    0.0000    constr:    0.0000
     atom:  126    charge:    0.0917    magn:    0.0000    constr:    0.0000
     atom:  127    charge:    0.0910    magn:   -0.0000    constr:    0.0000
     atom:  128    charge:    0.0914    magn:   -0.0000    constr:    0.0000
     atom:  129    charge:    0.0917    magn:    0.0000    constr:    0.0000
     atom:  130    charge:    0.0913    magn:    0.0000    constr:    0.0000
     atom:  131    charge:    0.0908    magn:    0.0000    constr:    0.0000
     atom:  132    charge:    0.0915    magn:   -0.0000    constr:    0.0000
     atom:  133    charge:    0.0925    magn:    0.0000    constr:    0.0000
     atom:  134    charge:    0.0879    magn:    0.0000    constr:    0.0000
     atom:  135    charge:    0.0906    magn:    0.0000    constr:    0.0000
     atom:  136    charge:    0.0912    magn:   -0.0000    constr:    0.0000
     atom:  137    charge:    0.0917    magn:   -0.0000    constr:    0.0000
     atom:  138    charge:    0.0918    magn:    0.0000    constr:    0.0000
     atom:  139    charge:    0.0876    magn:    0.0000    constr:    0.0000
     atom:  140    charge:    0.0893    magn:   -0.0000    constr:    0.0000
     atom:  141    charge:    0.0906    magn:   -0.0000    constr:    0.0000
     atom:  142    charge:    0.0910    magn:    0.0000    constr:    0.0000
     atom:  143    charge:    0.0916    magn:    0.0000    constr:    0.0000
     atom:  144    charge:    0.0916    magn:   -0.0000    constr:    0.0000
     atom:  145    charge:    0.0893    magn:   -0.0000    constr:    0.0000
     atom:  146    charge:    0.0903    magn:   -0.0000    constr:    0.0000
     atom:  147    charge:    0.0909    magn:    0.0000    constr:    0.0000
     atom:  148    charge:    0.0908    magn:   -0.0000    constr:    0.0000
     atom:  149    charge:    0.0914    magn:   -0.0000    constr:    0.0000
     atom:  150    charge:    0.0915    magn:    0.0000    constr:    0.0000

     total cpu time spent up to now is    26788.3 secs

     End of self-consistent calculation

 ------ SPIN UP ------------


          k = 0.0000 0.0000 0.0000 (256287 PWs)   bands (ev):

   -30.4674 -18.6254 -17.4038 -15.8937 -15.5588 -15.4064 -14.4061 -14.3637
   -14.1070 -13.9004 -13.8931 -13.6240 -13.5991 -13.4221 -13.2874 -12.6293
   -12.6232 -12.5389 -12.4090 -12.4034 -11.9484 -10.8398 -10.7625 -10.7598
   -10.6416 -10.2543  -9.5071  -8.9598  -8.8674  -8.8255  -8.6724  -8.0850
    -8.0353  -7.8537  -7.8345  -7.0642  -7.0547  -7.0155  -6.9988  -6.9927
    -6.7590  -6.6475  -6.5377  -5.5465  -5.4356  -5.4249  -5.3926  -5.3532
    -5.2798  -5.2629  -5.0138  -5.0073  -4.8626  -4.8585  -4.6251  -4.1807
    -4.1525  -4.1430  -4.0291  -3.8965  -3.7987  -3.6787  -3.6412  -3.5729
    -3.5153  -3.5107  -3.0051  -2.9985  -2.9353  -2.9329  -2.9293  -2.9120
    -2.8273  -2.8028  -2.7460  -2.7179  -2.6986  -2.5359  -2.5344  -2.5327
    -2.5287  -2.5051  -2.4953  -2.3709  -2.3534  -2.2753  -2.2678  -2.2617
    -2.2372  -2.1910  -2.1640  -2.1601  -1.9254  -1.9208  -1.9135  -1.8829
    -1.8705  -1.8178  -1.7976  -1.7174  -1.7170  -1.6763  -1.6762  -1.6761
    -1.6757  -1.6284  -1.6196  -1.6020  -1.5474  -1.5473  -1.5430  -1.5429
    -1.4857  -1.4610  -1.3991  -1.3636  -1.2995  -1.2644  -1.2628  -1.2627
    -1.2579  -1.2316  -1.2132  -1.2074  -1.1946  -1.1821  -1.1776  -1.1260
    -1.1170  -1.0974  -1.0905  -1.0878  -1.0838  -1.0585  -1.0581  -1.0567
    -1.0394  -1.0379  -1.0361  -0.9647  -0.9606  -0.9396  -0.9155  -0.9096
    -0.9079  -0.8775  -0.8748  -0.8435  -0.8208  -0.7871  -0.7858  -0.7724
    -0.7338  -0.7330  -0.7262  -0.7140  -0.7108  -0.6896  -0.6894  -0.6855
    -0.6680  -0.6431  -0.6360  -0.6327  -0.5757  -0.5700  -0.5654  -0.5547
    -0.5495  -0.5462  -0.5454  -0.5449  -0.5442  -0.5404  -0.5379  -0.5295
    -0.5213  -0.5004  -0.4750  -0.4736  -0.4554  -0.4507  -0.4484  -0.4420
    -0.4419  -0.4392  -0.3827  -0.3826  -0.3793  -0.3788  -0.3778  -0.3777
    -0.3776  -0.3749  -0.3733  -0.3726  -0.3702  -0.3697  -0.3678  -0.3643
    -0.3640  -0.3548  -0.3545  -0.3535  -0.3490  -0.3432  -0.3077  -0.2124
    -0.2122  -0.2046  -0.2042  -0.1850  -0.1844  -0.1643  -0.1638  -0.1506
    -0.1452  -0.1433  -0.1355  -0.1282  -0.1238  -0.1229  -0.1115  -0.0874
    -0.0873  -0.0831  -0.0826  -0.0771  -0.0765  -0.0661  -0.0651  -0.0151
    -0.0150   0.0090   0.0393   0.0396   0.0479   0.0483   0.0508   0.0540
     0.0664   0.0677   0.0722   0.0731   0.0736   0.0743   0.0770   0.0773
     0.0927   0.0928   0.0994   0.0996   0.1017   0.1269   0.1275   0.1548
     0.1751   0.1771   0.1809   0.1857   0.1859   0.1997   0.2121   0.2123
     0.2144   0.2145   0.2290   0.2304   0.2344   0.2350   0.2352   0.2554
     0.2564   0.2584   0.2606   0.2620   0.2629   0.2636   0.2653   0.2674
     0.2697   0.2855   0.2859   0.2892   0.2894   0.2908   0.3109   0.3421
     0.3567   0.3578   0.3587   0.3601   0.3606   0.4056   0.4071   0.4079
     0.4083   0.4147   0.4160   0.4165   0.4170   0.4176   0.4304   0.4367
     0.4660   0.4686   0.4697   0.4707   0.4794   0.4963   0.4968   0.4985
     0.4995   0.5036   0.5102   0.5221   0.5237   0.5238   0.5244   0.5271
     0.5308   0.5403   0.5404   0.5409   0.5412   0.5496   0.5533   0.5549
     0.5600   0.5798   0.5800   0.6130   0.6132   0.6340   0.6379   0.6389
     0.6623   0.6701   0.6715   0.7117   0.7130   0.7140   0.7202   0.7221
     0.7241   0.7468   0.7483   0.7496   0.7498   0.7502   0.7540   0.7592
     0.7608   0.8060   0.8162   0.8167   0.8234   0.8238   0.8260   0.8268
     0.8409   0.8550   0.8587   0.8602   0.8621   0.8636   0.8904   0.8951
     0.8971   0.8986   0.9042   0.9139   0.9154   0.9175   0.9191   0.9544
     0.9566   0.9706   0.9717   0.9739   0.9763   0.9771   0.9842   1.0032
     1.0033   1.0076   1.0113   1.0120   1.0136   1.0142   1.0154   1.0173
     1.0221   1.0256   1.0308   1.0319   1.0333   1.0350   1.0412   1.0419
     1.0742   1.0806   1.0807   1.0872   1.0974   1.1236   1.1243   1.1249
     1.1274   1.1297   1.1306   1.1314   1.1325   1.1400   1.1422   1.1489
     1.1542   1.1559   1.1570   1.1586   1.1643   1.1646   1.1698   1.1735
     1.1757   1.1962   1.1963   1.1994   1.2007   1.2088   1.2093   1.2187
     1.2225   1.2225   1.2245   1.2254   1.2290   1.2322   1.2346   1.2364
     1.2417   1.2442   1.2555   1.2828   1.2831   1.2933   1.2966   1.2997
     1.3001   1.3013   1.3015   1.3326   1.3334   1.3482   1.3483   1.3537
     1.3542   1.3674   1.3678   1.3745   1.3760   1.3773   1.3788   1.3862
     1.3960   1.4121   1.4148   1.4173   1.4190   1.4202   1.4210   1.4289
     1.4370   1.4439   1.4548   1.4634   1.4637   1.4754   1.4788   1.4851
     1.4862   1.4869   1.4888   1.4904   1.4909   1.4987   1.4990   1.5031
     1.5046   1.5060   1.5064   1.5066   1.5183   1.5186   1.5327   1.5404
     1.5410   1.5440   1.5451   1.5525   1.5744   1.5808   1.5814   1.5861
     1.5864   1.5876   1.5896   1.5915   1.5929   1.5936   1.5938   1.5941
     1.5972   1.5994   1.6083   1.6114   1.6150   1.6374   1.6581   1.6603
     1.6682   1.6765   1.6787   1.6801   1.6808   1.6824   1.6857   1.6930
     1.7006   1.7100   1.7139   1.7168   1.7170   1.7178   1.7182   1.7211
     1.7228   1.7230   1.7329   1.7435   1.7503   1.7505   1.7518   1.7537
     1.7548   1.7553   1.7566   1.7601   1.7714   1.7718   1.7721   1.7788
     1.7873   1.7873   1.7885   1.7890   1.7902   1.7977   1.8013   1.8056
     1.8188   1.8302   1.8313   1.8318   1.8321   1.8326   1.8351   1.8392
     1.8499   1.8606   1.8643   1.8663   1.8690   1.8768   1.8852   1.8919
     1.8925   1.8997   1.8999   1.9080   1.9089   1.9094   1.9114   1.9117
     1.9128   1.9133   1.9139   1.9156   1.9235   1.9242   1.9270   1.9420
     1.9426   1.9438   1.9449   1.9483   1.9505   1.9567   1.9596   1.9849
     1.9890   1.9899   1.9967   2.0326   2.0340   2.0363   2.0389   2.0550
     2.0572   2.0589   2.0640   2.0684   2.0847   2.1039   2.1069   2.1081
     2.1087   2.1107   2.1198   2.1201   2.1223   2.2683   2.3762   2.4316
     2.5834   2.5878   2.6274   2.6307   2.6814   2.6830   2.6835   2.6874
     2.6968   2.6987   2.7017   2.7150   2.8753   2.8813   2.9079   2.9308
     2.9427   2.9454   2.9540   2.9638   2.9820   3.0273   3.1927   3.1944
     3.2125   3.2232   3.4934   3.6041   3.6158   3.6358   3.9529   3.9937
     4.0180   4.2926   4.2946   4.3227   4.3269   4.3276   4.3441   4.3895
     4.4302   4.4334   4.4398   4.4775   4.4819   4.4821   4.4854   4.4903
     4.4963   4.6673   4.7218   4.7227   4.7423   4.7687   4.9430   5.0873
     5.2398   5.3640   5.4684   5.4712   5.7152   5.7834   5.8545   5.8869
     5.9273   6.1582   6.1744   6.1950   6.2025   6.4064   6.4112   6.7925
     6.8080   6.8649   6.8836   6.9235   6.9353   6.9408   6.9572   7.0537
     7.0643   7.0924   7.1355   7.1494   7.2348   7.2371   7.2564   7.2905
     7.3648   7.4152   7.4577   7.5223   7.5418   7.5636   7.5816   7.5875
     7.6530   7.6770   7.8301   7.8368   7.9096   7.9590   7.9888   8.1588
     8.1602   8.1711   8.1761   8.4025   8.4217   8.5861   8.6034   8.6461
     8.6620   8.7148   8.7391   8.7676   8.8110   8.8115   8.8341   8.8464
     8.8720   8.8960   8.9507   9.0007   9.0207   9.0383   9.0493   9.0799
     9.1203   9.1204   9.1228   9.1353   9.1430   9.1657   9.2864   9.3026
     9.3032   9.3143   9.3364   9.5237   9.5288   9.5674   9.5878   9.5949
     9.6113   9.8159   9.8175   9.8378   9.8551   9.9227   9.9552   9.9984
    10.0521  10.0554  10.0955  10.1763

          k = 0.0000-0.2165 0.0000 (256176 PWs)   bands (ev):

   -30.4674 -18.6254 -17.4038 -15.8502 -15.7198 -15.0706 -14.9565 -14.1007
   -13.8945 -13.8883 -13.7633 -13.7142 -13.5740 -13.4868 -13.1624 -13.1121
   -12.9995 -12.6895 -11.7634 -11.6944 -11.6490 -11.6323 -11.3880 -11.0519
    -9.8475  -9.7821  -9.7050  -9.5140  -8.5736  -8.5044  -8.4511  -8.2882
    -8.2799  -8.1621  -7.6131  -7.5547  -7.3588  -7.3388  -6.4397  -6.4245
    -6.3711  -6.3170  -6.2626  -6.1569  -6.0406  -5.7462  -5.4257  -5.4132
    -5.3987  -5.2367  -4.6406  -4.6095  -4.5423  -4.5236  -4.4439  -4.3662
    -4.3624  -4.3356  -4.0754  -4.0581  -4.0255  -3.9260  -3.7921  -3.6386
    -3.5873  -3.4932  -3.1099  -3.0466  -2.8322  -2.8313  -2.8286  -2.8224
    -2.7747  -2.6129  -2.5975  -2.5833  -2.5578  -2.5569  -2.5233  -2.4838
    -2.4373  -2.4207  -2.3259  -2.3216  -2.2515  -2.2207  -2.1871  -2.1603
    -2.1469  -2.1443  -2.1073  -2.1056  -2.1033  -2.1026  -2.0775  -2.0445
    -1.8878  -1.8747  -1.8051  -1.8020  -1.8003  -1.7730  -1.7715  -1.7021
    -1.6736  -1.6732  -1.6720  -1.6516  -1.5518  -1.5100  -1.5100  -1.4909
    -1.4840  -1.4827  -1.3929  -1.3856  -1.3442  -1.3307  -1.3229  -1.2930
    -1.2927  -1.2897  -1.2739  -1.2734  -1.2654  -1.2652  -1.2474  -1.2426
    -1.1954  -1.1702  -1.1650  -1.1014  -1.0944  -1.0863  -1.0008  -0.9898
    -0.9891  -0.9867  -0.9136  -0.9047  -0.8944  -0.8940  -0.8398  -0.8373
    -0.8365  -0.8024  -0.8022  -0.8004  -0.7968  -0.7967  -0.7947  -0.7913
    -0.7723  -0.7598  -0.7528  -0.7492  -0.7466  -0.7458  -0.7372  -0.7279
    -0.6723  -0.6719  -0.6695  -0.6609  -0.6608  -0.6110  -0.6106  -0.5778
    -0.5725  -0.5723  -0.5694  -0.5689  -0.5316  -0.5272  -0.5084  -0.5078
    -0.5035  -0.5020  -0.5000  -0.4999  -0.4773  -0.4517  -0.4490  -0.4416
    -0.4414  -0.4346  -0.4338  -0.4215  -0.4204  -0.4202  -0.4148  -0.3540
    -0.3513  -0.3422  -0.3417  -0.3414  -0.3398  -0.3325  -0.3214  -0.3202
    -0.3142  -0.3064  -0.3026  -0.2775  -0.2773  -0.2733  -0.2711  -0.1796
    -0.1792  -0.1726  -0.1719  -0.1546  -0.1544  -0.1351  -0.1299  -0.1288
    -0.1268  -0.1230  -0.1228  -0.1220  -0.1000  -0.0983  -0.0665  -0.0651
    -0.0645  -0.0631  -0.0607  -0.0592  -0.0584  -0.0567  -0.0275  -0.0267
    -0.0131  -0.0100  -0.0076  -0.0076   0.0259   0.0286   0.0296   0.0306
     0.0309   0.0389   0.0397   0.0438   0.0451   0.0472   0.1161   0.1166
     0.1242   0.1246   0.1473   0.1512   0.1553   0.1737   0.1740   0.1786
     0.1796   0.1807   0.1818   0.2043   0.2054   0.2089   0.2096   0.2103
     0.2117   0.2186   0.2229   0.2275   0.2286   0.2309   0.2328   0.2338
     0.2342   0.2418   0.2437   0.2706   0.2706   0.2738   0.2739   0.2789
     0.3327   0.3350   0.3355   0.3369   0.3414   0.3443   0.3452   0.3454
     0.3488   0.3495   0.3627   0.3721   0.3780   0.3846   0.3890   0.3891
     0.3909   0.3981   0.3992   0.4012   0.4022   0.4040   0.4051   0.4235
     0.4593   0.4595   0.4609   0.4610   0.4774   0.4804   0.4815   0.4820
     0.4826   0.4869   0.4940   0.5046   0.5056   0.5083   0.5111   0.5127
     0.5204   0.5360   0.5369   0.5516   0.5520   0.5534   0.5536   0.5715
     0.5734   0.5889   0.5894   0.5966   0.5989   0.6073   0.6102   0.6111
     0.6116   0.6543   0.6544   0.6633   0.6644   0.6707   0.6755   0.6803
     0.6808   0.7043   0.7062   0.7224   0.7415   0.7417   0.7444   0.7684
     0.7733   0.7852   0.8215   0.8411   0.8599   0.8604   0.8664   0.8671
     0.8877   0.8882   0.8890   0.8893   0.9014   0.9231   0.9255   0.9272
     0.9290   0.9291   0.9299   0.9324   0.9334   0.9374   0.9386   0.9491
     0.9520   0.9525   0.9539   0.9572   0.9615   0.9622   0.9657   0.9730
     0.9921   0.9941   1.0023   1.0025   1.0029   1.0038   1.0106   1.0106
     1.0328   1.0331   1.0333   1.0347   1.0354   1.0356   1.0361   1.0368
     1.0375   1.0561   1.0563   1.0581   1.0586   1.0600   1.0607   1.0650
     1.0681   1.0745   1.0818   1.1196   1.1231   1.1322   1.1336   1.1341
     1.1440   1.1452   1.1472   1.1491   1.1511   1.1524   1.1541   1.1571
     1.1571   1.1574   1.1598   1.1801   1.2016   1.2018   1.2023   1.2027
     1.2183   1.2188   1.2191   1.2194   1.2203   1.2331   1.2341   1.2455
     1.2513   1.2520   1.2557   1.2580   1.2586   1.3042   1.3113   1.3218
     1.3625   1.3639   1.3654   1.3711   1.3730   1.3732   1.3815   1.3833
     1.3866   1.3880   1.3932   1.3941   1.4018   1.4020   1.4033   1.4038
     1.4153   1.4155   1.4168   1.4176   1.4177   1.4220   1.4322   1.4375
     1.4406   1.4407   1.4440   1.4464   1.4469   1.4472   1.4500   1.4521
     1.4612   1.4633   1.4634   1.4652   1.4679   1.4683   1.4693   1.4790
     1.4889   1.4896   1.4983   1.5023   1.5035   1.5078   1.5083   1.5148
     1.5154   1.5161   1.5165   1.5170   1.5191   1.5345   1.5667   1.5716
     1.5996   1.6035   1.6051   1.6055   1.6190   1.6216   1.6270   1.6277
     1.6303   1.6436   1.6473   1.6492   1.6594   1.6627   1.6688   1.6690
     1.6718   1.6745   1.6746   1.6751   1.6756   1.6774   1.6788   1.6797
     1.6797   1.6866   1.6873   1.6882   1.6999   1.7022   1.7060   1.7066
     1.7077   1.7164   1.7172   1.7191   1.7453   1.7456   1.7462   1.7512
     1.7524   1.7542   1.7544   1.7548   1.7724   1.7750   1.7750   1.7771
     1.7871   1.7889   1.7897   1.7908   1.7924   1.8019   1.8080   1.8084
     1.8091   1.8100   1.8273   1.8275   1.8293   1.8357   1.8464   1.8500
     1.8559   1.8567   1.8569   1.8589   1.8693   1.8700   1.8713   1.8731
     1.8884   1.8889   1.9028   1.9033   1.9039   1.9050   1.9223   1.9243
     1.9246   1.9250   1.9265   1.9268   1.9290   1.9291   1.9547   1.9562
     1.9634   1.9637   1.9715   1.9776   1.9839   1.9917   1.9948   1.9954
     1.9978   2.0038   2.0040   2.0111   2.0167   2.0222   2.0623   2.0628
     2.0649   2.0704   2.1651   2.1665   2.1852   2.1959   2.2037   2.2091
     2.2100   2.2315   2.2633   2.2682   2.2683   2.2698   2.2873   2.2894
     2.2900   2.3008   2.3283   2.3295   2.5178   2.5471   2.5825   2.8833
     2.8918   2.8919   2.8929   2.9598   2.9724   3.0037   3.0244   3.0288
     3.0379   3.0483   3.0504   3.0781   3.1295   3.1677   3.1854   3.1954
     3.2326   3.2393   3.2610   3.2783   3.3989   3.4008   3.6359   3.6359
     3.6793   3.6981   3.8431   3.8679   4.1435   4.1492   4.4192   4.4539
     4.4835   4.5387   4.5640   4.6077   4.6114   4.7305   4.7869   4.8008
     4.8032   4.8318   4.9043   4.9691   4.9892   5.1317   5.1775   5.2173
     5.2892   5.5582   5.5745   5.5830   5.5873   5.8302   5.8336   5.8356
     5.8360   5.8815   5.9452   6.1298   6.1688   6.2584   6.3156   6.3503
     6.5959   6.8032   6.8433   6.8757   6.8803   6.8874   6.9221   7.0142
     7.0287   7.1065   7.1397   7.1437   7.2421   7.2733   7.3127   7.4937
     7.5149   7.5346   7.5355   7.5522   7.5603   7.5812   7.5940   7.5961
     7.5993   7.8102   7.8141   7.8595   7.8855   7.9007   7.9239   7.9576
     8.0034   8.1104   8.1795   8.2171   8.2455   8.2972   8.3114   8.6120
     8.6126   8.6380   8.8273   8.8297   8.8338   8.8352   8.8512   8.8535
     8.9005   8.9560   9.0306   9.0475   9.0936   9.1762   9.1806   9.1813
     9.1893   9.2317   9.2331   9.2469   9.2671   9.3297   9.4796   9.4859
     9.5370   9.5916   9.6214   9.6372   9.6561   9.6874   9.6938   9.7269
     9.7942   9.8407   9.8471   9.8528   9.8667   9.8873   9.9337   9.9473
     9.9640   9.9849  10.0444  10.0805

          k = 0.2500 0.0000 0.0000 (256240 PWs)   bands (ev):

   -30.4674 -18.6260 -17.4034 -15.7706 -15.4365 -15.2970 -14.7765 -14.4635
   -14.3958 -14.2799 -14.0775 -13.9820 -13.3277 -13.1433 -12.8430 -12.5545
   -12.5127 -12.4434 -12.1589 -11.5700 -11.4885 -11.4398 -11.1301 -10.4223
   -10.2138 -10.1325  -9.9284  -9.5513  -9.3672  -9.0999  -9.0508  -8.6814
    -8.5117  -8.2435  -7.8717  -7.0055  -6.9842  -6.9461  -6.8405  -6.6821
    -6.6688  -6.2172  -6.0597  -5.5070  -5.3758  -5.3728  -5.3555  -5.2535
    -4.9999  -4.8407  -4.8354  -4.5988  -4.4624  -4.4447  -4.0734  -4.0208
    -3.9956  -3.9864  -3.9531  -3.8136  -3.8013  -3.6932  -3.5867  -3.5305
    -3.5284  -3.5261  -3.4517  -3.3679  -3.3666  -3.3044  -3.1943  -3.0591
    -3.0508  -3.0099  -2.9935  -2.9439  -2.8991  -2.8335  -2.7934  -2.7669
    -2.6864  -2.6694  -2.5817  -2.5459  -2.4289  -2.3651  -2.3567  -2.3247
    -2.3239  -2.2672  -2.1794  -2.1485  -2.0986  -2.0533  -1.9316  -1.9250
    -1.8650  -1.8515  -1.6246  -1.6241  -1.6076  -1.6068  -1.6035  -1.5294
    -1.5212  -1.5127  -1.4471  -1.4204  -1.4012  -1.3606  -1.3251  -1.3249
    -1.3170  -1.3168  -1.2966  -1.2919  -1.2697  -1.2578  -1.2421  -1.2420
    -1.2407  -1.1988  -1.1839  -1.1740  -1.1598  -1.1261  -1.1065  -1.1052
    -1.1034  -1.1028  -1.1026  -1.0993  -1.0518  -1.0413  -1.0269  -1.0243
    -1.0153  -1.0116  -0.8963  -0.8647  -0.8596  -0.8549  -0.8352  -0.8299
    -0.7968  -0.7931  -0.7672  -0.7658  -0.7601  -0.7563  -0.7529  -0.7454
    -0.7303  -0.7296  -0.7073  -0.7048  -0.7007  -0.6923  -0.6758  -0.6581
    -0.6574  -0.6561  -0.6534  -0.6495  -0.6356  -0.6339  -0.6143  -0.6015
    -0.5879  -0.5817  -0.5754  -0.5743  -0.5740  -0.5522  -0.5425  -0.5411
    -0.5362  -0.5324  -0.5262  -0.5184  -0.5164  -0.5060  -0.5059  -0.5037
    -0.5027  -0.4995  -0.4983  -0.4881  -0.4851  -0.4718  -0.4686  -0.4672
    -0.4621  -0.4434  -0.4274  -0.4232  -0.4196  -0.3769  -0.3745  -0.3386
    -0.3382  -0.3203  -0.3173  -0.3128  -0.2938  -0.2932  -0.2793  -0.2785
    -0.2757  -0.2716  -0.2674  -0.2639  -0.2476  -0.2203  -0.1275  -0.1244
    -0.1237  -0.1207  -0.1073  -0.0911  -0.0903  -0.0901  -0.0737  -0.0723
    -0.0720  -0.0713  -0.0548  -0.0504  -0.0502  -0.0465  -0.0433  -0.0395
    -0.0106  -0.0090  -0.0083  -0.0058  -0.0045   0.0017   0.0157   0.0167
     0.0173   0.0208   0.0744   0.0778   0.0782   0.0783   0.0857   0.0894
     0.0964   0.1026   0.1070   0.1201   0.1203   0.1411   0.1434   0.1438
     0.1487   0.1815   0.1817   0.1860   0.1862   0.1946   0.1952   0.2060
     0.2082   0.2088   0.2175   0.2233   0.2375   0.2452   0.2468   0.2748
     0.2763   0.2779   0.2803   0.2817   0.2943   0.2952   0.2965   0.2988
     0.3061   0.3249   0.3251   0.3341   0.3368   0.3395   0.3499   0.3636
     0.3658   0.3659   0.3884   0.4108   0.4127   0.4146   0.4204   0.4208
     0.4346   0.4564   0.4568   0.4632   0.4641   0.4679   0.4696   0.4712
     0.4769   0.4814   0.4826   0.4833   0.4846   0.4867   0.4897   0.5039
     0.5087   0.5101   0.5107   0.5160   0.5178   0.5351   0.5352   0.5457
     0.5511   0.5548   0.5702   0.5905   0.5912   0.5936   0.5942   0.5968
     0.6094   0.6133   0.6155   0.6174   0.6182   0.6199   0.6462   0.6545
     0.6621   0.6764   0.7227   0.7296   0.7301   0.7337   0.7449   0.7469
     0.7505   0.7512   0.7520   0.7596   0.7613   0.7624   0.7654   0.7671
     0.7687   0.7729   0.7802   0.7835   0.7849   0.7861   0.7925   0.7981
     0.8018   0.8052   0.8080   0.8111   0.8138   0.8320   0.8379   0.8432
     0.8708   0.8714   0.8825   0.8867   0.9001   0.9006   0.9178   0.9190
     0.9197   0.9231   0.9297   0.9380   0.9503   0.9533   0.9554   0.9628
     0.9632   0.9644   0.9677   0.9729   0.9739   0.9829   0.9939   1.0019
     1.0063   1.0192   1.0210   1.0217   1.0249   1.0268   1.0278   1.0313
     1.0321   1.0437   1.0549   1.0566   1.0583   1.0629   1.0682   1.0725
     1.0736   1.0749   1.0857   1.0867   1.0914   1.0940   1.0966   1.1138
     1.1158   1.1334   1.1341   1.1386   1.1404   1.1454   1.1459   1.1480
     1.1634   1.1784   1.1823   1.1997   1.2047   1.2174   1.2180   1.2218
     1.2238   1.2268   1.2286   1.2426   1.2472   1.2514   1.2546   1.2553
     1.2643   1.2672   1.2793   1.2794   1.2820   1.2918   1.3003   1.3010
     1.3017   1.3124   1.3301   1.3317   1.3335   1.3341   1.3533   1.3575
     1.3636   1.3671   1.3690   1.3702   1.3712   1.3781   1.3800   1.3832
     1.3857   1.4029   1.4205   1.4226   1.4247   1.4281   1.4315   1.4318
     1.4447   1.4469   1.4625   1.4633   1.4666   1.4691   1.4709   1.4763
     1.4788   1.4823   1.4922   1.4950   1.4957   1.4959   1.4983   1.4995
     1.5001   1.5033   1.5079   1.5086   1.5100   1.5131   1.5166   1.5215
     1.5340   1.5356   1.5373   1.5418   1.5436   1.5449   1.5521   1.5528
     1.5607   1.5674   1.5688   1.5804   1.5834   1.5837   1.5861   1.5874
     1.5974   1.6093   1.6120   1.6132   1.6227   1.6247   1.6319   1.6337
     1.6343   1.6357   1.6381   1.6513   1.6585   1.6644   1.6688   1.6702
     1.6994   1.7043   1.7094   1.7155   1.7206   1.7210   1.7250   1.7295
     1.7305   1.7310   1.7333   1.7393   1.7447   1.7515   1.7556   1.7563
     1.7574   1.7628   1.7739   1.7762   1.7774   1.7776   1.7820   1.7875
     1.7894   1.7904   1.7927   1.7935   1.7998   1.8006   1.8035   1.8068
     1.8103   1.8184   1.8258   1.8291   1.8308   1.8328   1.8332   1.8357
     1.8368   1.8519   1.8561   1.8564   1.8573   1.8788   1.8794   1.8876
     1.8883   1.8959   1.8990   1.8996   1.9012   1.9035   1.9041   1.9058
     1.9103   1.9113   1.9123   1.9167   1.9181   1.9330   1.9397   1.9403
     1.9417   1.9431   1.9454   1.9458   1.9549   1.9594   1.9597   1.9688
     1.9710   1.9825   1.9831   1.9892   1.9914   1.9925   1.9933   2.0115
     2.0225   2.0312   2.0485   2.0580   2.0861   2.0998   2.1017   2.1050
     2.1309   2.1408   2.1958   2.2293   2.2364   2.2382   2.2431   2.2581
     2.2750   2.3124   2.3783   2.5058   2.5187   2.5418   2.5492   2.5612
     2.5674   2.6501   2.7055   2.7248   2.7544   3.0107   3.0246   3.0372
     3.0452   3.0821   3.1339   3.4508   3.4514   3.4842   3.6674   3.6679
     3.6927   3.6928   3.7441   3.7523   3.9143   3.9406   4.0508   4.0562
     4.1041   4.1065   4.1747   4.1771   4.1912   4.1930   4.2375   4.3443
     4.3461   4.4418   4.4425   4.5248   4.6098   4.6341   4.6857   4.7358
     4.7517   4.8293   4.9124   5.0485   5.1840   5.2565   5.3125   5.3245
     5.6191   5.6918   5.6942   5.7037   5.7795   5.8306   5.8842   5.9397
     5.9434   5.9781   6.0353   6.0543   6.0735   6.1268   6.1469   6.2048
     6.2131   6.2701   6.2876   6.3460   6.4499   6.4812   6.4923   6.5281
     6.5655   7.1178   7.1245   7.1579   7.1672   7.1779   7.2191   7.2341
     7.2704   7.3408   7.3891   7.4876   7.4928   7.4985   7.5015   7.5376
     7.5503   7.5634   7.7207   7.7317   7.7763   7.7887   7.8274   7.9240
     7.9989   8.0222   8.0387   8.0817   8.1310   8.1699   8.2197   8.2613
     8.4643   8.4755   8.4810   8.5268   8.5338   8.5663   8.6593   8.6862
     8.7139   8.7521   8.7671   8.7800   8.7840   8.7987   8.8160   8.8832
     8.9004   8.9206   9.1001   9.1120   9.1138   9.1617   9.2349   9.3063
     9.3895   9.4410   9.4593   9.5069   9.6166   9.6379   9.6413   9.6583
     9.6779   9.6829   9.7318   9.7408   9.8629   9.8779   9.9342   9.9348
     9.9869   9.9991  10.1017  10.1231

          k = 0.2500-0.2165 0.0000 (256316 PWs)   bands (ev):

   -30.4674 -18.6260 -17.4034 -15.7265 -15.6006 -14.9514 -14.8829 -14.7408
   -14.5406 -14.0593 -13.9820 -13.7623 -13.4466 -13.3460 -12.8160 -12.6392
   -12.5064 -12.3570 -12.0880 -11.8257 -11.3433 -11.2460 -10.7554 -10.6089
   -10.4368 -10.3303 -10.1626  -9.7958  -9.0751  -8.8807  -8.5579  -8.5118
    -8.3426  -8.2655  -7.9180  -7.8130  -7.6365  -7.4990  -6.1201  -6.0919
    -6.0291  -6.0060  -5.9391  -5.7899  -5.6619  -5.4628  -5.3745  -5.2351
    -5.2284  -5.1393  -4.5761  -4.4952  -4.3623  -4.3104  -4.2338  -4.2028
    -4.1982  -4.1135  -3.8766  -3.8739  -3.8703  -3.8109  -3.6658  -3.6245
    -3.5423  -3.4420  -3.3774  -3.2931  -3.2753  -3.1576  -3.1261  -3.0694
    -2.9888  -2.9856  -2.9849  -2.9707  -2.9152  -2.8335  -2.6911  -2.6428
    -2.6131  -2.5464  -2.5313  -2.4541  -2.4398  -2.4359  -2.4351  -2.3652
    -2.3550  -2.2695  -2.1954  -2.1348  -2.0293  -1.9453  -1.8419  -1.8377
    -1.8038  -1.7919  -1.7421  -1.7049  -1.6931  -1.6930  -1.6876  -1.5639
    -1.5343  -1.5339  -1.4977  -1.4941  -1.4834  -1.4036  -1.3709  -1.3440
    -1.3373  -1.3365  -1.3241  -1.2809  -1.2718  -1.2492  -1.2473  -1.2346
    -1.2307  -1.2249  -1.2202  -1.2093  -1.2031  -1.2004  -1.1999  -1.1927
    -1.1910  -1.1895  -1.1073  -1.1015  -0.9935  -0.9925  -0.8956  -0.8918
    -0.8900  -0.8829  -0.8536  -0.8529  -0.8266  -0.8005  -0.7990  -0.7856
    -0.7853  -0.7795  -0.7733  -0.7714  -0.7621  -0.7564  -0.7501  -0.7479
    -0.7377  -0.7322  -0.7287  -0.7239  -0.7227  -0.7150  -0.7121  -0.7055
    -0.6642  -0.6603  -0.6564  -0.6496  -0.6487  -0.6446  -0.6369  -0.6359
    -0.6261  -0.6181  -0.6076  -0.6061  -0.5745  -0.5635  -0.5631  -0.5563
    -0.5520  -0.5498  -0.5364  -0.5186  -0.5182  -0.5062  -0.5005  -0.4959
    -0.4846  -0.4838  -0.4802  -0.4789  -0.4723  -0.4705  -0.4484  -0.4462
    -0.4269  -0.4244  -0.3933  -0.3864  -0.3848  -0.3847  -0.3334  -0.3044
    -0.3011  -0.3000  -0.2960  -0.2933  -0.2916  -0.2791  -0.2476  -0.2456
    -0.2361  -0.2359  -0.2284  -0.2282  -0.2193  -0.2167  -0.2097  -0.1780
    -0.1764  -0.1438  -0.1370  -0.1327  -0.1028  -0.0922  -0.0910  -0.0881
    -0.0862  -0.0838  -0.0578  -0.0569  -0.0510  -0.0411  -0.0381  -0.0250
    -0.0240  -0.0141  -0.0108  -0.0095   0.0167   0.0183   0.0217   0.0320
     0.0386   0.0390   0.0680   0.0684   0.0811   0.0829   0.0903   0.0957
     0.0967   0.1072   0.1077   0.1126   0.1131   0.1181   0.1187   0.1242
     0.1246   0.1406   0.1446   0.1474   0.1595   0.1602   0.1842   0.1927
     0.2025   0.2061   0.2175   0.2259   0.2371   0.2375   0.2472   0.2540
     0.2587   0.2588   0.2618   0.2656   0.2955   0.3024   0.3227   0.3229
     0.3584   0.3591   0.3679   0.3682   0.3713   0.3721   0.3839   0.3890
     0.3892   0.4025   0.4063   0.4074   0.4200   0.4252   0.4300   0.4309
     0.4330   0.4358   0.4374   0.4388   0.4617   0.4652   0.4726   0.4729
     0.4735   0.4744   0.4753   0.4779   0.4794   0.4813   0.4846   0.4862
     0.5070   0.5074   0.5078   0.5081   0.5410   0.5423   0.5499   0.5514
     0.5540   0.5551   0.5681   0.5761   0.5772   0.5915   0.6004   0.6070
     0.6079   0.6168   0.6195   0.6263   0.6273   0.6305   0.6337   0.6448
     0.6479   0.6523   0.6549   0.6800   0.6831   0.7094   0.7437   0.7470
     0.7569   0.7579   0.7588   0.7600   0.7620   0.7631   0.7689   0.7704
     0.7721   0.7722   0.7908   0.7945   0.7970   0.8006   0.8049   0.8054
     0.8069   0.8135   0.8137   0.8197   0.8404   0.8442   0.8564   0.8567
     0.8672   0.8686   0.8802   0.8812   0.9160   0.9207   0.9246   0.9289
     0.9303   0.9344   0.9349   0.9433   0.9463   0.9476   0.9537   0.9550
     0.9557   0.9604   0.9620   0.9661   0.9872   0.9879   0.9954   0.9970
     1.0071   1.0096   1.0349   1.0437   1.0443   1.0452   1.0455   1.0744
[...]
     atom   62 type  1   force =    -0.00000272   -0.00002660   -0.00007455
     atom   63 type  1   force =    -0.00003588   -0.00003032   -0.00001750
     atom   64 type  1   force =    -0.00000411   -0.00000771    0.00002236
     atom   65 type  1   force =     0.00004471   -0.00000824    0.00005035
     atom   66 type  1   force =    -0.00004815    0.00003341    0.00010419
     atom   67 type  1   force =    -0.00013520    0.00007927    0.00008056
     atom   68 type  1   force =    -0.00003304   -0.00012596   -0.00012317
     atom   69 type  1   force =     0.00001600   -0.00001344    0.00015228
     atom   70 type  1   force =    -0.00000675   -0.00004808    0.00031652
     atom   71 type  1   force =    -0.00012970   -0.00007644    0.00008966
     atom   72 type  1   force =    -0.00005947   -0.00005093    0.00022169
     atom   73 type  1   force =     0.00001421   -0.00004294   -0.00002340
     atom   74 type  1   force =    -0.00010765   -0.00011913    0.00015352
     atom   75 type  1   force =    -0.00004829    0.00002613   -0.00005528
     atom   76 type  1   force =    -0.00002070    0.00002053    0.00005990
     atom   77 type  1   force =     0.00002160    0.00001957   -0.00001515
     atom   78 type  1   force =     0.00000469    0.00002497   -0.00003749
     atom   79 type  1   force =     0.00001842   -0.00000707    0.00001553
     atom   80 type  1   force =     0.00003047    0.00002584   -0.00002079
     atom   81 type  1   force =    -0.00004118    0.00004761   -0.00006897
     atom   82 type  1   force =     0.00001542   -0.00000998   -0.00024464
     atom   83 type  1   force =     0.00000764   -0.00002863   -0.00016432
     atom   84 type  1   force =    -0.00005149   -0.00005890   -0.00013485
     atom   85 type  1   force =    -0.00005870   -0.00002348   -0.00050064
     atom   86 type  1   force =    -0.00021711   -0.00063912   -0.00077855
     atom   87 type  1   force =     0.00004071   -0.00001975   -0.00038885
     atom   88 type  1   force =     0.00032973   -0.00060358   -0.00152007
     atom   89 type  1   force =     0.00006994   -0.00008604   -0.00020940
     atom   90 type  1   force =    -0.00033433    0.00023082   -0.00040083
     atom   91 type  1   force =    -0.00007322    0.00033733    0.00689509
     atom   92 type  1   force =     0.00033907    0.00019033   -0.00086165
     atom   93 type  1   force =    -0.00012049    0.00001646    0.00002410
     atom   94 type  1   force =    -0.00003360   -0.00004941   -0.00023392
     atom   95 type  1   force =    -0.00009538    0.00049996   -0.00061417
     atom   96 type  1   force =    -0.00006951   -0.00002579   -0.00010261
     atom   97 type  1   force =     0.00002020    0.00003384   -0.00016251
     atom   98 type  1   force =     0.00001714    0.00005753   -0.00008001
     atom   99 type  1   force =    -0.00002972   -0.00004041   -0.00014698
     atom  100 type  1   force =    -0.00001239    0.00000532   -0.00005750
     atom  101 type  2   force =     0.00005798   -0.00015452    0.00093666
     atom  102 type  2   force =     0.00001929   -0.00058410   -0.00056136
     atom  103 type  2   force =     0.00064324   -0.00015577   -0.00024491
     atom  104 type  2   force =    -0.00042699   -0.00036166   -0.00088661
     atom  105 type  2   force =    -0.00005573   -0.00027825   -0.00083905
     atom  106 type  2   force =     0.00094219    0.00054243    0.00017722
     atom  107 type  2   force =     0.00014103    0.00021423   -0.00009016
     atom  108 type  2   force =     0.00002440   -0.00320284    0.00046697
     atom  109 type  2   force =    -0.00011978   -0.00042666    0.00084046
     atom  110 type  2   force =    -0.00058297    0.00006996    0.00023475
     atom  111 type  2   force =    -0.00004951    0.00008168   -0.00001001
     atom  112 type  2   force =     0.00020222    0.00001190   -0.00120390
     atom  113 type  2   force =    -0.00062750    0.00104965    0.00045492
     atom  114 type  2   force =     0.00210396   -0.00021491   -0.00956870
     atom  115 type  2   force =    -0.00037836   -0.00242611   -0.00386696
     atom  116 type  2   force =     0.00135867    0.00014758   -0.00454500
     atom  117 type  2   force =     0.00198255    0.00039567   -0.00196608
     atom  118 type  2   force =     0.03236064    0.02258347    0.06764297
     atom  119 type  2   force =    -0.00096450    0.00037282    0.00381799
     atom  120 type  2   force =    -0.01573209    0.01274388   -1.20752938
     atom  121 type  3   force =    -0.42761848   -0.03822876    0.76145402
     atom  122 type  4   force =     0.44768185    0.00631723    0.29781737
     atom  123 type  2   force =    -0.00097918    0.00094651   -0.00197720
     atom  124 type  2   force =    -0.03469078    0.01757625    0.05147785
     atom  125 type  2   force =     0.00087544   -0.00367792   -0.00322460
     atom  126 type  2   force =    -0.00357064   -0.00000993   -0.00203034
     atom  127 type  2   force =     0.00036656    0.00175098    0.00081512
     atom  128 type  2   force =    -0.00018441   -0.00097761    0.00057849
     atom  129 type  2   force =    -0.00108600    0.00052954    0.00503991
     atom  130 type  2   force =     0.00086217    0.00059234   -0.00096081
     atom  131 type  2   force =     0.00285156    0.00068215   -0.00312126
     atom  132 type  2   force =    -0.00247296    0.00289420   -0.00412168
     atom  133 type  2   force =    -0.00371304   -0.02452109    0.04949531
     atom  134 type  2   force =     0.00015435   -0.00046639    0.00043304
     atom  135 type  2   force =    -0.00303276   -0.00094476   -0.00324844
     atom  136 type  2   force =     0.00239457    0.00393989   -0.00409572
     atom  137 type  2   force =     0.00072405    0.00176387    0.00476708
     atom  138 type  2   force =    -0.00058562    0.00043735    0.00015883
     atom  139 type  2   force =    -0.00007220    0.00055778   -0.00001499
     atom  140 type  2   force =     0.00010973    0.00015448    0.00100806
     atom  141 type  2   force =    -0.00009263    0.00013632   -0.00124296
     atom  142 type  2   force =     0.00012437    0.00031800    0.00002746
     atom  143 type  2   force =     0.00013605    0.00017016    0.00005902
     atom  144 type  2   force =     0.00028043    0.00016635   -0.00020290
     atom  145 type  2   force =     0.00025102    0.00025517    0.00095369
     atom  146 type  2   force =     0.00019273    0.00007038    0.00014231
     atom  147 type  2   force =     0.00017923    0.00012842   -0.00004101
     atom  148 type  2   force =     0.00007950    0.00012114    0.00002810
     atom  149 type  2   force =     0.00043519   -0.00023273   -0.00105690
     atom  150 type  2   force =    -0.00006024    0.00051855   -0.00038175

     Total force =     1.589228     Total SCF correction =     0.000385

     number of scf cycles    =   2
     number of bfgs steps    =   1

     energy   old            =  -12724.8806600637 Ry
     energy   new            =  -12731.4849713451 Ry

     CASE: energy  _new < energy  _old

     new trust radius        =       0.5534901620 bohr
     new conv_thr            =       0.0000000100 Ry


ATOMIC_POSITIONS (angstrom)
Cu      -0.000174272   0.001656538   7.364164668
Cu       1.844484210   1.705761006   7.364297872
Cu       3.688919943   0.001598700   7.364193454
Cu       5.533461877   1.705663162   7.364089964
Cu       0.000074004   3.408432387   7.363326573
Cu       1.844425569   5.111269308   7.360908897
Cu       3.689009217   3.408419022   7.362507508
Cu       5.533819738   5.111251483   7.360882248
Cu       0.000158362   6.814924340   7.360029610
Cu       1.844663411   8.518509760   7.361254119
Cu       3.689095040   6.814733075   7.359887511
Cu       5.533565910   8.518462753   7.361187706
Cu      -0.000053987  10.221407283   7.363482909
Cu       1.844513305  11.924089212   7.365338490
Cu       3.689088342  10.221531453   7.363800762
Cu       5.533372713  11.924576297   7.364927566
Cu       0.000080098  13.628599266   7.364911501
Cu       1.844194644  15.334843318   7.364275983
Cu       3.688625059  13.628672942   7.364714843
Cu       5.533508382  15.334505066   7.363920933
Cu       0.000185340   1.706513063   9.197423663
Cu       1.844643947   0.001440264   9.195549255
Cu       3.689320604   1.707461663   9.197580561
Cu       5.533559827   0.001448365   9.195467803
Cu       0.000603387   5.114065567   9.196043045
Cu       1.845013122   3.411328090   9.197739769
Cu       3.689469620   5.113401382   9.195061461
Cu       5.533861281   3.411247721   9.197281855
Cu       0.000502446   8.516067690   9.195374011
Cu       1.845089105   6.814788447   9.194410848
Cu       3.689577033   8.515669760   9.195385130
Cu       5.534095556   6.814759283   9.194037602
Cu       0.000192570  11.922574171   9.197977356
Cu       1.845121878  10.218209216   9.198154439
Cu       3.689225351  11.922641857   9.198911576
Cu       5.533714550  10.218336553   9.197790215
Cu      -0.000000454  15.334626225   9.194627179
Cu       1.844584608  13.628544706   9.196180830
Cu       3.689004305  15.334460469   9.194323013
Cu       5.533553767  13.628480378   9.196084911
Cu       0.000537294  -0.000526970  11.035807861
Cu       1.845981686   1.706412319  11.037027933
Cu       3.689593210  -0.000254475  11.034781114
Cu       5.533771847   1.707124173  11.037479303
Cu       0.000907129   3.413526129  11.038660664
Cu       1.846468068   5.117934657  11.041998775
Cu       3.690368686   3.415690827  11.041786216
Cu       5.534224883   5.117935566  11.041652169
Cu       0.001097143   6.816751689  11.042542027
Cu       1.846294806   8.512292633  11.042160036
Cu       3.690707922   6.814486867  11.042531207
Cu       5.534558937   8.511964476  11.042144343
Cu       0.001160475  10.214649034  11.040734495
Cu       1.845457057  11.921667126  11.038132843
Cu       3.690287528  10.212502422  11.042349707
Cu       5.534307533  11.921180556  11.038226100
Cu       0.000394943  13.628981634  11.035343232
Cu       1.844845917  15.334412717  11.035047086
Cu       3.689675185  13.630383633  11.035990726
Cu       5.534035969  15.334433799  11.034733524
Cu       0.001281328   1.704770009  12.869659812
Cu       1.846509921  -0.002050438  12.875073096
Cu       3.690644405   1.701890004  12.874053780
Cu       5.533924360  -0.002086066  12.874367726
Cu       0.001303483   5.117113310  12.882377197
Cu       1.850498879   3.413012024  12.875957811
Cu       3.691524086   5.123003220  12.897096188
Cu       5.530964070   3.414465649  12.877969932
Cu       0.001859582   8.512979287  12.893474528
Cu       1.849541608   6.816871796  12.896212063
Cu       3.691661065   8.505579709  12.896467498
Cu       5.532582454   6.816278988  12.898474805
Cu       0.001560341  11.923888312  12.874309766
Cu       1.845934190  10.213345603  12.880220558
Cu       3.691005183  11.923958478  12.869865630
Cu       5.536564232  10.212445071  12.880624678
Cu       0.001123176  15.332615339  12.876845705
Cu       1.844592611  13.630986199  12.873698519
Cu       3.690024207  15.336036780  12.877436617
Cu       5.536002456  13.631076759  12.873498552
Cu       0.001835550   0.001823016  14.686946068
Cu       1.844758450   1.702279312  14.685304520
Cu       3.690191846   0.000050556  14.701156518
Cu       5.536388242   1.702758412  14.684233266
Cu       0.002531516   3.407891334  14.675486219
Cu       1.861471292   5.106886709  14.703812759
Cu       3.689589733   3.392291942  14.699609288
Cu       5.519469767   5.105773473  14.709450274
Cu       0.001585977   6.802491980  14.705455659
Cu       1.846261291   8.521258209  14.719108798
Cu       3.691210988   6.823274640  14.767432093
Cu       5.536478360   8.522377740  14.721092812
Cu       0.003375043  10.227710712  14.700660664
Cu       1.844007027  11.927387143  14.683398147
Cu       3.691142015  10.228217918  14.685090365
Cu       5.538911855  11.926127541  14.682690382
Cu       0.001300345  13.629546433  14.698554805
Cu       1.846033635  15.332956230  14.694043599
Cu       3.691427520  13.625893168  14.685136825
Cu       5.535103754  15.333949069  14.693248646
C       -0.002292182   0.711975802  17.620249751
C       -0.001438577   2.130026366  17.606284981
C        1.227436785   0.003131423  17.623765345
C        1.226324927   2.839190907  17.580035225
C        2.455919076   0.712350277  17.606424237
C        2.456603636   2.131152085  17.581146231
C        3.686636585   0.002086619  17.600753757
C        3.687616655   2.843757467  17.564687194
C        4.917638160   0.712405433  17.599003172
C        4.918540077   2.131207545  17.576901242
C        6.145959520   0.003066223  17.618410442
C        6.149321092   2.839230827  17.578529633
C       -0.000418637   4.969086663  17.531730169
C        0.001005576   6.388752465  17.489154526
C        1.226029001   4.256235628  17.539308344
C        1.232437745   7.096776040  17.536523381
C        2.455141675   4.973298948  17.545644132
C        2.460328533   6.394073472  17.624242744
C        3.687914266   4.259789574  17.564611851
C        3.688136577   7.098906165  18.183219138
O        3.459320008   7.069621284  19.317486479
H        4.648376536   7.087452698  20.017945035
C        4.922661541   4.973112884  17.541833389
C        4.915932989   6.391518825  17.607654132
C        6.151663049   4.255621154  17.538250432
C        6.144452761   7.096912775  17.534464233
C       -0.000343840   9.230218627  17.553906020
C       -0.001711111  10.653830477  17.546077725
C        1.228767259   8.523239684  17.560582141
C        1.228652292  11.366128426  17.566268172
C        2.464827897   9.238378027  17.574025991
C        2.457177236  10.660223143  17.570337721
C        3.686076348   8.532384329  17.649833137
C        3.687030888  11.366525807  17.595511413
C        4.911173273   9.237542066  17.575390793
C        4.917141260  10.660675684  17.568745829
C        6.148110629   8.524000202  17.559972514
C        6.145531985  11.366168447  17.561637505
C       -0.002639440  13.495469210  17.590398916
C       -0.002729320  14.914237780  17.615009826
C        1.228152529  12.785197952  17.593442191
C        1.226656165  15.623231227  17.619473731
C        2.456979522  13.494045146  17.616928884
C        2.457152913  14.913121592  17.620945897
C        3.686400239  12.785969468  17.613337707
C        3.686217237  15.621997307  17.622654281
C        4.915578005  13.494116051  17.614316293
C        4.915233818  14.913140795  17.618399228
C        6.144774916  12.785312642  17.589567238
C        6.145862062  15.623124487  17.616785337



     Writing output data file gc.save
     Check: negative starting charge=(component1):   -0.001767
     NEW-OLD atomic charge density approx. for the potential
     Check: negative starting charge=(component1):   -0.001749

     negative rho (up, down):  9.035E-04 9.035E-04

     total cpu time spent up to now is    34333.3 secs

     Self-consistent Calculation

     iteration #  1     ecut=    80.00 Ry     beta=0.70
     Davidson diagonalization with overlap
     c_bands:  1 eigenvalues not converged
     c_bands:  2 eigenvalues not converged
     c_bands:  1 eigenvalues not converged
     ethr =  1.00E-06,  avg # of iterations = 15.2

     negative rho (up, down):  4.238E-03 4.238E-03

     total cpu time spent up to now is    35434.5 secs

     total energy              =  -12731.56398270 Ry
     Harris-Foulkes estimate   =  -12731.61163839 Ry
     estimated scf accuracy    <       0.14821385 Ry

     total magnetization       =     0.00 Bohr mag/cell
     absolute magnetization    =     0.00 Bohr mag/cell

     iteration #  2     ecut=    80.00 Ry     beta=0.70
     Davidson diagonalization with overlap
     ethr =  1.14E-05,  avg # of iterations =  3.7

     negative rho (up, down):  7.235E-03 7.235E-03

     total cpu time spent up to now is    35867.6 secs

     total energy              =  -12731.57091206 Ry
     Harris-Foulkes estimate   =  -12731.57701030 Ry
     estimated scf accuracy    <       0.02927046 Ry

     total magnetization       =     0.00 Bohr mag/cell
     absolute magnetization    =     0.00 Bohr mag/cell

     iteration #  3     ecut=    80.00 Ry     beta=0.70
     Davidson diagonalization with overlap
     ethr =  2.25E-06,  avg # of iterations =  6.7

     negative rho (up, down):  8.525E-03 8.525E-03

     total cpu time spent up to now is    36379.5 secs

     total energy              =  -12731.57054861 Ry
     Harris-Foulkes estimate   =  -12731.57237007 Ry
     estimated scf accuracy    <       0.01424342 Ry

     total magnetization       =     0.00 Bohr mag/cell
     absolute magnetization    =     0.00 Bohr mag/cell

     iteration #  4     ecut=    80.00 Ry     beta=0.70
     Davidson diagonalization with overlap
     ethr =  1.10E-06,  avg # of iterations =  2.5

     negative rho (up, down):  8.814E-03 8.814E-03

     total cpu time spent up to now is    36765.6 secs

     total energy              =  -12731.57047312 Ry
     Harris-Foulkes estimate   =  -12731.57132589 Ry
     estimated scf accuracy    <       0.00561434 Ry

     total magnetization       =     0.00 Bohr mag/cell
     absolute magnetization    =     0.00 Bohr mag/cell

     iteration #  5     ecut=    80.00 Ry     beta=0.70
     Davidson diagonalization with overlap
     ethr =  4.32E-07,  avg # of iterations =  4.5

     negative rho (up, down):  6.674E-03 6.674E-03

     total cpu time spent up to now is    37195.9 secs

     total energy              =  -12731.57043788 Ry
     Harris-Foulkes estimate   =  -12731.57078304 Ry
     estimated scf accuracy    <       0.00154275 Ry

     total magnetization       =     0.00 Bohr mag/cell
     absolute magnetization    =     0.00 Bohr mag/cell

     iteration #  6     ecut=    80.00 Ry     beta=0.70
     Davidson diagonalization with overlap
     ethr =  1.19E-07,  avg # of iterations =  7.8

     negative rho (up, down):  5.074E-03 5.074E-03

     total cpu time spent up to now is    37717.8 secs

     total energy              =  -12731.57042552 Ry
     Harris-Foulkes estimate   =  -12731.57051065 Ry
     estimated scf accuracy    <       0.00020579 Ry

     total magnetization       =     0.00 Bohr mag/cell
     absolute magnetization    =     0.00 Bohr mag/cell

     iteration #  7     ecut=    80.00 Ry     beta=0.70
     Davidson diagonalization with overlap
     ethr =  1.58E-08,  avg # of iterations =  2.9

     negative rho (up, down):  3.185E-03 3.185E-03

     total cpu time spent up to now is    38109.7 secs

     total energy              =  -12731.57036986 Ry
     Harris-Foulkes estimate   =  -12731.57043944 Ry
     estimated scf accuracy    <       0.00008999 Ry

     total magnetization       =     0.00 Bohr mag/cell
     absolute magnetization    =     0.00 Bohr mag/cell

     iteration #  8     ecut=    80.00 Ry     beta=0.70
     Davidson diagonalization with overlap
     ethr =  6.93E-09,  avg # of iterations =  8.0

     negative rho (up, down):  1.712E-03 1.712E-03

     total cpu time spent up to now is    38633.0 secs

     total energy              =  -12731.57034158 Ry
     Harris-Foulkes estimate   =  -12731.57037535 Ry
     estimated scf accuracy    <       0.00003361 Ry

     total magnetization       =     0.00 Bohr mag/cell
     absolute magnetization    =     0.00 Bohr mag/cell

     iteration #  9     ecut=    80.00 Ry     beta=0.70
     Davidson diagonalization with overlap
     ethr =  2.59E-09,  avg # of iterations =  6.0

     negative rho (up, down):  1.276E-03 1.276E-03

     total cpu time spent up to now is    39108.2 secs

     total energy              =  -12731.57033762 Ry
     Harris-Foulkes estimate   =  -12731.57034293 Ry
     estimated scf accuracy    <       0.00000921 Ry

     total magnetization       =     0.00 Bohr mag/cell
     absolute magnetization    =     0.00 Bohr mag/cell

     iteration # 10     ecut=    80.00 Ry     beta=0.70
     Davidson diagonalization with overlap
