
     Program PWSCF v.5.4.0 starts on 11Apr2017 at 14: 1:11 

     This program is part of the open-source Quantum ESPRESSO suite
     for quantum simulation of materials; please cite
         "P. Giannozzi et al., J. Phys.:Condens. Matter 21 395502 (2009);
          URL http://www.quantum-espresso.org", 
     in publications or presentations arising from this work. More details at
     http://www.quantum-espresso.org/quote

     Parallel version (MPI & OpenMP), running on      56 processor cores
     Number of MPI processes:                56
     Threads/MPI process:                     1
     R & G space division:  proc/nbgrp/npool/nimage =      56
     Waiting for input...
     Reading input from standard input

     Current dimensions of program PWSCF are:
     Max number of different atomic species (ntypx) = 10
     Max number of k-points (npk) =  40000
     Max angular momentum in pseudopotentials (lmaxx) =  3
     WARNING: atomic wfc #  2 for atom type 3 has zero norm
     WARNING: atomic wfc #  4 for atom type 3 has zero norm
     WARNING: atomic wfc #  5 for atom type 3 has zero norm

     -------------------------------------
     Parameters for Dispersion Correction:
     -------------------------------------
       atom      VdW radius       C_6     

        Cu         2.952        374.666
        C          2.744         60.710
        O          2.536         24.284
        H          1.892          4.857

     Subspace diagonalization in iterative solution of the eigenvalue problem:
     one sub-group per band group will be used
     scalapack distributed-memory algorithm (size of sub-group:  5*  5 procs)

 
     Parallelization info
     --------------------
     sticks:   dense  smooth     PW     G-vecs:    dense   smooth      PW
     Min         204     204     54                36612    36612    4962
     Max         205     205     55                36617    36617    4968
     Sum       11433   11433   3039              2050409  2050409  278033
 


     bravais-lattice index     =            0
     lattice parameter (alat)  =      13.9425  a.u.
     unit-cell volume          =   21209.0878 (a.u.)^3
     number of atoms/cell      =          150
     number of atomic types    =            4
     number of electrons       =      1299.00
     number of Kohn-Sham states=          780
     kinetic-energy cutoff     =      80.0000  Ry
     charge density cutoff     =     320.0000  Ry
     convergence threshold     =      1.0E-08
     mixing beta               =       0.7000
     number of iterations used =            8  local-TF  mixing
     Exchange-correlation      =  SLA  PW   PBE  PBE ( 1  4  3  4 0 0)
     nstep                     =           50


     celldm(1)=  13.942539  celldm(2)=   0.000000  celldm(3)=   0.000000
     celldm(4)=   0.000000  celldm(5)=   0.000000  celldm(6)=   0.000000

     crystal axes: (cart. coord. in units of alat)
               a(1) = (   1.000000   0.000000   0.000000 )  
               a(2) = (   0.000000   2.309401   0.000000 )  
               a(3) = (   0.000000   0.000000   3.388418 )  

     reciprocal axes: (cart. coord. in units 2 pi/alat)
               b(1) = (  1.000000  0.000000  0.000000 )  
               b(2) = (  0.000000  0.433013  0.000000 )  
               b(3) = (  0.000000  0.000000  0.295123 )  


     PseudoPot. # 1 for Cu read from file:
     /home/549/hxw549/Short/pseudopotentials/Cu.pbe-n-van_ak.UPF
     MD5 check sum: 601f7c30f7467666bec936e0661ce3e1
     Pseudo is Ultrasoft + core correction, Zval = 11.0
     Generated by new atomic code, or converted to UPF format
     Using radial grid of  867 points,  6 beta functions with: 
                l(1) =   0
                l(2) =   0
                l(3) =   1
                l(4) =   1
                l(5) =   2
                l(6) =   2
     Q(r) pseudized with  8 coefficients,  rinner =    1.400   1.400   1.400
                                                       1.400   1.400

     PseudoPot. # 2 for C  read from file:
     /home/549/hxw549/Short/pseudopotentials/C.pbe-mt_gipaw.UPF
     MD5 check sum: 5ac2f21f2c440b14befe521540822c15
     Pseudo is Norm-conserving, Zval =  4.0
     Generated by new atomic code, or converted to UPF format
     Using radial grid of 1073 points,  1 beta functions with: 
                l(1) =   0

     PseudoPot. # 3 for O  read from file:
     /home/549/hxw549/Short/pseudopotentials/O.pbe-van_gipaw.UPF
     MD5 check sum: 5ce2a047509d4f331db576c963e74b29
     Pseudo is Ultrasoft, Zval =  6.0
     Generated by new atomic code, or converted to UPF format
     Using radial grid of 1095 points,  4 beta functions with: 
                l(1) =   0
                l(2) =   0
                l(3) =   1
                l(4) =   1
     Q(r) pseudized with 0 coefficients 


     PseudoPot. # 4 for H  read from file:
     /home/549/hxw549/Short/pseudopotentials/H.pbe-van_ak.UPF
     MD5 check sum: 077eb6d537518a38cb46c6de387227b7
     Pseudo is Ultrasoft, Zval =  1.0
     Generated by new atomic code, or converted to UPF format
     Using radial grid of  615 points,  1 beta functions with: 
                l(1) =   0
     Q(r) pseudized with  8 coefficients,  rinner =    0.800

     atomic species   valence    mass     pseudopotential
        Cu            11.00    63.54600     Cu( 1.00)
        C              4.00    12.01070     C ( 1.00)
        O              6.00    15.99940     O ( 1.00)
        H              1.00     1.00783     H ( 1.00)

     No symmetry found



   Cartesian axes

     site n.     atom                  positions (alat units)
         1           Cu  tau(   1) = (  -0.0000238   0.0002260   0.9981099  )
         2           Cu  tau(   2) = (   0.2499947   0.2311897   0.9981251  )
         3           Cu  tau(   3) = (   0.4999831   0.0002149   0.9981112  )
         4           Cu  tau(   4) = (   0.7499867   0.2311755   0.9980969  )
         5           Cu  tau(   5) = (   0.0000096   0.4619621   0.9979929  )
         6           Cu  tau(   6) = (   0.2499866   0.6927622   0.9976668  )
         7           Cu  tau(   7) = (   0.4999954   0.4619607   0.9978826  )
         8           Cu  tau(   8) = (   0.7500352   0.6927595   0.9976649  )
         9           Cu  tau(   9) = (   0.0000207   0.9236739   0.9975506  )
        10           Cu  tau(  10) = (   0.2500191   1.1545746   0.9977166  )
        11           Cu  tau(  11) = (   0.5000073   0.9236479   0.9975325  )
        12           Cu  tau(  12) = (   0.7500006   1.1545685   0.9977093  )
        13           Cu  tau(  13) = (  -0.0000077   1.3853811   0.9980180  )
        14           Cu  tau(  14) = (   0.2499983   1.6161561   0.9982689  )
        15           Cu  tau(  15) = (   0.5000058   1.3853977   0.9980617  )
        16           Cu  tau(  16) = (   0.7499748   1.6162250   0.9982107  )
        17           Cu  tau(  17) = (   0.0000111   1.8471800   0.9982106  )
        18           Cu  tau(  18) = (   0.2499546   2.0784395   0.9981263  )
        19           Cu  tau(  19) = (   0.4999426   1.8471932   0.9981807  )
        20           Cu  tau(  20) = (   0.7499939   2.0783919   0.9980742  )
        21           Cu  tau(  21) = (   0.0000246   0.2312923   1.2465770  )
        22           Cu  tau(  22) = (   0.2500152   0.0001959   1.2463274  )
        23           Cu  tau(  23) = (   0.5000376   0.2314189   1.2465958  )
        24           Cu  tau(  24) = (   0.7500000   0.0001950   1.2463142  )
        25           Cu  tau(  25) = (   0.0000827   0.6931388   1.2463864  )
        26           Cu  tau(  26) = (   0.2500664   0.4623549   1.2466171  )
        27           Cu  tau(  27) = (   0.5000572   0.6930470   1.2462509  )
        28           Cu  tau(  28) = (   0.7500411   0.4623422   1.2465521  )
        29           Cu  tau(  29) = (   0.0000681   1.1542431   1.2462983  )
        30           Cu  tau(  30) = (   0.2500759   0.9236520   1.2461665  )
        31           Cu  tau(  31) = (   0.5000727   1.1541906   1.2462971  )
        32           Cu  tau(  32) = (   0.7500739   0.9236488   1.2461145  )
        33           Cu  tau(  33) = (   0.0000255   1.6159538   1.2466510  )
        34           Cu  tau(  34) = (   0.2500808   1.3849494   1.2466751  )
        35           Cu  tau(  35) = (   0.5000239   1.6159648   1.2467738  )
        36           Cu  tau(  36) = (   0.7500209   1.3849686   1.2466224  )
        37           Cu  tau(  37) = (  -0.0000006   2.0784084   1.2462016  )
        38           Cu  tau(  38) = (   0.2500070   1.8471735   1.2464092  )
        39           Cu  tau(  39) = (   0.4999934   2.0783847   1.2461611  )
        40           Cu  tau(  40) = (   0.7499989   1.8471657   1.2463958  )
        41           Cu  tau(  41) = (   0.0000727  -0.0000699   1.4957572  )
        42           Cu  tau(  42) = (   0.2501971   0.2312781   1.4959154  )
        43           Cu  tau(  43) = (   0.5000731  -0.0000326   1.4956150  )
        44           Cu  tau(  44) = (   0.7500313   0.2313791   1.4959792  )
        45           Cu  tau(  45) = (   0.0001223   0.4626521   1.4961335  )
        46           Cu  tau(  46) = (   0.2502671   0.6936639   1.4965887  )
        47           Cu  tau(  47) = (   0.5001834   0.4629489   1.4965587  )
        48           Cu  tau(  48) = (   0.7500912   0.6936629   1.4965339  )
        49           Cu  tau(  49) = (   0.0001477   0.9239200   1.4966566  )
        50           Cu  tau(  50) = (   0.2502448   1.1537321   1.4966077  )
        51           Cu  tau(  51) = (   0.5002303   0.9236122   1.4966541  )
        52           Cu  tau(  52) = (   0.7501356   1.1536869   1.4966011  )
        53           Cu  tau(  53) = (   0.0001578   1.3844686   1.4964117  )
        54           Cu  tau(  54) = (   0.2501253   1.6158314   1.4960637  )
        55           Cu  tau(  55) = (   0.5001704   1.3841729   1.4966340  )
        56           Cu  tau(  56) = (   0.7501021   1.6157601   1.4960776  )
        57           Cu  tau(  57) = (   0.0000507   1.8472305   1.4956921  )
        58           Cu  tau(  58) = (   0.2500430   2.0783767   1.4956521  )
        59           Cu  tau(  59) = (   0.5000853   1.8474164   1.4957796  )
        60           Cu  tau(  60) = (   0.7500622   2.0783804   1.4956079  )
        61           Cu  tau(  61) = (   0.0001758   0.2310631   1.7443204  )
        62           Cu  tau(  62) = (   0.2502701  -0.0002760   1.7450507  )
        63           Cu  tau(  63) = (   0.5002205   0.2306708   1.7449083  )
        64           Cu  tau(  64) = (   0.7500503  -0.0002822   1.7449479  )
        65           Cu  tau(  65) = (   0.0001734   0.6935574   1.7460313  )
        66           Cu  tau(  66) = (   0.2508141   0.4625860   1.7451573  )
        67           Cu  tau(  67) = (   0.5003470   0.6943495   1.7480244  )
        68           Cu  tau(  68) = (   0.7496512   0.4627947   1.7454468  )
        69           Cu  tau(  69) = (   0.0002508   1.1538224   1.7475279  )
        70           Cu  tau(  70) = (   0.2506815   0.9239401   1.7478873  )
        71           Cu  tau(  71) = (   0.5003652   1.1528240   1.7479385  )
        72           Cu  tau(  72) = (   0.7498723   0.9238599   1.7482008  )
        73           Cu  tau(  73) = (   0.0002104   1.6161280   1.7449434  )
        74           Cu  tau(  74) = (   0.2501998   1.3842922   1.7457316  )
        75           Cu  tau(  75) = (   0.5002703   1.6161325   1.7443434  )
        76           Cu  tau(  76) = (   0.7504093   1.3841599   1.7457932  )
        77           Cu  tau(  77) = (   0.0001506   2.0781311   1.7452865  )
        78           Cu  tau(  78) = (   0.2500097   1.8474974   1.7448616  )
        79           Cu  tau(  79) = (   0.5001324   2.0785967   1.7453644  )
        80           Cu  tau(  80) = (   0.7503294   1.8475096   1.7448333  )
        81           Cu  tau(  81) = (   0.0002518   0.0002436   1.9906255  )
        82           Cu  tau(  82) = (   0.2500314   0.2307221   1.9904158  )
        83           Cu  tau(  83) = (   0.5001560   0.0000089   1.9925585  )
        84           Cu  tau(  84) = (   0.7503877   0.2307906   1.9902625  )
        85           Cu  tau(  85) = (   0.0003474   0.4618961   1.9891037  )
        86           Cu  tau(  86) = (   0.2523131   0.6922172   1.9929625  )
        87           Cu  tau(  87) = (   0.5000719   0.4597816   1.9923649  )
        88           Cu  tau(  88) = (   0.7480671   0.6920637   1.9937815  )
        89           Cu  tau(  89) = (   0.0002096   0.9219937   1.9931446  )
        90           Cu  tau(  90) = (   0.2502604   1.1549268   1.9950080  )
        91           Cu  tau(  91) = (   0.5003003   0.9247802   2.0010315  )
        92           Cu  tau(  92) = (   0.7503717   1.1550813   1.9953115  )
        93           Cu  tau(  93) = (   0.0004663   1.3862293   1.9924773  )
        94           Cu  tau(  94) = (   0.2499331   1.6166027   1.9901566  )
        95           Cu  tau(  95) = (   0.5002923   1.3862627   1.9904135  )
        96           Cu  tau(  96) = (   0.7507311   1.6164302   1.9900510  )
        97           Cu  tau(  97) = (   0.0001748   1.8473016   1.9922058  )
        98           Cu  tau(  98) = (   0.2502041   2.0781745   1.9915883  )
        99           Cu  tau(  99) = (   0.5003262   1.8468119   1.9903860  )
       100           Cu  tau( 100) = (   0.7502108   2.0783129   1.9914789  )
       101           C   tau( 101) = (  -0.0003149   0.0965100   2.3881220  )
       102           C   tau( 102) = (  -0.0001965   0.2887396   2.3863387  )
       103           C   tau( 103) = (   0.1663155   0.0004359   2.3886855  )
       104           C   tau( 104) = (   0.1662439   0.3848407   2.3828061  )
       105           C   tau( 105) = (   0.3328713   0.0965696   2.3863787  )
       106           C   tau( 106) = (   0.3328917   0.2888101   2.3828783  )
       107           C   tau( 107) = (   0.4996643   0.0002673   2.3855551  )
       108           C   tau( 108) = (   0.4998058   0.3856635   2.3806266  )
       109           C   tau( 109) = (   0.6665294   0.0965879   2.3852494  )
       110           C   tau( 110) = (   0.6666849   0.2888526   2.3822988  )
       111           C   tau( 111) = (   0.8330068   0.0004097   2.3879424  )
       112           C   tau( 112) = (   0.8334435   0.3848189   2.3826253  )
       113           C   tau( 113) = (  -0.0000108   0.6734180   2.3761591  )
       114           C   tau( 114) = (  -0.0000193   0.8659152   2.3711379  )
       115           C   tau( 115) = (   0.1661894   0.5770487   2.3775110  )
       116           C   tau( 116) = (   0.1669571   0.9618721   2.3771840  )
       117           C   tau( 117) = (   0.3326286   0.6740461   2.3782287  )
       118           C   tau( 118) = (   0.3309500   0.8648892   2.3836210  )
       119           C   tau( 119) = (   0.4999201   0.5773268   2.3803618  )
       120           C   tau( 120) = (   0.5001047   0.9620977   2.5197310  )
       121           O   tau( 121) = (   0.5017283   0.9601426   2.6504739  )
       122           H   tau( 122) = (   0.5966041   0.9601426   2.7453496  )
       123           C   tau( 123) = (   0.6672628   0.6739780   2.3777119  )
       124           C   tau( 124) = (   0.6689827   0.8649033   2.3825772  )
       125           C   tau( 125) = (   0.8337206   0.5770576   2.3773198  )
       126           C   tau( 126) = (   0.8330459   0.9619034   2.3767209  )
       127           C   tau( 127) = (  -0.0000747   1.2509098   2.3791404  )
       128           C   tau( 128) = (  -0.0002185   1.4440550   2.3780961  )
       129           C   tau( 129) = (   0.1666185   1.1551756   2.3797271  )
       130           C   tau( 130) = (   0.1664632   1.5404836   2.3809450  )
       131           C   tau( 131) = (   0.3338644   1.2520710   2.3821606  )
       132           C   tau( 132) = (   0.3332198   1.4446490   2.3817343  )
       133           C   tau( 133) = (   0.4998777   1.1584205   2.3884480  )
       134           C   tau( 134) = (   0.4997169   1.5406150   2.3848059  )
       135           C   tau( 135) = (   0.6658678   1.2520782   2.3823541  )
       136           C   tau( 136) = (   0.6662775   1.4446333   2.3815164  )
       137           C   tau( 137) = (   0.8332462   1.1551883   2.3796632  )
       138           C   tau( 138) = (   0.8329891   1.5405003   2.3802353  )
       139           C   tau( 139) = (  -0.0003525   1.8290905   2.3841460  )
       140           C   tau( 140) = (  -0.0003780   2.0214157   2.3874067  )
       141           C   tau( 141) = (   0.1664672   1.7328546   2.3846486  )
       142           C   tau( 142) = (   0.1662477   2.1174983   2.3880837  )
       143           C   tau( 143) = (   0.3330006   1.8289262   2.3877366  )
       144           C   tau( 144) = (   0.3330139   2.0212634   2.3883003  )
       145           C   tau( 145) = (   0.4996241   1.7329494   2.3871833  )
       146           C   tau( 146) = (   0.4996037   2.1173492   2.3885064  )
       147           C   tau( 147) = (   0.6662286   1.8289388   2.3873898  )
       148           C   tau( 148) = (   0.6661888   2.0212694   2.3879381  )
       149           C   tau( 149) = (   0.8328102   1.7328971   2.3841097  )
       150           C   tau( 150) = (   0.8329945   2.1174691   2.3877494  )

     number of k points=     6  gaussian smearing, width (Ry)=  0.1000
                       cart. coord. in units 2pi/alat
        k(    1) = (   0.0000000   0.0000000   0.0000000), wk =   0.2500000
        k(    2) = (   0.0000000  -0.2165064   0.0000000), wk =   0.2500000
        k(    3) = (   0.2500000   0.0000000   0.0000000), wk =   0.5000000
        k(    4) = (   0.2500000  -0.2165064   0.0000000), wk =   0.5000000
        k(    5) = (  -0.5000000   0.0000000   0.0000000), wk =   0.2500000
        k(    6) = (  -0.5000000  -0.2165064   0.0000000), wk =   0.2500000

     Dense  grid:  2050409 G-vectors     FFT dimensions: (  80, 192, 270)

     Largest allocated arrays     est. size (Mb)     dimensions
        Kohn-Sham Wavefunctions        54.80 Mb     (    4604,  780)
        NL pseudopotentials           130.46 Mb     (    4604, 1857)
        Each V/rho on FFT grid          1.17 Mb     (   76800)
        Each G-vector array             0.28 Mb     (   36616)
        G-vector shells                 0.14 Mb     (   17932)
     Largest temporary arrays     est. size (Mb)     dimensions
        Auxiliary wavefunctions       219.18 Mb     (    4604, 3120)
        Each subspace H/S matrix        5.94 Mb     (     624,  624)
        Each <psi_i|beta_j> matrix     22.10 Mb     (    1857,  780)
        Arrays for rho mixing           9.38 Mb     (   76800,    8)

     Initial potential from superposition of free atoms
     Check: negative starting charge=   -0.001732

     starting charge 1273.81750, renormalised to 1299.00000

     negative rho (up, down):  1.766E-03 0.000E+00
     Starting wfc are 1289 randomized atomic wfcs

     total cpu time spent up to now is      107.3 secs

     Self-consistent Calculation

     iteration #  1     ecut=    80.00 Ry     beta=0.70
     Davidson diagonalization with overlap
     c_bands:  3 eigenvalues not converged
     ethr =  1.00E-04,  avg # of iterations = 20.8

     negative rho (up, down):  2.572E+01 0.000E+00

     total cpu time spent up to now is     1861.5 secs

     total energy              =   -9689.46136899 Ry
     Harris-Foulkes estimate   =  -17085.81516840 Ry
     estimated scf accuracy    <  176817.65756251 Ry

     iteration #  2     ecut=    80.00 Ry     beta=0.70
     Davidson diagonalization with overlap
     ethr =  1.00E-02,  avg # of iterations = 10.8

     negative rho (up, down):  2.725E+01 0.000E+00

     total cpu time spent up to now is     2785.5 secs

     total energy              =  -12367.63658204 Ry
     Harris-Foulkes estimate   =  -13589.96888936 Ry
     estimated scf accuracy    <   16247.96032319 Ry

     iteration #  3     ecut=    80.00 Ry     beta=0.70
     Davidson diagonalization with overlap
     ethr =  1.00E-02,  avg # of iterations =  7.0

     negative rho (up, down):  2.950E+01 0.000E+00

     total cpu time spent up to now is     3384.4 secs

     total energy              =  -12489.29687071 Ry
     Harris-Foulkes estimate   =  -13314.90471029 Ry
     estimated scf accuracy    <    6151.24613632 Ry

     iteration #  4     ecut=    80.00 Ry     beta=0.70
     Davidson diagonalization with overlap
     ethr =  1.00E-02,  avg # of iterations =  5.0

     negative rho (up, down):  2.673E+01 0.000E+00

     total cpu time spent up to now is     3916.7 secs

     total energy              =  -12834.73814341 Ry
     Harris-Foulkes estimate   =  -13137.12881893 Ry
     estimated scf accuracy    <    6612.59639190 Ry

     iteration #  5     ecut=    80.00 Ry     beta=0.70
     Davidson diagonalization with overlap
     ethr =  1.00E-02,  avg # of iterations =  5.0

     negative rho (up, down):  1.830E+01 0.000E+00

     total cpu time spent up to now is     4312.3 secs

     total energy              =  -12852.08143598 Ry
     Harris-Foulkes estimate   =  -13028.54800824 Ry
     estimated scf accuracy    <     946.54136326 Ry

     iteration #  6     ecut=    80.00 Ry     beta=0.70
     Davidson diagonalization with overlap
     ethr =  1.00E-02,  avg # of iterations =  3.0

     negative rho (up, down):  1.088E+01 0.000E+00

     total cpu time spent up to now is     4554.1 secs

     total energy              =  -12847.07262194 Ry
     Harris-Foulkes estimate   =  -12916.26452520 Ry
     estimated scf accuracy    <     738.45393003 Ry

     iteration #  7     ecut=    80.00 Ry     beta=0.70
     Davidson diagonalization with overlap
     ethr =  1.00E-02,  avg # of iterations =  2.0

     negative rho (up, down):  8.165E+00 0.000E+00

     total cpu time spent up to now is     4738.8 secs

     total energy              =  -12829.55245602 Ry
     Harris-Foulkes estimate   =  -12856.72555488 Ry
     estimated scf accuracy    <     691.34973806 Ry

     iteration #  8     ecut=    80.00 Ry     beta=0.70
     Davidson diagonalization with overlap
     ethr =  1.00E-02,  avg # of iterations =  1.5

     negative rho (up, down):  7.170E+00 0.000E+00

     total cpu time spent up to now is     4910.7 secs

     total energy              =  -12821.25042634 Ry
     Harris-Foulkes estimate   =  -12833.43459833 Ry
     estimated scf accuracy    <     375.44650141 Ry

     iteration #  9     ecut=    80.00 Ry     beta=0.70
     Davidson diagonalization with overlap
     ethr =  1.00E-02,  avg # of iterations =  1.2

     negative rho (up, down):  2.493E+00 0.000E+00

     total cpu time spent up to now is     5078.4 secs

     total energy              =  -12776.53992027 Ry
     Harris-Foulkes estimate   =  -12824.99005659 Ry
     estimated scf accuracy    <     346.04251428 Ry

     iteration # 10     ecut=    80.00 Ry     beta=0.70
     Davidson diagonalization with overlap
     ethr =  1.00E-02,  avg # of iterations =  3.2

     negative rho (up, down):  1.138E+00 0.000E+00

     total cpu time spent up to now is     5270.1 secs

     total energy              =  -12757.85273535 Ry
     Harris-Foulkes estimate   =  -12782.67794084 Ry
     estimated scf accuracy    <     211.30205781 Ry

     iteration # 11     ecut=    80.00 Ry     beta=0.70
     Davidson diagonalization with overlap
     ethr =  1.00E-02,  avg # of iterations =  2.0

     negative rho (up, down):  2.485E+00 0.000E+00

     total cpu time spent up to now is     5449.3 secs

     total energy              =  -12748.83127204 Ry
     Harris-Foulkes estimate   =  -12771.54343227 Ry
     estimated scf accuracy    <      81.27890237 Ry

     iteration # 12     ecut=    80.00 Ry     beta=0.70
     Davidson diagonalization with overlap
     ethr =  6.26E-03,  avg # of iterations =  3.3

     negative rho (up, down):  6.868E-01 0.000E+00

     total cpu time spent up to now is     5646.0 secs

     total energy              =  -12747.46717624 Ry
     Harris-Foulkes estimate   =  -12756.01489574 Ry
     estimated scf accuracy    <     127.42357255 Ry

     iteration # 13     ecut=    80.00 Ry     beta=0.70
     Davidson diagonalization with overlap
     ethr =  6.26E-03,  avg # of iterations =  1.7

     negative rho (up, down):  3.579E+00 0.000E+00

     total cpu time spent up to now is     5820.8 secs

     total energy              =  -12743.04232809 Ry
     Harris-Foulkes estimate   =  -12755.50759879 Ry
     estimated scf accuracy    <      53.96069692 Ry

     iteration # 14     ecut=    80.00 Ry     beta=0.70
     Davidson diagonalization with overlap
     ethr =  4.15E-03,  avg # of iterations =  1.7

     negative rho (up, down):  5.478E+00 0.000E+00

     total cpu time spent up to now is     5995.0 secs

     total energy              =  -12736.75532488 Ry
     Harris-Foulkes estimate   =  -12747.72872861 Ry
     estimated scf accuracy    <      75.38718247 Ry

     iteration # 15     ecut=    80.00 Ry     beta=0.70
     Davidson diagonalization with overlap
     ethr =  4.15E-03,  avg # of iterations =  3.2

     negative rho (up, down):  6.077E+00 0.000E+00

     total cpu time spent up to now is     6187.0 secs

     total energy              =  -12738.29661683 Ry
     Harris-Foulkes estimate   =  -12739.79657163 Ry
     estimated scf accuracy    <      24.47951442 Ry

     iteration # 16     ecut=    80.00 Ry     beta=0.70
     Davidson diagonalization with overlap
     ethr =  1.88E-03,  avg # of iterations =  6.5

     negative rho (up, down):  4.981E+00 0.000E+00

     total cpu time spent up to now is     6424.5 secs

     total energy              =  -12737.73577484 Ry
     Harris-Foulkes estimate   =  -12738.98701594 Ry
     estimated scf accuracy    <      15.72284878 Ry

     iteration # 17     ecut=    80.00 Ry     beta=0.70
     Davidson diagonalization with overlap
     ethr =  1.21E-03,  avg # of iterations =  2.0

     negative rho (up, down):  2.598E+00 0.000E+00

     total cpu time spent up to now is     6602.3 secs

     total energy              =  -12736.18153745 Ry
     Harris-Foulkes estimate   =  -12738.25627054 Ry
     estimated scf accuracy    <      12.50564602 Ry

     iteration # 18     ecut=    80.00 Ry     beta=0.70
     Davidson diagonalization with overlap
     ethr =  9.63E-04,  avg # of iterations =  3.8

     negative rho (up, down):  2.339E+00 0.000E+00

     total cpu time spent up to now is     6801.8 secs

     total energy              =  -12735.03800782 Ry
     Harris-Foulkes estimate   =  -12736.53792187 Ry
     estimated scf accuracy    <       7.83601017 Ry

     iteration # 19     ecut=    80.00 Ry     beta=0.70
     Davidson diagonalization with overlap
     ethr =  6.03E-04,  avg # of iterations =  8.5

     negative rho (up, down):  1.677E+00 0.000E+00

     total cpu time spent up to now is     7060.1 secs

     total energy              =  -12734.75940582 Ry
     Harris-Foulkes estimate   =  -12735.32497380 Ry
     estimated scf accuracy    <       7.84532439 Ry

     iteration # 20     ecut=    80.00 Ry     beta=0.70
     Davidson diagonalization with overlap
     ethr =  6.03E-04,  avg # of iterations =  2.7

     negative rho (up, down):  1.323E+00 0.000E+00

     total cpu time spent up to now is     7245.1 secs

     total energy              =  -12732.92170179 Ry
     Harris-Foulkes estimate   =  -12734.88696733 Ry
     estimated scf accuracy    <       5.73400568 Ry

     iteration # 21     ecut=    80.00 Ry     beta=0.70
     Davidson diagonalization with overlap
     ethr =  4.41E-04,  avg # of iterations =  4.7

     negative rho (up, down):  1.255E+00 0.000E+00

     total cpu time spent up to now is     7458.2 secs

     total energy              =  -12732.17447861 Ry
     Harris-Foulkes estimate   =  -12733.05297754 Ry
     estimated scf accuracy    <       7.33396575 Ry

     iteration # 22     ecut=    80.00 Ry     beta=0.70
     Davidson diagonalization with overlap
     ethr =  4.41E-04,  avg # of iterations =  5.5

     negative rho (up, down):  6.506E-01 0.000E+00

     total cpu time spent up to now is     7677.4 secs

     total energy              =  -12731.67746594 Ry
     Harris-Foulkes estimate   =  -12732.33630049 Ry
     estimated scf accuracy    <       5.36289937 Ry

     iteration # 23     ecut=    80.00 Ry     beta=0.70
     Davidson diagonalization with overlap
     ethr =  4.13E-04,  avg # of iterations =  7.3

     negative rho (up, down):  4.146E-01 0.000E+00

     total cpu time spent up to now is     7917.2 secs

     total energy              =  -12731.54380175 Ry
     Harris-Foulkes estimate   =  -12731.93663093 Ry
     estimated scf accuracy    <       2.65477049 Ry

     iteration # 24     ecut=    80.00 Ry     beta=0.70
     Davidson diagonalization with overlap
     ethr =  2.04E-04,  avg # of iterations =  4.5

     negative rho (up, down):  7.199E-01 0.000E+00

     total cpu time spent up to now is     8125.8 secs

     total energy              =  -12731.16947189 Ry
     Harris-Foulkes estimate   =  -12731.60316743 Ry
     estimated scf accuracy    <       1.75465160 Ry

     iteration # 25     ecut=    80.00 Ry     beta=0.70
     Davidson diagonalization with overlap
     ethr =  1.35E-04,  avg # of iterations =  8.2

     negative rho (up, down):  7.172E-01 0.000E+00

     total cpu time spent up to now is     8406.4 secs

     total energy              =  -12731.07027967 Ry
     Harris-Foulkes estimate   =  -12731.25375527 Ry
     estimated scf accuracy    <       0.87702335 Ry

     iteration # 26     ecut=    80.00 Ry     beta=0.70
     Davidson diagonalization with overlap
     ethr =  6.75E-05,  avg # of iterations =  7.0

     negative rho (up, down):  6.133E-01 0.000E+00

     total cpu time spent up to now is     8661.6 secs

     total energy              =  -12731.06437641 Ry
     Harris-Foulkes estimate   =  -12731.13011589 Ry
     estimated scf accuracy    <       0.42565227 Ry

     iteration # 27     ecut=    80.00 Ry     beta=0.70
     Davidson diagonalization with overlap
     ethr =  3.28E-05,  avg # of iterations =  8.5

     negative rho (up, down):  4.069E-01 0.000E+00

     total cpu time spent up to now is     8940.3 secs

     total energy              =  -12731.08058644 Ry
     Harris-Foulkes estimate   =  -12731.09565559 Ry
     estimated scf accuracy    <       0.08332089 Ry

     iteration # 28     ecut=    80.00 Ry     beta=0.70
     Davidson diagonalization with overlap
     ethr =  6.41E-06,  avg # of iterations = 12.2

     negative rho (up, down):  3.180E-01 0.000E+00

     total cpu time spent up to now is     9268.5 secs

     total energy              =  -12731.07866866 Ry
     Harris-Foulkes estimate   =  -12731.08727216 Ry
     estimated scf accuracy    <       0.05617610 Ry

     iteration # 29     ecut=    80.00 Ry     beta=0.70
     Davidson diagonalization with overlap
     ethr =  4.32E-06,  avg # of iterations =  7.0

     negative rho (up, down):  2.336E-01 0.000E+00

     total cpu time spent up to now is     9522.4 secs

     total energy              =  -12731.07727599 Ry
     Harris-Foulkes estimate   =  -12731.08220411 Ry
     estimated scf accuracy    <       0.03302833 Ry

     iteration # 30     ecut=    80.00 Ry     beta=0.70
     Davidson diagonalization with overlap
     ethr =  2.54E-06,  avg # of iterations =  9.8

     negative rho (up, down):  1.488E-01 0.000E+00

     total cpu time spent up to now is     9829.4 secs

     total energy              =  -12731.07348956 Ry
     Harris-Foulkes estimate   =  -12731.07932241 Ry
     estimated scf accuracy    <       0.01666785 Ry

     iteration # 31     ecut=    80.00 Ry     beta=0.70
     Davidson diagonalization with overlap
     c_bands:  1 eigenvalues not converged
     ethr =  1.28E-06,  avg # of iterations = 15.5

     negative rho (up, down):  9.947E-02 0.000E+00

     total cpu time spent up to now is    10220.4 secs

     total energy              =  -12731.07294860 Ry
     Harris-Foulkes estimate   =  -12731.07510370 Ry
     estimated scf accuracy    <       0.00768363 Ry

     iteration # 32     ecut=    80.00 Ry     beta=0.70
     Davidson diagonalization with overlap
     c_bands:  2 eigenvalues not converged
     c_bands:  1 eigenvalues not converged
     ethr =  5.92E-07,  avg # of iterations = 14.8

     negative rho (up, down):  6.845E-02 0.000E+00

     total cpu time spent up to now is    10585.7 secs

     total energy              =  -12731.07229298 Ry
     Harris-Foulkes estimate   =  -12731.07345726 Ry
     estimated scf accuracy    <       0.00351739 Ry

     iteration # 33     ecut=    80.00 Ry     beta=0.70
     Davidson diagonalization with overlap
     ethr =  2.71E-07,  avg # of iterations = 14.5

     negative rho (up, down):  2.092E-02 0.000E+00

     total cpu time spent up to now is    10950.4 secs

     total energy              =  -12731.07109546 Ry
     Harris-Foulkes estimate   =  -12731.07258348 Ry
     estimated scf accuracy    <       0.00161424 Ry

     iteration # 34     ecut=    80.00 Ry     beta=0.70
     Davidson diagonalization with overlap
     ethr =  1.24E-07,  avg # of iterations = 13.3

     negative rho (up, down):  1.172E-02 0.000E+00

     total cpu time spent up to now is    11304.2 secs

     total energy              =  -12731.07102170 Ry
     Harris-Foulkes estimate   =  -12731.07122969 Ry
     estimated scf accuracy    <       0.00028874 Ry

     iteration # 35     ecut=    80.00 Ry     beta=0.70
     Davidson diagonalization with overlap
     ethr =  2.22E-08,  avg # of iterations =  6.0

     negative rho (up, down):  4.708E-03 0.000E+00

     total cpu time spent up to now is    11546.8 secs

     total energy              =  -12731.07090889 Ry
     Harris-Foulkes estimate   =  -12731.07104224 Ry
     estimated scf accuracy    <       0.00011223 Ry

     iteration # 36     ecut=    80.00 Ry     beta=0.70
     Davidson diagonalization with overlap
     c_bands:  1 eigenvalues not converged
     ethr =  8.64E-09,  avg # of iterations = 12.0

     negative rho (up, down):  2.530E-03 0.000E+00

     total cpu time spent up to now is    11872.0 secs

     total energy              =  -12731.07089139 Ry
     Harris-Foulkes estimate   =  -12731.07092416 Ry
     estimated scf accuracy    <       0.00005364 Ry

     iteration # 37     ecut=    80.00 Ry     beta=0.70
     Davidson diagonalization with overlap
     ethr =  4.13E-09,  avg # of iterations =  4.7

     negative rho (up, down):  1.279E-03 0.000E+00

     total cpu time spent up to now is    12108.7 secs

     total energy              =  -12731.07089025 Ry
     Harris-Foulkes estimate   =  -12731.07089944 Ry
     estimated scf accuracy    <       0.00002561 Ry

     iteration # 38     ecut=    80.00 Ry     beta=0.70
     Davidson diagonalization with overlap
     ethr =  1.97E-09,  avg # of iterations =  5.2

     negative rho (up, down):  1.412E-03 0.000E+00

     total cpu time spent up to now is    12332.3 secs

     total energy              =  -12731.07089547 Ry
     Harris-Foulkes estimate   =  -12731.07089219 Ry
     estimated scf accuracy    <       0.00000534 Ry

     iteration # 39     ecut=    80.00 Ry     beta=0.70
     Davidson diagonalization with overlap
     ethr =  4.11E-10,  avg # of iterations =  5.0

     negative rho (up, down):  1.411E-03 0.000E+00

     total cpu time spent up to now is    12560.7 secs

     total energy              =  -12731.07089645 Ry
     Harris-Foulkes estimate   =  -12731.07089623 Ry
     estimated scf accuracy    <       0.00000250 Ry

     iteration # 40     ecut=    80.00 Ry     beta=0.70
     Davidson diagonalization with overlap
     ethr =  1.93E-10,  avg # of iterations =  3.8

     negative rho (up, down):  1.542E-03 0.000E+00

     total cpu time spent up to now is    12767.3 secs

     total energy              =  -12731.07089670 Ry
     Harris-Foulkes estimate   =  -12731.07089666 Ry
     estimated scf accuracy    <       0.00000068 Ry

     iteration # 41     ecut=    80.00 Ry     beta=0.70
     Davidson diagonalization with overlap
     ethr =  5.23E-11,  avg # of iterations =  4.0

     negative rho (up, down):  1.574E-03 0.000E+00

     total cpu time spent up to now is    12988.0 secs

     total energy              =  -12731.07089660 Ry
     Harris-Foulkes estimate   =  -12731.07089681 Ry
     estimated scf accuracy    <       0.00000037 Ry

     iteration # 42     ecut=    80.00 Ry     beta=0.70
     Davidson diagonalization with overlap
     ethr =  2.81E-11,  avg # of iterations =  4.0

     negative rho (up, down):  1.526E-03 0.000E+00

     total cpu time spent up to now is    13201.2 secs

     total energy              =  -12731.07089660 Ry
     Harris-Foulkes estimate   =  -12731.07089665 Ry
     estimated scf accuracy    <       0.00000009 Ry

     iteration # 43     ecut=    80.00 Ry     beta=0.70
     Davidson diagonalization with overlap
     ethr =  6.73E-12,  avg # of iterations =  3.3

     negative rho (up, down):  1.547E-03 0.000E+00

     total cpu time spent up to now is    13426.0 secs

     total energy              =  -12731.07089654 Ry
     Harris-Foulkes estimate   =  -12731.07089661 Ry
     estimated scf accuracy    <       0.00000005 Ry

     iteration # 44     ecut=    80.00 Ry     beta=0.70
     Davidson diagonalization with overlap
     ethr =  3.80E-12,  avg # of iterations =  3.0

     negative rho (up, down):  1.542E-03 0.000E+00

     total cpu time spent up to now is    13639.2 secs

     total energy              =  -12731.07089653 Ry
     Harris-Foulkes estimate   =  -12731.07089655 Ry
     estimated scf accuracy    <       0.00000001 Ry

     iteration # 45     ecut=    80.00 Ry     beta=0.70
     Davidson diagonalization with overlap
     ethr =  7.97E-13,  avg # of iterations =  3.3

     negative rho (up, down):  1.533E-03 0.000E+00

     total cpu time spent up to now is    13840.2 secs

     End of self-consistent calculation

          k = 0.0000 0.0000 0.0000 (256287 PWs)   bands (ev):

   -25.4396 -15.8589 -15.5294 -15.3463 -14.3871 -14.3114 -13.9131 -13.8657
   -13.5810 -13.5679 -13.4743 -13.2366 -12.5899 -12.5837 -12.5006 -12.4759
   -12.4191 -12.2951 -11.7358 -10.7863 -10.7435 -10.7405 -10.6277 -10.1373
    -9.4892  -8.9060  -8.8608  -8.8588  -8.5658  -8.0397  -8.0371  -7.9596
    -7.6961  -7.3585  -7.2501  -7.0160  -6.9994  -6.9659  -6.9433  -6.9404
    -6.4936  -6.3603  -6.2574  -5.5326  -5.3849  -5.3668  -5.2992  -5.2948
    -5.2244  -5.0797  -5.0001  -4.9914  -4.7597  -4.7560  -4.6010  -4.1441
    -4.1268  -4.0840  -3.9540  -3.8237  -3.7081  -3.6474  -3.5844  -3.5152
    -3.5013  -3.4862  -2.9585  -2.9371  -2.9206  -2.9190  -2.8749  -2.8574
    -2.7818  -2.7555  -2.7185  -2.6858  -2.6775  -2.5221  -2.5210  -2.5188
    -2.5156  -2.4777  -2.4511  -2.3361  -2.3256  -2.2517  -2.2446  -2.2226
    -2.1978  -2.1502  -2.1285  -2.1068  -1.9020  -1.8969  -1.8837  -1.8683
    -1.8388  -1.7767  -1.7757  -1.7042  -1.7038  -1.6633  -1.6632  -1.6631
    -1.6628  -1.5963  -1.5859  -1.5499  -1.5343  -1.5342  -1.5300  -1.5298
    -1.4720  -1.4068  -1.3617  -1.3466  -1.2866  -1.2507  -1.2495  -1.2494
    -1.2438  -1.2019  -1.1927  -1.1816  -1.1785  -1.1691  -1.1646  -1.1121
    -1.1030  -1.0816  -1.0758  -1.0746  -1.0703  -1.0437  -1.0433  -1.0406
    -1.0253  -1.0232  -1.0218  -0.9502  -0.9454  -0.9266  -0.8944  -0.8913
    -0.8906  -0.8618  -0.8564  -0.8078  -0.7810  -0.7738  -0.7728  -0.7592
    -0.7208  -0.7200  -0.7105  -0.7011  -0.6979  -0.6765  -0.6730  -0.6566
    -0.6427  -0.6210  -0.6112  -0.6097  -0.5626  -0.5564  -0.5518  -0.5411
    -0.5353  -0.5326  -0.5320  -0.5318  -0.5307  -0.5270  -0.5247  -0.5156
    -0.5084  -0.4806  -0.4621  -0.4572  -0.4404  -0.4376  -0.4298  -0.4290
    -0.4280  -0.4263  -0.3696  -0.3695  -0.3663  -0.3654  -0.3647  -0.3645
    -0.3644  -0.3619  -0.3603  -0.3596  -0.3570  -0.3568  -0.3549  -0.3510
    -0.3506  -0.3409  -0.3399  -0.3225  -0.3127  -0.3105  -0.2941  -0.1995
    -0.1993  -0.1917  -0.1913  -0.1719  -0.1714  -0.1512  -0.1509  -0.1321
    -0.1302  -0.1221  -0.1149  -0.1104  -0.1098  -0.1018  -0.0986  -0.0744
    -0.0743  -0.0701  -0.0696  -0.0641  -0.0635  -0.0532  -0.0522  -0.0021
    -0.0020   0.0306   0.0523   0.0525   0.0609   0.0612   0.0637   0.0671
     0.0794   0.0808   0.0852   0.0861   0.0866   0.0873   0.0899   0.0903
     0.1056   0.1057   0.1127   0.1128   0.1165   0.1398   0.1405   0.1720
     0.1881   0.1901   0.1938   0.1986   0.1988   0.2059   0.2250   0.2252
     0.2274   0.2275   0.2419   0.2439   0.2478   0.2480   0.2482   0.2684
     0.2695   0.2716   0.2740   0.2749   0.2761   0.2766   0.2783   0.2803
     0.2845   0.2984   0.2990   0.3021   0.3024   0.3047   0.3240   0.3561
     0.3700   0.3709   0.3717   0.3734   0.3735   0.4187   0.4202   0.4210
     0.4213   0.4277   0.4290   0.4295   0.4300   0.4306   0.4443   0.4504
     0.4789   0.4819   0.4831   0.4837   0.4924   0.5093   0.5098   0.5116
     0.5129   0.5166   0.5232   0.5351   0.5366   0.5368   0.5374   0.5401
     0.5439   0.5533   0.5535   0.5539   0.5542   0.5632   0.5666   0.5682
     0.5735   0.5929   0.5932   0.6260   0.6262   0.6502   0.6517   0.6533
     0.6758   0.6841   0.6866   0.7247   0.7261   0.7270   0.7332   0.7354
     0.7371   0.7603   0.7613   0.7628   0.7631   0.7631   0.7679   0.7723
     0.7738   0.8189   0.8291   0.8296   0.8368   0.8381   0.8392   0.8403
     0.8586   0.8680   0.8717   0.8733   0.8751   0.8771   0.9035   0.9086
     0.9107   0.9114   0.9182   0.9270   0.9283   0.9307   0.9327   0.9677
     0.9698   0.9835   0.9849   0.9870   0.9893   0.9901   0.9971   1.0163
     1.0166   1.0208   1.0242   1.0249   1.0267   1.0272   1.0283   1.0304
     1.0351   1.0386   1.0441   1.0451   1.0466   1.0480   1.0540   1.0552
     1.0872   1.0935   1.0936   1.1002   1.1104   1.1367   1.1373   1.1382
     1.1408   1.1427   1.1437   1.1445   1.1455   1.1532   1.1550   1.1619
     1.1684   1.1690   1.1704   1.1720   1.1772   1.1775   1.1850   1.1875
     1.1929   1.2091   1.2095   1.2118   1.2143   1.2220   1.2232   1.2317
     1.2353   1.2353   1.2363   1.2374   1.2421   1.2452   1.2467   1.2496
     1.2574   1.2633   1.2667   1.2958   1.2960   1.3067   1.3099   1.3127
     1.3130   1.3143   1.3145   1.3456   1.3463   1.3612   1.3617   1.3666
     1.3671   1.3803   1.3807   1.3877   1.3888   1.3903   1.3918   1.3991
     1.4091   1.4256   1.4278   1.4302   1.4319   1.4332   1.4339   1.4415
     1.4502   1.4566   1.4677   1.4763   1.4766   1.4809   1.4883   1.4992
     1.4995   1.4999   1.5013   1.5033   1.5037   1.5070   1.5120   1.5156
     1.5176   1.5189   1.5193   1.5196   1.5312   1.5315   1.5461   1.5536
     1.5540   1.5574   1.5586   1.5657   1.5884   1.5924   1.5945   1.5959
     1.5996   1.6013   1.6025   1.6044   1.6058   1.6063   1.6065   1.6076
     1.6096   1.6121   1.6216   1.6243   1.6286   1.6511   1.6706   1.6734
     1.6802   1.6873   1.6896   1.6929   1.6931   1.6950   1.6987   1.7010
     1.7136   1.7150   1.7264   1.7274   1.7301   1.7309   1.7314   1.7343
     1.7357   1.7359   1.7459   1.7577   1.7633   1.7634   1.7646   1.7667
     1.7676   1.7682   1.7692   1.7736   1.7843   1.7847   1.7851   1.7919
     1.8001   1.8002   1.8014   1.8020   1.8035   1.8106   1.8145   1.8190
     1.8316   1.8371   1.8406   1.8431   1.8449   1.8451   1.8515   1.8520
     1.8636   1.8736   1.8773   1.8792   1.8820   1.8897   1.8987   1.9048
     1.9053   1.9118   1.9129   1.9161   1.9194   1.9236   1.9243   1.9248
     1.9261   1.9266   1.9269   1.9286   1.9368   1.9376   1.9399   1.9553
     1.9555   1.9567   1.9575   1.9614   1.9641   1.9698   1.9729   1.9921
     1.9984   2.0050   2.0095   2.0457   2.0468   2.0491   2.0517   2.0689
     2.0698   2.0718   2.0770   2.0809   2.0977   2.1173   2.1196   2.1204
     2.1209   2.1221   2.1327   2.1330   2.1352   2.2891   2.3514   2.3892
     2.4174   2.4444   2.5999   2.6026   2.6421   2.6477   2.6962   2.6970
     2.6974   2.7013   2.7144   2.7215   2.7268   2.7369   2.8937   2.8959
     2.9566   2.9577   2.9626   2.9637   2.9733   2.9790   3.2060   3.2077
     3.2255   3.2294   3.5504   3.6257   3.6616   3.6750   3.9923   4.0084
     4.0504   4.3062   4.3092   4.3363   4.3408   4.3474   4.3590   4.4069
     4.4458   4.4523   4.4599   4.4950   4.4953   4.4981   4.5019   4.5040
     4.5106   4.7351   4.7359   4.7374   4.7571   4.8878   5.1160   5.2525
     5.4138   5.4610   5.4912   5.7436   5.7752   5.8243   5.8747   5.9460
     6.0103   6.1770   6.1919   6.2127   6.2242   6.4201   6.4250   6.8129
     6.8208   6.8775   6.8969   6.9513   6.9534   6.9545   6.9706   7.0678
     7.1010   7.1125   7.1623   7.2264   7.2575   7.2626   7.2866   7.3200
     7.4459   7.4858   7.5372   7.5555   7.5639   7.5848   7.5939   7.6203
     7.8422   7.8485   7.8690   7.8828   7.9737   7.9877   8.0452   8.1729
     8.1739   8.1852   8.1925   8.4508   8.4624   8.5900   8.6166   8.6688
     8.6849   8.7410   8.7458   8.8242   8.8247   8.8326   8.8545   8.8755
     8.8863   8.9385   8.9617   9.0351   9.0510   9.0779   9.1098   9.1299
     9.1337   9.1360   9.1494   9.1779   9.2792   9.2846   9.3168   9.3210
     9.3305   9.3598   9.4486   9.5386   9.5506   9.5738   9.6059   9.6149
     9.6303   9.8297   9.8319   9.8513   9.9119  10.0029  10.0292  10.0439
    10.0649  10.0668  10.1658  10.2214

          k = 0.0000-0.2165 0.0000 (256176 PWs)   bands (ev):

   -25.4396 -15.8267 -15.6621 -15.0453 -14.9016 -13.8671 -13.8632 -13.7560
   -13.7055 -13.5566 -13.4484 -13.1137 -13.0913 -13.0476 -12.6966 -12.2071
   -11.7076 -11.6670 -11.6360 -11.5777 -11.4160 -10.8924  -9.7974  -9.7548
    -9.7334  -9.3939  -8.5419  -8.4743  -8.4100  -8.3727  -8.3129  -8.0488
    -7.5998  -7.5924  -7.5627  -7.1712  -7.0628  -6.9007  -6.4010  -6.3777
    -6.3108  -6.2563  -6.2083  -5.9555  -5.8957  -5.5620  -5.4000  -5.3958
    -5.2886  -5.1283  -4.5675  -4.5500  -4.5012  -4.4810  -4.3556  -4.3522
    -4.3310  -4.2587  -4.0108  -4.0064  -4.0033  -3.8556  -3.7236  -3.5724
    -3.5418  -3.4559  -3.0744  -3.0139  -2.8189  -2.8181  -2.8140  -2.8089
    -2.7467  -2.5835  -2.5664  -2.5563  -2.5441  -2.5434  -2.4711  -2.4435
    -2.3985  -2.3776  -2.2822  -2.2643  -2.1991  -2.1445  -2.1304  -2.1270
    -2.1227  -2.1079  -2.0931  -2.0923  -2.0896  -2.0895  -2.0447  -1.9931
    -1.8523  -1.8475  -1.7840  -1.7815  -1.7578  -1.7558  -1.7520  -1.6780
    -1.6589  -1.6585  -1.6569  -1.6305  -1.5115  -1.4970  -1.4970  -1.4717
    -1.4710  -1.4604  -1.3796  -1.3711  -1.3145  -1.3004  -1.2886  -1.2800
    -1.2764  -1.2609  -1.2604  -1.2579  -1.2524  -1.2517  -1.2345  -1.2296
    -1.1800  -1.1572  -1.1520  -1.0757  -1.0656  -1.0559  -0.9867  -0.9763
    -0.9756  -0.9696  -0.8974  -0.8907  -0.8814  -0.8810  -0.8269  -0.8244
    -0.8151  -0.7892  -0.7870  -0.7838  -0.7837  -0.7812  -0.7784  -0.7575
    -0.7482  -0.7457  -0.7396  -0.7362  -0.7335  -0.7328  -0.7235  -0.7131
    -0.6564  -0.6553  -0.6526  -0.6475  -0.6473  -0.5980  -0.5976  -0.5596
    -0.5593  -0.5565  -0.5559  -0.5522  -0.5185  -0.5142  -0.4954  -0.4948
    -0.4905  -0.4890  -0.4871  -0.4863  -0.4574  -0.4387  -0.4361  -0.4287
    -0.4285  -0.4217  -0.4207  -0.4081  -0.4073  -0.4072  -0.4001  -0.3411
    -0.3384  -0.3291  -0.3287  -0.3279  -0.3250  -0.3180  -0.3080  -0.3071
    -0.2973  -0.2929  -0.2896  -0.2645  -0.2643  -0.2601  -0.2577  -0.1667
    -0.1663  -0.1596  -0.1590  -0.1417  -0.1414  -0.1237  -0.1169  -0.1157
    -0.1138  -0.1100  -0.1098  -0.1087  -0.0872  -0.0853  -0.0536  -0.0521
    -0.0516  -0.0501  -0.0477  -0.0462  -0.0455  -0.0437  -0.0146  -0.0138
     0.0032   0.0047   0.0053   0.0053   0.0403   0.0417   0.0428   0.0439
     0.0489   0.0526   0.0530   0.0573   0.0581   0.0649   0.1290   0.1295
     0.1371   0.1376   0.1613   0.1642   0.1867   0.1868   0.1910   0.1916
     0.1936   0.1953   0.1956   0.2184   0.2186   0.2226   0.2233   0.2261
     0.2330   0.2340   0.2385   0.2405   0.2437   0.2440   0.2458   0.2468
     0.2471   0.2547   0.2567   0.2835   0.2836   0.2867   0.2869   0.3168
     0.3469   0.3483   0.3485   0.3510   0.3565   0.3583   0.3611   0.3620
     0.3648   0.3749   0.3829   0.3865   0.3919   0.3974   0.4020   0.4021
     0.4039   0.4111   0.4122   0.4143   0.4152   0.4171   0.4184   0.4453
     0.4723   0.4724   0.4738   0.4741   0.4946   0.4948   0.4955   0.4959
     0.4994   0.5001   0.5069   0.5178   0.5187   0.5234   0.5242   0.5280
     0.5373   0.5493   0.5504   0.5645   0.5649   0.5665   0.5667   0.5844
     0.5868   0.6018   0.6023   0.6095   0.6119   0.6205   0.6233   0.6241
     0.6247   0.6672   0.6674   0.6762   0.6775   0.6837   0.6884   0.6933
     0.6937   0.7172   0.7192   0.7366   0.7547   0.7549   0.7578   0.7833
     0.7862   0.7981   0.8347   0.8574   0.8729   0.8735   0.8793   0.8803
     0.9008   0.9012   0.9020   0.9023   0.9170   0.9380   0.9384   0.9409
     0.9418   0.9424   0.9433   0.9462   0.9464   0.9507   0.9518   0.9626
     0.9647   0.9660   0.9668   0.9702   0.9747   0.9752   0.9788   0.9885
     1.0050   1.0071   1.0152   1.0154   1.0157   1.0167   1.0234   1.0234
     1.0460   1.0462   1.0463   1.0477   1.0487   1.0489   1.0493   1.0499
     1.0551   1.0690   1.0692   1.0711   1.0715   1.0729   1.0737   1.0779
     1.0809   1.0875   1.0947   1.1333   1.1362   1.1463   1.1466   1.1471
     1.1571   1.1583   1.1605   1.1621   1.1642   1.1654   1.1671   1.1700
     1.1701   1.1706   1.1726   1.1947   1.2145   1.2148   1.2154   1.2158
     1.2317   1.2319   1.2322   1.2328   1.2336   1.2462   1.2477   1.2588
     1.2642   1.2650   1.2689   1.2711   1.2719   1.3182   1.3243   1.3370
     1.3756   1.3771   1.3781   1.3841   1.3862   1.3865   1.3945   1.3963
     1.3995   1.4009   1.4062   1.4071   1.4148   1.4150   1.4158   1.4168
     1.4283   1.4286   1.4298   1.4305   1.4308   1.4353   1.4455   1.4504
     1.4534   1.4535   1.4570   1.4594   1.4598   1.4602   1.4632   1.4651
     1.4742   1.4761   1.4762   1.4785   1.4808   1.4812   1.4813   1.4928
     1.5019   1.5027   1.5110   1.5159   1.5162   1.5206   1.5210   1.5278
     1.5284   1.5290   1.5294   1.5299   1.5321   1.5479   1.5799   1.5822
     1.6044   1.6175   1.6180   1.6184   1.6319   1.6335   1.6346   1.6416
     1.6424   1.6569   1.6604   1.6623   1.6721   1.6755   1.6817   1.6821
     1.6851   1.6871   1.6873   1.6876   1.6885   1.6905   1.6918   1.6926
     1.6927   1.6999   1.7002   1.7011   1.7117   1.7157   1.7168   1.7197
     1.7209   1.7294   1.7298   1.7330   1.7578   1.7586   1.7591   1.7642
     1.7653   1.7668   1.7672   1.7678   1.7805   1.7882   1.7883   1.7903
     1.8002   1.8020   1.8027   1.8038   1.8055   1.8158   1.8210   1.8212
     1.8220   1.8227   1.8403   1.8405   1.8417   1.8491   1.8592   1.8632
     1.8676   1.8692   1.8700   1.8718   1.8821   1.8828   1.8841   1.8860
     1.9014   1.9018   1.9157   1.9163   1.9169   1.9181   1.9352   1.9371
     1.9372   1.9376   1.9394   1.9397   1.9421   1.9421   1.9676   1.9691
     1.9763   1.9766   1.9835   1.9902   1.9955   2.0050   2.0076   2.0078
     2.0104   2.0165   2.0174   2.0240   2.0296   2.0351   2.0573   2.0752
     2.0760   2.0835   2.1349   2.1704   2.1795   2.1851   2.1996   2.2118
     2.2234   2.2444   2.2519   2.2614   2.2815   2.2819   2.2842   2.2925
     2.3035   2.3061   2.3078   2.3212   2.3411   2.3424   2.6309   2.8181
     2.8293   2.9004   2.9060   2.9076   2.9163   2.9814   2.9865   3.0365
     3.0519   3.0571   3.0592   3.0700   3.0824   3.1624   3.1969   3.2097
     3.2462   3.2526   3.2722   3.2959   3.4119   3.4139   3.6486   3.6486
     3.6984   3.7128   3.8562   3.8854   4.1565   4.1635   4.4701   4.5047
     4.5223   4.5549   4.6007   4.6369   4.6444   4.8063   4.8134   4.8152
     4.8178   4.9499   4.9838   5.0162   5.1459   5.1631   5.2347   5.2477
     5.5795   5.5879   5.5971   5.6088   5.8190   5.8436   5.8470   5.8490
     5.8517   5.8985   5.9720   6.1485   6.1996   6.3045   6.3111   6.3525
     6.7491   6.8394   6.8624   6.8936   6.9017   6.9077   6.9489   7.0263
     7.0496   7.1520   7.1565   7.2747   7.2849   7.3736   7.4815   7.5107
     7.5299   7.5487   7.5631   7.5675   7.5746   7.5990   7.6068   7.6111
     7.6171   7.8267   7.8314   7.8819   7.9003   7.9160   7.9605   8.0353
     8.0691   8.1435   8.1703   8.2529   8.2901   8.4488   8.4865   8.6253
     8.6258   8.6888   8.8433   8.8463   8.8566   8.8651   8.8685   8.8787
     8.9080   8.9437   9.1067   9.1298   9.1342   9.1895   9.1931   9.1953
     9.2048   9.2453   9.2472   9.3287   9.3396   9.3754   9.4918   9.5101
     9.5573   9.6203   9.6281   9.6945   9.7137   9.7672   9.7893   9.8297
     9.8574   9.8591   9.8712   9.8730   9.9052   9.9207   9.9493   9.9709
     9.9962  10.0556  10.1050  10.1347

          k = 0.2500 0.0000 0.0000 (256240 PWs)   bands (ev):

   -25.4396 -15.7363 -15.4059 -15.2420 -14.7420 -14.4250 -14.3363 -14.2599
   -14.0037 -13.2978 -13.1488 -12.8155 -12.5122 -12.4815 -12.4378 -12.3593
   -12.0212 -11.5304 -11.4632 -11.4259 -11.0284 -10.3868 -10.1888 -10.1179
    -9.8406  -9.5137  -9.3291  -9.1077  -9.0008  -8.6730  -8.5047  -8.2391
    -7.8155  -7.3259  -7.1670  -6.9525  -6.9297  -6.8929  -6.6695  -6.5300
    -6.3584  -6.0434  -5.9860  -5.4267  -5.3530  -5.3152  -5.2323  -5.1602
    -4.8910  -4.8269  -4.8219  -4.5255  -4.4338  -4.3784  -4.0169  -3.9874
    -3.9807  -3.9699  -3.9037  -3.7605  -3.7277  -3.5818  -3.5299  -3.5157
    -3.5117  -3.4982  -3.3969  -3.3540  -3.3515  -3.2709  -3.1632  -3.0064
    -2.9999  -2.9652  -2.9432  -2.9100  -2.8364  -2.8025  -2.7747  -2.7214
    -2.6309  -2.6183  -2.5591  -2.5233  -2.4010  -2.3212  -2.3116  -2.3109
    -2.3058  -2.2298  -2.1586  -2.1325  -2.0586  -1.9939  -1.9119  -1.8745
    -1.8490  -1.8348  -1.6114  -1.6110  -1.5944  -1.5930  -1.5632  -1.5148
    -1.4888  -1.4730  -1.4267  -1.4057  -1.3776  -1.3464  -1.3121  -1.3119
    -1.3040  -1.3038  -1.2836  -1.2569  -1.2494  -1.2333  -1.2270  -1.2253
    -1.2136  -1.1683  -1.1609  -1.1502  -1.1211  -1.1131  -1.0935  -1.0911
    -1.0902  -1.0898  -1.0894  -1.0846  -1.0380  -1.0268  -1.0139  -1.0113
    -1.0022  -0.9982  -0.8832  -0.8496  -0.8456  -0.8222  -0.8184  -0.7976
    -0.7829  -0.7783  -0.7542  -0.7528  -0.7470  -0.7407  -0.7364  -0.7276
    -0.7171  -0.7136  -0.6943  -0.6918  -0.6873  -0.6780  -0.6551  -0.6452
    -0.6429  -0.6413  -0.6401  -0.6312  -0.6226  -0.6209  -0.5978  -0.5877
    -0.5656  -0.5632  -0.5615  -0.5601  -0.5589  -0.5356  -0.5280  -0.5231
    -0.5206  -0.5132  -0.5064  -0.5035  -0.4968  -0.4929  -0.4928  -0.4902
    -0.4888  -0.4862  -0.4853  -0.4750  -0.4593  -0.4570  -0.4537  -0.4514
    -0.4323  -0.4146  -0.4105  -0.4101  -0.4066  -0.3640  -0.3615  -0.3256
    -0.3252  -0.3072  -0.3042  -0.2996  -0.2808  -0.2801  -0.2661  -0.2656
    -0.2626  -0.2587  -0.2545  -0.2508  -0.2342  -0.1984  -0.1140  -0.1118
    -0.1105  -0.1077  -0.0874  -0.0781  -0.0772  -0.0765  -0.0608  -0.0592
    -0.0589  -0.0583  -0.0403  -0.0374  -0.0372  -0.0324  -0.0289  -0.0249
     0.0033   0.0040   0.0048   0.0072   0.0084   0.0182   0.0295   0.0297
     0.0332   0.0363   0.0877   0.0908   0.0912   0.0913   0.0986   0.1023
     0.1094   0.1171   0.1213   0.1330   0.1333   0.1545   0.1564   0.1569
     0.1618   0.1945   0.1947   0.1991   0.1993   0.2077   0.2083   0.2190
     0.2223   0.2230   0.2319   0.2365   0.2518   0.2587   0.2601   0.2887
     0.2903   0.2908   0.2934   0.2954   0.3076   0.3081   0.3094   0.3123
     0.3258   0.3379   0.3380   0.3489   0.3521   0.3525   0.3673   0.3767
     0.3788   0.3790   0.4055   0.4240   0.4256   0.4277   0.4335   0.4342
     0.4476   0.4694   0.4698   0.4763   0.4775   0.4812   0.4835   0.4847
     0.4899   0.4944   0.4956   0.4963   0.4976   0.4997   0.5027   0.5193
     0.5219   0.5231   0.5241   0.5295   0.5308   0.5481   0.5482   0.5641
     0.5677   0.5735   0.5840   0.6034   0.6042   0.6066   0.6072   0.6097
     0.6227   0.6265   0.6290   0.6304   0.6312   0.6328   0.6607   0.6680
     0.6781   0.6916   0.7387   0.7426   0.7434   0.7471   0.7577   0.7601
     0.7635   0.7642   0.7651   0.7726   0.7746   0.7758   0.7786   0.7801
     0.7825   0.7860   0.7952   0.7966   0.7985   0.7993   0.8073   0.8114
     0.8157   0.8204   0.8212   0.8240   0.8269   0.8452   0.8514   0.8563
     0.8852   0.8879   0.8954   0.8998   0.9132   0.9136   0.9310   0.9319
     0.9326   0.9361   0.9433   0.9513   0.9633   0.9664   0.9685   0.9758
     0.9762   0.9776   0.9809   0.9860   0.9868   0.9966   1.0069   1.0151
     1.0190   1.0322   1.0338   1.0348   1.0384   1.0399   1.0408   1.0443
     1.0450   1.0587   1.0684   1.0696   1.0726   1.0760   1.0812   1.0855
     1.0868   1.0878   1.0986   1.0996   1.1047   1.1069   1.1096   1.1267
     1.1287   1.1461   1.1471   1.1514   1.1534   1.1584   1.1588   1.1611
     1.1775   1.1913   1.1954   1.2127   1.2177   1.2304   1.2310   1.2347
     1.2368   1.2403   1.2453   1.2558   1.2602   1.2643   1.2675   1.2683
     1.2737   1.2806   1.2878   1.2920   1.2934   1.3045   1.3133   1.3140
     1.3147   1.3260   1.3430   1.3450   1.3464   1.3472   1.3658   1.3705
     1.3761   1.3802   1.3818   1.3831   1.3842   1.3910   1.3919   1.3934
     1.3984   1.4111   1.4247   1.4360   1.4379   1.4405   1.4446   1.4448
     1.4578   1.4598   1.4758   1.4762   1.4795   1.4825   1.4841   1.4893
     1.4916   1.4954   1.5050   1.5080   1.5087   1.5090   1.5103   1.5119
     1.5128   1.5162   1.5179   1.5213   1.5222   1.5256   1.5296   1.5347
     1.5462   1.5475   1.5504   1.5521   1.5562   1.5566   1.5650   1.5657
     1.5728   1.5803   1.5819   1.5931   1.5952   1.5963   1.5992   1.6003
     1.6096   1.6158   1.6224   1.6251   1.6301   1.6369   1.6396   1.6432
     1.6449   1.6477   1.6529   1.6633   1.6713   1.6773   1.6819   1.6833
     1.7126   1.7159   1.7183   1.7240   1.7325   1.7337   1.7370   1.7410
     1.7427   1.7437   1.7456   1.7510   1.7525   1.7628   1.7650   1.7689
     1.7694   1.7743   1.7868   1.7885   1.7904   1.7905   1.7949   1.8005
     1.8022   1.8031   1.8049   1.8060   1.8129   1.8134   1.8139   1.8198
     1.8216   1.8297   1.8336   1.8387   1.8422   1.8462   1.8464   1.8475
     1.8496   1.8581   1.8690   1.8692   1.8702   1.8917   1.8919   1.8999
     1.9011   1.9080   1.9115   1.9125   1.9138   1.9154   1.9169   1.9178
     1.9233   1.9243   1.9251   1.9291   1.9308   1.9429   1.9524   1.9526
     1.9545   1.9560   1.9584   1.9588   1.9621   1.9722   1.9726   1.9761
     1.9840   1.9870   1.9957   1.9962   2.0022   2.0055   2.0067   2.0251
     2.0348   2.0380   2.0444   2.0709   2.0947   2.1095   2.1127   2.1167
     2.1249   2.1457   2.1974   2.2322   2.2481   2.2495   2.2507   2.2711
     2.2888   2.2969   2.3252   2.3478   2.5139   2.5197   2.5498   2.5656
     2.5747   2.5811   2.6750   2.7021   2.7413   2.7422   3.0258   3.0499
     3.0548   3.0623   3.1212   3.4638   3.4643   3.4997   3.6805   3.6808
     3.7057   3.7057   3.7621   3.7671   3.9302   3.9550   4.0656   4.0711
     4.1186   4.1200   4.1900   4.1918   4.2050   4.2093   4.2535   4.3579
     4.3608   4.4564   4.4636   4.5800   4.6489   4.6613   4.7073   4.7647
     4.8554   4.9302   5.0826   5.2276   5.2426   5.3257   5.3477   5.6164
     5.7046   5.7057   5.7156   5.7326   5.8432   5.8555   5.9347   5.9532
     5.9691   5.9928   6.0502   6.0724   6.0933   6.1464   6.1896   6.2193
     6.2312   6.2900   6.3121   6.3647   6.4860   6.4946   6.5094   6.5452
     6.6220   7.1114   7.1714   7.1773   7.1934   7.2264   7.2394   7.2865
     7.3178   7.3911   7.4918   7.5049   7.5102   7.5194   7.5252   7.5564
     7.6342   7.7311   7.7406   7.7495   7.8085   7.8585   7.9033   7.9443
     8.0279   8.0385   8.0605   8.1134   8.1870   8.1983   8.2540   8.3002
     8.4877   8.4958   8.5376   8.5530   8.5885   8.6229   8.6875   8.7216
     8.7407   8.7708   8.7927   8.7946   8.8117   8.8714   8.8904   8.9281
     9.0079   9.0735   9.1265   9.1272   9.1797   9.2206   9.2849   9.3391
     9.4505   9.4628   9.4917   9.5830   9.6340   9.6548   9.6657   9.6735
     9.6919   9.7039   9.7544   9.7599   9.8808   9.8972   9.9486   9.9517
    10.0075  10.0279  10.0958  10.1297

          k = 0.2500-0.2165 0.0000 (256316 PWs)   bands (ev):

   -25.4396 -15.7026 -15.5453 -14.9240 -14.8334 -14.7156 -14.4830 -13.9464
   -13.7799 -13.4331 -13.3025 -12.7894 -12.6458 -12.4831 -12.4219 -12.1903
   -12.0468 -11.7313 -11.3337 -11.1802 -10.7220 -10.5822 -10.4454 -10.2652
   -10.1357  -9.6656  -9.0419  -8.8683  -8.5217  -8.4983  -8.3922  -8.2225
    -7.9039  -7.8432  -7.8030  -7.3838  -6.9201  -6.8707  -6.0766  -6.0415
    -5.9714  -5.9489  -5.7793  -5.7087  -5.5832  -5.3466  -5.2320  -5.2218
    -5.2035  -5.0332  -4.5074  -4.3815  -4.3402  -4.2637  -4.1894  -4.1878
    -4.1699  -4.0449  -3.8634  -3.8587  -3.8490  -3.7727  -3.6132  -3.5632
    -3.4882  -3.4000  -3.3414  -3.2648  -3.2205  -3.1048  -3.0862  -3.0294
    -2.9722  -2.9711  -2.9450  -2.9375  -2.8805  -2.7584  -2.6718  -2.5928
    -2.5681  -2.4965  -2.4727  -2.4402  -2.4227  -2.4223  -2.4196  -2.3257
    -2.3065  -2.2195  -2.1454  -2.0841  -1.9924  -1.8979  -1.8289  -1.8241
    -1.7642  -1.7620  -1.7223  -1.6895  -1.6801  -1.6800  -1.6691  -1.5280
    -1.5212  -1.5209  -1.4842  -1.4764  -1.4369  -1.3729  -1.3293  -1.3243
    -1.3235  -1.3200  -1.3005  -1.2676  -1.2560  -1.2354  -1.2328  -1.2216
    -1.2177  -1.2106  -1.1966  -1.1901  -1.1874  -1.1870  -1.1817  -1.1780
    -1.1764  -1.1592  -1.0944  -1.0886  -0.9803  -0.9795  -0.8789  -0.8768
    -0.8704  -0.8607  -0.8406  -0.8399  -0.8049  -0.7876  -0.7861  -0.7726
    -0.7723  -0.7619  -0.7603  -0.7568  -0.7483  -0.7421  -0.7369  -0.7339
    -0.7247  -0.7191  -0.7143  -0.7101  -0.7087  -0.7013  -0.6991  -0.6925
    -0.6458  -0.6443  -0.6432  -0.6357  -0.6343  -0.6316  -0.6235  -0.6226
    -0.5968  -0.5951  -0.5941  -0.5901  -0.5585  -0.5505  -0.5500  -0.5414
    -0.5383  -0.5365  -0.5067  -0.5053  -0.5047  -0.4875  -0.4830  -0.4743
    -0.4716  -0.4684  -0.4671  -0.4658  -0.4590  -0.4567  -0.4354  -0.4333
    -0.4130  -0.4104  -0.3803  -0.3735  -0.3719  -0.3717  -0.3014  -0.2914
    -0.2880  -0.2866  -0.2823  -0.2797  -0.2767  -0.2521  -0.2345  -0.2326
    -0.2231  -0.2229  -0.2153  -0.2150  -0.2061  -0.2036  -0.1845  -0.1643
    -0.1632  -0.1287  -0.1238  -0.1184  -0.0783  -0.0773  -0.0763  -0.0750
    -0.0727  -0.0692  -0.0449  -0.0439  -0.0366  -0.0281  -0.0202  -0.0117
    -0.0110   0.0020   0.0025   0.0168   0.0315   0.0345   0.0363   0.0449
     0.0516   0.0530   0.0809   0.0813   0.0946   0.0959   0.1070   0.1103
     0.1118   0.1203   0.1208   0.1256   0.1262   0.1312   0.1319   0.1372
     0.1377   0.1536   0.1575   0.1662   0.1725   0.1736   0.1976   0.2072
     0.2159   0.2196   0.2307   0.2417   0.2500   0.2505   0.2611   0.2702
     0.2717   0.2722   0.2748   0.2785   0.3093   0.3190   0.3356   0.3360
     0.3715   0.3722   0.3809   0.3812   0.3843   0.3851   0.4005   0.4020
     0.4022   0.4172   0.4193   0.4206   0.4338   0.4383   0.4430   0.4442
     0.4462   0.4488   0.4505   0.4521   0.4746   0.4782   0.4856   0.4860
     0.4868   0.4874   0.4888   0.4914   0.4924   0.4945   0.4976   0.4997
     0.5199   0.5204   0.5208   0.5211   0.5540   0.5553   0.5629   0.5644
     0.5682   0.5687   0.5862   0.5895   0.5912   0.6086   0.6186   0.6202
     0.6208   0.6301   0.6325   0.6394   0.6403   0.6436   0.6466   0.6578
     0.6610   0.6657   0.6684   0.6929   0.6963   0.7261   0.7568   0.7604
     0.7699   0.7708   0.7717   0.7730   0.7750   0.7760   0.7819   0.7833
     0.7852   0.7853   0.8038   0.8074   0.8101   0.8136   0.8168   0.8193
     0.8204   0.8265   0.8267   0.8336   0.8535   0.8572   0.8694   0.8697
     0.8799   0.8820   0.8934   0.8944   0.9293   0.9340   0.9376   0.9424
     0.9449   0.9474   0.9480   0.9585   0.9595   0.9617   0.9669   0.9683
     0.9690   0.9732   0.9750   0.9822   1.0002   1.0012   1.0085   1.0100
     1.0200   1.0225   1.0399   1.0566   1.0573   1.0582   1.0588   1.0874
     1.0911   1.0938   1.0947   1.0972   1.0983   1.1004   1.1027   1.1120
     1.1145   1.1154   1.1203   1.1226   1.1267   1.1362   1.1409   1.1447
     1.1476   1.1543   1.1549   1.1579   1.1584   1.1638   1.1684   1.1695
     1.1751   1.1784   1.1787   1.1905   1.1966   1.1989   1.1995   1.2051
     1.2062   1.2072   1.2080   1.2105   1.2115   1.2384   1.2460   1.2508
     1.2550   1.2592   1.2745   1.2869   1.2957   1.3017   1.3129   1.3133
     1.3148   1.3154   1.3193   1.3201   1.3409   1.3409   1.3429   1.3442
     1.3448   1.3463   1.3521   1.3606   1.3624   1.3713   1.3735   1.3790
     1.3847   1.3871   1.3935   1.4055   1.4146   1.4151   1.4247   1.4440
     1.4450   1.4476   1.4517   1.4537   1.4552   1.4574   1.4595   1.4652
     1.4787   1.4841   1.4892   1.4918   1.5050   1.5072   1.5090   1.5161
     1.5253   1.5302   1.5482   1.5487   1.5519   1.5695   1.5700   1.5735
     1.5759   1.5770   1.5778   1.5793   1.5804   1.5813   1.5830   1.5837
     1.5949   1.5955   1.6052   1.6068   1.6072   1.6158   1.6244   1.6300
     1.6517   1.6531   1.6549   1.6601   1.6615   1.6631   1.6640   1.6669
     1.6703   1.6764   1.6773   1.6792   1.6802   1.6836   1.6857   1.6905
     1.6917   1.6925   1.6976   1.7043   1.7060   1.7100   1.7122   1.7127
     1.7150   1.7182   1.7282   1.7331   1.7345   1.7354   1.7562   1.7597
     1.7665   1.7679   1.7740   1.7815   1.7842   1.7860   1.7960   1.7994
     1.7997   1.8087   1.8123   1.8178   1.8188   1.8213   1.8238   1.8253
     1.8334   1.8358   1.8374   1.8392   1.8485   1.8490   1.8558   1.8614
     1.8707   1.8709   1.8711   1.8735   1.8754   1.8761   1.8811   1.8818
     1.8926   1.8939   1.8961   1.8982   1.9049   1.9070   1.9115   1.9154
     1.9218   1.9252   1.9256   1.9261   1.9292   1.9331   1.9332   1.9338
     1.9384   1.9427   1.9429   1.9576   1.9668   1.9670   1.9754   1.9788
     1.9886   1.9912   1.9976   2.0104   2.0141   2.0172   2.0362   2.0392
     2.0400   2.0461   2.0470   2.0594   2.0735   2.0842   2.1283   2.1525
     2.1527   2.1724   2.2121   2.2433   2.2457   2.2570   2.2591   2.2728
     2.2756   2.2790   2.2833   2.3222   2.3310   2.3907   2.5524   2.6118
     2.6173   2.6457   2.6522   2.7734   2.7787   2.9880   3.0735   3.0777
     3.2732   3.2736   3.2760   3.2825   3.2940   3.3059   3.3183   3.3407
     3.4721   3.4735   3.5581   3.5729   4.0214   4.0289   4.0911   4.0970
     4.1188   4.1471   4.3214   4.3275   4.3324   4.3348   4.4790   4.4849
     4.5466   4.5512   4.6490   4.6515   4.8540   4.8615   4.8645   4.9550
     5.0296   5.0338   5.1469   5.1494   5.1877   5.2513   5.2712   5.3840
     5.3876   5.4582   5.4764   5.5040   5.6466   5.7194   5.7299   5.7682
     5.9060   5.9222   5.9298   5.9409   5.9474   5.9526   6.1121   6.2491
     6.2530   6.3587   6.3736   6.4294   6.4656   6.4908   6.7230   7.0581
     7.0759   7.0802   7.0852   7.2129   7.2188   7.3208   7.3316   7.4404
     7.4770   7.5053   7.5407   7.5568   7.5588   7.5832   7.6120   7.6535
     7.6982   7.7001   7.7874   7.8119   7.8190   7.8260   7.8587   7.8639
     7.9035   7.9118   8.1088   8.1422   8.1699   8.2019   8.2553   8.2748
     8.3068   8.3276   8.4258   8.4459   8.5005   8.6709   8.6748   8.7205
     8.7278   8.7523   8.8443   8.9072   8.9978   9.0428   9.0712   9.0728
     9.1057   9.1102   9.1485   9.1640   9.1852   9.2760   9.3200   9.3662
     9.3915   9.4279   9.4452   9.5642   9.5963   9.5998   9.6118   9.6530
     9.6600   9.6840   9.6948   9.7050   9.7149   9.7479   9.7569   9.8148
     9.8337   9.8416   9.8654   9.9304

          k =-0.5000 0.0000 0.0000 (256496 PWs)   bands (ev):

   -25.4396 -15.4055 -15.3385 -15.0553 -15.0192 -15.0027 -14.6750 -13.9421
   -13.9209 -13.8573 -13.5224 -12.3208 -12.1564 -12.1396 -12.0327 -11.8831
   -11.5428 -11.5045 -11.2565 -11.2484 -11.0839 -10.8986 -10.5438 -10.3088
   -10.1731  -9.8067  -9.4923  -9.3386  -9.1957  -8.9026  -8.3315  -8.3254
    -8.2532  -7.9317  -7.2605  -7.0715  -6.8188  -6.8085  -6.7839  -6.5080
    -6.2365  -6.1246  -5.2684  -5.1060  -4.8246  -4.8211  -4.5904  -4.5364
    -4.3197  -4.3176  -4.3167  -4.3120  -4.2020  -4.1937  -4.1304  -4.1292
    -4.0850  -4.0198  -3.9870  -3.9794  -3.8995  -3.8432  -3.7875  -3.7838
    -3.5446  -3.5200  -3.5177  -3.5035  -3.4934  -3.3995  -3.3596  -3.3046
    -3.0766  -3.0592  -3.0583  -2.9383  -2.9342  -2.9336  -2.9313  -2.8855
    -2.8032  -2.7835  -2.7574  -2.7405  -2.4474  -2.3534  -2.2933  -2.2840
    -2.2574  -2.2371  -2.1662  -2.1445  -2.1183  -2.0955  -1.9554  -1.9486
    -1.9077  -1.8316  -1.8134  -1.8120  -1.8103  -1.6972  -1.5842  -1.5194
    -1.3908  -1.3902  -1.3899  -1.3896  -1.3880  -1.3857  -1.2644  -1.2636
    -1.2616  -1.2342  -1.1624  -1.1622  -1.1616  -1.1605  -1.1138  -1.1129
    -1.1114  -1.1104  -1.0602  -1.0168  -1.0080  -1.0004  -0.9976  -0.9818
    -0.9383  -0.9375  -0.9369  -0.9328  -0.9170  -0.9152  -0.8750  -0.8684
    -0.8681  -0.8636  -0.8617  -0.8549  -0.8543  -0.8530  -0.8509  -0.8507
    -0.8479  -0.8373  -0.8032  -0.8030  -0.8015  -0.7978  -0.7790  -0.7783
    -0.7782  -0.7764  -0.7142  -0.7140  -0.6944  -0.6928  -0.6915  -0.6909
    -0.6660  -0.6657  -0.6655  -0.6623  -0.6620  -0.6615  -0.6604  -0.6449
    -0.6187  -0.6186  -0.6176  -0.6167  -0.6153  -0.5951  -0.5937  -0.5651
    -0.5645  -0.5212  -0.5199  -0.4914  -0.4906  -0.4887  -0.4876  -0.4635
    -0.4632  -0.4621  -0.4610  -0.4605  -0.4597  -0.4533  -0.4445  -0.4430
    -0.4397  -0.4385  -0.4369  -0.4335  -0.4152  -0.4133  -0.3530  -0.3513
    -0.3498  -0.3492  -0.3052  -0.3044  -0.2225  -0.2214  -0.2208  -0.2200
    -0.2029  -0.1947  -0.1871  -0.1844  -0.1835  -0.1821  -0.1817  -0.1745
    -0.1651  -0.1569  -0.1435  -0.1432  -0.1425  -0.1381  -0.1309  -0.1291
    -0.1126  -0.1098  -0.1096  -0.0971  -0.0265  -0.0251  -0.0124   0.0121
     0.0155   0.0167   0.0199   0.0329   0.0331   0.0400   0.0761   0.0785
     0.0821   0.0825   0.0840   0.0853   0.0867   0.0936   0.1106   0.1183
     0.1193   0.1197   0.1205   0.1299   0.1589   0.1600   0.1606   0.1612
     0.1940   0.1942   0.1945   0.1947   0.2064   0.2072   0.2391   0.2393
     0.2408   0.2418   0.2480   0.2515   0.2549   0.2620   0.2777   0.2888
     0.2913   0.3269   0.3527   0.3540   0.3547   0.3552   0.3589   0.3598
     0.3615   0.3628   0.3989   0.3999   0.4036   0.4073   0.4365   0.4378
     0.4613   0.4634   0.4641   0.4651   0.4659   0.4661   0.4670   0.4681
     0.4683   0.4686   0.4695   0.4711   0.4746   0.5193   0.5420   0.5462
     0.5477   0.5521   0.5554   0.5589   0.5614   0.5614   0.5623   0.5654
     0.5679   0.5699   0.5705   0.5730   0.5742   0.5762   0.5766   0.5834
     0.5907   0.5909   0.6044   0.6044   0.6046   0.6048   0.6060   0.6063
     0.6175   0.6175   0.6178   0.6179   0.6299   0.6306   0.6340   0.6418
     0.6422   0.6426   0.6433   0.6527   0.6727   0.6747   0.6857   0.7337
     0.7443   0.7737   0.7738   0.7769   0.7772   0.8085   0.8094   0.8105
     0.8114   0.8177   0.8220   0.8250   0.8263   0.8329   0.8334   0.8346
     0.8351   0.8407   0.8409   0.8418   0.8439   0.8442   0.8450   0.8490
     0.8523   0.8591   0.8611   0.8648   0.8705   0.8774   0.8778   0.8872
     0.8873   0.8918   0.8923   0.9118   0.9211   0.9752   0.9797   0.9833
     0.9835   0.9919   0.9951   1.0089   1.0092   1.0144   1.0152   1.0165
     1.0174   1.0200   1.0203   1.0208   1.0213   1.0216   1.0252   1.0280
     1.0284   1.0329   1.0345   1.0353   1.0382   1.0527   1.0566   1.0727
     1.0733   1.0807   1.0836   1.0932   1.0969   1.1058   1.1073   1.1103
     1.1107   1.1183   1.1190   1.1193   1.1236   1.1238   1.1248   1.1340
     1.1359   1.1404   1.1406   1.1528   1.1556   1.1560   1.1597   1.1903
     1.1949   1.1961   1.1972   1.1997   1.2033   1.2073   1.2160   1.2222
     1.2404   1.2521   1.2534   1.2547   1.2552   1.2559   1.2562   1.2594
     1.2949   1.3222   1.3227   1.3264   1.3271   1.3281   1.3299   1.3321
     1.3337   1.3406   1.3409   1.3424   1.3442   1.3533   1.3549   1.3731
     1.3743   1.3755   1.3768   1.3782   1.3855   1.3938   1.3950   1.3954
     1.3968   1.3978   1.3981   1.4272   1.4305   1.4333   1.4335   1.4455
     1.4469   1.4983   1.5022   1.5026   1.5029   1.5058   1.5223   1.5357
     1.5361   1.5367   1.5369   1.5526   1.5550   1.5564   1.5593   1.5651
     1.5671   1.5789   1.5807   1.5982   1.5990   1.6025   1.6038   1.6053
     1.6055   1.6088   1.6105   1.6138   1.6144   1.6214   1.6218   1.6227
     1.6233   1.6249   1.6252   1.6253   1.6294   1.6493   1.6587   1.6635
     1.6642   1.6644   1.6664   1.6952   1.6954   1.6988   1.7018   1.7022
     1.7036   1.7113   1.7189   1.7217   1.7295   1.7301   1.7303   1.7308
     1.7316   1.7413   1.7415   1.7421   1.7444   1.7482   1.7489   1.7597
     1.7692   1.7874   1.7882   1.7921   1.7993   1.8045   1.8046   1.8049
     1.8051   1.8060   1.8063   1.8104   1.8109   1.8188   1.8190   1.8200
     1.8203   1.8209   1.8214   1.8272   1.8275   1.8294   1.8299   1.8301
     1.8309   1.8377   1.8380   1.8529   1.8548   1.8567   1.8722   1.8731
     1.8745   1.8795   1.8806   1.8816   1.8822   1.8850   1.8996   1.9020
     1.9043   1.9050   1.9175   1.9193   1.9237   1.9263   1.9358   1.9365
     1.9371   1.9385   1.9467   1.9562   1.9563   1.9594   1.9607   1.9675
     1.9682   1.9682   1.9685   1.9712   1.9810   1.9871   1.9893   1.9951
     2.0013   2.0018   2.0021   2.0025   2.0123   2.0155   2.0181   2.0570
     2.0632   2.0671   2.0948   2.0957   2.0984   2.1008   2.1217   2.1522
     2.4634   2.5014   2.5187   2.5234   2.5446   2.6808   2.7297   2.7354
     2.7382   2.7688   2.7717   2.7805   2.7827   2.8818   3.1000   3.1027
     3.1043   3.1312   3.3158   3.3224   3.3250   3.3320   3.6707   3.6721
     3.6761   3.6771   3.9607   3.9629   4.2381   4.2396   4.2417   4.2513
     4.4047   4.4092   4.4108   4.4164   4.5543   4.5547   4.5597   4.5636
     4.6428   4.6493   4.8959   5.0340   5.0428   5.1742   5.2020   5.2119
     5.2139   5.2295   5.3118   5.3119   5.3525   5.3628   5.5040   5.5050
     5.5301   5.5332   5.5368   5.5413   5.5583   5.5586   5.5747   5.5822
     5.5947   5.6440   5.6462   5.8472   5.8609   6.0246   6.0293   6.0328
     6.0811   6.1442   6.1954   6.3778   6.4708   6.4733   6.4910   6.4951
     6.4980   6.5097   6.5117   6.5236   6.5967   6.8796   6.8862   6.9181
     6.9507   6.9681   6.9713   6.9850   7.4828   7.5676   7.5729   7.5855
     7.6023   7.6057   7.6564   7.7359   8.0600   8.0635   8.0663   8.0674
     8.0706   8.0781   8.0929   8.1262   8.1379   8.1823   8.3020   8.3112
     8.3338   8.3502   8.3574   8.3606   8.3617   8.3763   8.5326   8.5488
     8.5513   8.5573   8.5697   8.5861   8.5955   8.6095   8.6359   8.6872
     8.8208   9.1244   9.1567   9.1657   9.1908   9.2346   9.2779   9.2880
     9.2924   9.3065   9.3335   9.4729   9.5314   9.5346   9.5405   9.5502
     9.6536   9.7439   9.7472   9.7772   9.7967   9.8021   9.8200   9.8487
     9.8984   9.9081   9.9535   9.9866

          k =-0.5000-0.2165 0.0000 (256328 PWs)   bands (ev):

   -25.4396 -15.3386 -15.3254 -15.2809 -15.0773 -14.5848 -14.5534 -14.5262
   -14.1534 -13.1296 -13.1153 -13.0202 -12.7993 -12.2442 -11.5188 -11.5172
   -11.3611 -11.3278 -11.0576 -11.0530 -10.9758 -10.9089 -10.8576 -10.8487
   -10.7295  -9.9227  -9.1699  -9.1442  -8.9964  -8.8175  -8.2210  -8.1928
    -8.1432  -7.9055  -7.4947  -7.4804  -7.4190  -6.9871  -6.6984  -6.5933
    -5.3605  -5.3350  -5.1597  -5.1052  -4.7209  -4.7037  -4.6980  -4.6968
    -4.6939  -4.6848  -4.6564  -4.5365  -4.5297  -4.4235  -4.2264  -4.1605
    -3.8733  -3.8693  -3.8604  -3.7769  -3.7135  -3.7128  -3.7107  -3.7044
    -3.6253  -3.6129  -3.5433  -3.3962  -3.3903  -3.3756  -3.3436  -3.2871
    -3.1070  -3.0971  -3.0615  -3.0535  -3.0390  -3.0304  -2.9937  -2.9763
    -2.9549  -2.7847  -2.5767  -2.5674  -2.5459  -2.3644  -2.3478  -2.2842
    -2.0922  -2.0921  -2.0910  -2.0888  -2.0393  -2.0388  -2.0306  -1.9959
    -1.7439  -1.7120  -1.6377  -1.6128  -1.6119  -1.6074  -1.5977  -1.5473
    -1.5266  -1.5261  -1.5259  -1.5144  -1.4425  -1.4149  -1.3161  -1.3148
    -1.3126  -1.3088  -1.2541  -1.2526  -1.2115  -1.1315  -1.0362  -1.0155
    -1.0133  -1.0040  -1.0036  -1.0034  -1.0031  -0.9731  -0.9686  -0.9679
    -0.9650  -0.9626  -0.9457  -0.9452  -0.9440  -0.9438  -0.8961  -0.8954
    -0.8946  -0.8943  -0.8937  -0.8930  -0.8887  -0.8849  -0.8695  -0.8691
    -0.8687  -0.8685  -0.8387  -0.8216  -0.8190  -0.8188  -0.8111  -0.7429
    -0.7428  -0.7412  -0.7243  -0.7009  -0.7008  -0.6997  -0.6996  -0.6836
    -0.6823  -0.6807  -0.6758  -0.6472  -0.6320  -0.6318  -0.6313  -0.6305
    -0.6270  -0.6269  -0.6269  -0.6254  -0.5984  -0.5970  -0.5937  -0.5696
    -0.5694  -0.5637  -0.5616  -0.5525  -0.5521  -0.5488  -0.5485  -0.5476
    -0.5464  -0.5463  -0.5447  -0.5439  -0.4660  -0.4385  -0.3958  -0.3947
    -0.3936  -0.3913  -0.3627  -0.3622  -0.3618  -0.3613  -0.2820  -0.2814
    -0.2812  -0.2797  -0.2754  -0.2749  -0.2730  -0.2728  -0.2725  -0.2717
    -0.2697  -0.2621  -0.2104  -0.2096  -0.2089  -0.2077  -0.2014  -0.2003
    -0.1987  -0.1986  -0.1805  -0.1799  -0.1764  -0.1723  -0.0878  -0.0872
    -0.0871  -0.0831  -0.0801  -0.0801  -0.0786  -0.0735  -0.0108  -0.0101
    -0.0085  -0.0064   0.0401   0.0404   0.0411   0.0417   0.0608   0.0608
     0.0621   0.0624   0.0843   0.0854   0.0857   0.0893   0.0997   0.1004
     0.1011   0.1024   0.1352   0.1386   0.1392   0.1420   0.2151   0.2153
     0.2187   0.2197   0.2327   0.2329   0.2335   0.2340   0.2473   0.2484
     0.2486   0.2493   0.3300   0.3313   0.3318   0.3326   0.3342   0.3350
     0.3366   0.3378   0.3382   0.3397   0.3398   0.3417   0.3765   0.3766
     0.3767   0.3773   0.3889   0.3890   0.3894   0.3897   0.3934   0.3939
     0.3946   0.3960   0.4607   0.4622   0.4623   0.4645   0.4767   0.4883
     0.4887   0.4916   0.4947   0.5272   0.5303   0.5368   0.5425   0.5459
     0.5482   0.5641   0.5688   0.5689   0.5701   0.5707   0.5749   0.5769
     0.5772   0.5779   0.5802   0.5820   0.5828   0.5893   0.5897   0.5904
     0.5914   0.5938   0.5939   0.5945   0.5950   0.5984   0.6125   0.6129
     0.6132   0.6147   0.6395   0.6396   0.6398   0.6398   0.6481   0.6497
     0.6502   0.6535   0.7002   0.7005   0.7008   0.7011   0.7270   0.7332
     0.7336   0.7351   0.7528   0.7861   0.7932   0.8064   0.8094   0.8130
     0.8165   0.8187   0.8190   0.8231   0.8252   0.8345   0.8353   0.8358
     0.8372   0.8446   0.8487   0.8491   0.8540   0.8552   0.8562   0.8588
     0.8596   0.8604   0.8624   0.8633   0.8666   0.8677   0.8684   0.8757
     0.8769   0.9370   0.9374   0.9416   0.9418   0.9459   0.9466   0.9469
     0.9494   0.9529   0.9531   0.9551   0.9557   0.9912   0.9924   0.9971
     0.9982   0.9993   1.0003   1.0038   1.0060   1.0418   1.0425   1.0427
     1.0435   1.0463   1.0487   1.0542   1.0566   1.0566   1.0573   1.0588
     1.0603   1.0646   1.0648   1.0654   1.0690   1.0794   1.0800   1.0810
     1.0815   1.0825   1.0925   1.0972   1.0981   1.1537   1.1613   1.1671
     1.1692   1.1703   1.1732   1.1734   1.1750   1.1754   1.1763   1.1778
     1.1791   1.1845   1.1877   1.1945   1.1951   1.2144   1.2160   1.2163
     1.2170   1.2177   1.2193   1.2197   1.2242   1.2596   1.2656   1.2708
     1.2720   1.2892   1.3001   1.3013   1.3017   1.3042   1.3083   1.3132
     1.3174   1.3335   1.3344   1.3349   1.3373   1.3612   1.3618   1.3645
     1.3673   1.4138   1.4153   1.4162   1.4167   1.4384   1.4468   1.4482
     1.4484   1.4501   1.4782   1.4997   1.4999   1.5012   1.5037   1.5144
     1.5164   1.5242   1.5251   1.5287   1.5299   1.5313   1.5324   1.5329
     1.5329   1.5333   1.5361   1.5364   1.5378   1.5393   1.5437   1.5466
     1.5588   1.5617   1.5641   1.5661   1.5676   1.5685   1.5695   1.5705
     1.5707   1.5750   1.5831   1.5866   1.5874   1.6024   1.6061   1.6103
     1.6106   1.6126   1.6142   1.6196   1.6213   1.6273   1.6300   1.6306
     1.6326   1.6622   1.6766   1.6793   1.6803   1.6810   1.6814   1.6829
     1.6873   1.7036   1.7096   1.7106   1.7110   1.7120   1.7160   1.7274
[...]
     atom   46 type  1   force =    -0.00000003    0.00003371    0.00007542
     atom   47 type  1   force =    -0.00001405   -0.00000696    0.00004297
     atom   48 type  1   force =    -0.00001780    0.00002750    0.00008208
     atom   49 type  1   force =     0.00000232    0.00003165    0.00006076
     atom   50 type  1   force =    -0.00001458   -0.00004191    0.00014092
     atom   51 type  1   force =    -0.00002862    0.00002932    0.00015891
     atom   52 type  1   force =    -0.00000374   -0.00003272    0.00013968
     atom   53 type  1   force =    -0.00000084   -0.00006246    0.00008549
     atom   54 type  1   force =     0.00000703   -0.00003883    0.00004126
     atom   55 type  1   force =    -0.00000934   -0.00006892    0.00011538
     atom   56 type  1   force =     0.00000789   -0.00001621    0.00003132
     atom   57 type  1   force =     0.00003076   -0.00002159    0.00001127
     atom   58 type  1   force =     0.00001478   -0.00002307   -0.00002159
     atom   59 type  1   force =     0.00001171   -0.00001460    0.00001045
     atom   60 type  1   force =     0.00002562   -0.00003125   -0.00000398
     atom   61 type  1   force =     0.00000510   -0.00018684   -0.00014210
     atom   62 type  1   force =     0.00001480   -0.00007726   -0.00006441
     atom   63 type  1   force =    -0.00001569   -0.00005719   -0.00002782
     atom   64 type  1   force =    -0.00000950   -0.00007638   -0.00004325
     atom   65 type  1   force =     0.00002103    0.00009745    0.00002559
     atom   66 type  1   force =     0.00000930   -0.00009794   -0.00010858
     atom   67 type  1   force =    -0.00004491   -0.00009976   -0.00005544
     atom   68 type  1   force =    -0.00002773   -0.00016880   -0.00020493
     atom   69 type  1   force =     0.00000256   -0.00017906    0.00030157
     atom   70 type  1   force =    -0.00016100    0.00002338    0.00016662
     atom   71 type  1   force =    -0.00005228    0.00002138    0.00012344
     atom   72 type  1   force =     0.00009133    0.00004048    0.00002135
     atom   73 type  1   force =    -0.00000325    0.00000034    0.00000243
     atom   74 type  1   force =    -0.00003132   -0.00006400    0.00014057
     atom   75 type  1   force =    -0.00002397   -0.00004580    0.00003328
     atom   76 type  1   force =    -0.00002183   -0.00002587    0.00010342
     atom   77 type  1   force =     0.00000192    0.00000381   -0.00003389
     atom   78 type  1   force =    -0.00000232    0.00002961   -0.00003621
     atom   79 type  1   force =     0.00001862   -0.00002913   -0.00004062
     atom   80 type  1   force =     0.00001162    0.00001910   -0.00002055
     atom   81 type  1   force =    -0.00001357   -0.00004544   -0.00001050
     atom   82 type  1   force =     0.00009268   -0.00006355   -0.00015362
     atom   83 type  1   force =     0.00000890   -0.00006896   -0.00001077
     atom   84 type  1   force =    -0.00009458   -0.00007274   -0.00013524
     atom   85 type  1   force =    -0.00003316   -0.00013847   -0.00040059
     atom   86 type  1   force =    -0.00004917   -0.00004466   -0.00007740
     atom   87 type  1   force =     0.00005577   -0.00001570    0.00011303
     atom   88 type  1   force =     0.00008204   -0.00003659   -0.00031516
     atom   89 type  1   force =    -0.00007180   -0.00008957    0.00062708
     atom   90 type  1   force =     0.00004582   -0.00014857    0.00028032
     atom   91 type  1   force =    -0.00001151   -0.00023481   -0.00031947
     atom   92 type  1   force =    -0.00009700   -0.00020663    0.00014479
     atom   93 type  1   force =    -0.00005807   -0.00015003    0.00027604
     atom   94 type  1   force =    -0.00001179   -0.00003657   -0.00007144
     atom   95 type  1   force =    -0.00001368   -0.00009000    0.00042524
     atom   96 type  1   force =    -0.00004067   -0.00000991   -0.00006162
     atom   97 type  1   force =     0.00000531    0.00007326   -0.00007512
     atom   98 type  1   force =     0.00000204    0.00001589   -0.00001409
     atom   99 type  1   force =    -0.00002155    0.00001419   -0.00006478
     atom  100 type  1   force =    -0.00000425   -0.00000882    0.00002542
     atom  101 type  2   force =     0.00002863   -0.00306914   -0.00109676
     atom  102 type  2   force =     0.00016688   -0.00118272   -0.00143832
     atom  103 type  2   force =     0.00056073    0.00173680   -0.00011676
     atom  104 type  2   force =     0.00123183    0.00137968   -0.00016760
     atom  105 type  2   force =     0.00016332   -0.00086606   -0.00069745
     atom  106 type  2   force =    -0.00045599   -0.00105035   -0.00090074
     atom  107 type  2   force =     0.00019024    0.00116914    0.00010356
     atom  108 type  2   force =     0.00010038    0.00237931    0.00190577
     atom  109 type  2   force =    -0.00006757   -0.00112523   -0.00062311
     atom  110 type  2   force =     0.00167875   -0.00092484   -0.00073408
     atom  111 type  2   force =    -0.00001428    0.00185836    0.00005980
     atom  112 type  2   force =    -0.00100584    0.00169732   -0.00025619
     atom  113 type  2   force =     0.00043159    0.00177545    0.00173623
     atom  114 type  2   force =    -0.00225815   -0.00036092    0.00601123
     atom  115 type  2   force =    -0.00008827   -0.00439609    0.00138364
     atom  116 type  2   force =    -0.00132279   -0.00046306   -0.00158357
     atom  117 type  2   force =     0.00094527    0.00013143   -0.00195814
     atom  118 type  2   force =    -0.00046164   -0.00049601   -0.01185233
     atom  119 type  2   force =     0.00091866   -0.00261089    0.00483449
     atom  120 type  2   force =    -0.00477763   -0.00128135    0.00865457
     atom  121 type  3   force =     0.00054402   -0.00065430   -0.00866685
     atom  122 type  4   force =     0.00517094    0.00258488   -0.00618416
     atom  123 type  2   force =    -0.00123222    0.00089110    0.00022635
     atom  124 type  2   force =    -0.00505867    0.00239807   -0.00232181
     atom  125 type  2   force =     0.00057496   -0.00296620    0.00116994
     atom  126 type  2   force =    -0.00109008   -0.00147018    0.00124109
     atom  127 type  2   force =     0.00197663   -0.00263241    0.00325004
     atom  128 type  2   force =    -0.00063258    0.00262552   -0.00180199
     atom  129 type  2   force =    -0.00071838    0.00236474    0.00361205
     atom  130 type  2   force =     0.00188167   -0.00067659   -0.00005997
     atom  131 type  2   force =    -0.00052898   -0.00028407   -0.00077452
     atom  132 type  2   force =     0.00038001    0.00351162    0.00271075
     atom  133 type  2   force =     0.00108725   -0.00041411   -0.00436705
     atom  134 type  2   force =    -0.00185988   -0.00101794    0.00151611
     atom  135 type  2   force =    -0.00166752   -0.00244762   -0.00014082
     atom  136 type  2   force =     0.00316688    0.00164206    0.00288365
     atom  137 type  2   force =     0.00024844    0.00228110    0.00335282
     atom  138 type  2   force =    -0.00072075   -0.00054092   -0.00026721
     atom  139 type  2   force =     0.00042979    0.00301952   -0.00116194
     atom  140 type  2   force =     0.00033789   -0.00066481   -0.00015995
     atom  141 type  2   force =    -0.00019952    0.00052252   -0.00088296
     atom  142 type  2   force =    -0.00040391   -0.00024218    0.00044051
     atom  143 type  2   force =    -0.00023374    0.00118205   -0.00080639
     atom  144 type  2   force =     0.00085354   -0.00058819    0.00014665
     atom  145 type  2   force =     0.00121833    0.00101589   -0.00136407
     atom  146 type  2   force =     0.00006704   -0.00007370    0.00033719
     atom  147 type  2   force =    -0.00046233    0.00192876   -0.00064932
     atom  148 type  2   force =    -0.00036125   -0.00096284    0.00025565
     atom  149 type  2   force =     0.00069563   -0.00084933   -0.00083189
     atom  150 type  2   force =     0.00039618   -0.00010792    0.00067347

     Total force =     0.027950     Total SCF correction =     0.000363

     number of scf cycles    =  11
     number of bfgs steps    =  10

     energy   old            =  -12731.8469938028 Ry
     energy   new            =  -12731.8494193193 Ry

     CASE: energy  _new < energy  _old

     new trust radius        =       0.0746506536 bohr
     new conv_thr            =       0.0000000100 Ry


ATOMIC_POSITIONS (angstrom)
Cu      -0.000086051   0.001519893   7.365092009
Cu       1.844571851   1.706208991   7.365549920
Cu       3.689052323   0.001772075   7.365316222
Cu       5.533586288   1.706233522   7.365392612
Cu       0.000158477   3.409038084   7.364698174
Cu       1.844547001   5.111538644   7.362054268
Cu       3.689131791   3.409025238   7.363865976
Cu       5.533903380   5.111544179   7.361896582
Cu       0.000257384   6.814821859   7.360855453
Cu       1.844765864   8.518175773   7.361993249
Cu       3.689196602   6.814647647   7.360515604
Cu       5.533669548   8.518097801   7.361848901
Cu       0.000043892  10.220830381   7.364427292
Cu       1.844637923  11.923440629   7.366369326
Cu       3.689218529  10.220943491   7.364742207
Cu       5.533485141  11.923646623   7.366221649
Cu       0.000094896  13.627920490   7.365889643
Cu       1.844428084  15.334226061   7.365075868
Cu       3.688848402  13.627694748   7.366019691
Cu       5.533503222  15.334053668   7.365049946
Cu       0.000309019   1.706769362   9.198308622
Cu       1.844848168   0.001327458   9.196112674
Cu       3.689409863   1.707813690   9.198646266
Cu       5.533681117   0.001426636   9.196145090
Cu       0.000555800   5.114626938   9.197384500
Cu       1.845115261   3.411918332   9.198972109
Cu       3.689602175   5.114152884   9.196698152
Cu       5.533895450   3.411978805   9.198838305
Cu       0.000526900   8.515699328   9.196481583
Cu       1.845313057   6.815015111   9.195531245
Cu       3.689649456   8.515156392   9.196792002
Cu       5.533968245   6.814969720   9.195393001
Cu       0.000331903  11.921718482   9.199017547
Cu       1.845255468  10.217395263   9.199292148
Cu       3.689398210  11.921683635   9.200273964
Cu       5.533780033  10.217353496   9.199250415
Cu       0.000146213  15.334148795   9.195209121
Cu       1.844815301  13.627852423   9.197102042
Cu       3.689251018  15.334124065   9.194917143
Cu       5.533710697  13.627775536   9.197044310
Cu       0.000634826  -0.000943717  11.035619525
Cu       1.846083309   1.706373234  11.037342602
Cu       3.689783132  -0.000627181  11.035054712
Cu       5.533644173   1.706661790  11.037489993
Cu       0.000960345   3.413772171  11.039057213
Cu       1.846309147   5.118459467  11.043048687
Cu       3.690090067   3.415854502  11.042420261
Cu       5.534042643   5.118527038  11.043190657
Cu       0.001163311   6.816951442  11.043483500
Cu       1.846006797   8.511771189  11.043932646
Cu       3.690334200   6.814817862  11.045068949
Cu       5.534487361   8.511513849  11.044195689
Cu       0.001091700  10.213930852  11.041711787
Cu       1.845571248  11.920991432  11.038864021
Cu       3.690190711  10.211942828  11.043569152
Cu       5.534375013  11.920943437  11.038852015
Cu       0.000725360  13.628634758  11.035607239
Cu       1.845004481  15.334253101  11.035119777
Cu       3.689799705  13.630362594  11.036283934
Cu       5.534358648  15.334192341  11.035037557
Cu       0.001195243   1.703470094  12.868325085
Cu       1.846530045  -0.002586104  12.874439826
Cu       3.690354052   1.701489443  12.873900122
Cu       5.533872943  -0.002542283  12.874269403
Cu       0.001582933   5.117605073  12.882033402
Cu       1.850270780   3.412404000  12.875333839
Cu       3.690633088   5.123630027  12.897603210
Cu       5.530647707   3.412775026  12.875841442
Cu       0.001850771   8.511942493  12.895468877
Cu       1.848243545   6.816549124  12.899205642
Cu       3.690802876   8.505088702  12.898694577
Cu       5.533249626   6.816140077  12.900093044
Cu       0.001579883  11.923869630  12.874157968
Cu       1.845223476  10.212718856  12.880994949
Cu       3.690648784  11.924003331  12.869692054
Cu       5.536376786  10.212651458  12.880836041
Cu       0.001247057  15.332703342  12.876669627
Cu       1.844573073  13.631289194  12.873352426
Cu       3.690196580  15.335791400  12.877364290
Cu       5.536229607  13.631270692  12.873344481
Cu       0.001581965   0.001671337  14.686747282
Cu       1.845198070   1.701581539  14.683494260
Cu       3.690256091  -0.000484712  14.700411731
Cu       5.535711624   1.701862692  14.683091854
Cu       0.002108784   3.405902199  14.671094256
Cu       1.861330116   5.104549127  14.702486692
Cu       3.689998509   3.393123466  14.699510303
Cu       5.520069783   5.103886458  14.703461506
Cu       0.001636612   6.800507360  14.715687800
Cu       1.846114951   8.520479602  14.721706005
Cu       3.690855110   6.822342266  14.771091956
Cu       5.536043053   8.520963059  14.720617656
Cu       0.002532086  10.227825847  14.700580881
Cu       1.843534345  11.927433659  14.682089626
Cu       3.690620812  10.228045625  14.686866471
Cu       5.538520890  11.926481914  14.681862577
Cu       0.001390685  13.629977456  14.697633509
Cu       1.846107163  15.333249841  14.693766900
Cu       3.691164220  13.625750340  14.684302851
Cu       5.535056728  15.333869548  14.693341830
C       -0.001145629   0.716138617  17.619546047
C       -0.000086257   2.136355611  17.590898060
C        1.227947506   0.006453073  17.623563820
C        1.228778301   2.847191365  17.566130306
C        2.456645470   0.715773112  17.602954609
C        2.456904236   2.135636277  17.574223156
C        3.687499297   0.004605263  17.601518472
C        3.688584118   2.850974820  17.560120084
C        4.918589670   0.715504468  17.601455649
C        4.919923573   2.135333010  17.572362663
C        6.147476468   0.006570288  17.621657467
C        6.149299271   2.845876244  17.563494569
C        0.002935412   4.975296709  17.516993999
C        0.005917858   6.392876818  17.495610518
C        1.230094708   4.264460788  17.538621095
C        1.240620160   7.098597154  17.586027701
C        2.459129476   4.980814420  17.605136568
C        2.446941859   6.384774148  17.684594028
C        3.690798158   4.264959106  17.599918569
C        3.688249182   7.097121039  18.089340786
O        3.545612857   7.041897106  19.627363462
H        4.449529733   7.105176279  20.006236313
C        4.923882169   4.978801491  17.604409618
C        4.938227258   6.385882328  17.699726736
C        6.152314716   4.263268626  17.535288741
C        6.149228458   7.098943999  17.585685694
C        0.004512552   9.226803513  17.544796706
C        0.000437527  10.651709081  17.534889317
C        1.234991004   8.523367692  17.588194778
C        1.232029016  11.360355363  17.552565738
C        2.469233826   9.232063696  17.634645414
C        2.462388480  10.653598249  17.577044647
C        3.694128278   8.541952826  17.733868889
C        3.688104130  11.362906055  17.591158526
C        4.914795955   9.232582169  17.631138726
C        4.917814117  10.655232138  17.574579611
C        6.151171717   8.524023294  17.584815718
C        6.146765609  11.361483902  17.551201135
C       -0.000922480  13.493006566  17.586085732
C       -0.001432813  14.912472366  17.617898097
C        1.230301961  12.781125526  17.582669220
C        1.227214921  15.623727368  17.621245413
C        2.458168996  13.492329586  17.614865041
C        2.458274377  14.912328334  17.621351069
C        3.688077390  12.783504280  17.609730502
C        3.687269151  15.622547073  17.623354950
C        4.916685126  13.492702959  17.613023985
C        4.916538569  14.912307922  17.619138459
C        6.145924612  12.781514871  17.581370261
C        6.147577025  15.623785432  17.618829188



     Writing output data file gc.save
     Check: negative starting charge=   -0.001743
     NEW-OLD atomic charge density approx. for the potential
     Check: negative starting charge=   -0.001745

     negative rho (up, down):  1.893E-03 0.000E+00

     total cpu time spent up to now is    44461.5 secs

     Self-consistent Calculation

     iteration #  1     ecut=    80.00 Ry     beta=0.70
     Davidson diagonalization with overlap
     ethr =  1.00E-06,  avg # of iterations =  4.0

     negative rho (up, down):  2.128E-03 0.000E+00

     total cpu time spent up to now is    44826.6 secs

     total energy              =  -12731.85005848 Ry
     Harris-Foulkes estimate   =  -12731.85039811 Ry
     estimated scf accuracy    <       0.00273620 Ry

     iteration #  2     ecut=    80.00 Ry     beta=0.70
     Davidson diagonalization with overlap
     ethr =  2.11E-07,  avg # of iterations =  2.0

     negative rho (up, down):  2.230E-03 0.000E+00

     total cpu time spent up to now is    45015.7 secs

     total energy              =  -12731.85008473 Ry
     Harris-Foulkes estimate   =  -12731.85021438 Ry
     estimated scf accuracy    <       0.00055358 Ry

     iteration #  3     ecut=    80.00 Ry     beta=0.70
     Davidson diagonalization with overlap
     ethr =  4.26E-08,  avg # of iterations =  2.2

     negative rho (up, down):  2.340E-03 0.000E+00

     total cpu time spent up to now is    45220.4 secs

     total energy              =  -12731.85011398 Ry
     Harris-Foulkes estimate   =  -12731.85018225 Ry
     estimated scf accuracy    <       0.00073194 Ry

     iteration #  4     ecut=    80.00 Ry     beta=0.70
     Davidson diagonalization with overlap
     ethr =  4.26E-08,  avg # of iterations =  2.0

     negative rho (up, down):  2.303E-03 0.000E+00

     total cpu time spent up to now is    45414.3 secs

     total energy              =  -12731.85014434 Ry
     Harris-Foulkes estimate   =  -12731.85014647 Ry
     estimated scf accuracy    <       0.00003193 Ry

     iteration #  5     ecut=    80.00 Ry     beta=0.70
     Davidson diagonalization with overlap
     ethr =  2.46E-09,  avg # of iterations =  3.0

     negative rho (up, down):  2.225E-03 0.000E+00

     total cpu time spent up to now is    45623.7 secs

     total energy              =  -12731.85014514 Ry
     Harris-Foulkes estimate   =  -12731.85014693 Ry
     estimated scf accuracy    <       0.00002204 Ry

     iteration #  6     ecut=    80.00 Ry     beta=0.70
     Davidson diagonalization with overlap
     ethr =  1.70E-09,  avg # of iterations =  1.3

     negative rho (up, down):  2.102E-03 0.000E+00

     total cpu time spent up to now is    45807.7 secs

     total energy              =  -12731.85014563 Ry
     Harris-Foulkes estimate   =  -12731.85014633 Ry
     estimated scf accuracy    <       0.00001099 Ry

     iteration #  7     ecut=    80.00 Ry     beta=0.70
     Davidson diagonalization with overlap
     ethr =  8.46E-10,  avg # of iterations =  1.7

     negative rho (up, down):  2.027E-03 0.000E+00

     total cpu time spent up to now is    45996.6 secs

     total energy              =  -12731.85014607 Ry
     Harris-Foulkes estimate   =  -12731.85014610 Ry
     estimated scf accuracy    <       0.00000153 Ry

     iteration #  8     ecut=    80.00 Ry     beta=0.70
     Davidson diagonalization with overlap
     ethr =  1.17E-10,  avg # of iterations =  2.3

     negative rho (up, down):  1.969E-03 0.000E+00

     total cpu time spent up to now is    46190.6 secs

     total energy              =  -12731.85014627 Ry
     Harris-Foulkes estimate   =  -12731.85014620 Ry
     estimated scf accuracy    <       0.00000039 Ry

     iteration #  9     ecut=    80.00 Ry     beta=0.70
     Davidson diagonalization with overlap
     ethr =  2.97E-11,  avg # of iterations =  2.5

     negative rho (up, down):  1.929E-03 0.000E+00

     total cpu time spent up to now is    46394.8 secs

     total energy              =  -12731.85014640 Ry
     Harris-Foulkes estimate   =  -12731.85014632 Ry
     estimated scf accuracy    <       0.00000018 Ry

     iteration # 10     ecut=    80.00 Ry     beta=0.70
     Davidson diagonalization with overlap
