mpirun: INFO: switching to OpenMPI runtime version 1.10.2

     Program PWSCF v.5.4.0 starts on 12May2017 at 10:23: 8 

     This program is part of the open-source Quantum ESPRESSO suite
     for quantum simulation of materials; please cite
         "P. Giannozzi et al., J. Phys.:Condens. Matter 21 395502 (2009);
          URL http://www.quantum-espresso.org", 
     in publications or presentations arising from this work. More details at
     http://www.quantum-espresso.org/quote

     Parallel version (MPI & OpenMP), running on      56 processor cores
     Number of MPI processes:                56
     Threads/MPI process:                     1
     R & G space division:  proc/nbgrp/npool/nimage =      56
     Waiting for input...
     Reading input from standard input
Warning: card &IONS ignored
Warning: card / ignored

     Current dimensions of program PWSCF are:
     Max number of different atomic species (ntypx) = 10
     Max number of k-points (npk) =  40000
     Max angular momentum in pseudopotentials (lmaxx) =  3
     WARNING: atomic wfc #  2 for atom type 4 has zero norm
     WARNING: atomic wfc #  4 for atom type 4 has zero norm
     WARNING: atomic wfc #  5 for atom type 4 has zero norm

     -------------------------------------
     Parameters for Dispersion Correction:
     -------------------------------------
       atom      VdW radius       C_6     

        Cu         2.952        374.666
        C_h        2.744         60.710
        C          2.744         60.710
        O          2.536         24.284
        H          1.892          4.857

     Subspace diagonalization in iterative solution of the eigenvalue problem:
     one sub-group per band group will be used
     scalapack distributed-memory algorithm (size of sub-group:  5*  5 procs)

 
     Parallelization info
     --------------------
     sticks:   dense  smooth     PW     G-vecs:    dense   smooth      PW
     Min         204     204     54                36612    36612    4962
     Max         205     205     55                36617    36617    4968
     Sum       11433   11433   3039              2050409  2050409  278033
 


     bravais-lattice index     =            0
     lattice parameter (alat)  =      13.9425  a.u.
     unit-cell volume          =   21209.0878 (a.u.)^3
     number of atoms/cell      =          152
     number of atomic types    =            5
     number of electrons       =      1309.00
     number of Kohn-Sham states=          786
     kinetic-energy cutoff     =      80.0000  Ry
     charge density cutoff     =     320.0000  Ry
     convergence threshold     =      1.0E-08
     mixing beta               =       0.7000
     number of iterations used =            8  local-TF  mixing
     Exchange-correlation      =  SLA  PW   PBE  PBE ( 1  4  3  4 0 0)

     celldm(1)=  13.942539  celldm(2)=   0.000000  celldm(3)=   0.000000
     celldm(4)=   0.000000  celldm(5)=   0.000000  celldm(6)=   0.000000

     crystal axes: (cart. coord. in units of alat)
               a(1) = (   1.000000   0.000000   0.000000 )  
               a(2) = (   0.000000   2.309401   0.000000 )  
               a(3) = (   0.000000   0.000000   3.388418 )  

     reciprocal axes: (cart. coord. in units 2 pi/alat)
               b(1) = (  1.000000  0.000000  0.000000 )  
               b(2) = (  0.000000  0.433013  0.000000 )  
               b(3) = (  0.000000  0.000000  0.295123 )  


     PseudoPot. # 1 for Cu read from file:
     /home/549/hxw549/Short/pseudopotentials/Cu.pbe-n-van_ak.UPF
     MD5 check sum: 601f7c30f7467666bec936e0661ce3e1
     Pseudo is Ultrasoft + core correction, Zval = 11.0
     Generated by new atomic code, or converted to UPF format
     Using radial grid of  867 points,  6 beta functions with: 
                l(1) =   0
                l(2) =   0
                l(3) =   1
                l(4) =   1
                l(5) =   2
                l(6) =   2
     Q(r) pseudized with  8 coefficients,  rinner =    1.400   1.400   1.400
                                                       1.400   1.400

     PseudoPot. # 2 for C  read from file:
     /home/549/hxw549/Short/pseudopotentials/C.star1s-pbe-mt_gipaw.UPF
     MD5 check sum: ef0cb3dee31bd9e4ba2a832a2c716264
     Pseudo is Norm-conserving, Zval =  5.0
     Generated by new atomic code, or converted to UPF format
     Using radial grid of 1073 points,  1 beta functions with: 
                l(1) =   0

     PseudoPot. # 3 for C  read from file:
     /home/549/hxw549/Short/pseudopotentials/C.pbe-mt_gipaw.UPF
     MD5 check sum: 5ac2f21f2c440b14befe521540822c15
     Pseudo is Norm-conserving, Zval =  4.0
     Generated by new atomic code, or converted to UPF format
     Using radial grid of 1073 points,  1 beta functions with: 
                l(1) =   0

     PseudoPot. # 4 for O  read from file:
     /home/549/hxw549/Short/pseudopotentials/O.pbe-van_gipaw.UPF
     MD5 check sum: 5ce2a047509d4f331db576c963e74b29
     Pseudo is Ultrasoft, Zval =  6.0
     Generated by new atomic code, or converted to UPF format
     Using radial grid of 1095 points,  4 beta functions with: 
                l(1) =   0
                l(2) =   0
                l(3) =   1
                l(4) =   1
     Q(r) pseudized with 0 coefficients 


     PseudoPot. # 5 for H  read from file:
     /home/549/hxw549/Short/pseudopotentials/H.pbe-van_ak.UPF
     MD5 check sum: 077eb6d537518a38cb46c6de387227b7
     Pseudo is Ultrasoft, Zval =  1.0
     Generated by new atomic code, or converted to UPF format
     Using radial grid of  615 points,  1 beta functions with: 
                l(1) =   0
     Q(r) pseudized with  8 coefficients,  rinner =    0.800

     atomic species   valence    mass     pseudopotential
        Cu            11.00    63.54600     Cu( 1.00)
        C_h            5.00    12.01070     C ( 1.00)
        C              4.00    12.01070     C ( 1.00)
        O              6.00    15.99940     O ( 1.00)
        H              1.00     1.00783     H ( 1.00)

     No symmetry found



   Cartesian axes

     site n.     atom                  positions (alat units)
         1           Cu  tau(   1) = (   0.0000842  -0.0003681   0.9999582  )
         2           Cu  tau(   2) = (   0.2500548   0.2313457   0.9998843  )
         3           Cu  tau(   3) = (   0.5000576  -0.0002607   0.9999865  )
         4           Cu  tau(   4) = (   0.7500833   0.2313139   0.9998641  )
         5           Cu  tau(   5) = (   0.0000630   0.4624576   0.9996374  )
         6           Cu  tau(   6) = (   0.2500574   0.6931393   0.9991054  )
         7           Cu  tau(   7) = (   0.5000697   0.4624370   0.9995248  )
         8           Cu  tau(   8) = (   0.7500716   0.6931484   0.9991088  )
         9           Cu  tau(   9) = (   0.0000622   0.9236166   0.9988218  )
        10           Cu  tau(  10) = (   0.2500643   1.1539091   0.9989623  )
        11           Cu  tau(  11) = (   0.5000640   0.9235821   0.9987715  )
        12           Cu  tau(  12) = (   0.7500634   1.1539179   0.9989606  )
        13           Cu  tau(  13) = (   0.0000687   1.3841458   0.9994650  )
        14           Cu  tau(  14) = (   0.2500837   1.6145936   0.9999104  )
        15           Cu  tau(  15) = (   0.5000627   1.3841804   0.9994855  )
        16           Cu  tau(  16) = (   0.7500522   1.6145705   0.9999235  )
        17           Cu  tau(  17) = (   0.0000612   1.8455769   1.0000095  )
        18           Cu  tau(  18) = (   0.2500741   2.0771549   1.0000108  )
        19           Cu  tau(  19) = (   0.5000791   1.8455049   1.0000850  )
        20           Cu  tau(  20) = (   0.7500687   2.0771896   1.0000020  )
        21           Cu  tau(  21) = (   0.0000704   0.2315434   1.2478653  )
        22           Cu  tau(  22) = (   0.2500664  -0.0002381   1.2475273  )
        23           Cu  tau(  23) = (   0.5000670   0.2316783   1.2479035  )
        24           Cu  tau(  24) = (   0.7500740  -0.0002273   1.2475423  )
        25           Cu  tau(  25) = (   0.0000692   0.6936868   1.2480512  )
        26           Cu  tau(  26) = (   0.2500874   0.4630175   1.2481231  )
        27           Cu  tau(  27) = (   0.5000643   0.6936369   1.2480478  )
        28           Cu  tau(  28) = (   0.7500461   0.4629896   1.2480760  )
        29           Cu  tau(  29) = (   0.0000655   1.1534501   1.2482728  )
        30           Cu  tau(  30) = (   0.2500957   0.9236477   1.2480367  )
        31           Cu  tau(  31) = (   0.5000669   1.1533940   1.2482530  )
        32           Cu  tau(  32) = (   0.7500350   0.9236609   1.2480361  )
        33           Cu  tau(  33) = (   0.0000688   1.6141455   1.2484967  )
        34           Cu  tau(  34) = (   0.2500811   1.3834824   1.2485944  )
        35           Cu  tau(  35) = (   0.5000677   1.6141108   1.2487066  )
        36           Cu  tau(  36) = (   0.7500538   1.3834640   1.2486243  )
        37           Cu  tau(  37) = (   0.0000721   2.0771959   1.2475848  )
        38           Cu  tau(  38) = (   0.2500753   1.8454353   1.2480641  )
        39           Cu  tau(  39) = (   0.5000696   2.0772392   1.2474654  )
        40           Cu  tau(  40) = (   0.7500644   1.8454540   1.2480357  )
        41           Cu  tau(  41) = (   0.0000552  -0.0003437   1.4963069  )
        42           Cu  tau(  42) = (   0.2501594   0.2316922   1.4966729  )
        43           Cu  tau(  43) = (   0.5000801  -0.0003239   1.4961498  )
        44           Cu  tau(  44) = (   0.7499692   0.2317424   1.4967073  )
        45           Cu  tau(  45) = (   0.0000623   0.4634405   1.4974589  )
        46           Cu  tau(  46) = (   0.2501391   0.6941193   1.4986964  )
        47           Cu  tau(  47) = (   0.5000667   0.4635838   1.4978574  )
        48           Cu  tau(  48) = (   0.7499975   0.6940653   1.4985995  )
        49           Cu  tau(  49) = (   0.0000719   0.9236097   1.4991718  )
        50           Cu  tau(  50) = (   0.2500634   1.1527743   1.4992825  )
        51           Cu  tau(  51) = (   0.5000695   0.9235140   1.4993108  )
        52           Cu  tau(  52) = (   0.7500770   1.1527397   1.4993345  )
        53           Cu  tau(  53) = (   0.0000750   1.3828780   1.4988430  )
        54           Cu  tau(  54) = (   0.2500890   1.6138847   1.4980387  )
        55           Cu  tau(  55) = (   0.5000679   1.3824979   1.4990271  )
        56           Cu  tau(  56) = (   0.7500488   1.6139412   1.4979863  )
        57           Cu  tau(  57) = (   0.0000808   1.8455483   1.4970029  )
        58           Cu  tau(  58) = (   0.2499997   2.0773826   1.4963591  )
        59           Cu  tau(  59) = (   0.5000580   1.8459184   1.4969695  )
        60           Cu  tau(  60) = (   0.7501390   2.0773614   1.4963585  )
        61           Cu  tau(  61) = (   0.0000295   0.2315309   1.7444207  )
        62           Cu  tau(  62) = (   0.2502029  -0.0002994   1.7446931  )
        63           Cu  tau(  63) = (   0.5000678   0.2311869   1.7451939  )
        64           Cu  tau(  64) = (   0.7499079  -0.0002989   1.7446971  )
        65           Cu  tau(  65) = (   0.0000435   0.6936173   1.7489464  )
        66           Cu  tau(  66) = (   0.2505725   0.4629719   1.7465844  )
        67           Cu  tau(  67) = (   0.5000601   0.6943936   1.7503369  )
        68           Cu  tau(  68) = (   0.7495268   0.4630920   1.7467012  )
        69           Cu  tau(  69) = (   0.0000924   1.1527931   1.7508173  )
        70           Cu  tau(  70) = (   0.2502615   0.9234581   1.7512347  )
        71           Cu  tau(  71) = (   0.5000542   1.1517041   1.7514155  )
        72           Cu  tau(  72) = (   0.7499023   0.9232312   1.7511647  )
        73           Cu  tau(  73) = (   0.0000949   1.6141779   1.7468887  )
        74           Cu  tau(  74) = (   0.2500008   1.3824766   1.7488313  )
        75           Cu  tau(  75) = (   0.5000403   1.6144221   1.7459068  )
        76           Cu  tau(  76) = (   0.7501499   1.3826237   1.7486353  )
        77           Cu  tau(  77) = (   0.0000597   2.0774819   1.7453209  )
        78           Cu  tau(  78) = (   0.2497908   1.8462237   1.7455670  )
        79           Cu  tau(  79) = (   0.5000663   2.0778525   1.7452871  )
        80           Cu  tau(  80) = (   0.7503417   1.8461915   1.7455604  )
        81           Cu  tau(  81) = (   0.0000293   0.0005630   1.9893151  )
        82           Cu  tau(  82) = (   0.2503945   0.2305317   1.9904370  )
        83           Cu  tau(  83) = (   0.5000451  -0.0001654   1.9914204  )
        84           Cu  tau(  84) = (   0.7496550   0.2306286   1.9903824  )
        85           Cu  tau(  85) = (   0.0001352   0.4606957   1.9911783  )
        86           Cu  tau(  86) = (   0.2509809   0.6915100   1.9960722  )
        87           Cu  tau(  87) = (   0.4999039   0.4602277   1.9939597  )
        88           Cu  tau(  88) = (   0.7490330   0.6914184   1.9964879  )
        89           Cu  tau(  89) = (   0.0000790   0.9223187   1.9982276  )
        90           Cu  tau(  90) = (   0.2509422   1.1535728   1.9995783  )
        91           Cu  tau(  91) = (   0.5001296   0.9227220   2.0050881  )
        92           Cu  tau(  92) = (   0.7492111   1.1536228   1.9988463  )
        93           Cu  tau(  93) = (   0.0000122   1.3841067   1.9962199  )
        94           Cu  tau(  94) = (   0.2491204   1.6154633   1.9915726  )
        95           Cu  tau(  95) = (   0.5001393   1.3858631   1.9939386  )
        96           Cu  tau(  96) = (   0.7510023   1.6154462   1.9916054  )
        97           Cu  tau(  97) = (   0.0000452   1.8467905   1.9920833  )
        98           Cu  tau(  98) = (   0.2500174   2.0780821   1.9906638  )
        99           Cu  tau(  99) = (   0.5000701   1.8458323   1.9897529  )
       100           Cu  tau( 100) = (   0.7500815   2.0780660   1.9906233  )
       101           C   tau( 101) = (   0.0000064   0.0982753   2.3856156  )
       102           C   tau( 102) = (   0.0000439   0.2906318   2.3863779  )
       103           C   tau( 103) = (   0.1666622   0.0021375   2.3846841  )
       104           C   tau( 104) = (   0.1665525   0.3867349   2.3858861  )
       105           C   tau( 105) = (   0.3332165   0.0983228   2.3831609  )
       106           C   tau( 106) = (   0.3332256   0.2906221   2.3844894  )
       107           C   tau( 107) = (   0.5000598   0.0019732   2.3803645  )
       108           C   tau( 108) = (   0.5000831   0.3875023   2.3852626  )
       109           C   tau( 109) = (   0.6668708   0.0983910   2.3827119  )
       110           C   tau( 110) = (   0.6669726   0.2907066   2.3839420  )
       111           C   tau( 111) = (   0.8333707   0.0021311   2.3842294  )
       112           C   tau( 112) = (   0.8335622   0.3868739   2.3852090  )
       113           C   tau( 113) = (  -0.0000664   0.6753953   2.3854927  )
       114           C   tau( 114) = (  -0.0000530   0.8677380   2.3850831  )
       115           C   tau( 115) = (   0.1662822   0.5790995   2.3858133  )
       116           C   tau( 116) = (   0.1669701   0.9636455   2.3943290  )
       117           C   tau( 117) = (   0.3328676   0.6759619   2.3925700  )
       118           C   tau( 118) = (   0.3306870   0.8664276   2.4033686  )
       119           C   tau( 119) = (   0.5000557   0.5791262   2.3918876  )
       120           C   tau( 120) = (   0.5005703   0.9642771   2.4585553  )
       121           C   tau( 121) = (   0.6669877   0.6763032   2.3895459  )
       122           C   tau( 122) = (   0.6689183   0.8667870   2.4013501  )
       123           C   tau( 123) = (   0.8335215   0.5793055   2.3841319  )
       124           C   tau( 124) = (   0.8327639   0.9636664   2.3937551  )
       125           C   tau( 125) = (   0.0001775   1.2524267   2.3940154  )
       126           C   tau( 126) = (   0.0002058   1.4454123   2.3866222  )
       127           C   tau( 127) = (   0.1666178   1.1567825   2.3964067  )
       128           C   tau( 128) = (   0.1669769   1.5416877   2.3844312  )
       129           C   tau( 129) = (   0.3342788   1.2531476   2.3945734  )
       130           C   tau( 130) = (   0.3337672   1.4457448   2.3873535  )
       131           C   tau( 131) = (   0.5000705   1.1600103   2.4042867  )
       132           C   tau( 132) = (   0.5001390   1.5419263   2.3875286  )
       133           C   tau( 133) = (   0.6659113   1.2532485   2.3961466  )
       134           C   tau( 134) = (   0.6665638   1.4459311   2.3883803  )
       135           C   tau( 135) = (   0.8334444   1.1567853   2.3980193  )
       136           C   tau( 136) = (   0.8334256   1.5416843   2.3850458  )
       137           C   tau( 137) = (   0.0000818   1.8305645   2.3801465  )
       138           C   tau( 138) = (   0.0000178   2.0230047   2.3827294  )
       139           C   tau( 139) = (   0.1669767   1.7342100   2.3821412  )
       140           C   tau( 140) = (   0.1666234   2.1191650   2.3827717  )
       141           C   tau( 141) = (   0.3334727   1.8304533   2.3834572  )
       142           C   tau( 142) = (   0.3334464   2.0228704   2.3818320  )
       143           C   tau( 143) = (   0.5000638   1.7343864   2.3850919  )
       144           C   tau( 144) = (   0.5000445   2.1189962   2.3815734  )
       145           C   tau( 145) = (   0.6666800   1.8303624   2.3835727  )
       146           C   tau( 146) = (   0.6666154   2.0227865   2.3818160  )
       147           C   tau( 147) = (   0.8332512   1.7341954   2.3822333  )
       148           C   tau( 148) = (   0.8333765   2.1191374   2.3825846  )
       149           C_h tau( 149) = (   0.4878592   0.9658295   2.6754889  )
       150           O   tau( 150) = (   0.3907150   1.0691884   2.7619711  )
       151           O   tau( 151) = (   0.5916853   0.8343731   2.7542978  )
       152           H   tau( 152) = (   0.5700785   0.8427763   2.8860689  )

     number of k points=     6  gaussian smearing, width (Ry)=  0.1000
                       cart. coord. in units 2pi/alat
        k(    1) = (   0.0000000   0.0000000   0.0000000), wk =   0.2500000
        k(    2) = (   0.0000000  -0.2165064   0.0000000), wk =   0.2500000
        k(    3) = (   0.2500000   0.0000000   0.0000000), wk =   0.5000000
        k(    4) = (   0.2500000  -0.2165064   0.0000000), wk =   0.5000000
        k(    5) = (  -0.5000000   0.0000000   0.0000000), wk =   0.2500000
        k(    6) = (  -0.5000000  -0.2165064   0.0000000), wk =   0.2500000

     Dense  grid:  2050409 G-vectors     FFT dimensions: (  80, 192, 270)

     Largest allocated arrays     est. size (Mb)     dimensions
        Kohn-Sham Wavefunctions        55.22 Mb     (    4604,  786)
        NL pseudopotentials           131.09 Mb     (    4604, 1866)
        Each V/rho on FFT grid          1.17 Mb     (   76800)
        Each G-vector array             0.28 Mb     (   36616)
        G-vector shells                 0.14 Mb     (   17932)
     Largest temporary arrays     est. size (Mb)     dimensions
        Auxiliary wavefunctions       220.87 Mb     (    4604, 3144)
        Each subspace H/S matrix        6.02 Mb     (     628,  628)
        Each <psi_i|beta_j> matrix     22.38 Mb     (    1866,  786)
        Arrays for rho mixing           9.38 Mb     (   76800,    8)

     Initial potential from superposition of free atoms
     Check: negative starting charge=   -0.001570

     starting charge 1283.31750, renormalised to 1309.00000

     negative rho (up, down):  1.602E-03 0.000E+00
     Starting wfc are 1301 randomized atomic wfcs

     total cpu time spent up to now is      109.7 secs

     Self-consistent Calculation

     iteration #  1     ecut=    80.00 Ry     beta=0.70
     Davidson diagonalization with overlap
     ethr =  1.00E-04,  avg # of iterations = 21.0

     negative rho (up, down):  2.429E+01 0.000E+00

     total cpu time spent up to now is     1965.8 secs

     total energy              =   -9954.04062813 Ry
     Harris-Foulkes estimate   =  -17497.03827644 Ry
     estimated scf accuracy    <  185328.01441206 Ry

     iteration #  2     ecut=    80.00 Ry     beta=0.70
     Davidson diagonalization with overlap
     ethr =  1.00E-02,  avg # of iterations = 11.5

     negative rho (up, down):  2.815E+01 0.000E+00

     total cpu time spent up to now is     2880.3 secs

     total energy              =  -12009.85726923 Ry
     Harris-Foulkes estimate   =  -13774.84818576 Ry
     estimated scf accuracy    <   29781.52256985 Ry

     iteration #  3     ecut=    80.00 Ry     beta=0.70
     Davidson diagonalization with overlap
     ethr =  1.00E-02,  avg # of iterations =  7.2

     negative rho (up, down):  2.910E+01 0.000E+00

     total cpu time spent up to now is     3434.9 secs

     total energy              =  -12451.74024688 Ry
     Harris-Foulkes estimate   =  -13534.20521341 Ry
     estimated scf accuracy    <    6153.39861119 Ry

     iteration #  4     ecut=    80.00 Ry     beta=0.70
     Davidson diagonalization with overlap
     ethr =  1.00E-02,  avg # of iterations =  5.3

     negative rho (up, down):  1.903E+01 0.000E+00

     total cpu time spent up to now is     4004.5 secs

     total energy              =  -12881.03133631 Ry
     Harris-Foulkes estimate   =  -13121.62784863 Ry
     estimated scf accuracy    <     908.23571667 Ry

     iteration #  5     ecut=    80.00 Ry     beta=0.70
     Davidson diagonalization with overlap
     ethr =  1.00E-02,  avg # of iterations =  3.0

     negative rho (up, down):  1.661E+01 0.000E+00

     total cpu time spent up to now is     4268.1 secs

     total energy              =  -12905.10935465 Ry
     Harris-Foulkes estimate   =  -12963.06577664 Ry
     estimated scf accuracy    <    1563.48733722 Ry

     iteration #  6     ecut=    80.00 Ry     beta=0.70
     Davidson diagonalization with overlap
     ethr =  1.00E-02,  avg # of iterations =  1.2

     negative rho (up, down):  1.053E+01 0.000E+00

     total cpu time spent up to now is     4438.2 secs

     total energy              =  -12868.98357483 Ry
     Harris-Foulkes estimate   =  -12928.39109960 Ry
     estimated scf accuracy    <     449.25577426 Ry

     iteration #  7     ecut=    80.00 Ry     beta=0.70
     Davidson diagonalization with overlap
     ethr =  1.00E-02,  avg # of iterations =  2.0

     negative rho (up, down):  7.595E+00 0.000E+00

     total cpu time spent up to now is     4626.0 secs

     total energy              =  -12853.69507091 Ry
     Harris-Foulkes estimate   =  -12887.13340764 Ry
     estimated scf accuracy    <     887.25003074 Ry

     iteration #  8     ecut=    80.00 Ry     beta=0.70
     Davidson diagonalization with overlap
     ethr =  1.00E-02,  avg # of iterations =  1.7

     negative rho (up, down):  7.175E+00 0.000E+00

     total cpu time spent up to now is     4802.0 secs

     total energy              =  -12852.68827704 Ry
     Harris-Foulkes estimate   =  -12861.41149453 Ry
     estimated scf accuracy    <     453.03534123 Ry

     iteration #  9     ecut=    80.00 Ry     beta=0.70
     Davidson diagonalization with overlap
     ethr =  1.00E-02,  avg # of iterations =  1.0

     negative rho (up, down):  4.030E+00 0.000E+00

     total cpu time spent up to now is     4971.0 secs

     total energy              =  -12828.10458928 Ry
     Harris-Foulkes estimate   =  -12855.66906730 Ry
     estimated scf accuracy    <     227.23769897 Ry

     iteration # 10     ecut=    80.00 Ry     beta=0.70
     Davidson diagonalization with overlap
     ethr =  1.00E-02,  avg # of iterations =  1.0

     negative rho (up, down):  1.580E+00 0.000E+00

     total cpu time spent up to now is     5139.4 secs

     total energy              =  -12802.74186203 Ry
     Harris-Foulkes estimate   =  -12834.69974747 Ry
     estimated scf accuracy    <     399.23085675 Ry

     iteration # 11     ecut=    80.00 Ry     beta=0.70
     Davidson diagonalization with overlap
     ethr =  1.00E-02,  avg # of iterations =  2.2

     negative rho (up, down):  6.155E-01 0.000E+00

     total cpu time spent up to now is     5322.4 secs

     total energy              =  -12798.49246221 Ry
     Harris-Foulkes estimate   =  -12815.11062015 Ry
     estimated scf accuracy    <     107.05683105 Ry

     iteration # 12     ecut=    80.00 Ry     beta=0.70
     Davidson diagonalization with overlap
     ethr =  8.18E-03,  avg # of iterations =  2.5

     negative rho (up, down):  7.210E-01 0.000E+00

     total cpu time spent up to now is     5510.4 secs

     total energy              =  -12794.24021073 Ry
     Harris-Foulkes estimate   =  -12808.03954272 Ry
     estimated scf accuracy    <     157.93859382 Ry

     iteration # 13     ecut=    80.00 Ry     beta=0.70
     Davidson diagonalization with overlap
     ethr =  8.18E-03,  avg # of iterations =  1.8

     negative rho (up, down):  2.294E+00 0.000E+00

     total cpu time spent up to now is     5690.1 secs

     total energy              =  -12791.95972894 Ry
     Harris-Foulkes estimate   =  -12800.84625756 Ry
     estimated scf accuracy    <      46.06390692 Ry

     iteration # 14     ecut=    80.00 Ry     beta=0.70
     Davidson diagonalization with overlap
     ethr =  3.52E-03,  avg # of iterations =  4.2

     negative rho (up, down):  1.985E+00 0.000E+00

     total cpu time spent up to now is     5898.6 secs

     total energy              =  -12790.92509607 Ry
     Harris-Foulkes estimate   =  -12795.75724419 Ry
     estimated scf accuracy    <      36.02389050 Ry

     iteration # 15     ecut=    80.00 Ry     beta=0.70
     Davidson diagonalization with overlap
     ethr =  2.75E-03,  avg # of iterations =  2.0

     negative rho (up, down):  4.025E+00 0.000E+00

     total cpu time spent up to now is     6079.2 secs

     total energy              =  -12789.26162903 Ry
     Harris-Foulkes estimate   =  -12792.68537279 Ry
     estimated scf accuracy    <      23.40636747 Ry

     iteration # 16     ecut=    80.00 Ry     beta=0.70
     Davidson diagonalization with overlap
     ethr =  1.79E-03,  avg # of iterations =  5.2

     negative rho (up, down):  3.572E+00 0.000E+00

     total cpu time spent up to now is     6298.2 secs

     total energy              =  -12787.98235037 Ry
     Harris-Foulkes estimate   =  -12789.82596622 Ry
     estimated scf accuracy    <      12.25999976 Ry

     iteration # 17     ecut=    80.00 Ry     beta=0.70
     Davidson diagonalization with overlap
     ethr =  9.37E-04,  avg # of iterations =  4.8

     negative rho (up, down):  3.469E+00 0.000E+00

     total cpu time spent up to now is     6513.0 secs

     total energy              =  -12787.39047076 Ry
     Harris-Foulkes estimate   =  -12788.35990265 Ry
     estimated scf accuracy    <       9.07194765 Ry

     iteration # 18     ecut=    80.00 Ry     beta=0.70
     Davidson diagonalization with overlap
     ethr =  6.93E-04,  avg # of iterations =  5.2

     negative rho (up, down):  2.570E+00 0.000E+00

     total cpu time spent up to now is     6730.9 secs

     total energy              =  -12786.44609029 Ry
     Harris-Foulkes estimate   =  -12787.59793311 Ry
     estimated scf accuracy    <       6.01591298 Ry

     iteration # 19     ecut=    80.00 Ry     beta=0.70
     Davidson diagonalization with overlap
     ethr =  4.60E-04,  avg # of iterations =  7.2

     negative rho (up, down):  1.866E+00 0.000E+00

     total cpu time spent up to now is     6975.0 secs

     total energy              =  -12785.67226267 Ry
     Harris-Foulkes estimate   =  -12786.56951846 Ry
     estimated scf accuracy    <       5.28160325 Ry

     iteration # 20     ecut=    80.00 Ry     beta=0.70
     Davidson diagonalization with overlap
     ethr =  4.03E-04,  avg # of iterations =  7.0

     negative rho (up, down):  1.422E+00 0.000E+00

     total cpu time spent up to now is     7214.9 secs

     total energy              =  -12785.29164600 Ry
     Harris-Foulkes estimate   =  -12785.73122612 Ry
     estimated scf accuracy    <       5.18238713 Ry

     iteration # 21     ecut=    80.00 Ry     beta=0.70
     Davidson diagonalization with overlap
     ethr =  3.96E-04,  avg # of iterations =  1.2

     negative rho (up, down):  1.149E+00 0.000E+00

     total cpu time spent up to now is     7385.9 secs

     total energy              =  -12784.56680949 Ry
     Harris-Foulkes estimate   =  -12785.44198095 Ry
     estimated scf accuracy    <       4.59669205 Ry

     iteration # 22     ecut=    80.00 Ry     beta=0.70
     Davidson diagonalization with overlap
     ethr =  3.51E-04,  avg # of iterations =  2.8

     negative rho (up, down):  8.315E-01 0.000E+00

     total cpu time spent up to now is     7577.4 secs

     total energy              =  -12783.70856240 Ry
     Harris-Foulkes estimate   =  -12784.86595646 Ry
     estimated scf accuracy    <       3.16089518 Ry

     iteration # 23     ecut=    80.00 Ry     beta=0.70
     Davidson diagonalization with overlap
     ethr =  2.41E-04,  avg # of iterations =  8.2

     negative rho (up, down):  7.622E-01 0.000E+00

     total cpu time spent up to now is     7842.5 secs

     total energy              =  -12783.43273569 Ry
     Harris-Foulkes estimate   =  -12783.79243211 Ry
     estimated scf accuracy    <       1.27700337 Ry

     iteration # 24     ecut=    80.00 Ry     beta=0.70
     Davidson diagonalization with overlap
     ethr =  9.76E-05,  avg # of iterations =  6.5

     negative rho (up, down):  8.663E-01 0.000E+00

     total cpu time spent up to now is     8080.8 secs

     total energy              =  -12783.31756111 Ry
     Harris-Foulkes estimate   =  -12783.51795391 Ry
     estimated scf accuracy    <       1.07467261 Ry

     iteration # 25     ecut=    80.00 Ry     beta=0.70
     Davidson diagonalization with overlap
     ethr =  8.21E-05,  avg # of iterations =  8.3

     negative rho (up, down):  5.685E-01 0.000E+00

     total cpu time spent up to now is     8355.1 secs

     total energy              =  -12783.21189530 Ry
     Harris-Foulkes estimate   =  -12783.35479215 Ry
     estimated scf accuracy    <       0.44369924 Ry

     iteration # 26     ecut=    80.00 Ry     beta=0.70
     Davidson diagonalization with overlap
     ethr =  3.39E-05,  avg # of iterations =  6.8

     negative rho (up, down):  4.899E-01 0.000E+00

     total cpu time spent up to now is     8614.1 secs

     total energy              =  -12783.20086712 Ry
     Harris-Foulkes estimate   =  -12783.23252712 Ry
     estimated scf accuracy    <       0.15765486 Ry

     iteration # 27     ecut=    80.00 Ry     beta=0.70
     Davidson diagonalization with overlap
     ethr =  1.20E-05,  avg # of iterations =  7.8

     negative rho (up, down):  2.247E-01 0.000E+00

     total cpu time spent up to now is     8888.9 secs

     total energy              =  -12783.19431990 Ry
     Harris-Foulkes estimate   =  -12783.21044401 Ry
     estimated scf accuracy    <       0.06059599 Ry

     iteration # 28     ecut=    80.00 Ry     beta=0.70
     Davidson diagonalization with overlap
     ethr =  4.63E-06,  avg # of iterations = 12.5

     negative rho (up, down):  1.152E-01 0.000E+00

     total cpu time spent up to now is     9228.1 secs

     total energy              =  -12783.19277941 Ry
     Harris-Foulkes estimate   =  -12783.19889133 Ry
     estimated scf accuracy    <       0.02920490 Ry

     iteration # 29     ecut=    80.00 Ry     beta=0.70
     Davidson diagonalization with overlap
     c_bands:  3 eigenvalues not converged
     ethr =  2.23E-06,  avg # of iterations = 15.0

     negative rho (up, down):  8.871E-02 0.000E+00

     total cpu time spent up to now is     9616.6 secs

     total energy              =  -12783.19414078 Ry
     Harris-Foulkes estimate   =  -12783.19610259 Ry
     estimated scf accuracy    <       0.01252351 Ry

     iteration # 30     ecut=    80.00 Ry     beta=0.70
     Davidson diagonalization with overlap
     c_bands:  1 eigenvalues not converged
     ethr =  9.57E-07,  avg # of iterations = 14.5

     negative rho (up, down):  5.611E-02 0.000E+00

     total cpu time spent up to now is     9962.9 secs

     total energy              =  -12783.19366707 Ry
     Harris-Foulkes estimate   =  -12783.19532403 Ry
     estimated scf accuracy    <       0.00554424 Ry

     iteration # 31     ecut=    80.00 Ry     beta=0.70
     Davidson diagonalization with overlap
     ethr =  4.24E-07,  avg # of iterations = 10.7

     negative rho (up, down):  4.057E-02 0.000E+00

     total cpu time spent up to now is    10267.2 secs

     total energy              =  -12783.19400610 Ry
     Harris-Foulkes estimate   =  -12783.19398255 Ry
     estimated scf accuracy    <       0.00186077 Ry

     iteration # 32     ecut=    80.00 Ry     beta=0.70
     Davidson diagonalization with overlap
     ethr =  1.42E-07,  avg # of iterations =  7.3

     negative rho (up, down):  2.224E-02 0.000E+00

     total cpu time spent up to now is    10534.4 secs

     total energy              =  -12783.19377101 Ry
     Harris-Foulkes estimate   =  -12783.19413854 Ry
     estimated scf accuracy    <       0.00073474 Ry

     iteration # 33     ecut=    80.00 Ry     beta=0.70
     Davidson diagonalization with overlap
     c_bands:  1 eigenvalues not converged
     ethr =  5.61E-08,  avg # of iterations = 10.3

     negative rho (up, down):  1.531E-02 0.000E+00

     total cpu time spent up to now is    10828.4 secs

     total energy              =  -12783.19375953 Ry
     Harris-Foulkes estimate   =  -12783.19385056 Ry
     estimated scf accuracy    <       0.00043164 Ry

     iteration # 34     ecut=    80.00 Ry     beta=0.70
     Davidson diagonalization with overlap
     ethr =  3.30E-08,  avg # of iterations = 10.3

     negative rho (up, down):  5.643E-03 0.000E+00

     total cpu time spent up to now is    11119.5 secs

     total energy              =  -12783.19367198 Ry
     Harris-Foulkes estimate   =  -12783.19379381 Ry
     estimated scf accuracy    <       0.00010421 Ry

     iteration # 35     ecut=    80.00 Ry     beta=0.70
     Davidson diagonalization with overlap
     c_bands:  2 eigenvalues not converged
     ethr =  7.96E-09,  avg # of iterations = 11.2

     negative rho (up, down):  3.227E-03 0.000E+00

     total cpu time spent up to now is    11438.4 secs

     total energy              =  -12783.19363869 Ry
     Harris-Foulkes estimate   =  -12783.19367939 Ry
     estimated scf accuracy    <       0.00003281 Ry

     iteration # 36     ecut=    80.00 Ry     beta=0.70
     Davidson diagonalization with overlap
     c_bands:  1 eigenvalues not converged
     ethr =  2.51E-09,  avg # of iterations = 10.0

     negative rho (up, down):  2.442E-03 0.000E+00

     total cpu time spent up to now is    11722.9 secs

     total energy              =  -12783.19363435 Ry
     Harris-Foulkes estimate   =  -12783.19364114 Ry
     estimated scf accuracy    <       0.00001085 Ry

     iteration # 37     ecut=    80.00 Ry     beta=0.70
     Davidson diagonalization with overlap
     ethr =  8.29E-10,  avg # of iterations =  3.3

     negative rho (up, down):  1.969E-03 0.000E+00

     total cpu time spent up to now is    11925.2 secs

     total energy              =  -12783.19363363 Ry
     Harris-Foulkes estimate   =  -12783.19363509 Ry
     estimated scf accuracy    <       0.00000442 Ry

     iteration # 38     ecut=    80.00 Ry     beta=0.70
     Davidson diagonalization with overlap
     ethr =  3.37E-10,  avg # of iterations =  3.2

     negative rho (up, down):  1.786E-03 0.000E+00

     total cpu time spent up to now is    12132.5 secs

     total energy              =  -12783.19363400 Ry
     Harris-Foulkes estimate   =  -12783.19363414 Ry
     estimated scf accuracy    <       0.00000217 Ry

     iteration # 39     ecut=    80.00 Ry     beta=0.70
     Davidson diagonalization with overlap
     ethr =  1.66E-10,  avg # of iterations =  3.0

     negative rho (up, down):  1.902E-03 0.000E+00

     total cpu time spent up to now is    12344.9 secs

     total energy              =  -12783.19363452 Ry
     Harris-Foulkes estimate   =  -12783.19363428 Ry
     estimated scf accuracy    <       0.00000047 Ry

     iteration # 40     ecut=    80.00 Ry     beta=0.70
     Davidson diagonalization with overlap
     ethr =  3.56E-11,  avg # of iterations =  3.0

     negative rho (up, down):  1.946E-03 0.000E+00

     total cpu time spent up to now is    12546.8 secs

     total energy              =  -12783.19363452 Ry
     Harris-Foulkes estimate   =  -12783.19363455 Ry
     estimated scf accuracy    <       0.00000013 Ry

     iteration # 41     ecut=    80.00 Ry     beta=0.70
     Davidson diagonalization with overlap
     ethr =  9.97E-12,  avg # of iterations =  2.0

     negative rho (up, down):  1.949E-03 0.000E+00

     total cpu time spent up to now is    12739.2 secs

     total energy              =  -12783.19363455 Ry
     Harris-Foulkes estimate   =  -12783.19363453 Ry
     estimated scf accuracy    <       0.00000006 Ry

     iteration # 42     ecut=    80.00 Ry     beta=0.70
     Davidson diagonalization with overlap
     ethr =  4.44E-12,  avg # of iterations =  3.0

     negative rho (up, down):  1.932E-03 0.000E+00

     total cpu time spent up to now is    12940.4 secs

     total energy              =  -12783.19363457 Ry
     Harris-Foulkes estimate   =  -12783.19363455 Ry
     estimated scf accuracy    <       0.00000002 Ry

     iteration # 43     ecut=    80.00 Ry     beta=0.70
     Davidson diagonalization with overlap
     ethr =  1.51E-12,  avg # of iterations =  2.3

     negative rho (up, down):  1.909E-03 0.000E+00

     total cpu time spent up to now is    13136.9 secs

     total energy              =  -12783.19363459 Ry
     Harris-Foulkes estimate   =  -12783.19363457 Ry
     estimated scf accuracy    <       0.00000001 Ry

     iteration # 44     ecut=    80.00 Ry     beta=0.70
     Davidson diagonalization with overlap
     ethr =  8.59E-13,  avg # of iterations =  2.0

     negative rho (up, down):  1.873E-03 0.000E+00

     total cpu time spent up to now is    13319.2 secs

     End of self-consistent calculation

          k = 0.0000 0.0000 0.0000 (256287 PWs)   bands (ev):

   -21.9849 -19.3823 -16.2238 -15.8727 -15.8334 -14.7852 -14.7269 -14.2973
   -14.2443 -13.9817 -13.8965 -13.8820 -13.8617 -13.0594 -12.9259 -12.8725
   -12.8242 -12.8096 -12.7985 -11.4180 -11.1269 -11.1143 -11.1137 -10.9566
   -10.2158  -9.8844  -9.2433  -9.2377  -9.2272  -9.1368  -8.4266  -8.3550
    -8.3513  -8.3248  -7.5802  -7.3704  -7.3381  -7.2997  -7.2817  -7.2767
    -7.2703  -7.2342  -6.5572  -5.8867  -5.8154  -5.7697  -5.7329  -5.6646
    -5.6354  -5.6051  -5.5618  -5.4803  -5.4142  -5.3544  -5.3488  -4.9948
    -4.9168  -4.4671  -4.4602  -4.4146  -4.3682  -4.2990  -4.0979  -4.0523
    -3.9719  -3.8625  -3.8564  -3.8196  -3.3289  -3.3010  -3.2803  -3.2745
    -3.2742  -3.2619  -3.2225  -3.1254  -3.1101  -3.0830  -3.0448  -3.0268
    -2.9862  -2.8773  -2.8764  -2.8757  -2.8716  -2.7707  -2.7615  -2.6808
    -2.6323  -2.6071  -2.5951  -2.5398  -2.4803  -2.4640  -2.4570  -2.4503
    -2.3946  -2.2333  -2.2265  -2.2222  -2.2138  -2.1459  -2.0984  -2.0615
    -2.0606  -2.0231  -2.0228  -2.0212  -2.0207  -1.9231  -1.8957  -1.8933
    -1.8930  -1.8898  -1.8887  -1.8858  -1.8280  -1.7583  -1.7120  -1.6656
    -1.6611  -1.6470  -1.6080  -1.6078  -1.6054  -1.5993  -1.5574  -1.5438
    -1.5395  -1.5294  -1.5240  -1.4698  -1.4609  -1.4346  -1.4343  -1.4324
    -1.4281  -1.3988  -1.3981  -1.3911  -1.3861  -1.3842  -1.3694  -1.3068
    -1.3047  -1.2869  -1.2525  -1.2364  -1.2329  -1.2235  -1.2133  -1.1701
    -1.1697  -1.1348  -1.1339  -1.1203  -1.0998  -1.0825  -1.0817  -1.0630
    -1.0597  -1.0381  -1.0340  -1.0100  -0.9708  -0.9629  -0.9605  -0.9358
    -0.9321  -0.9205  -0.9139  -0.9080  -0.8988  -0.8959  -0.8931  -0.8924
    -0.8908  -0.8905  -0.8865  -0.8838  -0.8705  -0.8696  -0.8230  -0.8226
    -0.8131  -0.7967  -0.7903  -0.7896  -0.7876  -0.7857  -0.7447  -0.7306
    -0.7283  -0.7273  -0.7268  -0.7264  -0.7259  -0.7243  -0.7204  -0.7196
    -0.7187  -0.7186  -0.7168  -0.7161  -0.7126  -0.7125  -0.6999  -0.6981
    -0.6727  -0.6538  -0.6416  -0.6059  -0.5611  -0.5607  -0.5543  -0.5537
    -0.5310  -0.5300  -0.5121  -0.5120  -0.4921  -0.4902  -0.4793  -0.4768
    -0.4710  -0.4704  -0.4598  -0.4417  -0.4365  -0.4356  -0.4316  -0.4307
    -0.4253  -0.4243  -0.4143  -0.4133  -0.3829  -0.3637  -0.3627  -0.3214
    -0.3100  -0.3097  -0.2991  -0.2984  -0.2968  -0.2931  -0.2822  -0.2806
    -0.2768  -0.2754  -0.2749  -0.2741  -0.2706  -0.2705  -0.2563  -0.2559
    -0.2482  -0.2467  -0.2376  -0.2216  -0.2207  -0.1967  -0.1715  -0.1706
    -0.1646  -0.1630  -0.1628  -0.1398  -0.1396  -0.1328  -0.1327  -0.1193
    -0.1181  -0.1136  -0.1131  -0.1128  -0.0949  -0.0943  -0.0914  -0.0887
    -0.0864  -0.0850  -0.0833  -0.0816  -0.0803  -0.0778  -0.0632  -0.0623
    -0.0609  -0.0583  -0.0579  -0.0378   0.0073   0.0090   0.0101   0.0110
     0.0113   0.0540   0.0563   0.0608   0.0616   0.0661   0.0669   0.0677
     0.0693   0.0696   0.0741   0.0885   0.1177   0.1185   0.1209   0.1221
     0.1284   0.1443   0.1456   0.1524   0.1532   0.1543   0.1611   0.1652
     0.1747   0.1748   0.1754   0.1757   0.1805   0.1859   0.1915   0.1917
     0.1928   0.1929   0.2011   0.2080   0.2108   0.2124   0.2315   0.2318
     0.2492   0.2623   0.2647   0.2695   0.2982   0.3000   0.3057   0.3163
     0.3246   0.3537   0.3584   0.3624   0.3647   0.3717   0.3773   0.3807
     0.4011   0.4012   0.4028   0.4032   0.4074   0.4111   0.4144   0.4183
     0.4589   0.4681   0.4689   0.4788   0.4810   0.4823   0.4827   0.5068
     0.5103   0.5112   0.5130   0.5140   0.5422   0.5472   0.5525   0.5596
     0.5600   0.5629   0.5675   0.5703   0.5730   0.5844   0.6103   0.6123
     0.6189   0.6224   0.6251   0.6321   0.6326   0.6386   0.6537   0.6548
     0.6578   0.6625   0.6629   0.6655   0.6668   0.6687   0.6739   0.6760
     0.6776   0.6845   0.6852   0.6881   0.6897   0.6935   0.6945   0.7276
     0.7331   0.7332   0.7390   0.7499   0.7770   0.7775   0.7789   0.7790
     0.7819   0.7824   0.7825   0.7848   0.7939   0.7963   0.8007   0.8073
     0.8077   0.8103   0.8123   0.8148   0.8151   0.8255   0.8278   0.8493
     0.8510   0.8517   0.8528   0.8592   0.8624   0.8699   0.8747   0.8755
     0.8758   0.8759   0.8834   0.8838   0.8858   0.8883   0.8969   0.9338
     0.9341   0.9372   0.9464   0.9469   0.9473   0.9498   0.9556   0.9565
     0.9608   0.9707   0.9848   0.9851   0.9997   1.0006   1.0038   1.0042
     1.0187   1.0192   1.0273   1.0284   1.0292   1.0294   1.0405   1.0496
     1.0655   1.0670   1.0684   1.0702   1.0706   1.0714   1.0906   1.0979
     1.1047   1.1072   1.1141   1.1144   1.1270   1.1401   1.1406   1.1410
     1.1420   1.1453   1.1505   1.1527   1.1552   1.1556   1.1566   1.1575
     1.1585   1.1596   1.1716   1.1721   1.1788   1.1924   1.1935   1.1945
     1.1958   1.1982   1.2033   1.2328   1.2341   1.2346   1.2403   1.2406
     1.2415   1.2441   1.2452   1.2469   1.2481   1.2483   1.2492   1.2529
     1.2541   1.2635   1.2641   1.2786   1.3029   1.3130   1.3148   1.3259
     1.3274   1.3321   1.3335   1.3348   1.3358   1.3376   1.3555   1.3644
     1.3674   1.3678   1.3680   1.3691   1.3736   1.3742   1.3745   1.3769
     1.3815   1.3830   1.4006   1.4019   1.4024   1.4032   1.4052   1.4060
     1.4074   1.4088   1.4214   1.4231   1.4241   1.4248   1.4326   1.4380
     1.4383   1.4392   1.4399   1.4456   1.4498   1.4542   1.4574   1.4716
     1.4819   1.4833   1.4851   1.4882   1.4917   1.4961   1.4983   1.5096
     1.5102   1.5155   1.5158   1.5210   1.5308   1.5400   1.5415   1.5429
     1.5523   1.5526   1.5614   1.5625   1.5632   1.5638   1.5641   1.5653
     1.5668   1.5672   1.5691   1.5768   1.5780   1.5787   1.5940   1.5948
     1.5956   1.5968   1.6001   1.6083   1.6101   1.6142   1.6459   1.6481
     1.6489   1.6520   1.6837   1.6851   1.6916   1.6935   1.7085   1.7096
     1.7108   1.7156   1.7198   1.7346   1.7563   1.7610   1.7620   1.7623
     1.7642   1.7704   1.7714   1.7728   2.0280   2.0833   2.0961   2.2405
     2.2464   2.2899   2.2932   2.3334   2.3367   2.3370   2.3400   2.3567
     2.3583   2.3584   2.3919   2.5325   2.5395   2.5992   2.6008   2.6016
     2.6039   2.6127   2.6188   2.8551   2.8553   2.8597   2.8635   3.2191
     3.2650   3.2813   3.3145   3.6541   3.6563   3.7447   3.8892   3.9514
     3.9566   3.9849   3.9881   3.9893   4.0155   4.0599   4.0968   4.1283
     4.1367   4.1375   4.1397   4.1402   4.1487   4.1489   4.1632   4.3848
     4.3877   4.3898   4.4093   4.5605   4.8243   4.8971   5.1234   5.1542
     5.1971   5.4283   5.5223   5.5594   5.5636   5.7109   5.8451   5.8527
     5.8709   5.8858   6.0641   6.0664   6.4811   6.4933   6.5370   6.5420
     6.6163   6.6182   6.6222   6.6284   6.7707   6.7769   6.7871   6.8355
     6.9362   6.9440   6.9576   6.9861   7.0121   7.0703   7.1809   7.1870
     7.2279   7.2320   7.2463   7.2515   7.4890   7.4918   7.6989   7.7005
     7.7260   7.8301   7.8345   7.8402   7.8533   7.9251   8.1441   8.2733
     8.3410   8.3508   8.3620   8.4467   8.4582   8.4667   8.4681   8.5129
     8.5464   8.5514   8.5739   8.6546   8.6983   8.7233   8.7555   8.7892
     8.7960   8.7992   8.8075   8.8292   8.8610   8.8808   8.9717   8.9726
     8.9779   8.9801   9.1257   9.2256   9.2489   9.2577   9.2609   9.2661
     9.2705   9.3020   9.4053   9.4753   9.4782   9.6025   9.6199   9.7093
     9.7114   9.7370   9.7388   9.8399   9.9227   9.9597  10.1719  10.1724
    10.2270  10.3073

          k = 0.0000-0.2165 0.0000 (256176 PWs)   bands (ev):

   -21.9849 -19.3823 -16.1387 -16.1234 -15.4159 -15.3691 -14.2670 -14.1722
   -14.1674 -14.1320 -13.9564 -13.9068 -13.5283 -13.4482 -13.4344 -13.4128
   -12.2460 -12.0451 -12.0238 -12.0222 -11.8647 -11.8084 -10.6504 -10.1295
   -10.1275 -10.1222  -9.7886  -8.9033  -8.8689  -8.7398  -8.7296  -8.7160
    -8.6788  -8.0029  -7.8942  -7.8874  -7.8641  -7.0437  -6.7320  -6.7051
    -6.7041  -6.6602  -6.5758  -6.5608  -6.5386  -6.2380  -5.7753  -5.7545
    -5.7480  -5.6664  -5.5439  -5.2250  -4.9133  -4.8891  -4.8608  -4.8340
    -4.7564  -4.7229  -4.7051  -4.6950  -4.3482  -4.3423  -4.3309  -4.3098
    -4.2396  -4.1917  -3.8697  -3.7781  -3.4361  -3.3385  -3.1883  -3.1740
    -3.1736  -3.1681  -3.1438  -3.0528  -3.0056  -2.9275  -2.9264  -2.9008
    -2.8977  -2.8122  -2.7928  -2.7775  -2.7585  -2.6357  -2.6137  -2.5934
    -2.5777  -2.5208  -2.4797  -2.4566  -2.4501  -2.4495  -2.4482  -2.4479
    -2.4423  -2.4366  -2.3776  -2.3306  -2.3118  -2.1710  -2.1572  -2.1103
    -2.1090  -2.1052  -2.1017  -2.0299  -2.0197  -2.0123  -2.0115  -1.9970
    -1.9607  -1.8569  -1.8567  -1.8312  -1.8312  -1.8090  -1.7635  -1.7321
    -1.7303  -1.6387  -1.6369  -1.6225  -1.6208  -1.6202  -1.6139  -1.6112
    -1.6110  -1.6095  -1.5952  -1.5895  -1.5307  -1.5185  -1.5124  -1.4118
    -1.3977  -1.3858  -1.3402  -1.3361  -1.3282  -1.3279  -1.2525  -1.2453
    -1.2427  -1.2406  -1.1875  -1.1871  -1.1655  -1.1496  -1.1471  -1.1470
    -1.1449  -1.1399  -1.1390  -1.1150  -1.1087  -1.1059  -1.0969  -1.0948
    -1.0917  -1.0892  -1.0810  -1.0776  -1.0707  -1.0102  -1.0089  -1.0031
    -1.0011  -0.9820  -0.9635  -0.9592  -0.9584  -0.9216  -0.9212  -0.9183
    -0.9179  -0.8808  -0.8705  -0.8659  -0.8574  -0.8568  -0.8513  -0.8510
    -0.8476  -0.8398  -0.7996  -0.7961  -0.7907  -0.7903  -0.7812  -0.7809
    -0.7727  -0.7628  -0.7626  -0.7606  -0.7039  -0.6959  -0.6902  -0.6897
    -0.6832  -0.6810  -0.6758  -0.6674  -0.6671  -0.6561  -0.6465  -0.6433
    -0.6253  -0.6252  -0.6214  -0.6166  -0.5313  -0.5310  -0.5192  -0.5180
    -0.5042  -0.5039  -0.4785  -0.4771  -0.4762  -0.4752  -0.4721  -0.4720
    -0.4496  -0.4452  -0.4143  -0.4136  -0.4125  -0.4091  -0.4087  -0.4070
    -0.4063  -0.4041  -0.3755  -0.3744  -0.3601  -0.3555  -0.3555  -0.3506
    -0.3200  -0.3193  -0.3181  -0.3171  -0.3137  -0.3123  -0.2999  -0.2988
    -0.2973  -0.2952  -0.2369  -0.2363  -0.2255  -0.2202  -0.2193  -0.1980
    -0.1956  -0.1752  -0.1746  -0.1688  -0.1665  -0.1651  -0.1647  -0.1471
    -0.1462  -0.1343  -0.1337  -0.1296  -0.1281  -0.1217  -0.1185  -0.1174
    -0.1170  -0.1152  -0.1149  -0.1145  -0.1080  -0.1023  -0.0995  -0.0799
    -0.0784  -0.0783  -0.0758  -0.0750  -0.0468  -0.0222  -0.0124  -0.0105
    -0.0102  -0.0046  -0.0029  -0.0023   0.0016   0.0030   0.0165   0.0303
     0.0351   0.0407   0.0416   0.0472   0.0480   0.0492   0.0506   0.0514
     0.0533   0.0561   0.0583   0.0626   0.0894   0.1111   0.1115   0.1131
     0.1141   0.1261   0.1308   0.1346   0.1363   0.1365   0.1458   0.1480
     0.1503   0.1553   0.1564   0.1663   0.1692   0.1721   0.1885   0.1901
     0.2036   0.2039   0.2052   0.2059   0.2079   0.2241   0.2277   0.2343
     0.2398   0.2399   0.2485   0.2505   0.2615   0.2636   0.2642   0.2661
     0.3054   0.3060   0.3134   0.3144   0.3185   0.3303   0.3306   0.3318
     0.3556   0.3569   0.3917   0.3956   0.3959   0.3996   0.4165   0.4438
     0.4706   0.4985   0.5120   0.5121   0.5142   0.5194   0.5237   0.5405
     0.5408   0.5425   0.5441   0.5718   0.5731   0.5826   0.5835   0.5844
     0.5853   0.5904   0.5916   0.5917   0.5936   0.6019   0.6051   0.6065
     0.6077   0.6092   0.6105   0.6144   0.6182   0.6197   0.6430   0.6453
     0.6543   0.6547   0.6557   0.6560   0.6582   0.6633   0.6633   0.6848
     0.6858   0.6868   0.6876   0.6879   0.6882   0.6900   0.6906   0.7020
     0.7086   0.7096   0.7102   0.7118   0.7134   0.7151   0.7173   0.7215
     0.7233   0.7403   0.7735   0.7740   0.7842   0.7847   0.7936   0.7949
     0.7975   0.7976   0.7990   0.8026   0.8088   0.8099   0.8100   0.8111
     0.8125   0.8144   0.8495   0.8530   0.8533   0.8540   0.8590   0.8701
     0.8704   0.8741   0.8743   0.8746   0.8850   0.8932   0.9016   0.9028
     0.9065   0.9107   0.9119   0.9138   0.9616   0.9632   1.0105   1.0155
     1.0188   1.0217   1.0223   1.0258   1.0274   1.0327   1.0379   1.0390
     1.0413   1.0443   1.0452   1.0535   1.0541   1.0558   1.0574   1.0682
     1.0697   1.0698   1.0701   1.0707   1.0758   1.0858   1.0923   1.0932
     1.0937   1.0938   1.0953   1.0961   1.1014   1.1018   1.1090   1.1159
     1.1170   1.1187   1.1201   1.1208   1.1220   1.1224   1.1365   1.1402
     1.1439   1.1527   1.1563   1.1569   1.1594   1.1598   1.1657   1.1665
     1.1674   1.1675   1.1675   1.1708   1.2067   1.2197   1.2422   1.2548
     1.2554   1.2593   1.2692   1.2745   1.2799   1.2844   1.2881   1.2890
     1.2980   1.2994   1.3097   1.3103   1.3169   1.3212   1.3224   1.3249
     1.3257   1.3287   1.3287   1.3297   1.3301   1.3307   1.3313   1.3329
     1.3376   1.3381   1.3472   1.3539   1.3585   1.3595   1.3597   1.3612
     1.3677   1.3689   1.3813   1.3975   1.3978   1.3990   1.4023   1.4028
     1.4056   1.4119   1.4157   1.4259   1.4274   1.4276   1.4311   1.4390
     1.4407   1.4410   1.4430   1.4441   1.4576   1.4603   1.4608   1.4618
     1.4673   1.4797   1.4799   1.4826   1.4959   1.5021   1.5050   1.5072
     1.5082   1.5083   1.5155   1.5207   1.5216   1.5241   1.5255   1.5378
     1.5387   1.5536   1.5542   1.5549   1.5599   1.5728   1.5753   1.5754
     1.5767   1.5787   1.5787   1.5795   1.5800   1.6058   1.6072   1.6151
     1.6152   1.6181   1.6317   1.6373   1.6454   1.6465   1.6471   1.6484
     1.6499   1.6623   1.6642   1.6659   1.6757   1.7160   1.7185   1.7192
     1.7217   1.8209   1.8223   1.8444   1.8534   1.8655   1.8693   1.8700
     1.8894   1.9167   1.9181   1.9217   1.9258   1.9422   1.9436   1.9447
     1.9573   1.9774   1.9837   2.3234   2.3342   2.3446   2.5376   2.5413
     2.5576   2.5583   2.6239   2.6302   2.6923   2.6987   2.6991   2.7004
     2.7110   2.7117   2.8367   2.8379   2.8814   2.8934   2.9136   2.9150
     3.0226   3.0513   3.0575   3.2970   3.2970   3.3305   3.3415   3.5445
     3.5674   3.7041   3.8032   3.8068   4.1498   4.1582   4.1987   4.2207
     4.2612   4.2978   4.3380   4.4567   4.4593   4.4668   4.4690   4.6292
     4.6334   4.7617   4.8547   4.8626   4.9128   4.9241   5.2222   5.2351
     5.2364   5.3186   5.4884   5.4899   5.4903   5.4920   5.5667   5.6356
     5.8029   5.8750   5.9835   6.0090   6.0557   6.4775   6.5387   6.5461
     6.5532   6.5870   6.5946   6.6348   6.6936   6.7219   6.7938   6.8029
     6.9494   6.9563   7.0826   7.1551   7.1711   7.1928   7.2026   7.2219
     7.2438   7.2526   7.2651   7.2665   7.2832   7.4771   7.4910   7.5505
     7.5591   7.5702   7.6420   7.8100   7.9196   7.9702   7.9908   8.2494
     8.2711   8.2722   8.3351   8.4454   8.4891   8.4893   8.5130   8.5630
     8.5667   8.6081   8.6099   8.6893   8.7309   8.8348   8.8421   8.8449
     8.8495   8.8638   8.8845   8.9037   8.9913   9.0866   9.0980   9.1418
     9.1719   9.2802   9.2906   9.3128   9.3543   9.3864   9.4048   9.4612
     9.4956   9.4975   9.5194   9.5381   9.5384   9.5450   9.6142   9.6350
     9.6430   9.6482   9.7014   9.8028   9.8143   9.9174   9.9182  10.0063
    10.0177  10.0224

          k = 0.2500 0.0000 0.0000 (256240 PWs)   bands (ev):

   -21.9849 -19.3823 -16.1004 -15.7511 -15.7102 -15.1179 -14.7885 -14.7283
   -14.6417 -14.6021 -13.7076 -13.6409 -13.2028 -12.9467 -12.8199 -12.8123
   -12.8016 -12.0375 -11.8901 -11.8176 -11.7837 -10.9991 -10.6782 -10.5003
   -10.4933 -10.1527  -9.8488  -9.7546  -9.5000  -9.4213  -9.1155  -8.8546
    -8.8343  -8.3053  -7.5804  -7.3009  -7.2931  -7.2665  -7.2130  -7.1632
    -6.7492  -6.5374  -6.3740  -5.8753  -5.7230  -5.7070  -5.6916  -5.6625
    -5.5905  -5.4893  -5.1835  -5.1764  -5.1473  -4.9140  -4.8169  -4.7522
    -4.3960  -4.3344  -4.3047  -4.3005  -4.1773  -4.1268  -4.1072  -4.0615
    -4.0235  -3.8700  -3.8667  -3.8279  -3.7331  -3.7095  -3.7037  -3.6352
    -3.4930  -3.3898  -3.3477  -3.3219  -3.2958  -3.2768  -3.2567  -3.1995
    -3.1535  -3.1289  -3.1065  -3.0921  -3.0019  -2.9298  -2.9041  -2.8746
    -2.8446  -2.7169  -2.6686  -2.6681  -2.6308  -2.5476  -2.4931  -2.4867
    -2.3325  -2.2690  -2.2315  -2.2149  -2.1986  -2.1791  -1.9692  -1.9685
    -1.9522  -1.9507  -1.8786  -1.8688  -1.8182  -1.7798  -1.7650  -1.7624
    -1.7263  -1.7114  -1.6977  -1.6720  -1.6718  -1.6643  -1.6642  -1.6441
    -1.6163  -1.5934  -1.5824  -1.5811  -1.5564  -1.5176  -1.5152  -1.4751
    -1.4673  -1.4541  -1.4506  -1.4487  -1.4485  -1.4481  -1.4361  -1.4237
    -1.3958  -1.3836  -1.3747  -1.3738  -1.3703  -1.3617  -1.3577  -1.2433
    -1.2046  -1.2022  -1.1837  -1.1461  -1.1392  -1.1339  -1.1154  -1.1141
    -1.1090  -1.0950  -1.0896  -1.0801  -1.0790  -1.0711  -1.0559  -1.0526
    -1.0482  -1.0408  -1.0200  -1.0070  -1.0041  -1.0010  -1.0000  -0.9960
    -0.9840  -0.9816  -0.9763  -0.9475  -0.9392  -0.9205  -0.9196  -0.9146
    -0.9060  -0.9041  -0.8894  -0.8862  -0.8838  -0.8797  -0.8728  -0.8653
    -0.8620  -0.8541  -0.8535  -0.8503  -0.8493  -0.8465  -0.8460  -0.8355
    -0.8254  -0.8175  -0.8109  -0.7942  -0.7765  -0.7734  -0.7723  -0.7655
    -0.7579  -0.7252  -0.7229  -0.7169  -0.6864  -0.6861  -0.6729  -0.6673
    -0.6665  -0.6543  -0.6421  -0.6400  -0.6276  -0.6261  -0.6239  -0.6193
    -0.6137  -0.6085  -0.5938  -0.5245  -0.4725  -0.4696  -0.4685  -0.4598
    -0.4398  -0.4374  -0.4366  -0.4220  -0.4204  -0.4200  -0.4192  -0.3994
    -0.3977  -0.3970  -0.3914  -0.3841  -0.3764  -0.3571  -0.3565  -0.3535
    -0.3531  -0.3521  -0.3404  -0.3324  -0.3322  -0.3288  -0.2716  -0.2712
    -0.2707  -0.2687  -0.2632  -0.2590  -0.2517  -0.2462  -0.2389  -0.2327
    -0.2280  -0.2273  -0.2059  -0.2055  -0.2050  -0.1968  -0.1672  -0.1669
    -0.1624  -0.1618  -0.1532  -0.1525  -0.1428  -0.1379  -0.1347  -0.1254
    -0.1232  -0.1062  -0.1021  -0.0992  -0.0803  -0.0706  -0.0698  -0.0673
    -0.0668  -0.0547  -0.0523  -0.0513  -0.0508  -0.0447  -0.0249  -0.0245
    -0.0175  -0.0117  -0.0086   0.0028   0.0153   0.0169   0.0180   0.0432
     0.0572   0.0605   0.0627   0.0664   0.0695   0.0753   0.0904   0.1041
     0.1091   0.1144   0.1159   0.1169   0.1208   0.1269   0.1283   0.1328
     0.1347   0.1351   0.1377   0.1386   0.1418   0.1436   0.1613   0.1616
     0.1629   0.1672   0.1696   0.1745   0.1874   0.1882   0.2044   0.2080
     0.2273   0.2422   0.2428   0.2450   0.2458   0.2486   0.2620   0.2682
     0.2689   0.2704   0.2709   0.2715   0.2798   0.3086   0.3093   0.3580
     0.3682   0.3803   0.3810   0.3839   0.3971   0.3985   0.3991   0.4010
     0.4034   0.4050   0.4106   0.4127   0.4165   0.4185   0.4226   0.4264
     0.4342   0.4355   0.4369   0.4412   0.4495   0.4503   0.4564   0.4600
     0.4613   0.4633   0.4675   0.4805   0.4863   0.4955   0.4979   0.5333
     0.5376   0.5444   0.5475   0.5534   0.5548   0.5704   0.5713   0.5718
     0.5753   0.5869   0.5933   0.6037   0.6078   0.6094   0.6147   0.6160
     0.6200   0.6218   0.6246   0.6254   0.6449   0.6488   0.6551   0.6627
     0.6703   0.6770   0.6787   0.6789   0.6803   0.6822   0.6858   0.6897
     0.7034   0.7094   0.7096   0.7129   0.7215   0.7228   0.7258   0.7284
     0.7354   0.7375   0.7403   0.7461   0.7495   0.7555   0.7658   0.7674
     0.7867   0.7874   0.7908   0.7927   0.7987   0.8003   0.8046   0.8227
     0.8312   0.8343   0.8518   0.8572   0.8686   0.8691   0.8729   0.8749
     0.8798   0.8936   0.8985   0.9026   0.9061   0.9075   0.9143   0.9221
     0.9280   0.9324   0.9336   0.9432   0.9515   0.9534   0.9551   0.9690
     0.9716   0.9842   0.9844   0.9852   0.9887   1.0070   1.0085   1.0184
     1.0213   1.0216   1.0227   1.0258   1.0306   1.0323   1.0349   1.0404
     1.0728   1.0805   1.0830   1.0835   1.0840   1.0851   1.0945   1.0972
     1.0991   1.1170   1.1197   1.1202   1.1216   1.1284   1.1290   1.1313
     1.1429   1.1459   1.1461   1.1466   1.1475   1.1495   1.1521   1.1551
     1.1573   1.1603   1.1614   1.1632   1.1706   1.1750   1.1797   1.1884
     1.1905   1.1944   1.1969   1.1985   1.2029   1.2044   1.2049   1.2181
     1.2197   1.2288   1.2342   1.2355   1.2372   1.2397   1.2422   1.2508
     1.2628   1.2648   1.2656   1.2763   1.2798   1.2839   1.2862   1.2932
     1.2975   1.3048   1.3103   1.3125   1.3174   1.3206   1.3218   1.3594
     1.3618   1.3669   1.3719   1.3734   1.3745   1.3797   1.3813   1.3817
     1.3831   1.3893   1.3912   1.4032   1.4053   1.4068   1.4075   1.4180
     1.4263   1.4272   1.4278   1.4305   1.4332   1.4357   1.4388   1.4419
     1.4427   1.4448   1.4461   1.4520   1.4526   1.4571   1.4609   1.4675
     1.4745   1.4767   1.4793   1.4847   1.4855   1.4870   1.4877   1.4952
     1.5076   1.5076   1.5094   1.5245   1.5309   1.5324   1.5399   1.5411
     1.5477   1.5501   1.5505   1.5516   1.5555   1.5560   1.5610   1.5620
     1.5626   1.5648   1.5690   1.5715   1.5888   1.5922   1.5926   1.5933
     1.5962   1.5979   1.5982   1.6099   1.6103   1.6153   1.6214   1.6230
     1.6336   1.6344   1.6423   1.6427   1.6489   1.6570   1.6712   1.6734
     1.6812   1.7087   1.7177   1.7474   1.7505   1.7542   1.7588   1.7914
     1.8218   1.8788   1.8878   1.8913   1.8923   1.9098   1.9256   1.9365
     1.9640   2.1263   2.1585   2.1961   2.2052   2.2147   2.2179   2.2481
     2.3218   2.3849   2.3916   2.6862   2.6912   2.6949   2.6976   2.9143
     3.1037   3.1040   3.1474   3.3216   3.3221   3.3458   3.3459   3.4073
     3.4185   3.5964   3.6147   3.7034   3.7181   3.7353   3.7633   3.7699
     3.8343   3.8405   3.8490   3.8532   3.8969   4.0021   4.0052   4.1053
     4.1098   4.2740   4.3305   4.3379   4.3619   4.4077   4.5498   4.6352
     4.7877   4.9080   4.9372   4.9729   5.0527   5.3096   5.3493   5.3510
     5.3605   5.4902   5.5061   5.5935   5.6037   5.6289   5.6609   5.7208
     5.7336   5.7680   5.8254   5.8409   5.8713   5.8786   5.9656   5.9681
     6.0491   6.1368   6.1392   6.1564   6.2029   6.3503   6.7953   6.8303
     6.8393   6.8552   6.8829   6.9572   6.9923   7.0201   7.0789   7.1138
     7.1474   7.1720   7.1788   7.1805   7.2024   7.3502   7.3942   7.4345
     7.4646   7.5739   7.6551   7.6727   7.6888   7.7063   7.8996   7.9158
     7.9311   8.0236   8.0629   8.1344   8.1471   8.1957   8.2125   8.3034
     8.3867   8.4078   8.4362   8.4409   8.4561   8.5203   8.5236   8.5512
     8.5784   8.6621   8.7711   8.7757   8.8678   9.0431   9.0513   9.0729
     9.0925   9.1608   9.2709   9.3042   9.3244   9.3417   9.3599   9.3789
     9.3853   9.4045   9.4238   9.4748   9.5458   9.5514   9.5572   9.5912
     9.6444   9.6621   9.8114   9.8501   9.8514   9.8965   9.9239   9.9875
    10.0956  10.1318

          k = 0.2500-0.2165 0.0000 (256316 PWs)   bands (ev):

   -21.9849 -19.3823 -16.0157 -16.0001 -15.2988 -15.2474 -15.0296 -15.0139
   -14.3288 -14.2708 -13.8488 -13.7887 -13.1439 -13.0925 -12.9045 -12.8403
   -12.4509 -12.3750 -11.8182 -11.6969 -11.2535 -11.0830 -10.9215 -10.8195
   -10.5514 -10.4517  -9.9835  -9.3825  -9.3349  -8.8726  -8.8444  -8.8059
    -8.7500  -8.2970  -8.2167  -8.1403  -8.1294  -6.9985  -6.4202  -6.4028
    -6.3797  -6.2842  -6.2733  -6.1857  -6.0397  -5.9689  -5.7355  -5.6246
    -5.5768  -5.5679  -5.5206  -5.1746  -4.9033  -4.7887  -4.6714  -4.5945
    -4.5764  -4.5434  -4.5363  -4.5088  -4.2184  -4.2125  -4.1702  -4.0609
    -3.9541  -3.9196  -3.8975  -3.8476  -3.7153  -3.6621  -3.5707  -3.5224
    -3.4339  -3.3895  -3.3471  -3.3276  -3.3251  -3.3117  -3.2766  -3.2041
    -3.1052  -2.9983  -2.9659  -2.9271  -2.8680  -2.8286  -2.7954  -2.7837
    -2.7805  -2.7778  -2.7666  -2.6721  -2.6312  -2.5895  -2.5709  -2.3664
    -2.3422  -2.2793  -2.1863  -2.1859  -2.1802  -2.0939  -2.0662  -2.0440
    -2.0387  -2.0386  -2.0152  -1.8803  -1.8798  -1.8382  -1.8328  -1.8050
    -1.7275  -1.7004  -1.6867  -1.6833  -1.6826  -1.6354  -1.6245  -1.6141
    -1.6053  -1.5936  -1.5875  -1.5820  -1.5783  -1.5641  -1.5526  -1.5473
    -1.5471  -1.5465  -1.5391  -1.5376  -1.5316  -1.5142  -1.4840  -1.4560
    -1.4484  -1.3393  -1.3390  -1.2321  -1.2314  -1.2174  -1.2030  -1.2011
    -1.1998  -1.1493  -1.1473  -1.1339  -1.1335  -1.1328  -1.1203  -1.1197
    -1.1106  -1.1084  -1.0978  -1.0954  -1.0899  -1.0880  -1.0790  -1.0718
    -1.0666  -1.0651  -1.0639  -1.0563  -1.0517  -1.0125  -1.0039  -1.0012
    -0.9985  -0.9915  -0.9843  -0.9839  -0.9796  -0.9558  -0.9489  -0.9427
    -0.9242  -0.9128  -0.9108  -0.9097  -0.8970  -0.8953  -0.8921  -0.8674
    -0.8669  -0.8498  -0.8406  -0.8327  -0.8315  -0.8280  -0.8266  -0.8253
    -0.8195  -0.8088  -0.7976  -0.7933  -0.7741  -0.7692  -0.7447  -0.7333
    -0.7327  -0.7323  -0.6770  -0.6551  -0.6515  -0.6469  -0.6414  -0.6389
    -0.6375  -0.6021  -0.5922  -0.5911  -0.5842  -0.5837  -0.5768  -0.5758
    -0.5683  -0.5637  -0.5458  -0.5287  -0.5226  -0.5202  -0.4904  -0.4859
    -0.4843  -0.4701  -0.4411  -0.4352  -0.4350  -0.4339  -0.4095  -0.4066
    -0.4042  -0.3989  -0.3841  -0.3758  -0.3721  -0.3709  -0.3590  -0.3571
    -0.3261  -0.3231  -0.3203  -0.3197  -0.3077  -0.3068  -0.2804  -0.2801
    -0.2657  -0.2646  -0.2558  -0.2520  -0.2450  -0.2396  -0.2391  -0.2349
    -0.2343  -0.2280  -0.2266  -0.2239  -0.2231  -0.2097  -0.2008  -0.1976
    -0.1900  -0.1886  -0.1880  -0.1619  -0.1614  -0.1495  -0.1412  -0.1390
    -0.1265  -0.1171  -0.1117  -0.1112  -0.0957  -0.0908  -0.0895  -0.0888
    -0.0861  -0.0799  -0.0494  -0.0435  -0.0279  -0.0275   0.0095   0.0104
     0.0200   0.0203   0.0236   0.0248   0.0395   0.0404   0.0424   0.0528
     0.0591   0.0599   0.0703   0.0733   0.0755   0.0774   0.0882   0.0894
     0.0916   0.0943   0.1097   0.1134   0.1198   0.1239   0.1260   0.1272
     0.1300   0.1307   0.1315   0.1326   0.1374   0.1387   0.1564   0.1593
     0.1596   0.1600   0.1615   0.1932   0.1943   0.2014   0.2029   0.2109
     0.2154   0.2297   0.2312   0.2509   0.2586   0.2593   0.2637   0.2684
     0.2746   0.2791   0.2795   0.2805   0.2888   0.2941   0.2947   0.3008
     0.3073   0.3091   0.3305   0.3364   0.3952   0.3970   0.4025   0.4032
     0.4093   0.4097   0.4134   0.4153   0.4214   0.4233   0.4268   0.4274
     0.4362   0.4420   0.4446   0.4502   0.4561   0.4597   0.4604   0.4621
     0.4711   0.4724   0.4876   0.4949   0.5018   0.5096   0.5110   0.5220
     0.5259   0.5331   0.5348   0.5713   0.5739   0.5758   0.5826   0.5832
     0.5850   0.5983   0.5998   0.6010   0.6046   0.6055   0.6091   0.6105
     0.6141   0.6160   0.6367   0.6428   0.6458   0.6489   0.6609   0.6639
     0.6716   0.6956   0.6963   0.6976   0.6983   0.7250   0.7326   0.7350
     0.7356   0.7365   0.7388   0.7414   0.7426   0.7531   0.7547   0.7584
     0.7618   0.7659   0.7673   0.7700   0.7712   0.7818   0.7871   0.7904
     0.7959   0.7974   0.7984   0.7990   0.8062   0.8115   0.8141   0.8164
     0.8173   0.8188   0.8302   0.8377   0.8384   0.8391   0.8447   0.8454
     0.8471   0.8491   0.8509   0.8517   0.8826   0.8852   0.8935   0.8963
     0.9084   0.9250   0.9330   0.9358   0.9509   0.9513   0.9533   0.9536
     0.9577   0.9583   0.9646   0.9809   0.9812   0.9819   0.9823   0.9842
     0.9849   0.9952   1.0036   1.0107   1.0130   1.0162   1.0228   1.0243
     1.0317   1.0341   1.0554   1.0558   1.0568   1.0820   1.0831   1.0889
     1.0905   1.0915   1.0932   1.0939   1.0955   1.1063   1.1112   1.1278
     1.1310   1.1320   1.1452   1.1464   1.1606   1.1634   1.1655   1.1664
     1.1810   1.1934   1.1979   1.2039   1.2077   1.2088   1.2149   1.2154
     1.2163   1.2181   1.2193   1.2197   1.2208   1.2247   1.2317   1.2333
     1.2349   1.2459   1.2470   1.2472   1.2598   1.2671   1.2788   1.2929
     1.2943   1.2996   1.3015   1.3038   1.3053   1.3058   1.3112   1.3137
     1.3165   1.3177   1.3217   1.3256   1.3302   1.3310   1.3337   1.3351
     1.3366   1.3408   1.3472   1.3508   1.3513   1.3515   1.3527   1.3539
     1.3623   1.3672   1.3720   1.3729   1.3763   1.3977   1.3988   1.4045
     1.4060   1.4216   1.4243   1.4265   1.4282   1.4375   1.4378   1.4500
     1.4511   1.4530   1.4579   1.4584   1.4620   1.4640   1.4668   1.4749
     1.4757   1.4771   1.4868   1.4875   1.4908   1.5030   1.5040   1.5086
     1.5090   1.5105   1.5126   1.5146   1.5165   1.5197   1.5202   1.5324
     1.5331   1.5380   1.5384   1.5497   1.5520   1.5553   1.5608   1.5639
     1.5645   1.5650   1.5685   1.5715   1.5718   1.5722   1.5757   1.5808
     1.5810   1.5831   1.6052   1.6053   1.6084   1.6158   1.6187   1.6295
     1.6304   1.6496   1.6515   1.6552   1.6577   1.6763   1.6773   1.6830
     1.6859   1.7116   1.7140   1.7816   1.7842   1.7924   1.7950   1.8024
     1.8742   1.8815   1.8895   1.9005   1.9085   1.9156   1.9168   1.9202
     1.9288   1.9679   1.9758   1.9845   2.2521   2.2542   2.2852   2.2879
     2.4069   2.4209   2.7072   2.7118   2.7956   2.9132   2.9190   2.9193
     2.9255   2.9340   2.9566   2.9683   3.0094   3.1117   3.1144   3.2015
     3.2252   3.6554   3.6770   3.7192   3.7414   3.7604   3.8030   3.8268
     3.9668   3.9710   3.9763   3.9771   4.1245   4.1290   4.1924   4.1981
     4.2910   4.2924   4.5027   4.5049   4.5501   4.6606   4.6801   4.6838
     4.7921   4.8002   4.8949   4.9321   4.9924   5.0651   5.0715   5.1382
     5.1899   5.2227   5.3124   5.3877   5.4326   5.4889   5.5609   5.5769
     5.5900   5.5950   5.6338   5.8028   5.8927   5.9021   6.0252   6.0353
     6.0564   6.1319   6.1964   6.4709   6.7193   6.7301   6.7628   6.7663
     6.8789   6.8848   6.9934   7.0010   7.1386   7.1696   7.2084   7.2206
     7.2283   7.2355   7.2540   7.3300   7.3338   7.3557   7.4275   7.4456
     7.4726   7.4840   7.4894   7.5494   7.5693   7.5701   7.7795   7.8202
     7.9033   7.9273   7.9694   8.0612   8.1345   8.1499   8.3233   8.3284
     8.3582   8.3959   8.4111   8.6029   8.6284   8.6855   8.7179   8.7234
     8.7674   8.7709   8.8356   8.8401   8.8537   8.8918   8.9492   9.0484
     9.0681   9.0784   9.0871   9.2195   9.2643   9.2723   9.3021   9.3043
     9.3197   9.3605   9.3707   9.3984   9.4083   9.4633   9.4746   9.5027
     9.5197   9.5476   9.5954   9.6723   9.6852   9.7063   9.8665   9.9303
    10.0349  10.0587

          k =-0.5000 0.0000 0.0000 (256496 PWs)   bands (ev):

   -21.9849 -19.3824 -15.7502 -15.7137 -15.4175 -15.3580 -15.3413 -15.3238
   -14.3425 -14.2509 -14.2399 -14.2356 -12.6716 -12.4685 -12.4611 -12.4569
   -12.0090 -11.8883 -11.7201 -11.5681 -11.5631 -11.5446 -11.0607 -10.9176
   -10.6544 -10.4923 -10.0828  -9.9004  -9.7248  -9.5087  -9.4881  -8.6972
    -8.6788  -8.6630  -8.6223  -7.4861  -7.1791  -7.1492  -7.1120  -7.0986
    -7.0795  -6.4552  -5.6978  -5.6375  -5.5619  -5.2625  -5.1768  -5.1748
    -4.9193  -4.8710  -4.6736  -4.6725  -4.6706  -4.6663  -4.5143  -4.5139
    -4.4941  -4.4581  -4.4319  -4.4234  -4.3761  -4.3357  -4.2967  -4.2498
    -4.1419  -4.1192  -4.1065  -4.0206  -3.8565  -3.8405  -3.8376  -3.8313
    -3.7968  -3.6510  -3.4329  -3.3939  -3.3812  -3.2906  -3.2896  -3.2886
    -3.2883  -3.2571  -3.1428  -3.1251  -3.1205  -3.1112  -3.0896  -3.0551
    -3.0235  -2.6210  -2.6159  -2.6107  -2.5502  -2.5451  -2.5200  -2.4966
    -2.4791  -2.4623  -2.4540  -2.2593  -2.2381  -2.2131  -2.1732  -2.1687
    -2.1679  -2.1642  -1.8758  -1.7494  -1.7492  -1.7489  -1.7479  -1.7472
    -1.7455  -1.6248  -1.6208  -1.6194  -1.5723  -1.5217  -1.5215  -1.5210
    -1.5191  -1.4733  -1.4724  -1.4713  -1.4704  -1.4226  -1.3999  -1.3726
    -1.3673  -1.3596  -1.3585  -1.3018  -1.2971  -1.2958  -1.2946  -1.2815
    -1.2783  -1.2755  -1.2348  -1.2291  -1.2285  -1.2240  -1.2218  -1.2150
    -1.2132  -1.2117  -1.2095  -1.2045  -1.2009  -1.1986  -1.1957  -1.1631
    -1.1631  -1.1616  -1.1584  -1.1391  -1.1386  -1.1385  -1.1371  -1.0758
    -1.0754  -1.0553  -1.0542  -1.0527  -1.0521  -1.0250  -1.0230  -1.0219
    -1.0193  -1.0191  -1.0172  -1.0163  -1.0153  -0.9856  -0.9789  -0.9787
    -0.9778  -0.9774  -0.9566  -0.9554  -0.9274  -0.9269  -0.8813  -0.8802
    -0.8531  -0.8522  -0.8502  -0.8488  -0.8310  -0.8225  -0.8222  -0.8209
    -0.8175  -0.8129  -0.8105  -0.8042  -0.8034  -0.8002  -0.7990  -0.7962
    -0.7746  -0.7744  -0.7672  -0.7507  -0.7123  -0.7110  -0.7088  -0.7086
    -0.6666  -0.6658  -0.5827  -0.5820  -0.5815  -0.5809  -0.5477  -0.5450
    -0.5444  -0.5428  -0.5422  -0.5420  -0.5276  -0.5230  -0.5124  -0.5053
    -0.5017  -0.4995  -0.4986  -0.4929  -0.4848  -0.4830  -0.4686  -0.4670
    -0.4631  -0.4552  -0.3682  -0.3639  -0.3508  -0.3384  -0.3370  -0.3308
    -0.3284  -0.3281  -0.3256  -0.3201  -0.2792  -0.2789  -0.2769  -0.2760
    -0.2745  -0.2736  -0.2657  -0.2486  -0.2418  -0.2408  -0.2399  -0.2396
    -0.2372  -0.2268  -0.2015  -0.2011  -0.2004  -0.2000  -0.1674  -0.1673
    -0.1670  -0.1666  -0.1556  -0.1551  -0.1228  -0.1227  -0.1206  -0.1202
    -0.1192  -0.1008  -0.0993  -0.0898  -0.0849  -0.0716  -0.0618  -0.0230
    -0.0089  -0.0083  -0.0074  -0.0074  -0.0016  -0.0008   0.0008   0.0015
     0.0388   0.0394   0.0423   0.0431   0.0760   0.0771   0.1007   0.1016
     0.1033   0.1043   0.1046   0.1053   0.1064   0.1070   0.1082   0.1092
     0.1095   0.1106   0.1352   0.1794   0.1849   0.1851   0.1939   0.1958
     0.1979   0.1986   0.1994   0.2010   0.2014   0.2042   0.2067   0.2086
     0.2093   0.2114   0.2140   0.2150   0.2181   0.2249   0.2267   0.2269
     0.2391   0.2426   0.2431   0.2464   0.2466   0.2469   0.2475   0.2556
     0.2560   0.2562   0.2562   0.2687   0.2693   0.2811   0.2812   0.2819
     0.2821   0.2910   0.2985   0.3120   0.3147   0.4128   0.4130   0.4156
     0.4157   0.4222   0.4342   0.4383   0.4464   0.4479   0.4493   0.4512
     0.4596   0.4601   0.4636   0.4701   0.4705   0.4724   0.4746   0.4754
     0.4757   0.4773   0.4854   0.4859   0.4878   0.4911   0.4947   0.5021
     0.5039   0.5160   0.5166   0.5194   0.5199   0.5247   0.5248   0.5310
     0.5327   0.5538   0.5699   0.6037   0.6152   0.6171   0.6209   0.6230
     0.6363   0.6374   0.6489   0.6492   0.6536   0.6540   0.6590   0.6597
     0.6610   0.6618   0.6629   0.6633   0.6641   0.6663   0.6683   0.6685
     0.6751   0.6763   0.6764   0.6807   0.6971   0.6983   0.7120   0.7122
     0.7321   0.7329   0.7438   0.7478   0.7481   0.7498   0.7548   0.7575
     0.7596   0.7601   0.7611   0.7622   0.7624   0.7673   0.7761   0.7811
     0.7814   0.7817   0.7955   0.7983   0.7994   0.8026   0.8296   0.8316
     0.8335   0.8349   0.8394   0.8446   0.8521   0.8552   0.8743   0.8913
     0.8933   0.8948   0.8952   0.8964   0.8966   0.9010   0.9146   0.9469
     0.9637   0.9640   0.9668   0.9680   0.9686   0.9695   0.9758   0.9777
     0.9799   0.9822   0.9831   0.9837   0.9932   0.9949   1.0110   1.0132
     1.0145   1.0162   1.0328   1.0334   1.0337   1.0342   1.0354   1.0361
     1.0426   1.0436   1.0744   1.0745   1.0757   1.0762   1.1215   1.1399
     1.1400   1.1409   1.1424   1.1434   1.1672   1.1747   1.1752   1.1754
     1.1778   1.1891   1.1957   1.1963   1.2041   1.2044   1.2072   1.2216
     1.2230   1.2355   1.2405   1.2407   1.2436   1.2437   1.2452   1.2454
     1.2517   1.2522   1.2532   1.2550   1.2620   1.2623   1.2636   1.2640
     1.2652   1.2660   1.2687   1.2693   1.3025   1.3031   1.3032   1.3041
     1.3077   1.3341   1.3375   1.3401   1.3408   1.3411   1.3432   1.3516
     1.3585   1.3604   1.3666   1.3679   1.3686   1.3691   1.3733   1.3792
     1.3808   1.3810   1.3824   1.3894   1.3972   1.4110   1.4151   1.4169
     1.4262   1.4274   1.4357   1.4419   1.4419   1.4420   1.4422   1.4425
     1.4426   1.4462   1.4532   1.4568   1.4569   1.4586   1.4590   1.4600
     1.4604   1.4622   1.4689   1.4697   1.4697   1.4700   1.4710   1.4713
     1.4768   1.4772   1.4909   1.4922   1.5126   1.5142   1.5148   1.5176
     1.5181   1.5197   1.5207   1.5212   1.5353   1.5375   1.5411   1.5418
     1.5530   1.5562   1.5577   1.5638   1.5700   1.5755   1.5757   1.5762
     1.5798   1.5961   1.5987   1.5997   1.6002   1.6057   1.6063   1.6064
     1.6067   1.6102   1.6157   1.6239   1.6266   1.6304   1.6393   1.6398
     1.6401   1.6404   1.6512   1.6521   1.6560   1.6666   1.7018   1.7074
     1.7140   1.7328   1.7333   1.7368   1.7387   1.7857   2.1539   2.1619
     2.1623   2.1633   2.3491   2.3668   2.3816   2.3861   2.4111   2.4117
     2.4193   2.4198   2.6919   2.7482   2.7541   2.7571   2.8324   2.9582
     2.9636   2.9642   2.9900   3.3120   3.3127   3.3162   3.3165   3.5996
     3.6058   3.7274   3.8868   3.8901   3.8935   3.8995   4.0499   4.0541
     4.0564   4.0605   4.1981   4.2008   4.2011   4.2058   4.3250   4.3258
     4.6125   4.6967   4.7606   4.8608   4.8805   4.8908   4.8975   4.9026
     4.9532   4.9538   5.0074   5.0259   5.1453   5.1474   5.1758   5.1772
     5.1817   5.1856   5.2029   5.2034   5.2290   5.2329   5.3300   5.3367
     5.3639   5.5542   5.6781   5.6836   5.6909   5.7537   5.8202   5.8354
     6.0550   6.1152   6.1166   6.1388   6.1411   6.1702   6.1785   6.1836
     6.1918   6.3211   6.5791   6.5836   6.6064   6.6180   6.6548   6.6834
     6.7033   7.1482   7.2253   7.2262   7.2396   7.2494   7.2566   7.2597
     7.6363   7.7196   7.7210   7.7295   7.7311   7.7317   7.7376   7.7799
     7.8887   7.9463   7.9768   8.0147   8.0180   8.0216   8.0547   8.1910
     8.1925   8.1951   8.2195   8.2327   8.2788   8.2903   8.2947   8.3634
     8.5301   8.7090   8.7358   8.8664   8.9534   8.9565   8.9615   8.9640
     9.0285   9.0503   9.1800   9.2005   9.2031   9.2088   9.2506   9.3878
     9.3959   9.5072   9.5555   9.5582   9.5596   9.5662   9.6174   9.6356
     9.6516   9.6538   9.6619   9.6693   9.6820   9.6869   9.7546   9.8461
     9.9476  10.0566

          k =-0.5000-0.2165 0.0000 (256328 PWs)   bands (ev):

   -21.9849 -19.3824 -15.6805 -15.6392 -15.6335 -15.6001 -14.9654 -14.8926
   -14.8791 -14.8698 -13.5621 -13.4392 -13.4299 -13.4269 -12.1013 -11.8231
   -11.8219 -11.7829 -11.5809 -11.3687 -11.3656 -11.3601 -11.2589 -11.1925
   -11.1899 -11.1832 -10.1141  -9.5013  -9.4910  -9.4598  -9.3446  -8.6001
    -8.5308  -8.5114  -8.4886  -7.8507  -7.7654  -7.7591  -7.7327  -6.7554
    -5.7550  -5.7017  -5.6847  -5.5712  -5.5482  -5.3297  -5.0677  -5.0544
    -5.0527  -5.0514  -5.0476  -5.0418  -5.0299  -4.8812  -4.8389  -4.8376
    -4.7881  -4.6304  -4.1969  -4.1933  -4.1722  -4.0911  -4.0681  -4.0670
    -4.0657  -4.0463  -3.9634  -3.9587  -3.9460  -3.8815  -3.7243  -3.7156
    -3.7051  -3.5607  -3.4918  -3.4327  -3.4267  -3.4211  -3.4125  -3.4084
    -3.3957  -3.3456  -3.3001  -3.2414  -3.2325  -3.1892  -3.0634  -2.8909
    -2.8712  -2.8538  -2.5596  -2.4489  -2.4486  -2.4481  -2.4446  -2.3948
    -2.3847  -2.3844  -2.3386  -2.1218  -2.0896  -2.0767  -2.0699  -1.9642
    -1.9635  -1.9587  -1.9511  -1.8838  -1.8829  -1.8818  -1.8652  -1.8125
    -1.7946  -1.7709  -1.7483  -1.6751  -1.6742  -1.6718  -1.6692  -1.5643
    -1.5543  -1.5349  -1.4853  -1.3647  -1.3641  -1.3638  -1.3635  -1.3462
    -1.3383  -1.3350  -1.3254  -1.3236  -1.3229  -1.3213  -1.3052  -1.3047
    -1.3022  -1.3020  -1.2579  -1.2567  -1.2563  -1.2563  -1.2541  -1.2533
    -1.2475  -1.2442  -1.2294  -1.2293  -1.2291  -1.2286  -1.1877  -1.1808
    -1.1773  -1.1770  -1.1654  -1.1029  -1.1021  -1.1001  -1.0894  -1.0635
    -1.0632  -1.0605  -1.0602  -1.0424  -1.0421  -1.0411  -1.0403  -1.0149
    -0.9927  -0.9923  -0.9919  -0.9913  -0.9871  -0.9870  -0.9870  -0.9849
    -0.9586  -0.9533  -0.9510  -0.9336  -0.9333  -0.9224  -0.9207  -0.9163
    -0.9161  -0.9099  -0.9085  -0.9070  -0.9065  -0.9060  -0.9044  -0.8635
    -0.8159  -0.8023  -0.7722  -0.7562  -0.7557  -0.7517  -0.7503  -0.7314
    -0.7238  -0.7234  -0.7233  -0.7229  -0.6446  -0.6440  -0.6396  -0.6386
    -0.6333  -0.6329  -0.6324  -0.6322  -0.6311  -0.6283  -0.6218  -0.6103
    -0.5708  -0.5707  -0.5692  -0.5677  -0.5608  -0.5598  -0.5587  -0.5556
    -0.5439  -0.5436  -0.5323  -0.5288  -0.4485  -0.4484  -0.4429  -0.4417
    -0.4359  -0.4357  -0.4302  -0.4268  -0.3710  -0.3705  -0.3691  -0.3672
    -0.3208  -0.3200  -0.3199  -0.3193  -0.3013  -0.3012  -0.2979  -0.2975
    -0.2729  -0.2727  -0.2680  -0.2656  -0.2617  -0.2607  -0.2604  -0.2589
    -0.2177  -0.2174  -0.2167  -0.2114  -0.1486  -0.1484  -0.1422  -0.1417
    -0.1288  -0.1285  -0.1278  -0.1271  -0.1121  -0.1120  -0.1118  -0.1105
    -0.0420  -0.0306  -0.0286  -0.0283  -0.0259  -0.0248  -0.0230  -0.0226
    -0.0223  -0.0212  -0.0208  -0.0202   0.0098   0.0149   0.0151   0.0155
     0.0188   0.0275   0.0280   0.0284   0.0286   0.0326   0.0335   0.0344
     0.0353   0.1014   0.1023   0.1026   0.1051   0.1228   0.1245   0.1341
     0.1358   0.1730   0.1784   0.1811   0.1860   0.1963   0.1981   0.2066
     0.2067   0.2074   0.2082   0.2141   0.2146   0.2174   0.2192   0.2202
     0.2215   0.2232   0.2235   0.2283   0.2284   0.2291   0.2299   0.2335
     0.2338   0.2361   0.2367   0.2503   0.2510   0.2511   0.2516   0.2555
     0.2717   0.2779   0.2782   0.2788   0.2788   0.2898   0.2907   0.2908
     0.2942   0.3384   0.3386   0.3397   0.3397   0.3718   0.3726   0.3732
     0.3741   0.4453   0.4465   0.4519   0.4544   0.4581   0.4582   0.4664
     0.4698   0.4702   0.4710   0.4768   0.4782   0.4837   0.4855   0.4896
     0.4928   0.4940   0.4960   0.4983   0.5001   0.5022   0.5038   0.5044
     0.5118   0.5133   0.5170   0.5207   0.5335   0.5456   0.5625   0.5647
     0.5826   0.5831   0.5844   0.5857   0.5870   0.5891   0.5910   0.5941
     0.5968   0.5974   0.5997   0.6044   0.6276   0.6347   0.6373   0.6394
     0.6399   0.6426   0.6495   0.6498   0.6778   0.6791   0.6857   0.6868
     0.6938   0.6944   0.6972   0.6975   0.6998   0.7019   0.7029   0.7035
     0.7054   0.7062   0.7084   0.7121   0.7214   0.7223   0.7228   0.7252
     0.7267   0.7357   0.7394   0.7440   0.7991   0.8049   0.8061   0.8095
     0.8102   0.8120   0.8126   0.8146   0.8152   0.8216   0.8221   0.8226
     0.8363   0.8422   0.8475   0.8543   0.8556   0.8565   0.8571   0.8585
     0.8590   0.8601   0.8622   0.8651   0.9042   0.9118   0.9124   0.9139
     0.9384   0.9384   0.9412   0.9419   0.9654   0.9696   0.9737   0.9737
     0.9772   0.9783   0.9793   0.9895   1.0007   1.0013   1.0031   1.0042
     1.0523   1.0533   1.0540   1.0545   1.0844   1.0850   1.0886   1.0892
     1.1072   1.1382   1.1388   1.1412   1.1469   1.1560   1.1569   1.1616
     1.1650   1.1674   1.1676   1.1680   1.1713   1.1716   1.1719   1.1721
     1.1740   1.1743   1.1785   1.1793   1.1859   1.2044   1.2049   1.2057
     1.2065   1.2082   1.2104   1.2113   1.2146   1.2159   1.2189   1.2204
     1.2229   1.2266   1.2286   1.2324   1.2498   1.2514   1.2526   1.2533
     1.2611   1.2628   1.2637   1.2668   1.2692   1.2710   1.2723   1.2741
     1.3107   1.3199   1.3213   1.3223   1.3235   1.3254   1.3276   1.3298
     1.3482   1.3491   1.3499   1.3501   1.3546   1.3659   1.3675   1.3707
     1.3720   1.3894   1.3897   1.3946   1.3967   1.3981   1.3986   1.3995
     1.4060   1.4061   1.4088   1.4094   1.4126   1.4146   1.4151   1.4155
     1.4655   1.4788   1.4803   1.4806   1.4807   1.4816   1.4817   1.4820
     1.4821   1.4929   1.4936   1.4946   1.4948   1.5004   1.5008   1.5026
     1.5040   1.5080   1.5110   1.5124   1.5125   1.5158   1.5187   1.5193
     1.5212   1.5216   1.5233   1.5239   1.5253   1.5348   1.5367   1.5381
     1.5429   1.5436   1.5440   1.5450   1.5752   1.5756   1.5757   1.5760
     1.5902   1.5915   1.5924   1.5927   1.5980   1.6073   1.6082   1.6127
     1.6215   1.6287   1.6295   1.6299   1.6545   1.6856   1.6876   1.6889
     1.6990   1.6993   1.7000   1.7009   1.7275   1.7302   1.7309   1.7338
     1.7393   1.7401   1.7407   1.7413   1.7431   1.7442   1.7452   1.7458
     1.9609   1.9629   1.9638   1.9643   2.4436   2.4662   2.4855   2.4859
     2.6373   2.6879   2.6896   2.6907   2.7704   2.9249   2.9257   2.9273
     2.9705   3.2228   3.2249   3.2273   3.2414   3.5803   3.5807   3.5813
     3.5834   3.7241   3.7708   3.7725   3.7772   3.7819   4.0564   4.0566
     4.0584   4.0590   4.3535   4.3545   4.3560   4.3599   4.4570   4.4587
     4.4876   4.4881   4.6869   4.6931   4.6951   4.6962   4.7280   4.7286
     4.7596   4.7801   5.0379   5.0388   5.0705   5.1246   5.2085   5.2199
     5.2344   5.2961   5.2995   5.3136   5.3176   5.3944   5.4480   5.4702
     5.4815   5.4912   5.4946   5.4996   5.5188   5.6535   5.8715   5.8763
     5.8767   5.8773   5.8890   5.8989   5.9039   5.9684   6.0464   6.0539
     6.0559   6.7606   6.8807   6.8838   6.9473   6.9507   7.2319   7.2345
     7.2716   7.2739   7.2775   7.2831   7.2850   7.2897   7.3703   7.4194
     7.4250   7.4341   7.4617   7.4937   7.4957   7.4963   7.5095   7.7593
     7.7620   7.7706   7.7920   8.0803   8.1036   8.1209   8.1250   8.1720
     8.1912   8.2165   8.2777   8.3607   8.3720   8.3833   8.3916   8.4461
     8.5079   8.8553   8.9167   9.0143   9.0150   9.0227   9.0241   9.0409
     9.0534   9.0585   9.0859   9.0961   9.0971   9.0993   9.1014   9.1475
     9.1555   9.2010   9.2037   9.2551   9.3642   9.4588   9.5629   9.6505
     9.6689   9.6946   9.6995   9.7141   9.7177   9.7225   9.8131   9.8710
     9.9954  10.0292

     the Fermi energy is     3.4480 ev

!    total energy              =  -12783.19363467 Ry
     Harris-Foulkes estimate   =  -12783.19363460 Ry
     estimated scf accuracy    <          7.7E-09 Ry

     The total energy is the sum of the following terms:

     one-electron contribution = -107352.09120471 Ry
     hartree contribution      =   55051.81278879 Ry
     xc contribution           =   -4465.85089731 Ry
     ewald contribution        =   43989.34552520 Ry
     Dispersion Correction     =      -3.01374636 Ry
     smearing contrib. (-TS)   =      -3.39610028 Ry

     convergence has been achieved in  44 iterations

     Writing output data file gc.save
 
     init_run     :    101.56s CPU    109.09s WALL (       1 calls)
     electrons    :  12359.13s CPU  13209.72s WALL (       1 calls)

     Called by init_run:
     wfcinit      :     99.06s CPU    106.15s WALL (       1 calls)
     potinit      :      0.54s CPU      0.55s WALL (       1 calls)

     Called by electrons:
     c_bands      :  11364.28s CPU  12113.96s WALL (      44 calls)
     sum_band     :    819.12s CPU    891.63s WALL (      44 calls)
     v_of_rho     :      2.89s CPU      3.62s WALL (      45 calls)
     newd         :      8.72s CPU     15.08s WALL (      45 calls)
     mix_rho      :    163.92s CPU    185.40s WALL (      44 calls)

     Called by c_bands:
     init_us_2    :     36.74s CPU     37.26s WALL (     534 calls)
     cegterg      :  11202.31s CPU  11946.20s WALL (     270 calls)

     Called by sum_band:
     sum_band:bec :      4.54s CPU      5.29s WALL (     264 calls)
     addusdens    :      8.89s CPU     14.98s WALL (      44 calls)

     Called by *egterg:
     h_psi        :   4027.34s CPU   4358.39s WALL (    1849 calls)
     s_psi        :    951.85s CPU    963.09s WALL (    1849 calls)
     g_psi        :     10.20s CPU     10.22s WALL (    1573 calls)
     cdiaghg      :   3348.07s CPU   3474.45s WALL (    1837 calls)

     Called by h_psi:
     add_vuspsi   :    955.92s CPU    969.26s WALL (    1849 calls)

     General routines
     calbec       :   1390.05s CPU   1399.87s WALL (    2113 calls)
     fft          :      3.52s CPU      4.16s WALL (     584 calls)
     ffts         :     96.72s CPU    109.39s WALL (   24979 calls)
     fftw         :   2338.97s CPU   2608.43s WALL ( 1295528 calls)
     davcio       :      0.22s CPU      2.94s WALL (       6 calls)
 
     Parallel routines
     fft_scatter  :   1522.29s CPU   1667.67s WALL ( 1321091 calls)
 
     PWSCF        :     3h27m CPU        3h42m WALL

 
   This run was terminated on:  14: 5:15  12May2017            

=------------------------------------------------------------------------------=
   JOB DONE.
=------------------------------------------------------------------------------=
