mpirun: INFO: switching to OpenMPI runtime version 1.10.2

     Program PWSCF v.5.4.0 starts on 12Sep2017 at 11:41:57 

     This program is part of the open-source Quantum ESPRESSO suite
     for quantum simulation of materials; please cite
         "P. Giannozzi et al., J. Phys.:Condens. Matter 21 395502 (2009);
          URL http://www.quantum-espresso.org", 
     in publications or presentations arising from this work. More details at
     http://www.quantum-espresso.org/quote

     Parallel version (MPI & OpenMP), running on      28 processor cores
     Number of MPI processes:                28
     Threads/MPI process:                     1
     R & G space division:  proc/nbgrp/npool/nimage =      28
     Waiting for input...
     Reading input from standard input

     Current dimensions of program PWSCF are:
     Max number of different atomic species (ntypx) = 10
     Max number of k-points (npk) =  40000
     Max angular momentum in pseudopotentials (lmaxx) =  3
     WARNING: atomic wfc #  2 for atom type 4 has zero norm
     WARNING: atomic wfc #  4 for atom type 4 has zero norm
     WARNING: atomic wfc #  5 for atom type 4 has zero norm

     -------------------------------------
     Parameters for Dispersion Correction:
     -------------------------------------
       atom      VdW radius       C_6     

        Cu         2.952        374.666
        C_h        2.744         60.710
        C          2.744         60.710
        O          2.536         24.284
        H          1.892          4.857

     Subspace diagonalization in iterative solution of the eigenvalue problem:
     one sub-group per band group will be used
     scalapack distributed-memory algorithm (size of sub-group:  3*  3 procs)

 
     Parallelization info
     --------------------
     sticks:   dense  smooth     PW     G-vecs:    dense   smooth      PW
     Min         408     408    108                73226    73226    9928
     Max         410     410    109                73231    73231    9931
     Sum       11433   11433   3039              2050409  2050409  278033
 


     bravais-lattice index     =            0
     lattice parameter (alat)  =      13.9425  a.u.
     unit-cell volume          =   21209.0878 (a.u.)^3
     number of atoms/cell      =          151
     number of atomic types    =            5
     number of electrons       =      1308.00
     number of Kohn-Sham states=          785
     kinetic-energy cutoff     =      80.0000  Ry
     charge density cutoff     =     320.0000  Ry
     convergence threshold     =      1.0E-08
     mixing beta               =       0.7000
     number of iterations used =            8  local-TF  mixing
     Exchange-correlation      =  SLA  PW   PBE  PBE ( 1  4  3  4 0 0)
     nstep                     =           50


     celldm(1)=  13.942539  celldm(2)=   0.000000  celldm(3)=   0.000000
     celldm(4)=   0.000000  celldm(5)=   0.000000  celldm(6)=   0.000000

     crystal axes: (cart. coord. in units of alat)
               a(1) = (   1.000000   0.000000   0.000000 )  
               a(2) = (   0.000000   2.309401   0.000000 )  
               a(3) = (   0.000000   0.000000   3.388418 )  

     reciprocal axes: (cart. coord. in units 2 pi/alat)
               b(1) = (  1.000000  0.000000  0.000000 )  
               b(2) = (  0.000000  0.433013  0.000000 )  
               b(3) = (  0.000000  0.000000  0.295123 )  


     PseudoPot. # 1 for Cu read from file:
     /home/549/hxw549/Short/pseudopotentials/Cu.pbe-n-van_ak.UPF
     MD5 check sum: 601f7c30f7467666bec936e0661ce3e1
     Pseudo is Ultrasoft + core correction, Zval = 11.0
     Generated by new atomic code, or converted to UPF format
     Using radial grid of  867 points,  6 beta functions with: 
                l(1) =   0
                l(2) =   0
                l(3) =   1
                l(4) =   1
                l(5) =   2
                l(6) =   2
     Q(r) pseudized with  8 coefficients,  rinner =    1.400   1.400   1.400
                                                       1.400   1.400

     PseudoPot. # 2 for C  read from file:
     /home/549/hxw549/Short/pseudopotentials/C.star1s-pbe-mt_gipaw.UPF
     MD5 check sum: ef0cb3dee31bd9e4ba2a832a2c716264
     Pseudo is Norm-conserving, Zval =  5.0
     Generated by new atomic code, or converted to UPF format
     Using radial grid of 1073 points,  1 beta functions with: 
                l(1) =   0

     PseudoPot. # 3 for C  read from file:
     /home/549/hxw549/Short/pseudopotentials/C.pbe-mt_gipaw.UPF
     MD5 check sum: 5ac2f21f2c440b14befe521540822c15
     Pseudo is Norm-conserving, Zval =  4.0
     Generated by new atomic code, or converted to UPF format
     Using radial grid of 1073 points,  1 beta functions with: 
                l(1) =   0

     PseudoPot. # 4 for O  read from file:
     /home/549/hxw549/Short/pseudopotentials/O.pbe-van_gipaw.UPF
     MD5 check sum: 5ce2a047509d4f331db576c963e74b29
     Pseudo is Ultrasoft, Zval =  6.0
     Generated by new atomic code, or converted to UPF format
     Using radial grid of 1095 points,  4 beta functions with: 
                l(1) =   0
                l(2) =   0
                l(3) =   1
                l(4) =   1
     Q(r) pseudized with 0 coefficients 


     PseudoPot. # 5 for H  read from file:
     /home/549/hxw549/Short/pseudopotentials/H.pbe-van_ak.UPF
     MD5 check sum: 077eb6d537518a38cb46c6de387227b7
     Pseudo is Ultrasoft, Zval =  1.0
     Generated by new atomic code, or converted to UPF format
     Using radial grid of  615 points,  1 beta functions with: 
                l(1) =   0
     Q(r) pseudized with  8 coefficients,  rinner =    0.800

     atomic species   valence    mass     pseudopotential
        Cu            11.00    63.54600     Cu( 1.00)
        C_h            5.00    12.01070     C ( 1.00)
        C              4.00    12.01070     C ( 1.00)
        O              6.00    15.99940     O ( 1.00)
        H              1.00     1.00783     H ( 1.00)

     No symmetry found



   Cartesian axes

     site n.     atom                  positions (alat units)
         1           Cu  tau(   1) = (   0.0000796  -0.0010194   0.9996711  )
         2           Cu  tau(   2) = (   0.2500655   0.2302525   0.9998070  )
         3           Cu  tau(   3) = (   0.5000782  -0.0009871   0.9997096  )
         4           Cu  tau(   4) = (   0.7500925   0.2302455   0.9998059  )
         5           Cu  tau(   5) = (   0.0000785   0.4612871   0.9997269  )
         6           Cu  tau(   6) = (   0.2500641   0.6920697   0.9993800  )
         7           Cu  tau(   7) = (   0.5000814   0.4612918   0.9996504  )
         8           Cu  tau(   8) = (   0.7500985   0.6920755   0.9993862  )
         9           Cu  tau(   9) = (   0.0000831   0.9226495   0.9992261  )
        10           Cu  tau(  10) = (   0.2501082   1.1530621   0.9994448  )
        11           Cu  tau(  11) = (   0.5000823   0.9225993   0.9992402  )
        12           Cu  tau(  12) = (   0.7500588   1.1530635   0.9994423  )
        13           Cu  tau(  13) = (   0.0000837   1.3835599   0.9997329  )
        14           Cu  tau(  14) = (   0.2500624   1.6144357   0.9998048  )
        15           Cu  tau(  15) = (   0.5000842   1.3836349   0.9997726  )
        16           Cu  tau(  16) = (   0.7501032   1.6144320   0.9998040  )
        17           Cu  tau(  17) = (   0.0000797   1.8456347   0.9996583  )
        18           Cu  tau(  18) = (   0.2500996   2.0770019   0.9995635  )
        19           Cu  tau(  19) = (   0.5000828   1.8455838   0.9996249  )
        20           Cu  tau(  20) = (   0.7500601   2.0770024   0.9995695  )
        21           Cu  tau(  21) = (   0.0000762   0.2300880   1.2478020  )
        22           Cu  tau(  22) = (   0.2500749  -0.0011159   1.2475204  )
        23           Cu  tau(  23) = (   0.5000774   0.2302010   1.2477392  )
        24           Cu  tau(  24) = (   0.7500776  -0.0011076   1.2475295  )
        25           Cu  tau(  25) = (   0.0000791   0.6922011   1.2480278  )
        26           Cu  tau(  26) = (   0.2500708   0.4613499   1.2479295  )
        27           Cu  tau(  27) = (   0.5000781   0.6921136   1.2479976  )
        28           Cu  tau(  28) = (   0.7500843   0.4613461   1.2479221  )
        29           Cu  tau(  29) = (   0.0000792   1.1528664   1.2482450  )
        30           Cu  tau(  30) = (   0.2500767   0.9225201   1.2481436  )
        31           Cu  tau(  31) = (   0.5000811   1.1528467   1.2482331  )
        32           Cu  tau(  32) = (   0.7500827   0.9225211   1.2481488  )
        33           Cu  tau(  33) = (   0.0000796   1.6146638   1.2478472  )
        34           Cu  tau(  34) = (   0.2500780   1.3835920   1.2481526  )
        35           Cu  tau(  35) = (   0.5000826   1.6147432   1.2478907  )
        36           Cu  tau(  36) = (   0.7500845   1.3835882   1.2481608  )
        37           Cu  tau(  37) = (   0.0000753   2.0771625   1.2473394  )
        38           Cu  tau(  38) = (   0.2500797   1.8459518   1.2474804  )
        39           Cu  tau(  39) = (   0.5000788   2.0770921   1.2473374  )
        40           Cu  tau(  40) = (   0.7500786   1.8459481   1.2474855  )
        41           Cu  tau(  41) = (   0.0000736  -0.0014157   1.4968003  )
        42           Cu  tau(  42) = (   0.2501054   0.2298053   1.4967075  )
        43           Cu  tau(  43) = (   0.5000753  -0.0013072   1.4965172  )
        44           Cu  tau(  44) = (   0.7500440   0.2298195   1.4967296  )
        45           Cu  tau(  45) = (   0.0000715   0.4610974   1.4969703  )
        46           Cu  tau(  46) = (   0.2500888   0.6919294   1.4977424  )
        47           Cu  tau(  47) = (   0.5000768   0.4610199   1.4971307  )
        48           Cu  tau(  48) = (   0.7500576   0.6919217   1.4977398  )
        49           Cu  tau(  49) = (   0.0000730   0.9224488   1.4981802  )
        50           Cu  tau(  50) = (   0.2499887   1.1529644   1.4978341  )
        51           Cu  tau(  51) = (   0.5000709   0.9223233   1.4980553  )
        52           Cu  tau(  52) = (   0.7501545   1.1529594   1.4978490  )
        53           Cu  tau(  53) = (   0.0000770   1.3839580   1.4973583  )
        54           Cu  tau(  54) = (   0.2500530   1.6153014   1.4967700  )
        55           Cu  tau(  55) = (   0.5000690   1.3839959   1.4971714  )
        56           Cu  tau(  56) = (   0.7500984   1.6153015   1.4967707  )
        57           Cu  tau(  57) = (   0.0000733   1.8464668   1.4964703  )
        58           Cu  tau(  58) = (   0.2500842   2.0772456   1.4966335  )
        59           Cu  tau(  59) = (   0.5000792   1.8465124   1.4966717  )
        60           Cu  tau(  60) = (   0.7500644   2.0772510   1.4966332  )
        61           Cu  tau(  61) = (   0.0000638   0.2297751   1.7451486  )
        62           Cu  tau(  62) = (   0.2501701  -0.0014366   1.7457736  )
        63           Cu  tau(  63) = (   0.5000844   0.2291468   1.7456708  )
        64           Cu  tau(  64) = (   0.7499824  -0.0014424   1.7457830  )
        65           Cu  tau(  65) = (   0.0000602   0.6911029   1.7467899  )
        66           Cu  tau(  66) = (   0.2504221   0.4603267   1.7458317  )
        67           Cu  tau(  67) = (   0.5000727   0.6914519   1.7472561  )
        68           Cu  tau(  68) = (   0.7497202   0.4603534   1.7458865  )
        69           Cu  tau(  69) = (   0.0000719   1.1535755   1.7474669  )
        70           Cu  tau(  70) = (   0.2500072   0.9224186   1.7476215  )
        71           Cu  tau(  71) = (   0.5000490   1.1535692   1.7465697  )
        72           Cu  tau(  72) = (   0.7501153   0.9223864   1.7476191  )
        73           Cu  tau(  73) = (   0.0000638   1.6160732   1.7455026  )
        74           Cu  tau(  74) = (   0.2497330   1.3847176   1.7458671  )
        75           Cu  tau(  75) = (   0.5000631   1.6156467   1.7451393  )
        76           Cu  tau(  76) = (   0.7503862   1.3847369   1.7458435  )
        77           Cu  tau(  77) = (   0.0000770   2.0769447   1.7462625  )
        78           Cu  tau(  78) = (   0.2499949   1.8466574   1.7457450  )
        79           Cu  tau(  79) = (   0.5000721   2.0775977   1.7461689  )
        80           Cu  tau(  80) = (   0.7501471   1.8466631   1.7457456  )
        81           Cu  tau(  81) = (   0.0000732  -0.0004834   1.9909889  )
        82           Cu  tau(  82) = (   0.2501819   0.2294912   1.9912558  )
        83           Cu  tau(  83) = (   0.5000861  -0.0013523   1.9930947  )
        84           Cu  tau(  84) = (   0.7499715   0.2294701   1.9913129  )
        85           Cu  tau(  85) = (   0.0000570   0.4600464   1.9913092  )
        86           Cu  tau(  86) = (   0.2514505   0.6901905   1.9922810  )
        87           Cu  tau(  87) = (   0.5000863   0.4587665   1.9928792  )
        88           Cu  tau(  88) = (   0.7486661   0.6902270   1.9924293  )
        89           Cu  tau(  89) = (   0.0000432   0.9207000   1.9928486  )
        90           Cu  tau(  90) = (   0.2487672   1.1547418   1.9923022  )
        91           Cu  tau(  91) = (   0.5000624   0.9240642   1.9932645  )
        92           Cu  tau(  92) = (   0.7513422   1.1547327   1.9922105  )
        93           Cu  tau(  93) = (   0.0000302   1.3866843   1.9926055  )
        94           Cu  tau(  94) = (   0.2503901   1.6157236   1.9912853  )
        95           Cu  tau(  95) = (   0.5000722   1.3850823   1.9909882  )
        96           Cu  tau(  96) = (   0.7497148   1.6157477   1.9912993  )
        97           Cu  tau(  97) = (   0.0000745   1.8457983   1.9931296  )
        98           Cu  tau(  98) = (   0.2496101   2.0772360   1.9921726  )
        99           Cu  tau(  99) = (   0.5000544   1.8462656   1.9910722  )
       100           Cu  tau( 100) = (   0.7505374   2.0772188   1.9921776  )
       101           C   tau( 101) = (   0.0003514   0.0996206   2.3875980  )
       102           C   tau( 102) = (   0.0003701   0.2920050   2.3890198  )
       103           C   tau( 103) = (   0.1669612   0.0033417   2.3866707  )
       104           C   tau( 104) = (   0.1668783   0.3881831   2.3878569  )
       105           C   tau( 105) = (   0.3334610   0.0995345   2.3840961  )
       106           C   tau( 106) = (   0.3334624   0.2919976   2.3846407  )
       107           C   tau( 107) = (   0.5003433   0.0032210   2.3815949  )
       108           C   tau( 108) = (   0.5003848   0.3882447   2.3835900  )
       109           C   tau( 109) = (   0.6672318   0.0995321   2.3842977  )
       110           C   tau( 110) = (   0.6672623   0.2919796   2.3848652  )
       111           C   tau( 111) = (   0.8337338   0.0033419   2.3867885  )
       112           C   tau( 112) = (   0.8338733   0.3881847   2.3880842  )
       113           C   tau( 113) = (   0.0003755   0.6768170   2.3872017  )
       114           C   tau( 114) = (   0.0003705   0.8692143   2.3829758  )
       115           C   tau( 115) = (   0.1668213   0.5806199   2.3868163  )
       116           C   tau( 116) = (   0.1671458   0.9654808   2.3827998  )
       117           C   tau( 117) = (   0.3336031   0.6768600   2.3840505  )
       118           C   tau( 118) = (   0.3335861   0.8693009   2.3828900  )
       119           C   tau( 119) = (   0.5003895   0.5806735   2.3843175  )
       120           C   tau( 120) = (   0.5004091   0.9655913   2.3819279  )
       121           C   tau( 121) = (   0.6671518   0.6768504   2.3841477  )
       122           C   tau( 122) = (   0.6671644   0.8692819   2.3832393  )
       123           C   tau( 123) = (   0.8339022   0.5806086   2.3869446  )
       124           C   tau( 124) = (   0.8336023   0.9654704   2.3831168  )
       125           C   tau( 125) = (   0.0004181   1.2541496   2.3826128  )
       126           C   tau( 126) = (   0.0003993   1.4466513   2.3825401  )
       127           C   tau( 127) = (   0.1671589   1.1579558   2.3821526  )
       128           C   tau( 128) = (   0.1673137   1.5428735   2.3850149  )
       129           C   tau( 129) = (   0.3339620   1.2542045   2.3853071  )
       130           C   tau( 130) = (   0.3338989   1.4466168   2.3880294  )
       131           C   tau( 131) = (   0.5004018   1.1580276   2.3849937  )
       132           C   tau( 132) = (   0.5004021   1.5428398   2.3904590  )
       133           C   tau( 133) = (   0.6668434   1.2542120   2.3856468  )
       134           C   tau( 134) = (   0.6668966   1.4466375   2.3882526  )
       135           C   tau( 135) = (   0.8336471   1.1579389   2.3824963  )
       136           C   tau( 136) = (   0.8335007   1.5428799   2.3852986  )
       137           C   tau( 137) = (   0.0003615   1.8316508   2.3835264  )
       138           C   tau( 138) = (   0.0003333   2.0241360   2.3864695  )
       139           C   tau( 139) = (   0.1672436   1.7353275   2.3855411  )
       140           C   tau( 140) = (   0.1669289   2.1203047   2.3860356  )
       141           C   tau( 141) = (   0.3337845   1.8314735   2.3877347  )
       142           C   tau( 142) = (   0.3337475   2.0239656   2.3853679  )
       143           C   tau( 143) = (   0.5003620   1.7352461   2.3894686  )
       144           C   tau( 144) = (   0.5003277   2.1201495   2.3841265  )
       145           C   tau( 145) = (   0.6669386   1.8314724   2.3878035  )
       146           C   tau( 146) = (   0.6669171   2.0239714   2.3854075  )
       147           C   tau( 147) = (   0.8334847   1.7353460   2.3856745  )
       148           C   tau( 148) = (   0.8337301   2.1203065   2.3860703  )
       149           C   tau( 149) = (   0.4817526   0.9548742   2.8124093  )
       150           O   tau( 150) = (   0.3804061   1.0742193   2.8105827  )
       151           O   tau( 151) = (   0.5837112   0.8438069   2.8105827  )

     number of k points=     6  gaussian smearing, width (Ry)=  0.1000
                       cart. coord. in units 2pi/alat
        k(    1) = (   0.0000000   0.0000000   0.0000000), wk =   0.2500000
        k(    2) = (   0.0000000  -0.2165064   0.0000000), wk =   0.2500000
        k(    3) = (   0.2500000   0.0000000   0.0000000), wk =   0.5000000
        k(    4) = (   0.2500000  -0.2165064   0.0000000), wk =   0.5000000
        k(    5) = (  -0.5000000   0.0000000   0.0000000), wk =   0.2500000
        k(    6) = (  -0.5000000  -0.2165064   0.0000000), wk =   0.2500000

     Dense  grid:  2050409 G-vectors     FFT dimensions: (  80, 192, 270)

     Largest allocated arrays     est. size (Mb)     dimensions
        Kohn-Sham Wavefunctions       109.85 Mb     (    9171,  785)
        NL pseudopotentials           260.99 Mb     (    9171, 1865)
        Each V/rho on FFT grid          2.34 Mb     (  153600)
        Each G-vector array             0.56 Mb     (   73230)
        G-vector shells                 0.27 Mb     (   35784)
     Largest temporary arrays     est. size (Mb)     dimensions
        Auxiliary wavefunctions       439.41 Mb     (    9171, 3140)
        Each subspace H/S matrix       16.69 Mb     (    1046, 1046)
        Each <psi_i|beta_j> matrix     22.34 Mb     (    1865,  785)
        Arrays for rho mixing          18.75 Mb     (  153600,    8)

     Initial potential from superposition of free atoms
     Check: negative starting charge=   -0.001554

     starting charge 1282.31751, renormalised to 1308.00000

     negative rho (up, down):  1.585E-03 0.000E+00
     Starting wfc are 1300 randomized atomic wfcs

     total cpu time spent up to now is      205.9 secs

     Self-consistent Calculation

     iteration #  1     ecut=    80.00 Ry     beta=0.70
     Davidson diagonalization with overlap
     c_bands:  3 eigenvalues not converged
     ethr =  1.00E-04,  avg # of iterations = 22.2

     negative rho (up, down):  2.486E+01 0.000E+00

     total cpu time spent up to now is     4053.6 secs

     total energy              =   -9848.87412176 Ry
     Harris-Foulkes estimate   =  -17238.79120867 Ry
     estimated scf accuracy    <  180490.33251330 Ry

     iteration #  2     ecut=    80.00 Ry     beta=0.70
     Davidson diagonalization with overlap
     ethr =  1.00E-02,  avg # of iterations = 11.7

     negative rho (up, down):  2.735E+01 0.000E+00

     total cpu time spent up to now is     5956.7 secs

     total energy              =  -12267.26286514 Ry
     Harris-Foulkes estimate   =  -13682.34027389 Ry
     estimated scf accuracy    <   20326.73291327 Ry

     iteration #  3     ecut=    80.00 Ry     beta=0.70
     Davidson diagonalization with overlap
     ethr =  1.00E-02,  avg # of iterations =  6.8

     negative rho (up, down):  2.837E+01 0.000E+00

     total cpu time spent up to now is     7208.6 secs

     total energy              =  -12489.63555533 Ry
     Harris-Foulkes estimate   =  -13411.17409737 Ry
     estimated scf accuracy    <    6169.05522964 Ry

     iteration #  4     ecut=    80.00 Ry     beta=0.70
     Davidson diagonalization with overlap
     ethr =  1.00E-02,  avg # of iterations =  5.0

     negative rho (up, down):  2.384E+01 0.000E+00

     total cpu time spent up to now is     8371.0 secs

     total energy              =  -12840.62828354 Ry
     Harris-Foulkes estimate   =  -13152.51486365 Ry
     estimated scf accuracy    <    4777.37877693 Ry

     iteration #  5     ecut=    80.00 Ry     beta=0.70
     Davidson diagonalization with overlap
     ethr =  1.00E-02,  avg # of iterations =  4.3

     negative rho (up, down):  1.506E+01 0.000E+00

     total cpu time spent up to now is     8987.5 secs

     total energy              =  -12887.19166509 Ry
     Harris-Foulkes estimate   =  -13049.46932480 Ry
     estimated scf accuracy    <    1025.35993267 Ry

     iteration #  6     ecut=    80.00 Ry     beta=0.70
     Davidson diagonalization with overlap
     ethr =  1.00E-02,  avg # of iterations =  2.2

     negative rho (up, down):  9.767E+00 0.000E+00

     total cpu time spent up to now is     9433.6 secs

     total energy              =  -12870.67375978 Ry
     Harris-Foulkes estimate   =  -12932.59335157 Ry
     estimated scf accuracy    <     443.57751398 Ry

     iteration #  7     ecut=    80.00 Ry     beta=0.70
     Davidson diagonalization with overlap
     ethr =  1.00E-02,  avg # of iterations =  2.0

     negative rho (up, down):  7.579E+00 0.000E+00

     total cpu time spent up to now is     9789.1 secs

     total energy              =  -12857.82277831 Ry
     Harris-Foulkes estimate   =  -12887.12114829 Ry
     estimated scf accuracy    <     826.42778414 Ry

     iteration #  8     ecut=    80.00 Ry     beta=0.70
     Davidson diagonalization with overlap
     ethr =  1.00E-02,  avg # of iterations =  1.2

     negative rho (up, down):  6.766E+00 0.000E+00

     total cpu time spent up to now is    10118.5 secs

     total energy              =  -12852.67462221 Ry
     Harris-Foulkes estimate   =  -12869.27331344 Ry
     estimated scf accuracy    <     684.12622451 Ry

     iteration #  9     ecut=    80.00 Ry     beta=0.70
     Davidson diagonalization with overlap
     ethr =  1.00E-02,  avg # of iterations =  1.0

     negative rho (up, down):  6.212E+00 0.000E+00

     total cpu time spent up to now is    10446.3 secs

     total energy              =  -12850.06852421 Ry
     Harris-Foulkes estimate   =  -12857.79069306 Ry
     estimated scf accuracy    <     235.33955997 Ry

     iteration # 10     ecut=    80.00 Ry     beta=0.70
     Davidson diagonalization with overlap
     ethr =  1.00E-02,  avg # of iterations =  1.0

     negative rho (up, down):  1.220E+00 0.000E+00

     total cpu time spent up to now is    10774.7 secs

     total energy              =  -12807.20943783 Ry
     Harris-Foulkes estimate   =  -12852.13873299 Ry
     estimated scf accuracy    <     234.24746161 Ry

     iteration # 11     ecut=    80.00 Ry     beta=0.70
     Davidson diagonalization with overlap
     ethr =  1.00E-02,  avg # of iterations =  3.7

     negative rho (up, down):  9.442E-01 0.000E+00

     total cpu time spent up to now is    11189.5 secs

     total energy              =  -12796.99525069 Ry
     Harris-Foulkes estimate   =  -12826.84792331 Ry
     estimated scf accuracy    <     618.58169050 Ry

     iteration # 12     ecut=    80.00 Ry     beta=0.70
     Davidson diagonalization with overlap
     ethr =  1.00E-02,  avg # of iterations =  1.7

     negative rho (up, down):  1.191E+00 0.000E+00

     total cpu time spent up to now is    11532.4 secs

     total energy              =  -12789.43321187 Ry
     Harris-Foulkes estimate   =  -12812.85008861 Ry
     estimated scf accuracy    <     233.76090997 Ry

     iteration # 13     ecut=    80.00 Ry     beta=0.70
     Davidson diagonalization with overlap
     ethr =  1.00E-02,  avg # of iterations =  2.0

     negative rho (up, down):  1.377E+00 0.000E+00

     total cpu time spent up to now is    11881.4 secs

     total energy              =  -12791.40152965 Ry
     Harris-Foulkes estimate   =  -12801.09515884 Ry
     estimated scf accuracy    <      98.96339889 Ry

     iteration # 14     ecut=    80.00 Ry     beta=0.70
     Davidson diagonalization with overlap
     ethr =  7.57E-03,  avg # of iterations =  1.0

     negative rho (up, down):  2.622E+00 0.000E+00

     total cpu time spent up to now is    12209.1 secs

     total energy              =  -12787.08940711 Ry
     Harris-Foulkes estimate   =  -12794.88565030 Ry
     estimated scf accuracy    <      81.18223474 Ry

     iteration # 15     ecut=    80.00 Ry     beta=0.70
     Davidson diagonalization with overlap
     ethr =  6.21E-03,  avg # of iterations =  1.0

     negative rho (up, down):  4.638E+00 0.000E+00

     total cpu time spent up to now is    12534.6 secs

     total energy              =  -12783.30571323 Ry
     Harris-Foulkes estimate   =  -12789.31222854 Ry
     estimated scf accuracy    <      48.89837882 Ry

     iteration # 16     ecut=    80.00 Ry     beta=0.70
     Davidson diagonalization with overlap
     ethr =  3.74E-03,  avg # of iterations =  2.3

     negative rho (up, down):  4.849E+00 0.000E+00

     total cpu time spent up to now is    12889.9 secs

     total energy              =  -12782.52886660 Ry
     Harris-Foulkes estimate   =  -12784.94308233 Ry
     estimated scf accuracy    <      42.78619047 Ry

     iteration # 17     ecut=    80.00 Ry     beta=0.70
     Davidson diagonalization with overlap
     ethr =  3.27E-03,  avg # of iterations =  2.8

     negative rho (up, down):  3.510E+00 0.000E+00

     total cpu time spent up to now is    13255.2 secs

     total energy              =  -12779.82613578 Ry
     Harris-Foulkes estimate   =  -12783.34958171 Ry
     estimated scf accuracy    <      35.28318834 Ry

     iteration # 18     ecut=    80.00 Ry     beta=0.70
     Davidson diagonalization with overlap
     ethr =  2.70E-03,  avg # of iterations =  2.8

     negative rho (up, down):  4.321E+00 0.000E+00

     total cpu time spent up to now is    13623.5 secs

     total energy              =  -12778.01611570 Ry
     Harris-Foulkes estimate   =  -12780.95849120 Ry
     estimated scf accuracy    <      30.52338373 Ry

     iteration # 19     ecut=    80.00 Ry     beta=0.70
     Davidson diagonalization with overlap
     ethr =  2.33E-03,  avg # of iterations =  5.3

     negative rho (up, down):  4.005E+00 0.000E+00

     total cpu time spent up to now is    14054.2 secs

     total energy              =  -12778.54751556 Ry
     Harris-Foulkes estimate   =  -12780.35342863 Ry
     estimated scf accuracy    <      18.43724942 Ry

     iteration # 20     ecut=    80.00 Ry     beta=0.70
     Davidson diagonalization with overlap
     ethr =  1.41E-03,  avg # of iterations =  2.0

     negative rho (up, down):  1.652E+00 0.000E+00

     total cpu time spent up to now is    14405.8 secs

     total energy              =  -12776.89340085 Ry
     Harris-Foulkes estimate   =  -12779.19669921 Ry
     estimated scf accuracy    <       8.86963224 Ry

     iteration # 21     ecut=    80.00 Ry     beta=0.70
     Davidson diagonalization with overlap
     ethr =  6.78E-04,  avg # of iterations =  5.8

     negative rho (up, down):  1.360E+00 0.000E+00

     total cpu time spent up to now is    14850.8 secs

     total energy              =  -12777.01449587 Ry
     Harris-Foulkes estimate   =  -12777.63010614 Ry
     estimated scf accuracy    <      10.22349886 Ry

     iteration # 22     ecut=    80.00 Ry     beta=0.70
     Davidson diagonalization with overlap
     ethr =  6.78E-04,  avg # of iterations =  2.0

     negative rho (up, down):  1.430E+00 0.000E+00

     total cpu time spent up to now is    15204.0 secs

     total energy              =  -12776.70277970 Ry
     Harris-Foulkes estimate   =  -12777.28596654 Ry
     estimated scf accuracy    <       5.09338639 Ry

     iteration # 23     ecut=    80.00 Ry     beta=0.70
     Davidson diagonalization with overlap
     ethr =  3.89E-04,  avg # of iterations =  3.5

     negative rho (up, down):  9.960E-01 0.000E+00

     total cpu time spent up to now is    15585.7 secs

     total energy              =  -12776.19607275 Ry
     Harris-Foulkes estimate   =  -12776.83991177 Ry
     estimated scf accuracy    <       7.59549968 Ry

     iteration # 24     ecut=    80.00 Ry     beta=0.70
     Davidson diagonalization with overlap
     ethr =  3.89E-04,  avg # of iterations =  1.3

     negative rho (up, down):  8.222E-01 0.000E+00

     total cpu time spent up to now is    15922.5 secs

     total energy              =  -12775.83231693 Ry
     Harris-Foulkes estimate   =  -12776.37100728 Ry
     estimated scf accuracy    <      10.61260483 Ry

     iteration # 25     ecut=    80.00 Ry     beta=0.70
     Davidson diagonalization with overlap
     ethr =  3.89E-04,  avg # of iterations =  1.0

     negative rho (up, down):  6.944E-01 0.000E+00

     total cpu time spent up to now is    16250.5 secs

     total energy              =  -12775.37020990 Ry
     Harris-Foulkes estimate   =  -12775.91536391 Ry
     estimated scf accuracy    <       9.53869351 Ry

     iteration # 26     ecut=    80.00 Ry     beta=0.70
     Davidson diagonalization with overlap
     ethr =  3.89E-04,  avg # of iterations =  3.8

     negative rho (up, down):  7.808E-01 0.000E+00

     total cpu time spent up to now is    16638.9 secs

     total energy              =  -12774.48240316 Ry
     Harris-Foulkes estimate   =  -12775.47375068 Ry
     estimated scf accuracy    <       7.44557535 Ry

     iteration # 27     ecut=    80.00 Ry     beta=0.70
     Davidson diagonalization with overlap
     ethr =  3.89E-04,  avg # of iterations =  6.8

     negative rho (up, down):  5.632E-01 0.000E+00

     total cpu time spent up to now is    17105.0 secs

     total energy              =  -12774.03486397 Ry
     Harris-Foulkes estimate   =  -12774.84039008 Ry
     estimated scf accuracy    <       4.81676576 Ry

     iteration # 28     ecut=    80.00 Ry     beta=0.70
     Davidson diagonalization with overlap
     ethr =  3.68E-04,  avg # of iterations =  2.7

     negative rho (up, down):  7.775E-01 0.000E+00

     total cpu time spent up to now is    17472.8 secs

     total energy              =  -12774.09296448 Ry
     Harris-Foulkes estimate   =  -12774.45558615 Ry
     estimated scf accuracy    <       1.32232306 Ry

     iteration # 29     ecut=    80.00 Ry     beta=0.70
     Davidson diagonalization with overlap
     ethr =  1.01E-04,  avg # of iterations =  8.7

     negative rho (up, down):  7.966E-01 0.000E+00

     total cpu time spent up to now is    18026.9 secs

     total energy              =  -12774.10063122 Ry
     Harris-Foulkes estimate   =  -12774.17592354 Ry
     estimated scf accuracy    <       0.45634751 Ry

     iteration # 30     ecut=    80.00 Ry     beta=0.70
     Davidson diagonalization with overlap
     ethr =  3.49E-05,  avg # of iterations =  7.0

     negative rho (up, down):  4.789E-01 0.000E+00

     total cpu time spent up to now is    18516.2 secs

     total energy              =  -12774.05416580 Ry
     Harris-Foulkes estimate   =  -12774.12279519 Ry
     estimated scf accuracy    <       0.28419610 Ry

     iteration # 31     ecut=    80.00 Ry     beta=0.70
     Davidson diagonalization with overlap
     ethr =  2.17E-05,  avg # of iterations =  8.0

     negative rho (up, down):  4.323E-01 0.000E+00

     total cpu time spent up to now is    19019.3 secs

     total energy              =  -12774.04127407 Ry
     Harris-Foulkes estimate   =  -12774.06831272 Ry
     estimated scf accuracy    <       0.17440024 Ry

     iteration # 32     ecut=    80.00 Ry     beta=0.70
     Davidson diagonalization with overlap
     ethr =  1.33E-05,  avg # of iterations =  8.7

     negative rho (up, down):  4.102E-01 0.000E+00

     total cpu time spent up to now is    19558.7 secs

     total energy              =  -12774.04233099 Ry
     Harris-Foulkes estimate   =  -12774.05074923 Ry
     estimated scf accuracy    <       0.10048563 Ry

     iteration # 33     ecut=    80.00 Ry     beta=0.70
     Davidson diagonalization with overlap
     ethr =  7.68E-06,  avg # of iterations =  9.0

     negative rho (up, down):  1.070E-01 0.000E+00

     total cpu time spent up to now is    20092.4 secs

     total energy              =  -12774.01209384 Ry
     Harris-Foulkes estimate   =  -12774.04811547 Ry
     estimated scf accuracy    <       0.04526929 Ry

     iteration # 34     ecut=    80.00 Ry     beta=0.70
     Davidson diagonalization with overlap
     c_bands:  4 eigenvalues not converged
     c_bands:  3 eigenvalues not converged
     ethr =  3.46E-06,  avg # of iterations = 17.5

     negative rho (up, down):  1.026E-01 0.000E+00

     total cpu time spent up to now is    20904.6 secs

     total energy              =  -12774.01638899 Ry
     Harris-Foulkes estimate   =  -12774.02041263 Ry
     estimated scf accuracy    <       0.02630777 Ry

     iteration # 35     ecut=    80.00 Ry     beta=0.70
     Davidson diagonalization with overlap
     c_bands:  3 eigenvalues not converged
     ethr =  2.01E-06,  avg # of iterations = 12.5

     negative rho (up, down):  8.975E-02 0.000E+00

     total cpu time spent up to now is    21535.4 secs

     total energy              =  -12774.01576572 Ry
     Harris-Foulkes estimate   =  -12774.01804343 Ry
     estimated scf accuracy    <       0.01096327 Ry

     iteration # 36     ecut=    80.00 Ry     beta=0.70
     Davidson diagonalization with overlap
     ethr =  8.38E-07,  avg # of iterations =  8.7

     negative rho (up, down):  4.046E-02 0.000E+00

     total cpu time spent up to now is    22067.9 secs

     total energy              =  -12774.01429153 Ry
     Harris-Foulkes estimate   =  -12774.01657035 Ry
     estimated scf accuracy    <       0.00666843 Ry

     iteration # 37     ecut=    80.00 Ry     beta=0.70
     Davidson diagonalization with overlap
     ethr =  5.10E-07,  avg # of iterations =  8.5

     negative rho (up, down):  1.603E-02 0.000E+00

     total cpu time spent up to now is    22590.4 secs

     total energy              =  -12774.01385059 Ry
     Harris-Foulkes estimate   =  -12774.01468014 Ry
     estimated scf accuracy    <       0.00340144 Ry

     iteration # 38     ecut=    80.00 Ry     beta=0.70
     Davidson diagonalization with overlap
     ethr =  2.60E-07,  avg # of iterations =  7.0

     negative rho (up, down):  8.325E-03 0.000E+00

     total cpu time spent up to now is    23080.5 secs

     total energy              =  -12774.01381214 Ry
     Harris-Foulkes estimate   =  -12774.01402224 Ry
     estimated scf accuracy    <       0.00121926 Ry

     iteration # 39     ecut=    80.00 Ry     beta=0.70
     Davidson diagonalization with overlap
     c_bands:  1 eigenvalues not converged
     ethr =  9.32E-08,  avg # of iterations = 11.3

     negative rho (up, down):  5.483E-03 0.000E+00

     total cpu time spent up to now is    23673.7 secs

     total energy              =  -12774.01380143 Ry
     Harris-Foulkes estimate   =  -12774.01388450 Ry
     estimated scf accuracy    <       0.00055454 Ry

     iteration # 40     ecut=    80.00 Ry     beta=0.70
     Davidson diagonalization with overlap
     ethr =  4.24E-08,  avg # of iterations =  6.3

     negative rho (up, down):  6.015E-03 0.000E+00

     total cpu time spent up to now is    24132.8 secs

     total energy              =  -12774.01381805 Ry
     Harris-Foulkes estimate   =  -12774.01384155 Ry
     estimated scf accuracy    <       0.00036148 Ry

     iteration # 41     ecut=    80.00 Ry     beta=0.70
     Davidson diagonalization with overlap
     c_bands:  3 eigenvalues not converged
     ethr =  2.76E-08,  avg # of iterations = 10.8

     negative rho (up, down):  5.273E-03 0.000E+00

     total cpu time spent up to now is    24712.5 secs

     total energy              =  -12774.01383275 Ry
     Harris-Foulkes estimate   =  -12774.01383918 Ry
     estimated scf accuracy    <       0.00016396 Ry

     iteration # 42     ecut=    80.00 Ry     beta=0.70
     Davidson diagonalization with overlap
     ethr =  1.25E-08,  avg # of iterations =  9.0

     negative rho (up, down):  1.891E-03 0.000E+00

     total cpu time spent up to now is    25233.9 secs

     total energy              =  -12774.01377951 Ry
     Harris-Foulkes estimate   =  -12774.01384496 Ry
     estimated scf accuracy    <       0.00011458 Ry

     iteration # 43     ecut=    80.00 Ry     beta=0.70
     Davidson diagonalization with overlap
     ethr =  8.76E-09,  avg # of iterations =  7.2

     negative rho (up, down):  1.220E-03 0.000E+00

     total cpu time spent up to now is    25732.8 secs

     total energy              =  -12774.01380335 Ry
     Harris-Foulkes estimate   =  -12774.01378792 Ry
     estimated scf accuracy    <       0.00004666 Ry

     iteration # 44     ecut=    80.00 Ry     beta=0.70
     Davidson diagonalization with overlap
     ethr =  3.57E-09,  avg # of iterations =  3.7

     negative rho (up, down):  1.306E-03 0.000E+00

     total cpu time spent up to now is    26138.2 secs

     total energy              =  -12774.01379035 Ry
     Harris-Foulkes estimate   =  -12774.01380576 Ry
     estimated scf accuracy    <       0.00002770 Ry

     iteration # 45     ecut=    80.00 Ry     beta=0.70
     Davidson diagonalization with overlap
     c_bands:  1 eigenvalues not converged
     c_bands:  3 eigenvalues not converged
     ethr =  2.12E-09,  avg # of iterations =  8.8

     negative rho (up, down):  1.295E-03 0.000E+00

     total cpu time spent up to now is    26661.6 secs

     total energy              =  -12774.01382677 Ry
     Harris-Foulkes estimate   =  -12774.01379274 Ry
     estimated scf accuracy    <       0.00001693 Ry

     iteration # 46     ecut=    80.00 Ry     beta=0.70
     Davidson diagonalization with overlap
     ethr =  1.29E-09,  avg # of iterations =  6.8

     negative rho (up, down):  1.913E-03 0.000E+00

     total cpu time spent up to now is    27143.6 secs

     total energy              =  -12774.01382983 Ry
     Harris-Foulkes estimate   =  -12774.01382802 Ry
     estimated scf accuracy    <       0.00000810 Ry

     iteration # 47     ecut=    80.00 Ry     beta=0.70
     Davidson diagonalization with overlap
     ethr =  6.19E-10,  avg # of iterations =  3.7

     negative rho (up, down):  1.951E-03 0.000E+00

     total cpu time spent up to now is    27548.8 secs

     total energy              =  -12774.01383144 Ry
     Harris-Foulkes estimate   =  -12774.01383062 Ry
     estimated scf accuracy    <       0.00000208 Ry

     iteration # 48     ecut=    80.00 Ry     beta=0.70
     Davidson diagonalization with overlap
     ethr =  1.59E-10,  avg # of iterations =  2.7

     negative rho (up, down):  1.955E-03 0.000E+00

     total cpu time spent up to now is    27929.1 secs

     total energy              =  -12774.01383156 Ry
     Harris-Foulkes estimate   =  -12774.01383159 Ry
     estimated scf accuracy    <       0.00000079 Ry

     iteration # 49     ecut=    80.00 Ry     beta=0.70
     Davidson diagonalization with overlap
     ethr =  6.04E-11,  avg # of iterations =  2.7

     negative rho (up, down):  1.776E-03 0.000E+00

     total cpu time spent up to now is    28303.4 secs

     total energy              =  -12774.01383131 Ry
     Harris-Foulkes estimate   =  -12774.01383162 Ry
     estimated scf accuracy    <       0.00000023 Ry

     iteration # 50     ecut=    80.00 Ry     beta=0.70
     Davidson diagonalization with overlap
     ethr =  1.75E-11,  avg # of iterations =  3.7

     negative rho (up, down):  1.703E-03 0.000E+00

     total cpu time spent up to now is    28716.1 secs

     total energy              =  -12774.01383125 Ry
     Harris-Foulkes estimate   =  -12774.01383134 Ry
     estimated scf accuracy    <       0.00000009 Ry

     iteration # 51     ecut=    80.00 Ry     beta=0.70
     Davidson diagonalization with overlap
     ethr =  7.21E-12,  avg # of iterations =  3.2

     negative rho (up, down):  1.691E-03 0.000E+00

     total cpu time spent up to now is    29125.8 secs

     total energy              =  -12774.01383127 Ry
     Harris-Foulkes estimate   =  -12774.01383126 Ry
     estimated scf accuracy    <       0.00000003 Ry

     iteration # 52     ecut=    80.00 Ry     beta=0.70
     Davidson diagonalization with overlap
     ethr =  2.18E-12,  avg # of iterations =  3.3

     negative rho (up, down):  1.660E-03 0.000E+00

     total cpu time spent up to now is    29533.0 secs

     total energy              =  -12774.01383130 Ry
     Harris-Foulkes estimate   =  -12774.01383127 Ry
     estimated scf accuracy    <       0.00000001 Ry

     iteration # 53     ecut=    80.00 Ry     beta=0.70
     Davidson diagonalization with overlap
     ethr =  9.14E-13,  avg # of iterations =  2.8

     negative rho (up, down):  1.659E-03 0.000E+00

     total cpu time spent up to now is    29899.8 secs

     End of self-consistent calculation

          k = 0.0000 0.0000 0.0000 (256287 PWs)   bands (ev):

   -21.8654 -20.5828 -16.0065 -15.6383 -15.6295 -14.5288 -14.5261 -14.0423
   -14.0419 -13.6840 -13.6829 -13.6759 -13.6740 -12.7287 -12.7249 -12.6114
   -12.6110 -12.6091 -12.6079 -10.9174 -10.9166 -10.9141 -10.9129 -10.7070
    -9.7124  -9.0301  -9.0282  -9.0272  -9.0266  -8.1535  -8.1513  -8.1491
    -8.1448  -7.1603  -7.1587  -7.0873  -7.0852  -7.0846  -7.0814  -7.0699
    -7.0689  -5.6243  -5.5311  -5.5277  -5.5265  -5.5234  -5.4663  -5.3665
    -5.3650  -5.3644  -5.3621  -5.2068  -5.1377  -5.0905  -5.0852  -4.6984
    -4.5918  -4.2310  -4.2195  -4.2145  -4.2068  -4.1930  -3.8862  -3.8853
    -3.7363  -3.7306  -3.5926  -3.5925  -3.0751  -3.0741  -3.0714  -3.0708
    -3.0118  -3.0111  -2.9248  -2.9118  -2.9099  -2.8582  -2.8565  -2.7785
    -2.6126  -2.6119  -2.6103  -2.6097  -2.5635  -2.5577  -2.4385  -2.4368
    -2.3396  -2.3346  -2.3000  -2.2981  -2.2571  -2.2544  -2.2539  -2.2520
    -1.9853  -1.9826  -1.9776  -1.9775  -1.9358  -1.9330  -1.7947  -1.7946
    -1.7541  -1.7538  -1.7535  -1.7533  -1.6878  -1.6784  -1.6700  -1.6686
    -1.6206  -1.6206  -1.6197  -1.6197  -1.5550  -1.5501  -1.5476  -1.4380
    -1.3754  -1.3372  -1.3369  -1.3364  -1.3361  -1.2889  -1.2869  -1.2698
    -1.2574  -1.2552  -1.1997  -1.1899  -1.1796  -1.1704  -1.1602  -1.1582
    -1.1510  -1.1382  -1.1302  -1.1298  -1.1189  -1.1138  -1.1118  -1.1042
    -1.0354  -1.0342  -1.0118  -0.9784  -0.9759  -0.9751  -0.9676  -0.9492
    -0.9002  -0.8950  -0.8945  -0.8600  -0.8582  -0.8479  -0.8082  -0.8073
    -0.7882  -0.7857  -0.7636  -0.7602  -0.7503  -0.7363  -0.7028  -0.7027
    -0.7019  -0.6962  -0.6444  -0.6421  -0.6293  -0.6205  -0.6202  -0.6192
    -0.6192  -0.6168  -0.6165  -0.6116  -0.6114  -0.5919  -0.5690  -0.5673
    -0.5473  -0.5271  -0.5265  -0.5189  -0.5138  -0.5121  -0.5111  -0.4541
    -0.4531  -0.4522  -0.4517  -0.4509  -0.4502  -0.4502  -0.4477  -0.4471
    -0.4446  -0.4445  -0.4427  -0.4403  -0.4384  -0.4384  -0.4244  -0.4243
    -0.4116  -0.4100  -0.4062  -0.4009  -0.3811  -0.2848  -0.2848  -0.2800
    -0.2796  -0.2539  -0.2524  -0.2390  -0.2374  -0.2366  -0.2315  -0.2140
    -0.2139  -0.1992  -0.1986  -0.1979  -0.1975  -0.1791  -0.1593  -0.1590
    -0.1568  -0.1562  -0.1478  -0.1470  -0.1346  -0.1340  -0.0869  -0.0868
    -0.0337  -0.0335  -0.0222  -0.0206  -0.0200  -0.0189  -0.0026  -0.0024
     0.0013   0.0014   0.0017   0.0017   0.0043   0.0044   0.0208   0.0208
     0.0328   0.0329   0.0330   0.0334   0.0526   0.0533   0.1049   0.1072
     0.1077   0.1154   0.1156   0.1430   0.1430   0.1440   0.1441   0.1597
     0.1601   0.1621   0.1621   0.1638   0.1866   0.1871   0.1879   0.1884
     0.1944   0.1946   0.1953   0.1954   0.1971   0.2004   0.2148   0.2161
     0.2168   0.2183   0.2188   0.2373   0.2865   0.2866   0.2895   0.2897
     0.2966   0.3387   0.3391   0.3406   0.3412   0.3433   0.3440   0.3442
     0.3447   0.3448   0.3593   0.3604   0.3965   0.3975   0.4034   0.4039
     0.4056   0.4283   0.4285   0.4321   0.4322   0.4338   0.4375   0.4530
     0.4538   0.4538   0.4539   0.4540   0.4558   0.4665   0.4671   0.4716
     0.4716   0.4746   0.4770   0.4820   0.4823   0.4825   0.4832   0.5070
     0.5079   0.5424   0.5425   0.5683   0.5689   0.5705   0.5712   0.5989
     0.6024   0.6439   0.6442   0.6452   0.6460   0.6474   0.6507   0.6775
     0.6785   0.6827   0.6833   0.6840   0.6848   0.6936   0.6946   0.7314
     0.7327   0.7507   0.7508   0.7540   0.7559   0.7569   0.7571   0.7840
     0.7928   0.7936   0.7938   0.7940   0.8254   0.8264   0.8269   0.8271
     0.8280   0.8459   0.8470   0.8478   0.8486   0.8864   0.8865   0.9019
     0.9034   0.9034   0.9056   0.9059   0.9165   0.9353   0.9374   0.9402
     0.9422   0.9436   0.9453   0.9457   0.9459   0.9520   0.9552   0.9558
     0.9622   0.9635   0.9637   0.9646   0.9734   0.9735   1.0034   1.0150
     1.0152   1.0248   1.0265   1.0574   1.0578   1.0582   1.0584   1.0611
     1.0612   1.0619   1.0620   1.0732   1.0742   1.0832   1.0889   1.0891
     1.0892   1.0906   1.0917   1.0988   1.0989   1.1079   1.1093   1.1285
     1.1289   1.1291   1.1295   1.1403   1.1409   1.1545   1.1571   1.1571
     1.1580   1.1585   1.1603   1.1639   1.1670   1.1770   1.1808   1.1857
     1.1875   1.1954   1.2160   1.2161   1.2273   1.2283   1.2333   1.2336
     1.2336   1.2340   1.2663   1.2670   1.2820   1.2827   1.2873   1.2874
     1.3012   1.3013   1.3098   1.3104   1.3105   1.3116   1.3173   1.3319
     1.3463   1.3487   1.3492   1.3509   1.3516   1.3529   1.3701   1.3756
     1.3864   1.3964   1.3965   1.4056   1.4177   1.4181   1.4186   1.4196
     1.4218   1.4221   1.4241   1.4297   1.4334   1.4355   1.4374   1.4384
     1.4398   1.4403   1.4405   1.4524   1.4526   1.4732   1.4734   1.4762
     1.4766   1.4825   1.4830   1.5140   1.5152   1.5196   1.5209   1.5210
     1.5218   1.5222   1.5225   1.5276   1.5277   1.5279   1.5279   1.5311
     1.5317   1.5454   1.5455   1.5725   1.5858   1.5915   1.5933   1.6114
     1.6135   1.6144   1.6159   1.6170   1.6177   1.6265   1.6358   1.6372
     1.6479   1.6487   1.6498   1.6510   1.6514   1.6522   1.6551   1.6574
     1.6576   1.6652   1.6848   1.6862   1.6878   1.6882   1.6885   1.6887
     1.6898   1.6903   1.7052   1.7063   1.7067   1.7130   1.7217   1.7218
     1.7228   1.7230   1.7243   1.7315   1.7348   1.7365   1.7538   1.7646
     1.7651   1.7662   1.7671   1.7677   1.7700   1.7702   1.7760   1.7897
     1.7951   1.7979   1.8011   1.8036   1.8125   1.8281   1.8283   1.8356
     1.8357   1.8435   1.8443   1.8454   1.8464   1.8468   1.8470   1.8472
     1.8481   1.8484   1.8497   1.8567   1.8571   1.8613   1.8781   1.8782
     1.8791   1.8793   1.8823   1.8904   1.8909   1.9216   1.9226   1.9239
     1.9251   1.9314   1.9700   1.9703   1.9706   1.9710   1.9891   1.9916
     1.9917   1.9981   2.0025   2.0160   2.0416   2.0425   2.0432   2.0450
     2.0452   2.0533   2.0551   2.0553   2.3100   2.3663   2.5191   2.5194
     2.5595   2.5614   2.6152   2.6155   2.6158   2.6161   2.6341   2.6346
     2.6348   2.6354   2.8136   2.8137   2.8754   2.8757   2.8779   2.8781
     2.8907   2.8915   3.1274   3.1275   3.1287   3.1289   3.4432   3.4633
     3.4670   3.4693   3.5473   3.9308   3.9312   4.2269   4.2287   4.2562
     4.2576   4.2582   4.2599   4.3013   4.3683   4.3702   4.3769   4.4120
     4.4128   4.4131   4.4141   4.4216   4.4231   4.6543   4.6552   4.6595
     4.6610   4.8036   4.9610   5.1630   5.3274   5.3330   5.3518   5.3597
     5.7120   5.7965   5.8034   5.8197   6.1025   6.1040   6.1257   6.1347
     6.3309   6.3345   6.7389   6.7402   6.7846   6.8136   6.8701   6.8713
     6.8747   6.8773   7.0241   7.0254   7.0289   7.0320   7.0526   7.1791
     7.1856   7.1887   7.1906   7.2456   7.2715   7.4578   7.4769   7.4808
     7.4822   7.4858   7.5017   7.7163   7.7610   7.7648   7.9237   7.9271
     7.9315   8.0267   8.0450   8.0700   8.0913   8.0951   8.1046   8.1106
     8.5326   8.5560   8.5764   8.5889   8.6149   8.6738   8.6837   8.7375
     8.7375   8.7636   8.7657   8.8084   8.8168   8.8266   8.9428   8.9679
     8.9744   8.9798   8.9850   9.0640   9.0676   9.0696   9.0712   9.2007
     9.2468   9.2480   9.2508   9.2565   9.3063   9.3331   9.4474   9.4873
     9.4951   9.4953   9.5110   9.5275   9.5512   9.7507   9.7545   9.8519
     9.8724   9.8793   9.9831   9.9835  10.0906  10.1309  10.1691  10.2371
    10.2586

          k = 0.0000-0.2165 0.0000 (256176 PWs)   bands (ev):

   -21.8654 -20.5828 -15.9192 -15.9070 -15.1730 -15.1688 -13.9575 -13.9568
   -13.9457 -13.9444 -13.7098 -13.7086 -13.2363 -13.2322 -13.2275 -13.2242
   -11.8388 -11.8383 -11.8233 -11.8222 -11.6102 -11.6066  -9.9223  -9.9215
    -9.9205  -9.9195  -8.6784  -8.6739  -8.5198  -8.5179  -8.5137  -8.5113
    -7.6901  -7.6868  -7.6865  -7.6833  -6.5132  -6.5130  -6.5060  -6.5053
    -6.3575  -6.3530  -6.3511  -6.3482  -5.5386  -5.5372  -5.4919  -5.4889
    -5.4649  -5.2038  -5.1382  -4.7008  -4.6969  -4.6951  -4.6910  -4.6028
    -4.5742  -4.5700  -4.4430  -4.4428  -4.1409  -4.1400  -4.1339  -4.1331
    -4.0842  -4.0740  -3.6357  -3.6338  -3.1729  -3.1709  -2.9077  -2.9075
    -2.9071  -2.9067  -2.8376  -2.8274  -2.6656  -2.6647  -2.6354  -2.6349
    -2.5845  -2.5819  -2.5780  -2.5762  -2.3973  -2.3963  -2.3941  -2.3915
    -2.2952  -2.2927  -2.2190  -2.2139  -2.2058  -2.2050  -2.1827  -2.1822
    -2.1819  -2.1815  -2.1245  -2.1219  -1.9517  -1.9496  -1.8763  -1.8688
    -1.8638  -1.8630  -1.8426  -1.8417  -1.7454  -1.7452  -1.7450  -1.7447
    -1.6243  -1.6185  -1.5857  -1.5856  -1.5603  -1.5603  -1.4613  -1.4602
    -1.3979  -1.3825  -1.3811  -1.3769  -1.3645  -1.3644  -1.3500  -1.3497
    -1.3402  -1.3402  -1.3213  -1.3205  -1.2440  -1.2432  -1.1993  -1.1663
    -1.1593  -1.1571  -1.1207  -1.0786  -1.0604  -1.0599  -1.0585  -1.0408
    -0.9751  -0.9744  -0.9667  -0.9663  -0.9132  -0.9129  -0.8907  -0.8887
    -0.8757  -0.8751  -0.8723  -0.8718  -0.8689  -0.8679  -0.8419  -0.8413
    -0.8263  -0.8249  -0.8198  -0.8197  -0.8068  -0.8064  -0.7421  -0.7404
    -0.7399  -0.7383  -0.7316  -0.7313  -0.6847  -0.6845  -0.6469  -0.6468
    -0.6437  -0.6434  -0.5998  -0.5979  -0.5813  -0.5803  -0.5801  -0.5791
    -0.5719  -0.5717  -0.5228  -0.5226  -0.5158  -0.5152  -0.5058  -0.5056
    -0.4918  -0.4917  -0.4915  -0.4912  -0.4227  -0.4210  -0.4132  -0.4130
    -0.4128  -0.4119  -0.4097  -0.4093  -0.3904  -0.3901  -0.3765  -0.3755
    -0.3503  -0.3502  -0.3436  -0.3434  -0.2515  -0.2511  -0.2502  -0.2498
    -0.2295  -0.2294  -0.2020  -0.2015  -0.2004  -0.2000  -0.1974  -0.1973
    -0.1672  -0.1667  -0.1366  -0.1364  -0.1355  -0.1353  -0.1348  -0.1342
    -0.1290  -0.1278  -0.0972  -0.0972  -0.0793  -0.0770  -0.0767  -0.0767
    -0.0417  -0.0412  -0.0409  -0.0404  -0.0323  -0.0312  -0.0310  -0.0304
    -0.0301  -0.0296   0.0465   0.0469   0.0485   0.0489   0.0766   0.0793
     0.0957   0.1041   0.1043   0.1044   0.1088   0.1088   0.1112   0.1122
     0.1363   0.1367   0.1371   0.1387   0.1418   0.1447   0.1531   0.1541
     0.1597   0.1606   0.1608   0.1618   0.1635   0.1636   0.1767   0.1769
     0.2008   0.2008   0.2027   0.2029   0.2302   0.2416   0.2638   0.2653
     0.2656   0.2657   0.2718   0.2746   0.2754   0.2783   0.2802   0.2803
     0.2899   0.2996   0.3031   0.3065   0.3223   0.3232   0.3236   0.3249
     0.3302   0.3305   0.3318   0.3324   0.3334   0.3335   0.3891   0.3893
     0.3942   0.3947   0.4105   0.4109   0.4115   0.4130   0.4142   0.4147
     0.4158   0.4170   0.4345   0.4349   0.4350   0.4359   0.4550   0.4609
     0.4646   0.4656   0.4824   0.4827   0.4827   0.4830   0.4987   0.5010
     0.5178   0.5180   0.5326   0.5330   0.5441   0.5449   0.5449   0.5457
     0.5862   0.5870   0.5901   0.5908   0.6040   0.6055   0.6073   0.6078
     0.6377   0.6382   0.6701   0.6706   0.6720   0.6738   0.7057   0.7077
     0.7520   0.7532   0.7926   0.7928   0.7934   0.7937   0.8219   0.8226
     0.8227   0.8230   0.8303   0.8328   0.8585   0.8609   0.8622   0.8628
     0.8647   0.8650   0.8654   0.8663   0.8702   0.8749   0.8840   0.8849
     0.8875   0.8879   0.8914   0.8922   0.8924   0.8947   0.9252   0.9253
     0.9361   0.9362   0.9363   0.9371   0.9452   0.9452   0.9634   0.9649
     0.9660   0.9662   0.9679   0.9684   0.9686   0.9689   0.9696   0.9728
     0.9887   0.9900   0.9909   0.9916   0.9917   0.9924   0.9936   0.9938
     1.0097   1.0116   1.0539   1.0541   1.0679   1.0681   1.0774   1.0777
     1.0781   1.0785   1.0852   1.0853   1.0856   1.0876   1.0909   1.0910
     1.0911   1.0912   1.1334   1.1338   1.1349   1.1355   1.1501   1.1510
     1.1512   1.1515   1.1522   1.1534   1.1659   1.1672   1.1836   1.1841
     1.1889   1.1893   1.1899   1.1901   1.2442   1.2449   1.2942   1.2943
     1.2997   1.3027   1.3031   1.3046   1.3137   1.3140   1.3200   1.3203
     1.3279   1.3285   1.3352   1.3355   1.3368   1.3369   1.3476   1.3488
     1.3505   1.3506   1.3507   1.3534   1.3629   1.3646   1.3751   1.3751
     1.3770   1.3773   1.3793   1.3799   1.3846   1.3850   1.3856   1.3868
     1.3978   1.3978   1.4022   1.4025   1.4028   1.4033   1.4221   1.4223
     1.4332   1.4342   1.4360   1.4366   1.4395   1.4399   1.4486   1.4492
     1.4498   1.4500   1.4504   1.4505   1.4986   1.5002   1.5268   1.5310
     1.5376   1.5379   1.5520   1.5523   1.5626   1.5648   1.5651   1.5667
     1.5787   1.5796   1.5959   1.5971   1.6026   1.6028   1.6072   1.6079
     1.6096   1.6096   1.6103   1.6106   1.6118   1.6122   1.6137   1.6144
     1.6214   1.6218   1.6326   1.6349   1.6400   1.6408   1.6409   1.6417
     1.6511   1.6524   1.6796   1.6801   1.6802   1.6803   1.6884   1.6886
     1.6889   1.6894   1.7068   1.7070   1.7076   1.7080   1.7211   1.7212
     1.7239   1.7246   1.7273   1.7275   1.7431   1.7435   1.7446   1.7448
     1.7621   1.7625   1.7653   1.7657   1.7812   1.7814   1.7907   1.7912
     1.7919   1.7924   1.8053   1.8056   1.8066   1.8068   1.8244   1.8250
     1.8374   1.8379   1.8379   1.8382   1.8574   1.8582   1.8604   1.8608
     1.8614   1.8615   1.8621   1.8626   1.8915   1.8915   1.8977   1.8982
     1.9058   1.9062   1.9174   1.9182   1.9317   1.9322   1.9326   1.9330
     1.9373   1.9391   1.9502   1.9527   1.9979   1.9982   1.9984   1.9988
     2.0990   2.0990   2.1217   2.1231   2.1436   2.1436   2.1437   2.1446
     2.1976   2.1977   2.2006   2.2055   2.2226   2.2231   2.2232   2.2239
     2.2618   2.2655   2.5304   2.5337   2.5349   2.5416   2.8282   2.8283
     2.8285   2.8286   2.9022   2.9029   2.9707   2.9709   2.9742   2.9745
     2.9853   2.9857   3.1160   3.1178   3.1679   3.1684   3.1908   3.1911
     3.3307   3.3316   3.5698   3.5699   3.5985   3.5986   3.7885   3.7896
     4.0769   4.0785   4.3776   4.3785   4.3883   4.3935   4.5214   4.5245
     4.5297   4.5321   4.7318   4.7318   4.7321   4.7331   4.9067   4.9084
     5.0807   5.0854   5.1573   5.1605   5.4676   5.4821   5.5014   5.5022
     5.7605   5.7616   5.7620   5.7632   5.8292   5.8297   6.0685   6.0756
     6.1867   6.2031   6.2476   6.2519   6.7678   6.7767   6.8241   6.8265
     6.8287   6.8322   6.9500   6.9513   7.0680   7.0713   7.0726   7.2037
     7.2052   7.4200   7.4364   7.4406   7.4552   7.4842   7.4872   7.5181
     7.5194   7.5294   7.5296   7.5734   7.7454   7.7464   7.7808   7.7919
     7.8328   7.8359   7.9837   8.0550   8.1405   8.1450   8.1764   8.1846
     8.1923   8.2011   8.3903   8.5467   8.5591   8.5593   8.7613   8.7620
     8.8026   8.8074   8.8086   8.8202   8.9045   8.9406   8.9427   8.9934
     9.1194   9.1229   9.1276   9.1298   9.1690   9.1694   9.2134   9.2323
     9.2807   9.2946   9.4274   9.4310   9.5404   9.5458   9.5850   9.5970
     9.6067   9.6140   9.7550   9.7811   9.7841   9.7846   9.8148   9.8675
     9.8702   9.8739   9.9046   9.9157   9.9618  10.0660  10.0667  10.1875
    10.2592

          k = 0.2500 0.0000 0.0000 (256240 PWs)   bands (ev):

   -21.8654 -20.5828 -15.8822 -15.5146 -15.5058 -14.8948 -14.5318 -14.5231
   -14.4069 -14.4043 -13.4415 -13.4389 -12.9652 -12.6158 -12.6107 -12.6081
   -12.6050 -11.6906 -11.6869 -11.5812 -11.5788 -10.6015 -10.2899 -10.2847
   -10.2729  -9.7598  -9.6075  -9.3078  -9.3071  -8.9067  -8.6529  -8.6507
    -8.0939  -7.0869  -7.0853  -7.0841  -7.0816  -6.9685  -6.9671  -6.5052
    -6.2324  -5.6648  -5.4750  -5.4654  -5.4605  -5.4539  -5.4494  -5.4433
    -5.1996  -5.1386  -4.9175  -4.9138  -4.7235  -4.7229  -4.5938  -4.5358
    -4.2202  -4.0718  -4.0637  -4.0613  -4.0401  -3.9072  -3.9064  -3.8867
    -3.8832  -3.6059  -3.6034  -3.5880  -3.5836  -3.4453  -3.4452  -3.4443
    -3.2931  -3.1575  -3.1567  -3.0761  -3.0736  -3.0723  -3.0698  -2.9683
    -2.9676  -2.8821  -2.8756  -2.8468  -2.7267  -2.7250  -2.6848  -2.6286
    -2.4891  -2.4864  -2.4025  -2.4025  -2.3340  -2.3320  -2.2204  -2.2157
    -2.0194  -2.0172  -2.0035  -1.9372  -1.9368  -1.7017  -1.7016  -1.6856
    -1.6835  -1.6413  -1.6021  -1.5744  -1.5668  -1.5498  -1.5483  -1.4930
    -1.4908  -1.4330  -1.4005  -1.4004  -1.3929  -1.3929  -1.3726  -1.3428
    -1.3345  -1.3199  -1.3135  -1.3121  -1.3081  -1.2469  -1.2466  -1.2017
    -1.2005  -1.1988  -1.1820  -1.1800  -1.1780  -1.1777  -1.1770  -1.1754
    -1.1480  -1.1297  -1.1202  -1.1143  -1.1026  -1.1003  -1.0872  -1.0855
    -0.9685  -0.9337  -0.9322  -0.9142  -0.9092  -0.8673  -0.8670  -0.8403
    -0.8395  -0.8341  -0.8262  -0.8248  -0.8151  -0.8129  -0.8049  -0.7816
    -0.7802  -0.7751  -0.7676  -0.7368  -0.7340  -0.7323  -0.7300  -0.7277
    -0.7251  -0.7087  -0.7068  -0.6842  -0.6718  -0.6570  -0.6497  -0.6462
    -0.6459  -0.6455  -0.6440  -0.6135  -0.6088  -0.6069  -0.5975  -0.5914
    -0.5913  -0.5772  -0.5769  -0.5760  -0.5760  -0.5717  -0.5714  -0.5595
    -0.5513  -0.5480  -0.5423  -0.5409  -0.5398  -0.5362  -0.5334  -0.5089
    -0.5035  -0.4988  -0.4963  -0.4908  -0.4473  -0.4464  -0.4131  -0.4131
    -0.3939  -0.3927  -0.3791  -0.3663  -0.3660  -0.3535  -0.3501  -0.3479
    -0.3456  -0.3374  -0.3362  -0.3172  -0.1972  -0.1958  -0.1936  -0.1916
    -0.1630  -0.1609  -0.1608  -0.1457  -0.1456  -0.1438  -0.1414  -0.1244
    -0.1241  -0.1218  -0.1217  -0.1110  -0.1104  -0.0823  -0.0812  -0.0778
    -0.0775  -0.0765  -0.0763  -0.0544  -0.0544  -0.0540  -0.0092   0.0044
     0.0067   0.0068   0.0082   0.0136   0.0155   0.0262   0.0302   0.0306
     0.0490   0.0492   0.0697   0.0760   0.0761   0.0774   0.1124   0.1124
     0.1125   0.1127   0.1259   0.1260   0.1371   0.1388   0.1390   0.1492
     0.1494   0.1687   0.1698   0.1790   0.2012   0.2022   0.2078   0.2086
     0.2089   0.2116   0.2243   0.2257   0.2259   0.2262   0.2451   0.2456
     0.2574   0.2574   0.2700   0.2722   0.2880   0.2907   0.2951   0.2971
     0.2972   0.3406   0.3425   0.3482   0.3506   0.3511   0.3604   0.3898
     0.3898   0.3977   0.3982   0.3988   0.3998   0.4007   0.4091   0.4106
     0.4116   0.4124   0.4170   0.4181   0.4208   0.4355   0.4358   0.4434
     0.4437   0.4488   0.4490   0.4676   0.4681   0.4803   0.4815   0.4876
     0.4932   0.5010   0.5226   0.5231   0.5237   0.5248   0.5250   0.5447
     0.5459   0.5463   0.5482   0.5497   0.5503   0.5847   0.5848   0.6125
     0.6136   0.6616   0.6639   0.6640   0.6749   0.6768   0.6821   0.6823
     0.6859   0.6885   0.6890   0.6911   0.6940   0.6950   0.6981   0.6986
     0.7055   0.7133   0.7136   0.7158   0.7161   0.7299   0.7301   0.7346
     0.7372   0.7408   0.7456   0.7654   0.7665   0.7685   0.8016   0.8019
     0.8102   0.8158   0.8207   0.8342   0.8343   0.8509   0.8514   0.8537
     0.8571   0.8662   0.8685   0.8864   0.8867   0.8877   0.8923   0.8936
     0.8995   0.8997   0.9036   0.9038   0.9240   0.9342   0.9345   0.9509
     0.9515   0.9520   0.9525   0.9605   0.9607   0.9622   0.9648   0.9650
     0.9836   0.9874   0.9874   1.0004   1.0011   1.0021   1.0027   1.0060
     1.0194   1.0198   1.0219   1.0264   1.0267   1.0455   1.0458   1.0657
     1.0662   1.0733   1.0743   1.0789   1.0791   1.0803   1.0979   1.1102
     1.1142   1.1213   1.1336   1.1365   1.1494   1.1495   1.1529   1.1534
     1.1607   1.1756   1.1819   1.1847   1.1874   1.1879   1.1980   1.1989
     1.2000   1.2122   1.2126   1.2243   1.2252   1.2332   1.2335   1.2338
     1.2598   1.2630   1.2654   1.2660   1.2684   1.2895   1.2919   1.3004
     1.3013   1.3022   1.3031   1.3089   1.3112   1.3131   1.3145   1.3192
     1.3558   1.3566   1.3586   1.3607   1.3647   1.3650   1.3656   1.3781
     1.3802   1.3979   1.3979   1.4005   1.4017   1.4098   1.4101   1.4127
     1.4263   1.4269   1.4270   1.4287   1.4314   1.4323   1.4346   1.4374
     1.4376   1.4406   1.4417   1.4442   1.4502   1.4539   1.4686   1.4690
     1.4702   1.4770   1.4777   1.4779   1.4819   1.4866   1.4871   1.4995
     1.5015   1.5140   1.5177   1.5178   1.5190   1.5205   1.5311   1.5437
     1.5463   1.5467   1.5562   1.5563   1.5654   1.5665   1.5671   1.5684
     1.5732   1.5864   1.5928   1.5986   1.6024   1.6031   1.6143   1.6358
     1.6393   1.6479   1.6542   1.6546   1.6546   1.6641   1.6641   1.6650
     1.6657   1.6740   1.6801   1.6860   1.6862   1.6902   1.6903   1.6991
     1.7076   1.7091   1.7120   1.7123   1.7168   1.7232   1.7240   1.7248
     1.7271   1.7280   1.7339   1.7343   1.7366   1.7371   1.7405   1.7490
     1.7600   1.7626   1.7632   1.7671   1.7671   1.7676   1.7717   1.7899
     1.7904   1.7908   1.7914   1.7917   1.8152   1.8156   1.8222   1.8293
     1.8307   1.8337   1.8342   1.8367   1.8388   1.8388   1.8431   1.8455
     1.8465   1.8519   1.8524   1.8602   1.8739   1.8740   1.8763   1.8771
     1.8774   1.8803   1.8806   1.8943   1.8948   1.9041   1.9064   1.9172
     1.9176   1.9226   1.9228   1.9248   1.9277   1.9332   1.9593   1.9627
     1.9849   1.9927   1.9946   2.0359   2.0360   2.0396   2.0630   2.0798
     2.0882   2.1554   2.1657   2.1705   2.1707   2.1921   2.2070   2.2429
     2.2472   2.4045   2.4389   2.4763   2.4765   2.4960   2.4962   2.5405
     2.6011   2.6573   2.6594   2.9695   2.9727   2.9734   2.9766   3.3818
     3.3819   3.4181   3.6000   3.6002   3.6245   3.6246   3.6785   3.6846
     3.8496   3.8742   3.9874   3.9877   4.0340   4.0344   4.1042   4.1048
     4.1233   4.1265   4.1491   4.2776   4.2794   4.3734   4.3744   4.4066
     4.5715   4.5781   4.5888   4.6820   4.7367   4.7985   4.8170   5.0191
     5.1588   5.2335   5.2343   5.5460   5.6211   5.6212   5.6342   5.6991
     5.7023   5.7648   5.8695   5.8732   5.9130   5.9722   5.9760   5.9908
     6.0698   6.0747   6.1372   6.1436   6.2133   6.2147   6.2452   6.2619
     6.4111   6.4131   6.4558   6.4570   7.0010   7.0942   7.0953   7.1132
     7.1545   7.1575   7.1756   7.1885   7.2056   7.2633   7.3703   7.4222
     7.4362   7.4365   7.4424   7.4776   7.6475   7.6528   7.7089   7.7131
     7.8493   7.8730   7.8987   7.9533   7.9676   8.0037   8.0484   8.0927
     8.1004   8.1421   8.1551   8.1939   8.2186   8.4077   8.4159   8.4631
     8.4633   8.6223   8.6354   8.6893   8.6990   8.7205   8.7271   8.7279
     8.7467   8.7899   8.8019   8.8172   8.8545   8.9807   9.0539   9.0553
     9.2227   9.2983   9.3807   9.4385   9.4454   9.4924   9.5279   9.5429
     9.5808   9.5974   9.5987   9.6114   9.6169   9.6209   9.6548   9.6631
     9.6789   9.8094   9.8121   9.8757   9.8824  10.1280  10.1283  10.1327
    10.1467

          k = 0.2500-0.2165 0.0000 (256316 PWs)   bands (ev):

   -21.8654 -20.5828 -15.7951 -15.7828 -15.0501 -15.0459 -14.8086 -14.7966
   -14.0737 -14.0697 -13.5901 -13.5889 -12.8818 -12.8700 -12.6414 -12.6402
   -12.1754 -12.1715 -11.4984 -11.4948 -10.8750 -10.8744 -10.6188 -10.6154
   -10.2382 -10.2271  -9.1862  -9.1833  -8.6647  -8.6596  -8.5837  -8.5793
    -8.0222  -8.0174  -7.9312  -7.9299  -6.2049  -6.1991  -6.1788  -6.1757
    -6.0651  -6.0549  -5.8359  -5.8294  -5.4993  -5.4968  -5.4650  -5.3136
    -5.3108  -5.1963  -5.1387  -4.7011  -4.6998  -4.5935  -4.4214  -4.4133
    -4.3748  -4.3737  -4.2797  -4.2795  -3.9523  -3.9519  -3.9298  -3.9221
    -3.7392  -3.7329  -3.6892  -3.6885  -3.4893  -3.4882  -3.3558  -3.3455
    -3.1910  -3.1839  -3.1105  -3.1049  -3.0630  -3.0629  -3.0388  -3.0365
    -2.7554  -2.7537  -2.7520  -2.7514  -2.6234  -2.6208  -2.5223  -2.5215
    -2.5135  -2.5131  -2.4238  -2.4212  -2.4128  -2.4104  -2.1346  -2.1327
    -2.0879  -2.0834  -1.9176  -1.9171  -1.8608  -1.8586  -1.7764  -1.7756
    -1.7706  -1.7705  -1.6089  -1.6088  -1.5681  -1.5674  -1.5566  -1.5486
    -1.4907  -1.4851  -1.4177  -1.4164  -1.4141  -1.4139  -1.3493  -1.3482
    -1.3223  -1.3221  -1.3088  -1.3081  -1.3011  -1.3002  -1.2985  -1.2953
    -1.2751  -1.2750  -1.2745  -1.2742  -1.2672  -1.2670  -1.1809  -1.1800
    -1.1516  -1.1268  -1.0669  -1.0668  -0.9623  -0.9619  -0.9606  -0.9560
    -0.9262  -0.9259  -0.8845  -0.8759  -0.8737  -0.8736  -0.8606  -0.8606
    -0.8461  -0.8460  -0.8355  -0.8351  -0.8194  -0.8192  -0.8098  -0.8086
    -0.7980  -0.7979  -0.7952  -0.7943  -0.7848  -0.7834  -0.7289  -0.7270
    -0.7267  -0.7256  -0.7209  -0.7190  -0.7106  -0.7105  -0.6836  -0.6805
    -0.6774  -0.6768  -0.6351  -0.6350  -0.6263  -0.6261  -0.6214  -0.6210
    -0.5932  -0.5931  -0.5697  -0.5676  -0.5574  -0.5572  -0.5514  -0.5509
    -0.5446  -0.5444  -0.5182  -0.5180  -0.4987  -0.4984  -0.4653  -0.4640
    -0.4590  -0.4585  -0.3973  -0.3927  -0.3733  -0.3717  -0.3706  -0.3694
    -0.3634  -0.3628  -0.3560  -0.3543  -0.3170  -0.3164  -0.3074  -0.3074
    -0.3036  -0.3035  -0.2895  -0.2891  -0.2648  -0.2628  -0.2475  -0.2473
    -0.2107  -0.2102  -0.1619  -0.1615  -0.1612  -0.1606  -0.1529  -0.1524
    -0.1258  -0.1253  -0.1161  -0.1150  -0.0956  -0.0946  -0.0830  -0.0827
    -0.0530  -0.0526  -0.0482  -0.0472  -0.0393  -0.0387  -0.0017  -0.0016
     0.0087   0.0092   0.0233   0.0248   0.0261   0.0274   0.0276   0.0299
     0.0383   0.0385   0.0432   0.0435   0.0480   0.0484   0.0557   0.0559
     0.0715   0.0730   0.0885   0.0886   0.1155   0.1165   0.1341   0.1345
     0.1480   0.1486   0.1668   0.1669   0.1771   0.1773   0.1908   0.1911
     0.1950   0.1963   0.2269   0.2273   0.2546   0.2547   0.2907   0.2909
     0.3005   0.3007   0.3019   0.3028   0.3141   0.3172   0.3213   0.3214
     0.3375   0.3376   0.3497   0.3498   0.3568   0.3575   0.3679   0.3682
     0.3688   0.3698   0.3907   0.3912   0.3997   0.4008   0.4030   0.4045
     0.4051   0.4055   0.4061   0.4069   0.4148   0.4154   0.4396   0.4398
     0.4401   0.4403   0.4739   0.4742   0.4819   0.4823   0.4852   0.4856
     0.5019   0.5054   0.5055   0.5063   0.5366   0.5386   0.5422   0.5425
     0.5459   0.5472   0.5607   0.5608   0.5639   0.5650   0.5766   0.5770
     0.5834   0.5836   0.6123   0.6128   0.6785   0.6785   0.6872   0.6873
     0.6906   0.6909   0.6943   0.6948   0.6960   0.6963   0.6996   0.7007
     0.7230   0.7249   0.7282   0.7291   0.7358   0.7361   0.7392   0.7396
     0.7415   0.7416   0.7759   0.7771   0.7896   0.7904   0.7986   0.7994
     0.8125   0.8128   0.8514   0.8521   0.8582   0.8589   0.8593   0.8605
     0.8645   0.8647   0.8763   0.8765   0.8865   0.8868   0.8891   0.8894
     0.8896   0.8903   0.9207   0.9213   0.9253   0.9253   0.9422   0.9424
     0.9741   0.9743   0.9751   0.9762   0.9864   0.9885   1.0081   1.0085
     1.0123   1.0132   1.0176   1.0181   1.0232   1.0234   1.0333   1.0355
     1.0360   1.0374   1.0429   1.0434   1.0581   1.0593   1.0677   1.0682
     1.0757   1.0758   1.0762   1.0762   1.0883   1.0887   1.0943   1.0948
     1.0979   1.0982   1.1144   1.1152   1.1194   1.1196   1.1250   1.1252
     1.1280   1.1288   1.1303   1.1315   1.1663   1.1665   1.1757   1.1768
     1.1954   1.2009   1.2153   1.2165   1.2310   1.2311   1.2350   1.2351
     1.2392   1.2396   1.2623   1.2624   1.2629   1.2633   1.2652   1.2654
     1.2729   1.2739   1.2866   1.2871   1.2925   1.2936   1.3034   1.3040
     1.3123   1.3128   1.3351   1.3352   1.3590   1.3602   1.3640   1.3646
     1.3693   1.3705   1.3750   1.3752   1.3800   1.3808   1.4015   1.4019
     1.4106   1.4113   1.4277   1.4278   1.4353   1.4358   1.4450   1.4462
     1.4674   1.4694   1.4732   1.4752   1.4893   1.4900   1.4963   1.4964
     1.4983   1.4988   1.4991   1.4997   1.5037   1.5044   1.5157   1.5163
     1.5256   1.5259   1.5289   1.5294   1.5467   1.5468   1.5733   1.5735
     1.5807   1.5810   1.5840   1.5846   1.5862   1.5868   1.5936   1.5956
     1.6002   1.6003   1.6043   1.6048   1.6081   1.6085   1.6120   1.6121
     1.6195   1.6210   1.6261   1.6264   1.6332   1.6333   1.6353   1.6355
     1.6477   1.6480   1.6555   1.6558   1.6807   1.6809   1.6889   1.6893
     1.7026   1.7028   1.7063   1.7069   1.7209   1.7211   1.7272   1.7282
     1.7307   1.7316   1.7407   1.7409   1.7457   1.7474   1.7579   1.7581
     1.7584   1.7589   1.7707   1.7709   1.7820   1.7822   1.7923   1.7923
     1.7931   1.7934   1.7967   1.7973   1.8037   1.8039   1.8159   1.8160
     1.8200   1.8202   1.8303   1.8325   1.8339   1.8341   1.8433   1.8440
     1.8476   1.8477   1.8507   1.8518   1.8548   1.8549   1.8607   1.8627
     1.8646   1.8647   1.8894   1.8894   1.8963   1.8974   1.9113   1.9114
     1.9311   1.9317   1.9392   1.9395   1.9619   1.9624   1.9682   1.9685
     1.9908   1.9913   2.0259   2.0286   2.0506   2.0511   2.0729   2.0730
     2.1556   2.1581   2.1713   2.1735   2.1923   2.1936   2.1967   2.1971
     2.2133   2.2162   2.2464   2.2476   2.5342   2.5347   2.5654   2.5654
     2.6953   2.6954   2.9908   2.9909   3.1913   3.1919   3.1942   3.1945
     3.2058   3.2062   3.2380   3.2386   3.3896   3.3898   3.4830   3.4833
     3.9433   3.9440   4.0100   4.0109   4.0512   4.0517   4.2417   4.2430
     4.2508   4.2513   4.3944   4.3954   4.4586   4.4591   4.5644   4.5651
     4.7446   4.7568   4.7767   4.7774   4.9521   4.9535   5.0507   5.0588
     5.0973   5.0995   5.1556   5.1603   5.3130   5.3141   5.4068   5.4147
     5.5240   5.5377   5.6619   5.6627   5.8437   5.8441   5.8598   5.8602
     5.8712   5.8723   6.1620   6.1623   6.2781   6.2783   6.3510   6.3591
     6.4008   6.4075   6.9856   6.9936   6.9965   6.9990   7.1363   7.1386
     7.2112   7.2461   7.2524   7.4162   7.4263   7.4665   7.4771   7.4817
     7.4840   7.5438   7.5459   7.6193   7.6207   7.7268   7.7336   7.7365
     7.7393   7.7431   7.7615   7.7793   7.8252   7.8258   8.0182   8.0507
     8.0676   8.0782   8.1961   8.1995   8.3286   8.3593   8.3692   8.3779
     8.5179   8.5888   8.5899   8.6429   8.6454   8.6868   8.8491   8.8502
     8.9131   8.9909   8.9921   9.0373   9.0404   9.0516   9.0927   9.1006
     9.1076   9.1601   9.2901   9.3000   9.3553   9.3564   9.3924   9.4103
     9.5299   9.5315   9.5782   9.5795   9.6161   9.6175   9.6721   9.6735
     9.6949   9.7054   9.7362   9.7553   9.7584   9.7602   9.8227   9.8384
     9.9936

          k =-0.5000 0.0000 0.0000 (256496 PWs)   bands (ev):

   -21.8654 -20.5828 -15.5129 -15.5080 -15.1487 -15.1408 -15.1357 -15.1352
   -14.0461 -14.0423 -14.0403 -14.0389 -12.2662 -12.2614 -12.2606 -12.2581
   -11.6889 -11.6881 -11.3623 -11.3600 -11.3534 -11.3528 -10.7080 -10.7064
   -10.2874 -10.2832  -9.7124  -9.7116  -9.3099  -9.3056  -8.4709  -8.4702
    -8.4651  -8.4644  -6.9677  -6.9674  -6.9027  -6.9015  -6.8992  -6.8972
    -5.4714  -5.4538  -5.4486  -5.1962  -5.1394  -4.9145  -4.9131  -4.7249
    -4.7224  -4.5933  -4.4091  -4.4088  -4.4064  -4.4059  -4.3098  -4.3060
    -4.3012  -4.3009  -4.2192  -4.2168  -4.2159  -4.2158  -4.0647  -4.0577
    -3.9277  -3.9257  -3.9208  -3.9199  -3.6116  -3.6084  -3.6066  -3.6014
    -3.5818  -3.5752  -3.1573  -3.1564  -3.1552  -3.1502  -3.0240  -3.0239
    -3.0236  -3.0235  -2.9247  -2.9236  -2.9122  -2.9110  -2.9098  -2.9093
    -2.3696  -2.3668  -2.3654  -2.3642  -2.3220  -2.3194  -2.3179  -2.3170
    -2.2046  -2.2040  -2.0424  -2.0367  -2.0351  -2.0332  -1.9010  -1.9000
    -1.8975  -1.8958  -1.4807  -1.4807  -1.4800  -1.4800  -1.4770  -1.4769
    -1.3549  -1.3514  -1.3510  -1.3506  -1.2493  -1.2493  -1.2490  -1.2490
    -1.2029  -1.2025  -1.2009  -1.2006  -1.1990  -1.1967  -1.1373  -1.1316
    -1.1012  -1.0992  -1.0848  -1.0848  -1.0244  -1.0241  -1.0240  -1.0235
    -1.0047  -1.0046  -1.0044  -1.0022  -1.0017  -0.9999  -0.9561  -0.9560
    -0.9526  -0.9525  -0.9388  -0.9385  -0.9371  -0.9370  -0.9315  -0.9312
    -0.8882  -0.8882  -0.8865  -0.8864  -0.8658  -0.8657  -0.8652  -0.8652
    -0.8004  -0.8003  -0.7797  -0.7794  -0.7790  -0.7787  -0.7492  -0.7489
    -0.7488  -0.7484  -0.7482  -0.7480  -0.7477  -0.7465  -0.7036  -0.7036
    -0.7026  -0.7024  -0.6831  -0.6830  -0.6520  -0.6519  -0.6051  -0.6049
    -0.5783  -0.5782  -0.5766  -0.5764  -0.5515  -0.5502  -0.5475  -0.5471
    -0.5460  -0.5453  -0.5438  -0.5427  -0.5426  -0.5419  -0.5273  -0.5271
    -0.5249  -0.5247  -0.4975  -0.4974  -0.4363  -0.4362  -0.4336  -0.4335
    -0.3889  -0.3886  -0.3092  -0.3092  -0.3087  -0.3086  -0.2791  -0.2782
    -0.2760  -0.2732  -0.2682  -0.2680  -0.2667  -0.2666  -0.2583  -0.2565
    -0.2275  -0.2271  -0.2249  -0.2243  -0.2115  -0.2111  -0.1954  -0.1953
    -0.1932  -0.1930  -0.1086  -0.1075  -0.1067  -0.1055  -0.0640  -0.0633
    -0.0624  -0.0614  -0.0493  -0.0492  -0.0051  -0.0049  -0.0040  -0.0035
     0.0014   0.0014   0.0031   0.0035   0.0273   0.0279   0.0380   0.0381
     0.0385   0.0385   0.0767   0.0768   0.0782   0.0784   0.1102   0.1102
     0.1104   0.1104   0.1213   0.1213   0.1548   0.1548   0.1564   0.1565
     0.1640   0.1648   0.1664   0.1671   0.1938   0.1940   0.2068   0.2069
     0.2722   0.2722   0.2734   0.2735   0.2780   0.2780   0.2790   0.2791
     0.3181   0.3182   0.3203   0.3204   0.3530   0.3532   0.3841   0.3845
     0.3858   0.3858   0.3863   0.3863   0.3870   0.3873   0.3883   0.3885
     0.3887   0.3889   0.4137   0.4158   0.4638   0.4647   0.4681   0.4690
     0.4733   0.4735   0.4765   0.4767   0.4772   0.4773   0.4854   0.4858
     0.4875   0.4875   0.4928   0.4941   0.4996   0.5001   0.5124   0.5124
     0.5252   0.5253   0.5264   0.5265   0.5266   0.5267   0.5357   0.5357
     0.5362   0.5363   0.5502   0.5502   0.5606   0.5609   0.5626   0.5627
     0.5630   0.5631   0.5887   0.5887   0.6397   0.6473   0.6645   0.6679
     0.6957   0.6957   0.6979   0.6980   0.7267   0.7268   0.7276   0.7278
     0.7421   0.7423   0.7457   0.7457   0.7502   0.7507   0.7527   0.7529
     0.7574   0.7576   0.7589   0.7591   0.7600   0.7600   0.7745   0.7745
     0.7807   0.7827   0.7875   0.7884   0.7954   0.7957   0.8014   0.8017
     0.8121   0.8123   0.8478   0.8481   0.8994   0.8996   0.9016   0.9022
     0.9108   0.9111   0.9306   0.9308   0.9339   0.9339   0.9359   0.9359
     0.9365   0.9368   0.9400   0.9406   0.9424   0.9428   0.9436   0.9437
     0.9523   0.9524   0.9529   0.9530   0.9766   0.9769   0.9931   0.9932
     1.0098   1.0104   1.0222   1.0226   1.0251   1.0262   1.0300   1.0310
     1.0378   1.0381   1.0386   1.0388   1.0435   1.0437   1.0572   1.0574
     1.0604   1.0604   1.0753   1.0756   1.0765   1.0768   1.1145   1.1148
     1.1157   1.1158   1.1160   1.1164   1.1341   1.1342   1.1671   1.1673
     1.1747   1.1750   1.1752   1.1754   1.1767   1.1774   1.2174   1.2186
     1.2442   1.2444   1.2469   1.2471   1.2489   1.2489   1.2551   1.2553
     1.2610   1.2611   1.2623   1.2626   1.2740   1.2746   1.2949   1.2951
     1.2967   1.2968   1.3108   1.3114   1.3143   1.3145   1.3153   1.3156
     1.3182   1.3182   1.3533   1.3536   1.3544   1.3544   1.4048   1.4058
     1.4227   1.4228   1.4236   1.4237   1.4557   1.4557   1.4561   1.4562
     1.4643   1.4645   1.4754   1.4755   1.4864   1.4865   1.4983   1.4988
     1.5052   1.5061   1.5207   1.5210   1.5253   1.5255   1.5261   1.5264
     1.5329   1.5329   1.5340   1.5343   1.5433   1.5435   1.5458   1.5458
     1.5465   1.5466   1.5502   1.5502   1.5817   1.5819   1.5850   1.5851
     1.6136   1.6139   1.6201   1.6202   1.6227   1.6228   1.6229   1.6231
     1.6408   1.6409   1.6511   1.6512   1.6518   1.6520   1.6611   1.6614
     1.6627   1.6629   1.6691   1.6696   1.6788   1.6794   1.6894   1.6895
     1.7091   1.7093   1.7250   1.7251   1.7259   1.7260   1.7261   1.7263
     1.7276   1.7277   1.7397   1.7397   1.7403   1.7404   1.7416   1.7417
     1.7427   1.7428   1.7477   1.7482   1.7511   1.7512   1.7521   1.7521
     1.7597   1.7598   1.7753   1.7753   1.7911   1.7916   1.7936   1.7944
     1.8022   1.8023   1.8038   1.8039   1.8209   1.8209   1.8246   1.8247
     1.8395   1.8396   1.8463   1.8463   1.8582   1.8582   1.8586   1.8586
     1.8779   1.8780   1.8794   1.8794   1.8844   1.8852   1.8901   1.8901
     1.8909   1.8910   1.9032   1.9034   1.9092   1.9092   1.9239   1.9239
     1.9243   1.9244   1.9366   1.9371   1.9379   1.9387   1.9881   1.9882
     2.0187   2.0187   2.0225   2.0226   2.0394   2.0422   2.4383   2.4384
     2.4388   2.4392   2.6387   2.6387   2.6575   2.6579   2.6909   2.6909
     2.6983   2.6985   3.0196   3.0201   3.0217   3.0225   3.2360   3.2362
     3.2414   3.2418   3.5876   3.5883   3.5915   3.5923   3.8765   3.8768
     4.1594   4.1596   4.1599   4.1602   4.3241   4.3252   4.3291   4.3299
     4.4726   4.4746   4.4791   4.4808   4.5671   4.5675   4.8079   4.8144
     4.9423   4.9437   5.1301   5.1313   5.1356   5.1377   5.2272   5.2276
     5.2683   5.2684   5.4221   5.4227   5.4463   5.4464   5.4522   5.4534
     5.4796   5.4797   5.4945   5.4956   5.5417   5.5474   5.5656   5.5713
     5.9360   5.9370   5.9462   5.9466   6.0537   6.0580   6.2663   6.2677
     6.3941   6.3961   6.4046   6.4074   6.4286   6.4290   6.4390   6.4403
     6.8111   6.8124   6.8328   6.8472   6.8603   6.8726   6.8823   6.8875
     7.4678   7.4935   7.4948   7.5058   7.5077   7.5311   7.5316   7.9717
     7.9877   7.9881   7.9885   7.9887   7.9919   8.0180   8.0377   8.0566
     8.0687   8.1073   8.2152   8.2158   8.2834   8.2839   8.2858   8.2872
     8.3842   8.4634   8.4661   8.4707   8.4731   8.5087   8.5168   8.5178
     8.5290   8.5344   8.6021   8.6303   8.7390   8.7523   9.2183   9.2211
     9.2268   9.2283   9.2446   9.2668   9.2761   9.2835   9.4448   9.4648
     9.4662   9.4697   9.4703   9.4878   9.6629   9.6630   9.8291   9.8662
     9.8665   9.8696   9.8720   9.9070   9.9154   9.9168   9.9298   9.9348
     9.9404

          k =-0.5000-0.2165 0.0000 (256328 PWs)   bands (ev):

   -21.8654 -20.5828 -15.4287 -15.4193 -15.4116 -15.4109 -14.6855 -14.6803
   -14.6784 -14.6768 -13.2349 -13.2329 -13.2299 -13.2291 -11.6103 -11.6096
   -11.5985 -11.5977 -11.1678 -11.1632 -11.1618 -11.1595 -10.9871 -10.9861
   -10.9797 -10.9784  -9.2879  -9.2873  -9.2813  -9.2806  -8.3257  -8.3193
    -8.3137  -8.3118  -7.5557  -7.5551  -7.5499  -7.5497  -5.4847  -5.4771
    -5.4752  -5.4737  -5.4596  -5.1961  -5.1398  -4.8546  -4.8542  -4.8487
    -4.8478  -4.7862  -4.7860  -4.7857  -4.7838  -4.6310  -4.6253  -4.6128
    -4.6116  -4.5920  -3.9548  -3.9511  -3.9414  -3.9326  -3.8030  -3.8029
    -3.8028  -3.8026  -3.7538  -3.7517  -3.7508  -3.7496  -3.4768  -3.4751
[...]
     atom   23 type  1   force =    -0.00000283    0.00003914    0.00009252
     atom   24 type  1   force =    -0.00000183   -0.00005746    0.00006840
     atom   25 type  1   force =    -0.00000303    0.00002092    0.00003394
     atom   26 type  1   force =     0.00000538    0.00006259    0.00001763
     atom   27 type  1   force =     0.00000544    0.00002013   -0.00002740
     atom   28 type  1   force =    -0.00000550    0.00007473    0.00002477
     atom   29 type  1   force =     0.00000665   -0.00006804    0.00008248
     atom   30 type  1   force =    -0.00000073   -0.00002474    0.00004622
     atom   31 type  1   force =    -0.00000103   -0.00006851    0.00002995
     atom   32 type  1   force =     0.00000443   -0.00003143    0.00005485
     atom   33 type  1   force =     0.00000134   -0.00006534    0.00001204
     atom   34 type  1   force =     0.00000561   -0.00008196    0.00009419
     atom   35 type  1   force =     0.00000347   -0.00009118    0.00005453
     atom   36 type  1   force =     0.00000199   -0.00007078    0.00008458
     atom   37 type  1   force =     0.00000197   -0.00005335    0.00005369
     atom   38 type  1   force =     0.00000704   -0.00002930   -0.00000245
     atom   39 type  1   force =     0.00000167   -0.00005297    0.00008500
     atom   40 type  1   force =    -0.00000314   -0.00004042    0.00001127
     atom   41 type  1   force =    -0.00000025    0.00001169    0.00000470
     atom   42 type  1   force =     0.00002429    0.00006328   -0.00000842
     atom   43 type  1   force =     0.00000031    0.00004536   -0.00003486
     atom   44 type  1   force =    -0.00002442    0.00005402    0.00000660
     atom   45 type  1   force =    -0.00000183    0.00006661    0.00001032
     atom   46 type  1   force =     0.00000511    0.00002647   -0.00004519
     atom   47 type  1   force =    -0.00000024    0.00002307   -0.00000522
     atom   48 type  1   force =    -0.00001009    0.00004346   -0.00003724
     atom   49 type  1   force =    -0.00000257   -0.00005374   -0.00005426
     atom   50 type  1   force =     0.00000535   -0.00009356   -0.00002891
     atom   51 type  1   force =     0.00000126   -0.00006397    0.00001326
     atom   52 type  1   force =    -0.00000751   -0.00008267   -0.00003806
     atom   53 type  1   force =    -0.00000179   -0.00011574   -0.00002948
     atom   54 type  1   force =     0.00003617   -0.00002791   -0.00007453
     atom   55 type  1   force =     0.00000504   -0.00005417   -0.00004330
     atom   56 type  1   force =    -0.00002917   -0.00005179   -0.00004200
     atom   57 type  1   force =    -0.00000466   -0.00006225    0.00001289
     atom   58 type  1   force =     0.00002672   -0.00002625   -0.00000079
     atom   59 type  1   force =     0.00000974   -0.00004137    0.00002594
     atom   60 type  1   force =    -0.00002671   -0.00002318   -0.00001069
     atom   61 type  1   force =    -0.00000423    0.00000730    0.00004553
     atom   62 type  1   force =    -0.00001692    0.00003357   -0.00009561
     atom   63 type  1   force =     0.00001054   -0.00009689   -0.00004534
     atom   64 type  1   force =     0.00001871    0.00004469   -0.00008588
     atom   65 type  1   force =    -0.00001681   -0.00011789   -0.00001103
     atom   66 type  1   force =    -0.00006186   -0.00008410   -0.00004138
     atom   67 type  1   force =     0.00000831   -0.00018353   -0.00016670
     atom   68 type  1   force =     0.00006009   -0.00008429   -0.00004196
     atom   69 type  1   force =     0.00001106    0.00007580   -0.00010259
     atom   70 type  1   force =    -0.00006328   -0.00007765   -0.00018741
     atom   71 type  1   force =    -0.00002539    0.00013561   -0.00022819
     atom   72 type  1   force =     0.00006539   -0.00006237   -0.00018886
     atom   73 type  1   force =    -0.00001297   -0.00002858    0.00003321
     atom   74 type  1   force =    -0.00004924    0.00009539   -0.00013305
     atom   75 type  1   force =     0.00001677    0.00002518   -0.00001411
     atom   76 type  1   force =     0.00004063    0.00008049   -0.00009748
     atom   77 type  1   force =    -0.00000228   -0.00001018   -0.00001299
     atom   78 type  1   force =    -0.00001190   -0.00006037   -0.00008142
     atom   79 type  1   force =     0.00000017    0.00001816   -0.00005813
     atom   80 type  1   force =     0.00001906   -0.00005485   -0.00008306
     atom   81 type  1   force =     0.00000103   -0.00007388    0.00002711
     atom   82 type  1   force =    -0.00001330   -0.00003053   -0.00000543
     atom   83 type  1   force =     0.00001418   -0.00006699    0.00009813
     atom   84 type  1   force =     0.00002714   -0.00002848    0.00002812
     atom   85 type  1   force =    -0.00004300   -0.00000928    0.00000125
     atom   86 type  1   force =    -0.00001779   -0.00009966    0.00001256
     atom   87 type  1   force =     0.00005779   -0.00014884    0.00000589
     atom   88 type  1   force =     0.00003876   -0.00011203    0.00004853
     atom   89 type  1   force =    -0.00000562   -0.00008479   -0.00001373
     atom   90 type  1   force =    -0.00012669    0.00006505   -0.00006718
     atom   91 type  1   force =     0.00001552    0.00004351    0.00005916
     atom   92 type  1   force =     0.00010435    0.00008628   -0.00005216
     atom   93 type  1   force =    -0.00001117    0.00007599   -0.00014448
     atom   94 type  1   force =     0.00004158   -0.00001184   -0.00002811
     atom   95 type  1   force =    -0.00000037    0.00007301    0.00002221
     atom   96 type  1   force =    -0.00004233   -0.00002008   -0.00001769
     atom   97 type  1   force =     0.00001161   -0.00002871   -0.00001877
     atom   98 type  1   force =    -0.00003407   -0.00001608   -0.00000946
     atom   99 type  1   force =    -0.00000269    0.00009551   -0.00006348
     atom  100 type  1   force =     0.00003619   -0.00001991   -0.00001298
     atom  101 type  3   force =     0.00001797    0.00020245   -0.00045308
     atom  102 type  3   force =    -0.00000591   -0.00000812    0.00056315
     atom  103 type  3   force =    -0.00014146   -0.00008985   -0.00022874
     atom  104 type  3   force =     0.00005598    0.00032358    0.00018550
     atom  105 type  3   force =     0.00019018    0.00006326    0.00013630
     atom  106 type  3   force =     0.00014448    0.00002316   -0.00040710
     atom  107 type  3   force =     0.00001237    0.00024814   -0.00006377
     atom  108 type  3   force =    -0.00006980    0.00024278   -0.00023841
     atom  109 type  3   force =    -0.00012480   -0.00018500    0.00024522
     atom  110 type  3   force =     0.00017191    0.00011457    0.00050609
     atom  111 type  3   force =     0.00020733    0.00019672   -0.00034167
     atom  112 type  3   force =     0.00010138    0.00026324    0.00064499
     atom  113 type  3   force =     0.00008690    0.00037076   -0.00053124
     atom  114 type  3   force =    -0.00009935    0.00000237   -0.00024402
     atom  115 type  3   force =     0.00008430   -0.00025205    0.00009495
     atom  116 type  3   force =    -0.00013191    0.00009070   -0.00053428
     atom  117 type  3   force =    -0.00020392    0.00032581   -0.00000331
     atom  118 type  3   force =     0.00015500   -0.00007924    0.00009448
     atom  119 type  3   force =     0.00023726   -0.00039047    0.00006388
     atom  120 type  3   force =    -0.00005051   -0.00012921    0.00077491
     atom  121 type  3   force =    -0.00002251    0.00018037    0.00022338
     atom  122 type  3   force =    -0.00015253   -0.00005345    0.00052962
     atom  123 type  3   force =    -0.00007667   -0.00032232   -0.00012397
     atom  124 type  3   force =     0.00011728    0.00007788   -0.00018324
     atom  125 type  3   force =     0.00002781   -0.00019514   -0.00075963
     atom  126 type  3   force =     0.00004401    0.00043925   -0.00022646
     atom  127 type  3   force =     0.00005542    0.00021078   -0.00011158
     atom  128 type  3   force =    -0.00011874   -0.00012841    0.00030941
     atom  129 type  3   force =    -0.00004106   -0.00028835   -0.00032195
     atom  130 type  3   force =     0.00031036    0.00035189   -0.00024718
     atom  131 type  3   force =     0.00008264    0.00020844    0.00028173
     atom  132 type  3   force =     0.00002039   -0.00018561   -0.00038489
     atom  133 type  3   force =     0.00002710   -0.00026749    0.00021356
     atom  134 type  3   force =    -0.00006345    0.00028164    0.00045807
     atom  135 type  3   force =    -0.00001466    0.00013985   -0.00033307
     atom  136 type  3   force =     0.00021639   -0.00006176    0.00045989
     atom  137 type  3   force =    -0.00015526   -0.00022706    0.00001596
     atom  138 type  3   force =     0.00012756    0.00026835   -0.00052092
     atom  139 type  3   force =     0.00001360    0.00016420    0.00075000
     atom  140 type  3   force =     0.00024257    0.00005780   -0.00003404
     atom  141 type  3   force =     0.00015041    0.00002681    0.00045847
     atom  142 type  3   force =    -0.00052950    0.00004164    0.00003747
     atom  143 type  3   force =    -0.00011404   -0.00009257   -0.00042002
     atom  144 type  3   force =     0.00021334    0.00007959   -0.00078472
     atom  145 type  3   force =    -0.00001382    0.00028410    0.00027022
     atom  146 type  3   force =     0.00018103    0.00006454    0.00006836
     atom  147 type  3   force =     0.00017309    0.00004828    0.00051514
     atom  148 type  3   force =    -0.00041069   -0.00004189    0.00003116
     atom  149 type  3   force =     0.00009903   -0.00014922    0.00136604
     atom  150 type  4   force =    -0.00009137   -0.00041210   -0.00028224
     atom  151 type  4   force =    -0.00104086    0.00051981   -0.00036238

     Total force =     0.003895     Total SCF correction =     0.000213

     number of scf cycles    =  24
     number of bfgs steps    =  21

     energy   old            =  -12774.0423586908 Ry
     energy   new            =  -12774.0423946987 Ry

     CASE: energy  _new < energy  _old

     new trust radius        =       0.0034389387 bohr
     new conv_thr            =       0.0000000036 Ry


ATOMIC_POSITIONS (angstrom)
Cu       0.000611044  -0.014220248   7.362598197
Cu       1.845094412   1.689503223   7.365300676
Cu       3.689540222  -0.014278871   7.362688846
Cu       5.534090990   1.689336065   7.365152611
Cu       0.000549914   3.392006766   7.367898235
Cu       1.844934788   5.095409330   7.368637641
Cu       3.689578939   3.392373276   7.367607993
Cu       5.534205464   5.095425188   7.368634998
Cu       0.000523303   6.800189281   7.368138197
Cu       1.845180593   8.505142841   7.367698300
Cu       3.689556719   6.799837760   7.368087798
Cu       5.533921617   8.505210963   7.367685280
Cu       0.000508903  10.209597248   7.367088375
Cu       1.845091516  11.913053122   7.365914977
Cu       3.689549729  10.209636869   7.367736531
Cu       5.534022376  11.912915088   7.366041358
Cu       0.000505142  13.616141841   7.363348835
Cu       1.845079082  15.320199901   7.361837158
Cu       3.689595967  13.616297772   7.363498393
Cu       5.534087043  15.320399484   7.361758402
Cu       0.000544786   1.686283724   9.198605331
Cu       1.845013284  -0.016482506   9.195979168
Cu       3.689553650   1.686529040   9.198104321
Cu       5.534119736  -0.016440027   9.196042383
Cu       0.000561427   5.096171138   9.199997277
Cu       1.845020621   3.390954813   9.200253325
Cu       3.689544579   5.095841551   9.200075683
Cu       5.534113666   3.390813201   9.200000338
Cu       0.000541335   8.505123615   9.198872740
Cu       1.844988625   6.800520040   9.199132344
Cu       3.689567490   8.504777003   9.199089751
Cu       5.534152119   6.800565717   9.199043464
Cu       0.000531823  11.914386679   9.198655219
Cu       1.845058171  10.209861159   9.199180171
Cu       3.689560936  11.914824578   9.199014903
Cu       5.534077154  10.209722625   9.199353814
Cu       0.000541593  15.320623528   9.195106336
Cu       1.844985561  13.618115942   9.197063521
Cu       3.689546901  15.320509968   9.195138899
Cu       5.534140602  13.618308765   9.196818234
Cu       0.000415835  -0.018972222  11.040106608
Cu       1.845143179   1.684635346  11.038977253
Cu       3.689556208  -0.018442324  11.039428674
Cu       5.533832294   1.684834995  11.038969227
Cu       0.000484601   3.391389495  11.038745649
Cu       1.845213100   5.097452477  11.040583929
Cu       3.689483775   3.391432195  11.039502866
Cu       5.533878594   5.097218228  11.040162918
Cu       0.000564117   6.801229171  11.041128189
Cu       1.844809249   8.503821042  11.039991134
Cu       3.689575090   6.800467410  11.040485043
Cu       5.534450945   8.503584757  11.040115032
Cu       0.000597539  10.209122701  11.039398271
Cu       1.844759903  11.915176865  11.039302641
Cu       3.689606576  10.208457939  11.038691993
Cu       5.534401012  11.915573385  11.038835625
Cu       0.000630073  13.619514445  11.038992068
Cu       1.844901832  15.320372032  11.040007495
Cu       3.689438160  13.620084045  11.039796222
Cu       5.534166483  15.320254227  11.040020420
Cu       0.000241180   1.687125706  12.874228466
Cu       1.845887948  -0.017742664  12.882162366
Cu       3.689346518   1.685187783  12.877920409
Cu       5.532872698  -0.017769040  12.882155918
Cu       0.000406575   5.096412306  12.878236380
Cu       1.847083817   3.391614742  12.874710435
Cu       3.689329567   5.097794264  12.882091260
Cu       5.531575272   3.391997155  12.874977429
Cu       0.000610083   8.503539219  12.882563810
Cu       1.845293982   6.801162661  12.883507347
Cu       3.689769916   8.503832219  12.879311736
Cu       5.533847311   6.800282479  12.883322593
Cu       0.000801980  11.915472041  12.877466053
Cu       1.843327998  10.207925424  12.875650938
Cu       3.689403231  11.913173654  12.873415792
Cu       5.536070350  10.208629610  12.874692005
Cu       0.000423185  15.318491736  12.885757089
Cu       1.843991194  13.618650667  12.881485024
Cu       3.689476768  15.321068204  12.885738276
Cu       5.535085833  13.618493723  12.881283545
Cu       0.000095662  -0.008835296  14.694185231
Cu       1.846232559   1.690718684  14.691764050
Cu       3.689296602  -0.012688442  14.706952510
Cu       5.531916070   1.691425179  14.691238258
Cu       0.000840517   3.390785943  14.687257670
Cu       1.850611500   5.091475881  14.693359756
Cu       3.688225657   3.386954141  14.697240440
Cu       5.527506542   5.091059078  14.694044053
Cu       0.000739969   6.792136237  14.698608265
Cu       1.839284426   8.509149333  14.696073035
Cu       3.689298145   6.808201995  14.698517072
Cu       5.540239424   8.509371761  14.693305065
Cu       0.000715673  10.213869889  14.698781646
Cu       1.843133108  11.909683737  14.690512129
Cu       3.689734750  10.210000482  14.686422810
Cu       5.536173904  11.909712483  14.689898669
Cu       0.000563347  13.613559573  14.707090821
Cu       1.845099068  15.319845318  14.701753962
Cu       3.689467888  13.608767273  14.692846020
Cu       5.533656225  15.319527984  14.701580919
C        0.004293437   0.747397204  17.636579943
C        0.004235981   2.167055483  17.636098234
C        1.233643303   0.037485616  17.630616309
C        1.232657156   2.876757216  17.625199832
C        2.462246630   0.747080419  17.613056749
C        2.462228439   2.167106573  17.607016898
C        3.693366483   0.036509176  17.602047049
C        3.693394560   2.877505091  17.589954744
C        4.924529446   0.747021915  17.608482625
C        4.924502750   2.167118985  17.599387965
C        6.153117008   0.037427341  17.627933980
C        6.153999771   2.876956355  17.619014683
C        0.004577688   5.006599950  17.624435006
C        0.004994337   6.426326679  17.608673514
C        1.232695736   4.296664974  17.618942129
C        1.235061609   7.136825931  17.610293154
C        2.463319233   5.006888256  17.597930943
C        2.463096192   6.427043995  17.600735041
C        3.693901289   4.297392089  17.588401954
C        3.694293107   7.137663205  17.584530944
C        4.924418243   5.007145152  17.586469633
C        4.925032547   6.426874131  17.586293772
C        6.154427650   4.296962265  17.612388421
C        6.152638072   7.136496028  17.601414434
C        0.004832401   9.266293889  17.601565239
C        0.004496072  10.685977451  17.590848524
C        1.235116647   8.556588949  17.603267581
C        1.235595875  11.396354219  17.601654056
C        2.465278672   9.267044087  17.613473385
C        2.464887881  10.686437815  17.623485105
C        3.693618508   8.557805836  17.609382756
C        3.693304122  11.396512531  17.633837666
C        4.921889418   9.267122393  17.610752065
C        4.921731621  10.686879004  17.619325852
C        6.152619148   8.556522580  17.600911011
C        6.151204701  11.396514112  17.598524599
C        0.004484665  13.526998020  17.594305801
C        0.004571393  14.946786557  17.617754984
C        1.235629736  12.816263078  17.603045975
C        1.233687541  15.656504135  17.619968635
C        2.464313292  13.525950350  17.621273527
C        2.464479066  14.945849613  17.618142024
C        3.693389178  12.815880209  17.629622958
C        3.693599611  15.655598057  17.621030245
C        4.922645013  13.525889578  17.620959528
C        4.922569108  14.945783337  17.617204897
C        6.151349018  12.816381352  17.602336327
C        6.153413424  15.656427849  17.618852373
C        3.528383114   7.049165393  20.752053496
O        2.751630930   7.947206731  20.756589648
O        4.307145212   6.152750325  20.761129594



     Writing output data file gc.save
     Check: negative starting charge=   -0.001554
     NEW-OLD atomic charge density approx. for the potential
     Check: negative starting charge=   -0.001554

     negative rho (up, down):  1.655E-03 0.000E+00

     total cpu time spent up to now is   170535.3 secs

     Self-consistent Calculation

     iteration #  1     ecut=    80.00 Ry     beta=0.70
     Davidson diagonalization with overlap
     ethr =  1.00E-06,  avg # of iterations =  2.2

     Threshold (ethr) on eigenvalues was too large:
     Diagonalizing with lowered threshold

     Davidson diagonalization with overlap
     ethr =  4.89E-09,  avg # of iterations =  3.2

     negative rho (up, down):  1.663E-03 0.000E+00

     total cpu time spent up to now is   171549.8 secs

     total energy              =  -12774.04240747 Ry
     Harris-Foulkes estimate   =  -12774.04241830 Ry
     estimated scf accuracy    <       0.00005869 Ry

     iteration #  2     ecut=    80.00 Ry     beta=0.70
     Davidson diagonalization with overlap
     ethr =  4.49E-09,  avg # of iterations =  2.2

     negative rho (up, down):  1.668E-03 0.000E+00

     total cpu time spent up to now is   171942.5 secs

     total energy              =  -12774.04240759 Ry
     Harris-Foulkes estimate   =  -12774.04241100 Ry
     estimated scf accuracy    <       0.00001119 Ry

     iteration #  3     ecut=    80.00 Ry     beta=0.70
     Davidson diagonalization with overlap
     ethr =  8.56E-10,  avg # of iterations =  3.0

     negative rho (up, down):  1.674E-03 0.000E+00

     total cpu time spent up to now is   172364.8 secs

     total energy              =  -12774.04240801 Ry
     Harris-Foulkes estimate   =  -12774.04240969 Ry
     estimated scf accuracy    <       0.00001550 Ry

     iteration #  4     ecut=    80.00 Ry     beta=0.70
     Davidson diagonalization with overlap
     ethr =  8.56E-10,  avg # of iterations =  2.2

     negative rho (up, down):  1.675E-03 0.000E+00

     total cpu time spent up to now is   172738.9 secs

     total energy              =  -12774.04240867 Ry
     Harris-Foulkes estimate   =  -12774.04240870 Ry
     estimated scf accuracy    <       0.00000022 Ry

     iteration #  5     ecut=    80.00 Ry     beta=0.70
     Davidson diagonalization with overlap
