mpirun: INFO: switching to OpenMPI runtime version 1.10.2

     Program PWSCF v.5.4.0 starts on  7Sep2017 at 22: 8:46 

     This program is part of the open-source Quantum ESPRESSO suite
     for quantum simulation of materials; please cite
         "P. Giannozzi et al., J. Phys.:Condens. Matter 21 395502 (2009);
          URL http://www.quantum-espresso.org", 
     in publications or presentations arising from this work. More details at
     http://www.quantum-espresso.org/quote

     Parallel version (MPI & OpenMP), running on      56 processor cores
     Number of MPI processes:                56
     Threads/MPI process:                     1
     R & G space division:  proc/nbgrp/npool/nimage =      56
     Waiting for input...
     Reading input from standard input
Warning: card &IONS ignored
Warning: card / ignored

     Current dimensions of program PWSCF are:
     Max number of different atomic species (ntypx) = 10
     Max number of k-points (npk) =  40000
     Max angular momentum in pseudopotentials (lmaxx) =  3

     -------------------------------------
     Parameters for Dispersion Correction:
     -------------------------------------
       atom      VdW radius       C_6     

        Cu         2.952        374.666
        C_h        2.744         60.710
        C          2.744         60.710

     Subspace diagonalization in iterative solution of the eigenvalue problem:
     one sub-group per band group will be used
     scalapack distributed-memory algorithm (size of sub-group:  5*  5 procs)

 
     Parallelization info
     --------------------
     sticks:   dense  smooth     PW     G-vecs:    dense   smooth      PW
     Min         204     204     54                36612    36612    4962
     Max         205     205     55                36617    36617    4968
     Sum       11433   11433   3039              2050409  2050409  278033
 


     bravais-lattice index     =            0
     lattice parameter (alat)  =      13.9425  a.u.
     unit-cell volume          =   21209.0878 (a.u.)^3
     number of atoms/cell      =          148
     number of atomic types    =            3
     number of electrons       =      1292.00
     number of Kohn-Sham states=          775
     kinetic-energy cutoff     =      80.0000  Ry
     charge density cutoff     =     320.0000  Ry
     convergence threshold     =      1.0E-08
     mixing beta               =       0.7000
     number of iterations used =            8  local-TF  mixing
     Exchange-correlation      =  SLA  PW   PBX  PBC ( 1  4  3  4 0 0)

     celldm(1)=  13.942539  celldm(2)=   0.000000  celldm(3)=   0.000000
     celldm(4)=   0.000000  celldm(5)=   0.000000  celldm(6)=   0.000000

     crystal axes: (cart. coord. in units of alat)
               a(1) = (   1.000000   0.000000   0.000000 )  
               a(2) = (   0.000000   2.309401   0.000000 )  
               a(3) = (   0.000000   0.000000   3.388418 )  

     reciprocal axes: (cart. coord. in units 2 pi/alat)
               b(1) = (  1.000000  0.000000  0.000000 )  
               b(2) = (  0.000000  0.433013  0.000000 )  
               b(3) = (  0.000000  0.000000  0.295123 )  


     PseudoPot. # 1 for Cu read from file:
     /home/549/hxw549/Short/pseudopotentials/Cu.pbe-n-van_ak.UPF
     MD5 check sum: 601f7c30f7467666bec936e0661ce3e1
     Pseudo is Ultrasoft + core correction, Zval = 11.0
     Generated by new atomic code, or converted to UPF format
     Using radial grid of  867 points,  6 beta functions with: 
                l(1) =   0
                l(2) =   0
                l(3) =   1
                l(4) =   1
                l(5) =   2
                l(6) =   2
     Q(r) pseudized with  8 coefficients,  rinner =    1.400   1.400   1.400
                                                       1.400   1.400

     PseudoPot. # 2 for C  read from file:
     /home/549/hxw549/Short/pseudopotentials/C.star1s-pbe-mt_gipaw.UPF
     MD5 check sum: ef0cb3dee31bd9e4ba2a832a2c716264
     Pseudo is Norm-conserving, Zval =  5.0
     Generated by new atomic code, or converted to UPF format
     Using radial grid of 1073 points,  1 beta functions with: 
                l(1) =   0

     PseudoPot. # 3 for C  read from file:
     /home/549/hxw549/Short/pseudopotentials/C.pbe-mt_gipaw.UPF
     MD5 check sum: 5ac2f21f2c440b14befe521540822c15
     Pseudo is Norm-conserving, Zval =  4.0
     Generated by new atomic code, or converted to UPF format
     Using radial grid of 1073 points,  1 beta functions with: 
                l(1) =   0

     atomic species   valence    mass     pseudopotential
        Cu            11.00    63.54600     Cu( 1.00)
        C_h            5.00    12.01070     C ( 1.00)
        C              4.00    12.01070     C ( 1.00)

     No symmetry found



   Cartesian axes

     site n.     atom                  positions (alat units)
         1           Cu  tau(   1) = (   0.0000000   0.0000567   0.9971194  )
         2           Cu  tau(   2) = (   0.2499927   0.2309760   0.9972946  )
         3           Cu  tau(   3) = (   0.5000000   0.0000313   0.9971490  )
         4           Cu  tau(   4) = (   0.7500073   0.2309760   0.9972946  )
         5           Cu  tau(   5) = (   0.0000000   0.4618437   0.9973425  )
         6           Cu  tau(   6) = (   0.2499840   0.6927701   0.9971914  )
         7           Cu  tau(   7) = (   0.5000000   0.4618722   0.9973119  )
         8           Cu  tau(   8) = (   0.7500160   0.6927701   0.9971914  )
         9           Cu  tau(   9) = (   0.0000000   0.9237521   0.9970621  )
        10           Cu  tau(  10) = (   0.2500157   1.1547420   0.9971373  )
        11           Cu  tau(  11) = (   0.5000000   0.9237453   0.9970727  )
        12           Cu  tau(  12) = (   0.7499843   1.1547420   0.9971373  )
        13           Cu  tau(  13) = (   0.0000000   1.3856555   0.9972830  )
        14           Cu  tau(  14) = (   0.2500029   1.6165618   0.9973242  )
        15           Cu  tau(  15) = (   0.5000000   1.3857014   0.9973005  )
        16           Cu  tau(  16) = (   0.7499971   1.6165618   0.9973242  )
        17           Cu  tau(  17) = (   0.0000000   1.8474941   0.9971969  )
        18           Cu  tau(  18) = (   0.2500043   2.0784518   0.9970745  )
        19           Cu  tau(  19) = (   0.5000000   1.8474499   0.9971773  )
        20           Cu  tau(  20) = (   0.7499957   2.0784518   0.9970745  )
        21           Cu  tau(  21) = (   0.0000000   0.2308065   1.2457643  )
        22           Cu  tau(  22) = (   0.2499892  -0.0001010   1.2455764  )
        23           Cu  tau(  23) = (   0.5000000   0.2308938   1.2456746  )
        24           Cu  tau(  24) = (   0.7500108  -0.0001010   1.2455764  )
        25           Cu  tau(  25) = (   0.0000000   0.6929786   1.2456406  )
        26           Cu  tau(  26) = (   0.2499874   0.4619293   1.2457459  )
        27           Cu  tau(  27) = (   0.5000000   0.6929012   1.2456074  )
        28           Cu  tau(  28) = (   0.7500126   0.4619293   1.2457459  )
        29           Cu  tau(  29) = (   0.0000000   1.1546142   1.2455676  )
        30           Cu  tau(  30) = (   0.2499981   0.9237849   1.2455149  )
        31           Cu  tau(  31) = (   0.5000000   1.1545763   1.2455800  )
        32           Cu  tau(  32) = (   0.7500019   0.9237849   1.2455149  )
        33           Cu  tau(  33) = (   0.0000000   1.6166029   1.2456910  )
        34           Cu  tau(  34) = (   0.2500161   1.3855492   1.2457134  )
        35           Cu  tau(  35) = (   0.5000000   1.6166555   1.2458019  )
        36           Cu  tau(  36) = (   0.7499839   1.3855492   1.2457134  )
        37           Cu  tau(  37) = (   0.0000000   2.0784993   1.2455162  )
        38           Cu  tau(  38) = (   0.2500161   1.8476387   1.2456210  )
        39           Cu  tau(  39) = (   0.5000000   2.0784755   1.2455152  )
        40           Cu  tau(  40) = (   0.7499839   1.8476387   1.2456210  )
        41           Cu  tau(  41) = (   0.0000000  -0.0003182   1.4954305  )
        42           Cu  tau(  42) = (   0.2500224   0.2307186   1.4951678  )
        43           Cu  tau(  43) = (   0.5000000  -0.0002059   1.4952775  )
        44           Cu  tau(  44) = (   0.7499776   0.2307186   1.4951678  )
        45           Cu  tau(  45) = (   0.0000000   0.4620254   1.4950571  )
        46           Cu  tau(  46) = (   0.2500339   0.6931225   1.4952807  )
        47           Cu  tau(  47) = (   0.5000000   0.4619896   1.4952144  )
        48           Cu  tau(  48) = (   0.7499661   0.6931225   1.4952807  )
        49           Cu  tau(  49) = (   0.0000000   0.9238798   1.4954544  )
        50           Cu  tau(  50) = (   0.2499708   1.1544329   1.4953374  )
        51           Cu  tau(  51) = (   0.5000000   0.9237633   1.4954072  )
        52           Cu  tau(  52) = (   0.7500292   1.1544329   1.4953374  )
        53           Cu  tau(  53) = (   0.0000000   1.3854453   1.4952066  )
        54           Cu  tau(  54) = (   0.2499861   1.6167017   1.4951298  )
        55           Cu  tau(  55) = (   0.5000000   1.3853760   1.4951346  )
        56           Cu  tau(  56) = (   0.7500139   1.6167017   1.4951298  )
        57           Cu  tau(  57) = (   0.0000000   1.8477718   1.4952308  )
        58           Cu  tau(  58) = (   0.2499930   2.0785254   1.4954090  )
        59           Cu  tau(  59) = (   0.5000000   1.8478762   1.4953503  )
        60           Cu  tau(  60) = (   0.7500070   2.0785254   1.4954090  )
        61           Cu  tau(  61) = (   0.0000000   0.2310733   1.7440777  )
        62           Cu  tau(  62) = (   0.2501089  -0.0001294   1.7450479  )
        63           Cu  tau(  63) = (   0.5000000   0.2306045   1.7445985  )
        64           Cu  tau(  64) = (   0.7498911  -0.0001294   1.7450479  )
        65           Cu  tau(  65) = (   0.0000000   0.6927994   1.7446059  )
        66           Cu  tau(  66) = (   0.2502918   0.4619532   1.7441197  )
        67           Cu  tau(  67) = (   0.5000000   0.6931011   1.7451318  )
        68           Cu  tau(  68) = (   0.7497082   0.4619532   1.7441197  )
        69           Cu  tau(  69) = (   0.0000000   1.1545789   1.7453503  )
        70           Cu  tau(  70) = (   0.2500220   0.9237908   1.7453835  )
        71           Cu  tau(  71) = (   0.5000000   1.1545999   1.7449118  )
        72           Cu  tau(  72) = (   0.7499780   0.9237908   1.7453835  )
        73           Cu  tau(  73) = (   0.0000000   1.6167791   1.7444075  )
        74           Cu  tau(  74) = (   0.2497438   1.3855115   1.7442733  )
        75           Cu  tau(  75) = (   0.5000000   1.6164906   1.7439233  )
        76           Cu  tau(  76) = (   0.7502562   1.3855115   1.7442733  )
        77           Cu  tau(  77) = (   0.0000000   2.0782721   1.7455014  )
        78           Cu  tau(  78) = (   0.2498426   1.8476765   1.7447807  )
        79           Cu  tau(  79) = (   0.5000000   2.0787016   1.7454002  )
        80           Cu  tau(  80) = (   0.7501574   1.8476765   1.7447807  )
        81           Cu  tau(  81) = (   0.0000000   0.0010732   1.9906710  )
        82           Cu  tau(  82) = (   0.2503054   0.2314650   1.9904877  )
        83           Cu  tau(  83) = (   0.5000000   0.0001335   1.9924670  )
        84           Cu  tau(  84) = (   0.7496946   0.2314650   1.9904877  )
        85           Cu  tau(  85) = (   0.0000000   0.4618379   1.9901778  )
        86           Cu  tau(  86) = (   0.2508441   0.6921348   1.9910282  )
        87           Cu  tau(  87) = (   0.5000000   0.4613052   1.9913358  )
        88           Cu  tau(  88) = (   0.7491559   0.6921348   1.9910282  )
        89           Cu  tau(  89) = (   0.0000000   0.9224699   1.9915918  )
        90           Cu  tau(  90) = (   0.2491275   1.1552920   1.9912642  )
        91           Cu  tau(  91) = (   0.5000000   0.9247757   1.9920574  )
        92           Cu  tau(  92) = (   0.7508725   1.1552920   1.9912642  )
        93           Cu  tau(  93) = (   0.0000000   1.3865904   1.9916296  )
        94           Cu  tau(  94) = (   0.2499532   1.6162906   1.9903050  )
        95           Cu  tau(  95) = (   0.5000000   1.3858063   1.9901800  )
        96           Cu  tau(  96) = (   0.7500468   1.6162906   1.9903050  )
        97           Cu  tau(  97) = (   0.0000000   1.8468318   1.9923212  )
        98           Cu  tau(  98) = (   0.2497561   2.0783183   1.9915134  )
        99           Cu  tau(  99) = (   0.5000000   1.8467805   1.9903847  )
       100           Cu  tau( 100) = (   0.7502439   2.0783183   1.9915134  )
       101           C   tau( 101) = (   0.1166402   0.0962962   2.3888871  )
       102           C   tau( 102) = (   0.1166402   0.2886925   2.3900713  )
       103           C   tau( 103) = (   0.2832731   0.0000435   2.3878440  )
       104           C   tau( 104) = (   0.2831308   0.3848966   2.3886743  )
       105           C   tau( 105) = (   0.4497637   0.0962174   2.3860158  )
       106           C   tau( 106) = (   0.4497678   0.2886629   2.3856823  )
       107           C   tau( 107) = (   0.6166406  -0.0000818   2.3845687  )
       108           C   tau( 108) = (   0.6166406   0.3849277   2.3842391  )
       109           C   tau( 109) = (   0.7835161   0.0962174   2.3860158  )
       110           C   tau( 110) = (   0.7835121   0.2886629   2.3856823  )
       111           C   tau( 111) = (   0.9500081   0.0000435   2.3878440  )
       112           C   tau( 112) = (   0.9501504   0.3848966   2.3886743  )
       113           C   tau( 113) = (   0.1166402   0.6735163   2.3892509  )
       114           C   tau( 114) = (   0.1166402   0.8659398   2.3870960  )
       115           C   tau( 115) = (   0.2831159   0.5773226   2.3882842  )
       116           C   tau( 116) = (   0.2833829   0.9622141   2.3870264  )
       117           C   tau( 117) = (   0.4498491   0.6735984   2.3858047  )
       118           C   tau( 118) = (   0.4498437   0.8660537   2.3866148  )
       119           C   tau( 119) = (   0.6166406   0.5773685   2.3848465  )
       120           C_h tau( 120) = (   0.6166406   0.9623380   2.3860825  )
       121           C   tau( 121) = (   0.7834307   0.6735984   2.3858047  )
       122           C   tau( 122) = (   0.7834375   0.8660537   2.3866148  )
       123           C   tau( 123) = (   0.9501640   0.5773226   2.3882842  )
       124           C   tau( 124) = (   0.9498970   0.9622141   2.3870264  )
       125           C   tau( 125) = (   0.1166402   1.2508867   2.3852683  )
       126           C   tau( 126) = (   0.1166402   1.4433300   2.3840871  )
       127           C   tau( 127) = (   0.2833761   1.1546708   2.3859697  )
       128           C   tau( 128) = (   0.2835347   1.5396104   2.3857176  )
       129           C   tau( 129) = (   0.4501500   1.2509657   2.3878953  )
       130           C   tau( 130) = (   0.4501270   1.4433958   2.3886602  )
       131           C   tau( 131) = (   0.6166406   1.1547731   2.3885512  )
       132           C   tau( 132) = (   0.6166406   1.5396099   2.3901428  )
       133           C   tau( 133) = (   0.7831312   1.2509657   2.3878953  )
       134           C   tau( 134) = (   0.7831543   1.4433958   2.3886602  )
       135           C   tau( 135) = (   0.9499037   1.1546708   2.3859697  )
       136           C   tau( 136) = (   0.9497465   1.5396104   2.3857176  )
       137           C   tau( 137) = (   0.1166402   1.8283510   2.3842019  )
       138           C   tau( 138) = (   0.1166402   2.0207949   2.3863399  )
       139           C   tau( 139) = (   0.2835361   1.7320513   2.3858703  )
       140           C   tau( 140) = (   0.2832582   2.1169980   2.3865340  )
       141           C   tau( 141) = (   0.4500551   1.8282368   2.3882160  )
       142           C   tau( 142) = (   0.4500755   2.0206763   2.3869561  )
       143           C   tau( 143) = (   0.6166406   1.7319961   2.3895398  )
       144           C   tau( 144) = (   0.6166406   2.1168754   2.3870198  )
       145           C   tau( 145) = (   0.7832247   1.8282368   2.3882160  )
       146           C   tau( 146) = (   0.7832044   2.0206763   2.3869561  )
       147           C   tau( 147) = (   0.9497438   1.7320513   2.3858703  )
       148           C   tau( 148) = (   0.9500216   2.1169980   2.3865340  )

     number of k points=     6  gaussian smearing, width (Ry)=  0.1000
                       cart. coord. in units 2pi/alat
        k(    1) = (   0.0000000   0.0000000   0.0000000), wk =   0.2500000
        k(    2) = (   0.0000000  -0.2165064   0.0000000), wk =   0.2500000
        k(    3) = (   0.2500000   0.0000000   0.0000000), wk =   0.5000000
        k(    4) = (   0.2500000  -0.2165064   0.0000000), wk =   0.5000000
        k(    5) = (  -0.5000000   0.0000000   0.0000000), wk =   0.2500000
        k(    6) = (  -0.5000000  -0.2165064   0.0000000), wk =   0.2500000

     Dense  grid:  2050409 G-vectors     FFT dimensions: (  80, 192, 270)

     Largest allocated arrays     est. size (Mb)     dimensions
        Kohn-Sham Wavefunctions        54.44 Mb     (    4604,  775)
        NL pseudopotentials           129.82 Mb     (    4604, 1848)
        Each V/rho on FFT grid          1.17 Mb     (   76800)
        Each G-vector array             0.28 Mb     (   36616)
        G-vector shells                 0.14 Mb     (   17932)
     Largest temporary arrays     est. size (Mb)     dimensions
        Auxiliary wavefunctions       217.78 Mb     (    4604, 3100)
        Each subspace H/S matrix        5.87 Mb     (     620,  620)
        Each <psi_i|beta_j> matrix     21.85 Mb     (    1848,  775)
        Arrays for rho mixing           9.38 Mb     (   76800,    8)

     Initial potential from superposition of free atoms
     Check: negative starting charge=   -0.001843

     starting charge 1266.81751, renormalised to 1292.00000

     negative rho (up, down):  1.879E-03 0.000E+00
     Starting wfc are 1284 randomized atomic wfcs

     total cpu time spent up to now is      107.6 secs

     Self-consistent Calculation

     iteration #  1     ecut=    80.00 Ry     beta=0.70
     Davidson diagonalization with overlap
     c_bands:  1 eigenvalues not converged
     c_bands:  1 eigenvalues not converged
     c_bands:  5 eigenvalues not converged
     ethr =  1.00E-04,  avg # of iterations = 35.7

     negative rho (up, down):  2.723E+01 0.000E+00

     total cpu time spent up to now is     2070.8 secs

     total energy              =   -9475.96583114 Ry
     Harris-Foulkes estimate   =  -17310.56521391 Ry
     estimated scf accuracy    <  180108.03896066 Ry

     iteration #  2     ecut=    80.00 Ry     beta=0.70
     Davidson diagonalization with overlap
     ethr =  1.00E-02,  avg # of iterations = 12.3

     negative rho (up, down):  3.149E+01 0.000E+00

     total cpu time spent up to now is     2985.6 secs

     total energy              =  -12205.66437647 Ry
     Harris-Foulkes estimate   =  -13665.33010108 Ry
     estimated scf accuracy    <   23972.65387095 Ry

     iteration #  3     ecut=    80.00 Ry     beta=0.70
     Davidson diagonalization with overlap
     ethr =  1.00E-02,  avg # of iterations =  7.5

     negative rho (up, down):  3.202E+01 0.000E+00

     total cpu time spent up to now is     3522.8 secs

     total energy              =  -12462.85002745 Ry
     Harris-Foulkes estimate   =  -13405.49674967 Ry
     estimated scf accuracy    <    5807.90491837 Ry

     iteration #  4     ecut=    80.00 Ry     beta=0.70
     Davidson diagonalization with overlap
     ethr =  1.00E-02,  avg # of iterations =  5.8

     negative rho (up, down):  2.379E+01 0.000E+00

     total cpu time spent up to now is     4004.5 secs

     total energy              =  -12847.68247746 Ry
     Harris-Foulkes estimate   =  -13083.88975811 Ry
     estimated scf accuracy    <    1758.99475226 Ry

     iteration #  5     ecut=    80.00 Ry     beta=0.70
     Davidson diagonalization with overlap
     ethr =  1.00E-02,  avg # of iterations =  3.5

     negative rho (up, down):  1.865E+01 0.000E+00

     total cpu time spent up to now is     4276.1 secs

     total energy              =  -12845.98398509 Ry
     Harris-Foulkes estimate   =  -12960.78620591 Ry
     estimated scf accuracy    <    1289.60849357 Ry

     iteration #  6     ecut=    80.00 Ry     beta=0.70
     Davidson diagonalization with overlap
     ethr =  1.00E-02,  avg # of iterations =  3.0

     negative rho (up, down):  1.293E+01 0.000E+00

     total cpu time spent up to now is     4488.0 secs

     total energy              =  -12834.43374730 Ry
     Harris-Foulkes estimate   =  -12908.39245165 Ry
     estimated scf accuracy    <     569.85140905 Ry

     iteration #  7     ecut=    80.00 Ry     beta=0.70
     Davidson diagonalization with overlap
     ethr =  1.00E-02,  avg # of iterations =  2.0

     negative rho (up, down):  9.403E+00 0.000E+00

     total cpu time spent up to now is     4670.2 secs

     total energy              =  -12810.63383344 Ry
     Harris-Foulkes estimate   =  -12852.09541567 Ry
     estimated scf accuracy    <     448.76205811 Ry

     iteration #  8     ecut=    80.00 Ry     beta=0.70
     Davidson diagonalization with overlap
     ethr =  1.00E-02,  avg # of iterations =  2.0

     negative rho (up, down):  7.259E+00 0.000E+00

     total cpu time spent up to now is     4848.5 secs

     total energy              =  -12788.12833045 Ry
     Harris-Foulkes estimate   =  -12824.89459918 Ry
     estimated scf accuracy    <     477.02408600 Ry

     iteration #  9     ecut=    80.00 Ry     beta=0.70
     Davidson diagonalization with overlap
     ethr =  1.00E-02,  avg # of iterations =  1.8

     negative rho (up, down):  5.529E+00 0.000E+00

     total cpu time spent up to now is     5025.0 secs

     total energy              =  -12780.87086965 Ry
     Harris-Foulkes estimate   =  -12800.08162171 Ry
     estimated scf accuracy    <     190.18245750 Ry

     iteration # 10     ecut=    80.00 Ry     beta=0.70
     Davidson diagonalization with overlap
     ethr =  1.00E-02,  avg # of iterations =  1.3

     negative rho (up, down):  1.172E+00 0.000E+00

     total cpu time spent up to now is     5195.1 secs

     total energy              =  -12735.25953412 Ry
     Harris-Foulkes estimate   =  -12782.39763585 Ry
     estimated scf accuracy    <     147.65328069 Ry

     iteration # 11     ecut=    80.00 Ry     beta=0.70
     Davidson diagonalization with overlap
     ethr =  1.00E-02,  avg # of iterations =  3.0

     negative rho (up, down):  9.487E-01 0.000E+00

     total cpu time spent up to now is     5386.5 secs

     total energy              =  -12727.41390847 Ry
     Harris-Foulkes estimate   =  -12744.86837090 Ry
     estimated scf accuracy    <     350.92313768 Ry

     iteration # 12     ecut=    80.00 Ry     beta=0.70
     Davidson diagonalization with overlap
     ethr =  1.00E-02,  avg # of iterations =  1.3

     negative rho (up, down):  6.430E-01 0.000E+00

     total cpu time spent up to now is     5557.4 secs

     total energy              =  -12723.44416926 Ry
     Harris-Foulkes estimate   =  -12738.78097138 Ry
     estimated scf accuracy    <     259.01298076 Ry

     iteration # 13     ecut=    80.00 Ry     beta=0.70
     Davidson diagonalization with overlap
     ethr =  1.00E-02,  avg # of iterations =  2.0

     negative rho (up, down):  3.937E+00 0.000E+00

     total cpu time spent up to now is     5733.8 secs

     total energy              =  -12717.03833055 Ry
     Harris-Foulkes estimate   =  -12732.96310966 Ry
     estimated scf accuracy    <      92.49203968 Ry

     iteration # 14     ecut=    80.00 Ry     beta=0.70
     Davidson diagonalization with overlap
     ethr =  7.16E-03,  avg # of iterations =  2.0

     negative rho (up, down):  5.963E+00 0.000E+00

     total cpu time spent up to now is     5911.8 secs

     total energy              =  -12718.45128852 Ry
     Harris-Foulkes estimate   =  -12723.37241495 Ry
     estimated scf accuracy    <      46.07245294 Ry

     iteration # 15     ecut=    80.00 Ry     beta=0.70
     Davidson diagonalization with overlap
     ethr =  3.57E-03,  avg # of iterations =  2.2

     negative rho (up, down):  5.433E+00 0.000E+00

     total cpu time spent up to now is     6092.7 secs

     total energy              =  -12715.92337521 Ry
     Harris-Foulkes estimate   =  -12719.71787797 Ry
     estimated scf accuracy    <      31.70091309 Ry

     iteration # 16     ecut=    80.00 Ry     beta=0.70
     Davidson diagonalization with overlap
     ethr =  2.45E-03,  avg # of iterations =  2.3

     negative rho (up, down):  5.159E+00 0.000E+00

     total cpu time spent up to now is     6274.0 secs

     total energy              =  -12714.40597555 Ry
     Harris-Foulkes estimate   =  -12717.07446753 Ry
     estimated scf accuracy    <      20.53645098 Ry

     iteration # 17     ecut=    80.00 Ry     beta=0.70
     Davidson diagonalization with overlap
     ethr =  1.59E-03,  avg # of iterations =  7.0

     negative rho (up, down):  4.919E+00 0.000E+00

     total cpu time spent up to now is     6510.6 secs

     total energy              =  -12714.04684749 Ry
     Harris-Foulkes estimate   =  -12714.96478659 Ry
     estimated scf accuracy    <      13.36902801 Ry

     iteration # 18     ecut=    80.00 Ry     beta=0.70
     Davidson diagonalization with overlap
     ethr =  1.03E-03,  avg # of iterations =  5.0

     negative rho (up, down):  3.802E+00 0.000E+00

     total cpu time spent up to now is     6723.0 secs

     total energy              =  -12712.45196939 Ry
     Harris-Foulkes estimate   =  -12714.38185711 Ry
     estimated scf accuracy    <      10.31293285 Ry

     iteration # 19     ecut=    80.00 Ry     beta=0.70
     Davidson diagonalization with overlap
     ethr =  7.98E-04,  avg # of iterations =  3.8

     negative rho (up, down):  3.326E+00 0.000E+00

     total cpu time spent up to now is     6922.1 secs

     total energy              =  -12711.91980649 Ry
     Harris-Foulkes estimate   =  -12712.75154414 Ry
     estimated scf accuracy    <       7.51888246 Ry

     iteration # 20     ecut=    80.00 Ry     beta=0.70
     Davidson diagonalization with overlap
     ethr =  5.82E-04,  avg # of iterations =  2.3

     negative rho (up, down):  2.430E+00 0.000E+00

     total cpu time spent up to now is     7104.6 secs

     total energy              =  -12711.38074217 Ry
     Harris-Foulkes estimate   =  -12712.07182947 Ry
     estimated scf accuracy    <       8.67893238 Ry

     iteration # 21     ecut=    80.00 Ry     beta=0.70
     Davidson diagonalization with overlap
     ethr =  5.82E-04,  avg # of iterations =  1.2

     negative rho (up, down):  2.502E+00 0.000E+00

     total cpu time spent up to now is     7273.5 secs

     total energy              =  -12711.37777918 Ry
     Harris-Foulkes estimate   =  -12711.61247946 Ry
     estimated scf accuracy    <       8.28143203 Ry

     iteration # 22     ecut=    80.00 Ry     beta=0.70
     Davidson diagonalization with overlap
     ethr =  5.82E-04,  avg # of iterations =  1.8

     negative rho (up, down):  1.387E+00 0.000E+00

     total cpu time spent up to now is     7448.8 secs

     total energy              =  -12710.38317745 Ry
     Harris-Foulkes estimate   =  -12711.71591291 Ry
     estimated scf accuracy    <       6.34360048 Ry

     iteration # 23     ecut=    80.00 Ry     beta=0.70
     Davidson diagonalization with overlap
     ethr =  4.91E-04,  avg # of iterations =  3.3

     negative rho (up, down):  1.730E-01 0.000E+00

     total cpu time spent up to now is     7643.0 secs

     total energy              =  -12708.63680033 Ry
     Harris-Foulkes estimate   =  -12710.52119640 Ry
     estimated scf accuracy    <       5.40884865 Ry

     iteration # 24     ecut=    80.00 Ry     beta=0.70
     Davidson diagonalization with overlap
     ethr =  4.19E-04,  avg # of iterations =  2.7

     negative rho (up, down):  2.587E-08 0.000E+00

     total cpu time spent up to now is     7829.2 secs

     total energy              =  -12708.04588092 Ry
     Harris-Foulkes estimate   =  -12708.96023029 Ry
     estimated scf accuracy    <       9.18510503 Ry

     iteration # 25     ecut=    80.00 Ry     beta=0.70
     Davidson diagonalization with overlap
     ethr =  4.19E-04,  avg # of iterations =  5.2

     negative rho (up, down):  7.583E-07 0.000E+00

     total cpu time spent up to now is     8042.2 secs

     total energy              =  -12708.06539936 Ry
     Harris-Foulkes estimate   =  -12708.38402978 Ry
     estimated scf accuracy    <       3.90345340 Ry

     iteration # 26     ecut=    80.00 Ry     beta=0.70
     Davidson diagonalization with overlap
     c_bands:  5 eigenvalues not converged
     ethr =  3.02E-04,  avg # of iterations = 14.0

     negative rho (up, down):  2.297E-01 0.000E+00

     total cpu time spent up to now is     8365.0 secs

     total energy              =  -12707.79457989 Ry
     Harris-Foulkes estimate   =  -12708.30833627 Ry
     estimated scf accuracy    <       2.67758156 Ry

     iteration # 27     ecut=    80.00 Ry     beta=0.70
     Davidson diagonalization with overlap
     ethr =  2.07E-04,  avg # of iterations =  3.2

     negative rho (up, down):  2.991E-01 0.000E+00

     total cpu time spent up to now is     8556.5 secs

     total energy              =  -12707.41867825 Ry
     Harris-Foulkes estimate   =  -12707.83841537 Ry
     estimated scf accuracy    <       1.93849397 Ry

     iteration # 28     ecut=    80.00 Ry     beta=0.70
     Davidson diagonalization with overlap
     ethr =  1.50E-04,  avg # of iterations =  7.0

     negative rho (up, down):  2.419E-01 0.000E+00

     total cpu time spent up to now is     8792.2 secs

     total energy              =  -12707.16651313 Ry
     Harris-Foulkes estimate   =  -12707.47854774 Ry
     estimated scf accuracy    <       1.22697696 Ry

     iteration # 29     ecut=    80.00 Ry     beta=0.70
     Davidson diagonalization with overlap
     ethr =  9.50E-05,  avg # of iterations =  9.5

     negative rho (up, down):  9.009E-02 0.000E+00

     total cpu time spent up to now is     9069.9 secs

     total energy              =  -12707.10800217 Ry
     Harris-Foulkes estimate   =  -12707.24875798 Ry
     estimated scf accuracy    <       0.81234904 Ry

     iteration # 30     ecut=    80.00 Ry     beta=0.70
     Davidson diagonalization with overlap
     ethr =  6.29E-05,  avg # of iterations =  8.8

     negative rho (up, down):  5.582E-02 0.000E+00

     total cpu time spent up to now is     9344.4 secs

     total energy              =  -12707.12826977 Ry
     Harris-Foulkes estimate   =  -12707.16049246 Ry
     estimated scf accuracy    <       0.34724308 Ry

     iteration # 31     ecut=    80.00 Ry     beta=0.70
     Davidson diagonalization with overlap
     ethr =  2.69E-05,  avg # of iterations =  3.0

     negative rho (up, down):  8.767E-02 0.000E+00

     total cpu time spent up to now is     9539.4 secs

     total energy              =  -12707.13507372 Ry
     Harris-Foulkes estimate   =  -12707.15685385 Ry
     estimated scf accuracy    <       0.19062290 Ry

     iteration # 32     ecut=    80.00 Ry     beta=0.70
     Davidson diagonalization with overlap
     ethr =  1.48E-05,  avg # of iterations =  8.2

     negative rho (up, down):  1.267E-01 0.000E+00

     total cpu time spent up to now is     9796.9 secs

     total energy              =  -12707.13764225 Ry
     Harris-Foulkes estimate   =  -12707.14995225 Ry
     estimated scf accuracy    <       0.08847090 Ry

     iteration # 33     ecut=    80.00 Ry     beta=0.70
     Davidson diagonalization with overlap
     ethr =  6.85E-06,  avg # of iterations =  6.5

     negative rho (up, down):  2.738E-02 0.000E+00

     total cpu time spent up to now is    10035.9 secs

     total energy              =  -12707.14133169 Ry
     Harris-Foulkes estimate   =  -12707.14508778 Ry
     estimated scf accuracy    <       0.02896489 Ry

     iteration # 34     ecut=    80.00 Ry     beta=0.70
     Davidson diagonalization with overlap
     c_bands:  1 eigenvalues not converged
     ethr =  2.24E-06,  avg # of iterations =  9.5

     negative rho (up, down):  1.757E-02 0.000E+00

     total cpu time spent up to now is    10318.1 secs

     total energy              =  -12707.14243253 Ry
     Harris-Foulkes estimate   =  -12707.14348352 Ry
     estimated scf accuracy    <       0.00794994 Ry

     iteration # 35     ecut=    80.00 Ry     beta=0.70
     Davidson diagonalization with overlap
     c_bands:  1 eigenvalues not converged
     ethr =  6.15E-07,  avg # of iterations =  6.7

     negative rho (up, down):  5.504E-03 0.000E+00

     total cpu time spent up to now is    10557.2 secs

     total energy              =  -12707.14272363 Ry
     Harris-Foulkes estimate   =  -12707.14291618 Ry
     estimated scf accuracy    <       0.00105339 Ry

     iteration # 36     ecut=    80.00 Ry     beta=0.70
     Davidson diagonalization with overlap
     ethr =  8.15E-08,  avg # of iterations =  6.8

     negative rho (up, down):  6.309E-03 0.000E+00

     total cpu time spent up to now is    10808.7 secs

     total energy              =  -12707.14304696 Ry
     Harris-Foulkes estimate   =  -12707.14282334 Ry
     estimated scf accuracy    <       0.00027399 Ry

     iteration # 37     ecut=    80.00 Ry     beta=0.70
     Davidson diagonalization with overlap
     ethr =  2.12E-08,  avg # of iterations = 10.0

     negative rho (up, down):  5.846E-03 0.000E+00

     total cpu time spent up to now is    11105.7 secs

     total energy              =  -12707.14309765 Ry
     Harris-Foulkes estimate   =  -12707.14307863 Ry
     estimated scf accuracy    <       0.00012387 Ry

     iteration # 38     ecut=    80.00 Ry     beta=0.70
     Davidson diagonalization with overlap
     c_bands:  1 eigenvalues not converged
     ethr =  9.59E-09,  avg # of iterations =  7.5

     negative rho (up, down):  3.187E-03 0.000E+00

     total cpu time spent up to now is    11362.3 secs

     total energy              =  -12707.14308053 Ry
     Harris-Foulkes estimate   =  -12707.14311203 Ry
     estimated scf accuracy    <       0.00006114 Ry

     iteration # 39     ecut=    80.00 Ry     beta=0.70
     Davidson diagonalization with overlap
     c_bands:  1 eigenvalues not converged
     ethr =  4.73E-09,  avg # of iterations = 11.7

     negative rho (up, down):  3.280E-03 0.000E+00

     total cpu time spent up to now is    11668.2 secs

     total energy              =  -12707.14308826 Ry
     Harris-Foulkes estimate   =  -12707.14308769 Ry
     estimated scf accuracy    <       0.00002781 Ry

     iteration # 40     ecut=    80.00 Ry     beta=0.70
     Davidson diagonalization with overlap
     ethr =  2.15E-09,  avg # of iterations =  4.2

     negative rho (up, down):  2.173E-03 0.000E+00

     total cpu time spent up to now is    11881.9 secs

     total energy              =  -12707.14308456 Ry
     Harris-Foulkes estimate   =  -12707.14309131 Ry
     estimated scf accuracy    <       0.00000451 Ry

     iteration # 41     ecut=    80.00 Ry     beta=0.70
     Davidson diagonalization with overlap
     ethr =  3.49E-10,  avg # of iterations =  3.8

     negative rho (up, down):  2.099E-03 0.000E+00

     total cpu time spent up to now is    12102.2 secs

     total energy              =  -12707.14308479 Ry
     Harris-Foulkes estimate   =  -12707.14308515 Ry
     estimated scf accuracy    <       0.00000131 Ry

     iteration # 42     ecut=    80.00 Ry     beta=0.70
     Davidson diagonalization with overlap
     ethr =  1.02E-10,  avg # of iterations =  2.5

     negative rho (up, down):  2.153E-03 0.000E+00

     total cpu time spent up to now is    12299.4 secs

     total energy              =  -12707.14308528 Ry
     Harris-Foulkes estimate   =  -12707.14308496 Ry
     estimated scf accuracy    <       0.00000032 Ry

     iteration # 43     ecut=    80.00 Ry     beta=0.70
     Davidson diagonalization with overlap
     ethr =  2.48E-11,  avg # of iterations =  3.0

     negative rho (up, down):  2.175E-03 0.000E+00

     total cpu time spent up to now is    12502.2 secs

     total energy              =  -12707.14308545 Ry
     Harris-Foulkes estimate   =  -12707.14308530 Ry
     estimated scf accuracy    <       0.00000012 Ry

     iteration # 44     ecut=    80.00 Ry     beta=0.70
     Davidson diagonalization with overlap
     ethr =  9.21E-12,  avg # of iterations =  3.0

     negative rho (up, down):  2.188E-03 0.000E+00

     total cpu time spent up to now is    12709.6 secs

     total energy              =  -12707.14308551 Ry
     Harris-Foulkes estimate   =  -12707.14308546 Ry
     estimated scf accuracy    <       0.00000009 Ry

     iteration # 45     ecut=    80.00 Ry     beta=0.70
     Davidson diagonalization with overlap
     ethr =  7.18E-12,  avg # of iterations =  2.7

     negative rho (up, down):  2.187E-03 0.000E+00

     total cpu time spent up to now is    12903.6 secs

     total energy              =  -12707.14308554 Ry
     Harris-Foulkes estimate   =  -12707.14308552 Ry
     estimated scf accuracy    <       0.00000003 Ry

     iteration # 46     ecut=    80.00 Ry     beta=0.70
     Davidson diagonalization with overlap
     ethr =  2.37E-12,  avg # of iterations =  2.0

     negative rho (up, down):  2.145E-03 0.000E+00

     total cpu time spent up to now is    13086.7 secs

     total energy              =  -12707.14308558 Ry
     Harris-Foulkes estimate   =  -12707.14308555 Ry
     estimated scf accuracy    <       0.00000001 Ry

     iteration # 47     ecut=    80.00 Ry     beta=0.70
     Davidson diagonalization with overlap
     ethr =  1.15E-12,  avg # of iterations =  3.0

     negative rho (up, down):  2.115E-03 0.000E+00

     total cpu time spent up to now is    13281.6 secs

     End of self-consistent calculation

          k = 0.0000 0.0000 0.0000 (256287 PWs)   bands (ev):

   -17.2781 -16.2343 -16.0881 -15.4290 -15.0441 -14.7910 -14.6908 -14.2533
   -14.1991 -14.1397 -14.1242 -13.4665 -13.3250 -13.1549 -13.1226 -13.0866
   -13.0800 -11.6709 -11.5329 -11.4851 -11.3894 -11.2057 -10.3529  -9.7677
    -9.7613  -9.6262  -9.5238  -8.9874  -8.7996  -8.6725  -8.6025  -8.0452
    -7.9033  -7.7627  -7.6410  -7.5819  -7.5737  -7.5352  -7.5244  -6.3598
    -6.3492  -6.1249  -6.0215  -6.0203  -5.9494  -5.8903  -5.8599  -5.8447
    -5.4976  -5.4848  -5.3009  -4.8915  -4.8398  -4.7987  -4.6350  -4.6215
    -4.5831  -4.4254  -4.2562  -4.1470  -3.9891  -3.9876  -3.9694  -3.9468
    -3.6191  -3.5500  -3.5280  -3.5237  -3.4215  -3.4183  -3.4068  -3.4001
    -3.2767  -3.1865  -3.1229  -3.0588  -3.0160  -3.0075  -3.0072  -3.0058
    -2.9915  -2.8585  -2.8350  -2.7990  -2.7813  -2.7453  -2.7396  -2.7387
    -2.7187  -2.7143  -2.5325  -2.4332  -2.3771  -2.3763  -2.3390  -2.3360
    -2.1942  -2.1918  -2.1821  -2.1769  -2.1518  -2.1518  -2.1516  -2.1514
    -2.1133  -2.0783  -2.0778  -2.0357  -2.0210  -2.0208  -2.0207  -2.0203
    -1.9603  -1.8414  -1.7768  -1.7427  -1.7384  -1.7377  -1.7374  -1.7027
    -1.6927  -1.6715  -1.6582  -1.6565  -1.6107  -1.6013  -1.5892  -1.5702
    -1.5641  -1.5632  -1.5611  -1.5508  -1.5395  -1.5350  -1.5346  -1.5153
    -1.5138  -1.4564  -1.4411  -1.4269  -1.4154  -1.3839  -1.3812  -1.3766
    -1.3715  -1.3527  -1.2988  -1.2935  -1.2635  -1.2619  -1.2505  -1.2113
    -1.2111  -1.1915  -1.1895  -1.1755  -1.1667  -1.1639  -1.1273  -1.1194
    -1.1095  -1.1067  -1.0492  -1.0464  -1.0354  -1.0296  -1.0267  -1.0246
    -1.0243  -1.0218  -1.0204  -1.0155  -1.0151  -0.9980  -0.9959  -0.9809
    -0.9515  -0.9418  -0.9378  -0.9342  -0.9231  -0.9187  -0.9177  -0.9170
    -0.8982  -0.8581  -0.8579  -0.8566  -0.8561  -0.8553  -0.8544  -0.8535
    -0.8525  -0.8525  -0.8491  -0.8480  -0.8480  -0.8476  -0.8455  -0.8431
    -0.8416  -0.8331  -0.8296  -0.8290  -0.8229  -0.7854  -0.6895  -0.6894
    -0.6855  -0.6831  -0.6823  -0.6602  -0.6583  -0.6413  -0.6410  -0.6195
    -0.6194  -0.6054  -0.6041  -0.6027  -0.6022  -0.5875  -0.5642  -0.5635
    -0.5616  -0.5611  -0.5536  -0.5527  -0.5419  -0.5418  -0.4919  -0.4918
    -0.4380  -0.4376  -0.4273  -0.4257  -0.4255  -0.4243  -0.4104  -0.4102
    -0.4046  -0.4045  -0.4042  -0.4038  -0.3994  -0.3994  -0.3848  -0.3848
    -0.3838  -0.3768  -0.3753  -0.3743  -0.3508  -0.3502  -0.2991  -0.2986
    -0.2966  -0.2908  -0.2907  -0.2642  -0.2641  -0.2641  -0.2641  -0.2488
    -0.2469  -0.2465  -0.2422  -0.2421  -0.2236  -0.2210  -0.2193  -0.2191
    -0.2146  -0.2143  -0.2142  -0.2138  -0.2113  -0.2085  -0.1926  -0.1898
    -0.1891  -0.1879  -0.1872  -0.1683  -0.1203  -0.1200  -0.1179  -0.1178
    -0.1152  -0.0739  -0.0707  -0.0694  -0.0684  -0.0676  -0.0623  -0.0618
    -0.0616  -0.0614  -0.0613  -0.0530  -0.0465  -0.0343  -0.0108  -0.0089
    -0.0074  -0.0070   0.0013   0.0180   0.0214   0.0218   0.0220   0.0265
     0.0303   0.0457   0.0464   0.0479   0.0486   0.0492   0.0495   0.0630
     0.0639   0.0640   0.0641   0.0691   0.0770   0.0773   0.0781   0.1002
     0.1023   0.1278   0.1355   0.1363   0.1577   0.1647   0.1651   0.1893
     0.1938   0.2318   0.2380   0.2387   0.2389   0.2401   0.2435   0.2482
     0.2706   0.2735   0.2739   0.2742   0.2744   0.2841   0.2844   0.2941
     0.3266   0.3410   0.3410   0.3472   0.3496   0.3507   0.3508   0.3776
     0.3835   0.3837   0.3844   0.3846   0.4015   0.4150   0.4184   0.4226
     0.4236   0.4369   0.4375   0.4393   0.4406   0.4782   0.4795   0.4940
     0.4947   0.4968   0.4971   0.4973   0.5088   0.5253   0.5283   0.5309
     0.5332   0.5347   0.5359   0.5360   0.5377   0.5400   0.5471   0.5475
     0.5488   0.5537   0.5545   0.5558   0.5630   0.5644   0.5893   0.5960
     0.6060   0.6061   0.6165   0.6167   0.6487   0.6499   0.6500   0.6508
     0.6528   0.6530   0.6537   0.6542   0.6647   0.6659   0.6742   0.6783
     0.6792   0.6794   0.6810   0.6876   0.6879   0.6972   0.6976   0.7023
     0.7201   0.7209   0.7211   0.7223   0.7313   0.7325   0.7390   0.7429
     0.7465   0.7487   0.7488   0.7488   0.7554   0.7564   0.7596   0.7616
     0.7686   0.7831   0.8060   0.8062   0.8165   0.8179   0.8236   0.8245
     0.8246   0.8255   0.8559   0.8564   0.8700   0.8711   0.8764   0.8765
     0.8910   0.8912   0.9002   0.9006   0.9010   0.9027   0.9093   0.9230
     0.9369   0.9375   0.9396   0.9421   0.9427   0.9439   0.9580   0.9659
     0.9744   0.9779   0.9863   0.9864   0.9972   1.0007   1.0106   1.0113
     1.0132   1.0133   1.0139   1.0145   1.0242   1.0246   1.0265   1.0288
     1.0289   1.0297   1.0311   1.0440   1.0441   1.0627   1.0629   1.0643
     1.0653   1.0702   1.0738   1.1003   1.1045   1.1062   1.1084   1.1089
     1.1103   1.1122   1.1127   1.1177   1.1198   1.1199   1.1201   1.1201
     1.1211   1.1359   1.1363   1.1607   1.1665   1.1837   1.1842   1.1942
     1.2017   1.2031   1.2038   1.2055   1.2060   1.2099   1.2169   1.2230
     1.2276   1.2337   1.2393   1.2400   1.2404   1.2409   1.2452   1.2466
     1.2468   1.2552   1.2741   1.2750   1.2759   1.2763   1.2779   1.2781
     1.2784   1.2785   1.2945   1.2949   1.2964   1.3025   1.3104   1.3108
     1.3114   1.3119   1.3121   1.3219   1.3239   1.3249   1.3357   1.3446
     1.3519   1.3555   1.3560   1.3565   1.3574   1.3590   1.3594   1.3718
     1.3842   1.3869   1.3884   1.3933   1.4033   1.4164   1.4165   1.4225
     1.4229   1.4229   1.4295   1.4298   1.4328   1.4345   1.4347   1.4348
     1.4350   1.4371   1.4386   1.4460   1.4465   1.4504   1.4677   1.4678
     1.4685   1.4686   1.4721   1.4797   1.4809   1.4952   1.5053   1.5081
     1.5100   1.5209   1.5570   1.5577   1.5605   1.5615   1.5795   1.5800
     1.5802   1.5879   1.5912   1.6062   1.6297   1.6324   1.6327   1.6332
     1.6337   1.6435   1.6441   1.6444   1.9002   1.9561   2.1054   2.1082
     2.1480   2.1549   2.2004   2.2055   2.2063   2.2070   2.2171   2.2249
     2.2256   2.2265   2.3988   2.4020   2.4564   2.4657   2.4672   2.4676
     2.4783   2.4809   2.6486   2.7205   2.7254   2.7259   2.7514   2.9752
     2.9888   3.0242   3.1689   3.5203   3.5228   3.8145   3.8183   3.8455
     3.8525   3.8550   3.8557   3.8914   3.9676   3.9803   3.9863   4.0061
     4.0085   4.0094   4.0099   4.0134   4.0137   4.2329   4.2488   4.2493
     4.2503   4.3597   4.3990   4.6600   4.7663   4.8557   4.8613   4.9294
     5.3053   5.3920   5.3989   5.4061   5.7027   5.7097   5.7223   5.7242
     5.9153   5.9300   6.1996   6.3435   6.3468   6.4081   6.4158   6.4719
     6.4751   6.4786   6.4836   6.5742   6.5883   6.6035   6.7166   6.7752
     6.7806   6.7938   6.8120   6.8186   7.0125   7.0511   7.0531   7.0625
     7.0724   7.0920   7.3559   7.3578   7.5097   7.5490   7.5518   7.6931
     7.6962   7.7073   7.7093   8.0008   8.0384   8.0915   8.1382   8.1910
     8.2189   8.3001   8.3037   8.3053   8.3354   8.3380   8.3456   8.4029
     8.4077   8.4275   8.4886   8.5588   8.5683   8.5765   8.6619   8.6648
     8.6674   8.6684   8.8141   8.8166   8.8289   8.8327   8.8383   8.8399
     9.1071   9.1094   9.1103   9.1161   9.1200   9.1391   9.1742   9.3152
     9.3447   9.3507   9.4219   9.4797   9.4901   9.5770   9.5785   9.6614
     9.6707   9.8123   9.8311  10.0438  10.0440  10.1219  10.1461

          k = 0.0000-0.2165 0.0000 (256176 PWs)   bands (ev):

   -17.2776 -16.3027 -15.8952 -15.6603 -15.0727 -14.6791 -14.3581 -14.3393
   -14.2664 -14.2323 -13.8274 -13.7714 -13.7211 -13.6936 -12.6032 -12.4432
   -12.3860 -12.3080 -12.1467 -12.0802 -10.6528 -10.5535 -10.5204 -10.3925
    -9.4573  -9.4378  -9.3002  -9.1206  -8.9872  -8.9576  -8.4050  -8.2853
    -8.2126  -8.1621  -7.4793  -7.3431  -7.0138  -6.9727  -6.9079  -6.8952
    -6.8502  -6.8420  -6.1896  -6.0829  -5.8908  -5.8824  -5.5194  -5.3858
    -5.2918  -5.2134  -5.1399  -4.9646  -4.9126  -4.8415  -4.8380  -4.7412
    -4.6840  -4.6317  -4.6115  -4.4705  -4.1558  -4.0480  -3.8265  -3.6950
    -3.6629  -3.5905  -3.3155  -3.3049  -3.3018  -3.3010  -3.2459  -3.2268
    -3.1384  -3.0932  -3.0675  -3.0483  -3.0398  -3.0310  -3.0041  -2.8979
    -2.8690  -2.8673  -2.8295  -2.7903  -2.7745  -2.7126  -2.6967  -2.6014
    -2.5878  -2.5876  -2.5783  -2.5782  -2.5777  -2.5766  -2.4773  -2.3689
    -2.3364  -2.3328  -2.2526  -2.2509  -2.2469  -2.2452  -2.1485  -2.1452
    -2.1450  -2.1436  -2.0853  -2.0412  -1.9865  -1.9864  -1.9610  -1.9609
    -1.8761  -1.8650  -1.8547  -1.8099  -1.7905  -1.7827  -1.7683  -1.7673
    -1.7495  -1.7493  -1.7405  -1.7405  -1.7225  -1.7222  -1.6453  -1.6451
    -1.6234  -1.5872  -1.5729  -1.5675  -1.5605  -1.4678  -1.4668  -1.4626
    -1.4621  -1.3779  -1.3757  -1.3706  -1.3703  -1.3694  -1.3166  -1.3164
    -1.2797  -1.2786  -1.2746  -1.2745  -1.2721  -1.2720  -1.2531  -1.2490
    -1.2288  -1.2286  -1.2236  -1.2227  -1.2130  -1.2116  -1.1695  -1.1537
    -1.1501  -1.1485  -1.1329  -1.1322  -1.0886  -1.0886  -1.0504  -1.0504
    -1.0472  -1.0471  -1.0042  -1.0029  -0.9838  -0.9834  -0.9825  -0.9820
    -0.9779  -0.9777  -0.9272  -0.9266  -0.9191  -0.9186  -0.9106  -0.9106
    -0.9009  -0.8983  -0.8970  -0.8966  -0.8335  -0.8280  -0.8279  -0.8184
    -0.8183  -0.8178  -0.8178  -0.8141  -0.7955  -0.7953  -0.7818  -0.7808
    -0.7548  -0.7544  -0.7514  -0.7503  -0.6546  -0.6545  -0.6540  -0.6539
    -0.6333  -0.6330  -0.6241  -0.6097  -0.6068  -0.6057  -0.6047  -0.6012
    -0.6012  -0.5769  -0.5750  -0.5749  -0.5413  -0.5412  -0.5402  -0.5396
    -0.5377  -0.5362  -0.5347  -0.5331  -0.5037  -0.5037  -0.4852  -0.4837
    -0.4836  -0.4706  -0.4482  -0.4475  -0.4472  -0.4469  -0.4454  -0.4362
    -0.4353  -0.4351  -0.4348  -0.4143  -0.3914  -0.3573  -0.3571  -0.3568
    -0.3567  -0.3267  -0.3246  -0.3033  -0.3032  -0.3025  -0.2981  -0.2961
    -0.2952  -0.2947  -0.2719  -0.2695  -0.2691  -0.2685  -0.2675  -0.2585
    -0.2536  -0.2477  -0.2469  -0.2467  -0.2457  -0.2432  -0.2431  -0.2401
    -0.2335  -0.2328  -0.2064  -0.2063  -0.2045  -0.2043  -0.1777  -0.1526
    -0.1422  -0.1401  -0.1399  -0.1370  -0.1326  -0.1313  -0.1290  -0.1280
    -0.1270  -0.1181  -0.1034  -0.1014  -0.0884  -0.0880  -0.0864  -0.0858
    -0.0769  -0.0768  -0.0749  -0.0738  -0.0737  -0.0732  -0.0433  -0.0174
    -0.0164  -0.0137  -0.0132   0.0022   0.0036   0.0053   0.0059   0.0113
     0.0114   0.0119   0.0284   0.0295   0.0300   0.0309   0.0431   0.0458
     0.0586   0.0597   0.0757   0.0760   0.0761   0.0766   0.0948   0.0950
     0.1111   0.1111   0.1220   0.1222   0.1345   0.1352   0.1358   0.1360
     0.1797   0.1808   0.1836   0.1844   0.1958   0.1967   0.2017   0.2022
     0.2290   0.2292   0.2612   0.2630   0.2648   0.2677   0.3004   0.3004
     0.3151   0.3380   0.3858   0.3861   0.3866   0.3874   0.3958   0.4123
     0.4131   0.4136   0.4141   0.4262   0.4420   0.4504   0.4519   0.4538
     0.4550   0.4552   0.4553   0.4553   0.4643   0.4670   0.4769   0.4787
     0.4790   0.4803   0.4808   0.4816   0.4829   0.4836   0.5164   0.5165
     0.5277   0.5277   0.5284   0.5285   0.5362   0.5362   0.5426   0.5556
     0.5569   0.5574   0.5579   0.5581   0.5585   0.5586   0.5590   0.5595
     0.5818   0.5820   0.5834   0.5839   0.5839   0.5846   0.5854   0.5855
     0.6016   0.6018   0.6448   0.6450   0.6569   0.6572   0.6667   0.6681
     0.6691   0.6695   0.6752   0.6756   0.6762   0.6770   0.6820   0.6825
     0.6834   0.6835   0.7234   0.7245   0.7245   0.7253   0.7396   0.7416
     0.7417   0.7426   0.7429   0.7438   0.7548   0.7585   0.7749   0.7759
     0.7794   0.7812   0.7823   0.7825   0.8341   0.8349   0.8848   0.8859
     0.8907   0.8921   0.8943   0.8945   0.9032   0.9042   0.9110   0.9111
     0.9172   0.9174   0.9213   0.9253   0.9257   0.9270   0.9379   0.9386
     0.9410   0.9415   0.9422   0.9426   0.9517   0.9555   0.9620   0.9667
     0.9667   0.9682   0.9690   0.9708   0.9710   0.9740   0.9778   0.9779
     0.9894   0.9894   0.9906   0.9919   0.9929   0.9935   1.0113   1.0116
     1.0205   1.0242   1.0264   1.0272   1.0290   1.0302   1.0387   1.0388
     1.0396   1.0397   1.0405   1.0408   1.0842   1.0882   1.1037   1.1167
     1.1274   1.1275   1.1418   1.1435   1.1502   1.1542   1.1558   1.1566
     1.1701   1.1704   1.1841   1.1861   1.1922   1.1931   1.1953   1.1969
     1.1983   1.1989   1.1994   1.1994   1.2005   1.2017   1.2030   1.2032
     1.2103   1.2105   1.2191   1.2239   1.2299   1.2312   1.2313   1.2316
     1.2395   1.2409   1.2663   1.2698   1.2699   1.2700   1.2767   1.2769
     1.2792   1.2798   1.2924   1.2959   1.2974   1.2975   1.3101   1.3107
     1.3127   1.3137   1.3147   1.3155   1.3321   1.3327   1.3329   1.3337
     1.3516   1.3520   1.3534   1.3552   1.3708   1.3726   1.3785   1.3791
     1.3795   1.3801   1.3950   1.3952   1.3953   1.3955   1.4120   1.4126
     1.4264   1.4264   1.4267   1.4286   1.4467   1.4471   1.4486   1.4493
     1.4503   1.4504   1.4511   1.4515   1.4791   1.4792   1.4870   1.4877
     1.4925   1.4967   1.4998   1.5046   1.5187   1.5196   1.5197   1.5199
     1.5287   1.5289   1.5411   1.5411   1.5814   1.5855   1.5879   1.5882
     1.6713   1.6889   1.6936   1.7130   1.7166   1.7298   1.7302   1.7344
     1.7831   1.7866   1.7919   1.7932   1.8042   1.8122   1.8127   1.8133
     1.8534   1.8535   1.8895   2.0611   2.0630   2.0992   2.4134   2.4153
     2.4192   2.4197   2.4958   2.4983   2.5586   2.5642   2.5644   2.5659
     2.5811   2.5818   2.7090   2.7108   2.7564   2.7604   2.7792   2.7801
     2.9233   2.9243   3.1698   3.1699   3.1778   3.1899   3.3938   3.4149
     3.5779   3.6702   3.6823   3.9164   3.9252   3.9722   4.0825   4.0994
     4.1021   4.1060   4.3215   4.3255   4.3272   4.3290   4.4968   4.4984
     4.6624   4.6895   4.7649   4.7706   4.9068   5.0702   5.0981   5.1024
     5.3104   5.3584   5.3589   5.3597   5.3608   5.4311   5.5154   5.6566
     5.6738   5.7389   5.7519   5.8212   6.3807   6.3895   6.4203   6.4255
     6.4381   6.4390   6.5484   6.5579   6.6619   6.6678   6.8061   6.8112
     6.9776   7.0178   7.0266   7.0465   7.0771   7.0804   7.1136   7.1208
     7.1278   7.1323   7.2305   7.3387   7.3413   7.3726   7.3802   7.4198
     7.5288   7.6055   7.6964   7.7207   7.7371   7.7546   8.1432   8.1440
     8.3265   8.3566   8.3750   8.4234   8.4260   8.4265   8.4329   8.4460
     8.4484   8.4847   8.6385   8.6490   8.7140   8.7154   8.7197   8.7198
     8.7557   8.7616   8.8713   8.9143   8.9330   9.0150   9.0228   9.0603
     9.1427   9.1524   9.2331   9.2383   9.2813   9.3151   9.3854   9.3855
     9.3865   9.3868   9.4592   9.4607   9.4761   9.4824   9.4882   9.4927
     9.6613   9.6655   9.7856   9.7876   9.8070   9.8895   9.8898

          k = 0.2500 0.0000 0.0000 (256240 PWs)   bands (ev):

   -17.2264 -16.1279 -15.9653 -15.6628 -15.1442 -15.0054 -14.9460 -14.8937
   -14.1114 -13.9544 -13.7719 -13.2470 -13.1735 -13.0916 -13.0447 -12.3482
   -12.2348 -12.1516 -12.0776 -11.2353 -11.1427 -10.7892 -10.6724 -10.3593
   -10.2261  -9.9547  -9.9046  -9.5081  -9.2551  -9.1593  -8.6804  -7.9905
    -7.7974  -7.7296  -7.5662  -7.5427  -7.4473  -7.0941  -6.9776  -6.3019
    -6.2209  -6.0438  -5.9685  -5.9154  -5.8418  -5.4536  -5.3299  -5.3117
    -5.3020  -5.1698  -4.9236  -4.7461  -4.6338  -4.5431  -4.4672  -4.4647
    -4.4618  -4.4272  -4.3722  -4.2282  -4.1374  -4.0011  -4.0000  -3.9975
    -3.9094  -3.8450  -3.8403  -3.8106  -3.7945  -3.6289  -3.6008  -3.5741
    -3.5246  -3.4837  -3.4075  -3.4044  -3.2788  -3.2349  -3.2132  -3.1973
    -3.1422  -3.0362  -2.9563  -2.8958  -2.8000  -2.7986  -2.7911  -2.7526
    -2.6548  -2.6253  -2.6232  -2.5071  -2.4011  -2.3946  -2.3470  -2.3373
    -2.1307  -2.0990  -2.0968  -2.0824  -2.0798  -2.0595  -2.0035  -1.9901
    -1.9815  -1.8976  -1.8954  -1.8412  -1.8031  -1.8015  -1.7995  -1.7938
    -1.7932  -1.7847  -1.7736  -1.7461  -1.7349  -1.7238  -1.7195  -1.7168
    -1.7135  -1.6532  -1.6469  -1.6034  -1.5900  -1.5828  -1.5810  -1.5786
    -1.5782  -1.5775  -1.5483  -1.5271  -1.5142  -1.5037  -1.5020  -1.4907
    -1.4887  -1.3725  -1.3362  -1.3289  -1.3129  -1.2770  -1.2694  -1.2592
    -1.2440  -1.2429  -1.2377  -1.2364  -1.2300  -1.2202  -1.2076  -1.1980
    -1.1921  -1.1850  -1.1835  -1.1780  -1.1586  -1.1395  -1.1356  -1.1338
    -1.1331  -1.1323  -1.1169  -1.1116  -1.1108  -1.0913  -1.0768  -1.0669
    -1.0507  -1.0493  -1.0467  -1.0462  -1.0409  -1.0209  -1.0129  -1.0124
    -1.0038  -1.0019  -0.9966  -0.9919  -0.9816  -0.9812  -0.9810  -0.9801
    -0.9760  -0.9755  -0.9644  -0.9540  -0.9510  -0.9465  -0.9456  -0.9398
    -0.9213  -0.9017  -0.9005  -0.8959  -0.8527  -0.8521  -0.8162  -0.8162
    -0.7970  -0.7955  -0.7862  -0.7708  -0.7706  -0.7574  -0.7543  -0.7524
    -0.7499  -0.7426  -0.7414  -0.7222  -0.6066  -0.6028  -0.5998  -0.5969
    -0.5683  -0.5674  -0.5664  -0.5508  -0.5498  -0.5495  -0.5479  -0.5395
    -0.5305  -0.5268  -0.5268  -0.5238  -0.5165  -0.5058  -0.4956  -0.4875
    -0.4847  -0.4847  -0.4817  -0.4811  -0.4606  -0.4606  -0.4573  -0.4031
    -0.3994  -0.3993  -0.3965  -0.3912  -0.3894  -0.3859  -0.3803  -0.3759
    -0.3564  -0.3563  -0.3418  -0.3333  -0.3329  -0.3313  -0.3286  -0.3062
    -0.2948  -0.2947  -0.2917  -0.2904  -0.2815  -0.2806  -0.2708  -0.2690
    -0.2654  -0.2591  -0.2480  -0.2382  -0.2299  -0.2180  -0.2024  -0.1988
    -0.1985  -0.1962  -0.1901  -0.1819  -0.1801  -0.1799  -0.1782  -0.1629
    -0.1525  -0.1519  -0.1502  -0.1393  -0.1372  -0.1245  -0.1122  -0.1107
    -0.1106  -0.0661  -0.0636  -0.0632  -0.0556  -0.0548  -0.0456  -0.0314
    -0.0191  -0.0178  -0.0120  -0.0117  -0.0099  -0.0064  -0.0026   0.0015
     0.0040   0.0051   0.0061   0.0077   0.0082   0.0129   0.0291   0.0332
     0.0337   0.0363   0.0402   0.0445   0.0589   0.0592   0.0725   0.0752
     0.0776   0.0934   0.1143   0.1146   0.1167   0.1169   0.1187   0.1346
     0.1390   0.1409   0.1417   0.1423   0.1425   0.1611   0.1772   0.1792
     0.1972   0.2535   0.2539   0.2551   0.2659   0.2716   0.2738   0.2750
     0.2770   0.2777   0.2829   0.2830   0.2844   0.2869   0.2881   0.2888
     0.2954   0.3050   0.3068   0.3074   0.3093   0.3211   0.3212   0.3267
     0.3289   0.3337   0.3359   0.3587   0.3592   0.3618   0.3731   0.3893
     0.3956   0.4054   0.4134   0.4250   0.4256   0.4425   0.4431   0.4447
     0.4476   0.4556   0.4605   0.4774   0.4802   0.4806   0.4854   0.4857
     0.4913   0.4919   0.4961   0.4962   0.5170   0.5220   0.5242   0.5329
     0.5395   0.5445   0.5446   0.5511   0.5518   0.5526   0.5552   0.5554
     0.5744   0.5795   0.5799   0.5914   0.5928   0.5937   0.5940   0.5967
     0.6100   0.6104   0.6136   0.6180   0.6181   0.6374   0.6377   0.6533
     0.6571   0.6627   0.6640   0.6653   0.6697   0.6716   0.6753   0.6900
     0.7013   0.7052   0.7241   0.7288   0.7407   0.7408   0.7449   0.7455
     0.7499   0.7650   0.7669   0.7715   0.7741   0.7785   0.7796   0.7879
     0.7900   0.7934   0.8034   0.8044   0.8153   0.8245   0.8246   0.8254
     0.8497   0.8518   0.8556   0.8565   0.8574   0.8795   0.8808   0.8915
     0.8931   0.8932   0.8942   0.8962   0.9014   0.9039   0.9055   0.9066
     0.9197   0.9415   0.9468   0.9532   0.9543   0.9546   0.9552   0.9687
     0.9695   0.9897   0.9911   0.9921   0.9930   0.9996   1.0013   1.0019
     1.0157   1.0169   1.0185   1.0190   1.0218   1.0221   1.0226   1.0259
     1.0276   1.0312   1.0326   1.0332   1.0380   1.0424   1.0561   1.0587
     1.0612   1.0628   1.0676   1.0691   1.0692   1.0760   1.0768   1.0902
     1.0907   1.1043   1.1075   1.1079   1.1081   1.1116   1.1221   1.1277
     1.1341   1.1361   1.1373   1.1442   1.1490   1.1545   1.1559   1.1571
     1.1577   1.1745   1.1835   1.1889   1.1897   1.1919   1.1921   1.2268
     1.2283   1.2361   1.2395   1.2428   1.2452   1.2515   1.2530   1.2534
     1.2540   1.2620   1.2637   1.2698   1.2755   1.2777   1.2791   1.2792
     1.2960   1.2968   1.3006   1.3007   1.3062   1.3116   1.3128   1.3142
     1.3154   1.3160   1.3167   1.3219   1.3238   1.3247   1.3326   1.3375
     1.3453   1.3493   1.3512   1.3515   1.3557   1.3558   1.3601   1.3646
     1.3733   1.3799   1.3804   1.3814   1.4035   1.4036   1.4121   1.4167
     1.4189   1.4227   1.4228   1.4255   1.4267   1.4269   1.4337   1.4339
     1.4348   1.4403   1.4410   1.4445   1.4603   1.4629   1.4633   1.4646
     1.4657   1.4694   1.4701   1.4827   1.4833   1.4901   1.4945   1.4975
     1.5060   1.5065   1.5082   1.5127   1.5144   1.5163   1.5459   1.5527
     1.5586   1.5687   1.5818   1.6235   1.6250   1.6281   1.6386   1.6549
     1.6603   1.7464   1.7526   1.7620   1.7628   1.7821   1.7903   1.7976
     1.8369   1.9592   2.0307   2.0619   2.0692   2.0803   2.0853   2.0871
     2.1894   2.2469   2.2533   2.5608   2.5615   2.5635   2.5656   2.9753
     2.9754   3.0086   3.1930   3.1935   3.2179   3.2180   3.2631   3.2792
     3.4554   3.4671   3.5636   3.5795   3.6034   3.6301   3.6566   3.7009
     3.7066   3.7159   3.7257   3.7747   3.8689   3.8709   3.9667   3.9691
     4.0512   4.1788   4.1853   4.1892   4.2795   4.3352   4.4118   4.5490
     4.7525   4.8208   4.8261   5.0910   5.1565   5.2178   5.2185   5.2289
     5.2561   5.3580   5.4618   5.4659   5.5055   5.5487   5.5824   5.5849
     5.6543   5.6780   5.6825   5.7318   5.7341   5.8028   5.8216   5.8257
     6.0077   6.0105   6.0191   6.0414   6.4119   6.6028   6.6911   6.6961
     6.7011   6.7473   6.7574   6.7868   6.8653   6.9256   7.0145   7.0355
     7.0498   7.0515   7.0668   7.2294   7.2401   7.2935   7.3008   7.5008
     7.5057   7.5158   7.5560   7.5678   7.6778   7.7588   7.7631   7.7910
     7.9915   8.0031   8.0386   8.0620   8.0839   8.1857   8.2041   8.2192
     8.2385   8.2613   8.3125   8.3131   8.3933   8.3958   8.4374   8.4718
     8.6439   8.6451   8.9452   8.9540   8.9843   8.9877   9.0069   9.1433
     9.1695   9.1888   9.2107   9.2232   9.2291   9.2545   9.2649   9.3370
     9.3990   9.4051   9.4404   9.4428   9.4839   9.5098   9.6399   9.6778
     9.7145   9.7197   9.8240   9.8324   9.8361   9.8484   9.9381

          k = 0.2500-0.2165 0.0000 (256316 PWs)   bands (ev):

   -17.2260 -16.1789 -15.8740 -15.5407 -15.4585 -15.1911 -14.7122 -14.5644
   -14.2558 -14.1160 -13.7219 -13.2693 -13.2531 -13.1601 -12.7668 -12.6631
   -12.1503 -12.0263 -11.5136 -11.4308 -11.2829 -11.1263 -10.9623 -10.6232
    -9.8684  -9.7853  -9.3912  -9.3572  -9.1046  -9.0505  -8.6761  -8.6252
    -8.4733  -8.4251  -7.3020  -7.0270  -6.8331  -6.6744  -6.5979  -6.5024
    -6.4509  -6.3183  -6.0845  -6.0319  -5.7137  -5.7042  -5.4284  -5.2558
    -5.1714  -5.0700  -4.9349  -4.8020  -4.6783  -4.6746  -4.5431  -4.5421
    -4.4781  -4.3491  -4.3457  -4.3165  -4.1876  -4.1612  -4.1492  -4.0522
    -3.9016  -3.7728  -3.7607  -3.7384  -3.5857  -3.5619  -3.5011  -3.4594
    -3.4581  -3.4552  -3.3630  -3.2909  -3.2539  -3.1975  -3.1425  -3.1023
    -3.0302  -2.9453  -2.9407  -2.9244  -2.9106  -2.9093  -2.8632  -2.8165
    -2.6938  -2.6562  -2.6060  -2.5055  -2.3336  -2.3136  -2.3116  -2.2685
    -2.1866  -2.1807  -2.1686  -2.1685  -2.1030  -2.0684  -2.0098  -2.0092
    -1.9777  -1.9765  -1.9722  -1.9689  -1.8947  -1.8299  -1.8221  -1.8129
    -1.8128  -1.7803  -1.7602  -1.7526  -1.7328  -1.7237  -1.7206  -1.7097
    -1.7094  -1.6930  -1.6787  -1.6776  -1.6763  -1.6761  -1.6672  -1.6670
    -1.5821  -1.5820  -1.5541  -1.4688  -1.4668  -1.3783  -1.3696  -1.3663
    -1.3610  -1.3299  -1.3296  -1.2775  -1.2773  -1.2696  -1.2626  -1.2625
    -1.2494  -1.2488  -1.2411  -1.2395  -1.2250  -1.2243  -1.2129  -1.2128
    -1.2110  -1.2038  -1.2007  -1.1984  -1.1871  -1.1871  -1.1718  -1.1335
    -1.1308  -1.1271  -1.1261  -1.1209  -1.1154  -1.1141  -1.1116  -1.0931
    -1.0830  -1.0815  -1.0397  -1.0394  -1.0355  -1.0296  -1.0262  -1.0238
    -0.9963  -0.9962  -0.9735  -0.9725  -0.9620  -0.9615  -0.9605  -0.9563
    -0.9556  -0.9521  -0.9501  -0.9343  -0.9240  -0.9239  -0.9122  -0.9050
    -0.8843  -0.8680  -0.8679  -0.8624  -0.8619  -0.8244  -0.7781  -0.7780
    -0.7738  -0.7737  -0.7705  -0.7693  -0.7237  -0.7214  -0.7154  -0.7124
    -0.7118  -0.7061  -0.7057  -0.6943  -0.6940  -0.6794  -0.6529  -0.6521
    -0.6155  -0.6143  -0.5817  -0.5678  -0.5664  -0.5663  -0.5638  -0.5609
    -0.5337  -0.5332  -0.5209  -0.5203  -0.5019  -0.5007  -0.4927  -0.4895
    -0.4885  -0.4742  -0.4600  -0.4581  -0.4523  -0.4500  -0.4428  -0.4426
    -0.4117  -0.4080  -0.4078  -0.3968  -0.3934  -0.3873  -0.3814  -0.3801
    -0.3679  -0.3674  -0.3633  -0.3631  -0.3572  -0.3555  -0.3520  -0.3519
    -0.3339  -0.3337  -0.3175  -0.3174  -0.2940  -0.2888  -0.2755  -0.2740
    -0.2615  -0.2566  -0.2401  -0.2399  -0.2353  -0.2310  -0.2179  -0.2174
    -0.2131  -0.2128  -0.1888  -0.1806  -0.1579  -0.1541  -0.1528  -0.1179
    -0.1178  -0.1089  -0.1089  -0.1052  -0.1036  -0.0874  -0.0874  -0.0846
    -0.0701  -0.0698  -0.0597  -0.0564  -0.0491  -0.0479  -0.0429  -0.0425
    -0.0407  -0.0399  -0.0149  -0.0135  -0.0127  -0.0055  -0.0042  -0.0031
    -0.0023  -0.0011  -0.0006   0.0012   0.0057   0.0075   0.0277   0.0316
     0.0316   0.0318   0.0320   0.0654   0.0655   0.0736   0.0738   0.0758
     0.0770   0.0975   0.0997   0.1035   0.1169   0.1316   0.1316   0.1346
     0.1408   0.1413   0.1517   0.1519   0.1549   0.1556   0.1689   0.1690
     0.1752   0.1764   0.2047   0.2050   0.2677   0.2692   0.2810   0.2816
     0.2828   0.2832   0.2857   0.2865   0.2880   0.2891   0.2919   0.2936
     0.3130   0.3170   0.3171   0.3194   0.3202   0.3278   0.3299   0.3315
     0.3344   0.3344   0.3660   0.3671   0.3776   0.3810   0.3822   0.3947
     0.4002   0.4027   0.4164   0.4437   0.4439   0.4492   0.4511   0.4535
     0.4574   0.4575   0.4691   0.4691   0.4741   0.4783   0.4797   0.4812
     0.4819   0.4827   0.4997   0.5123   0.5134   0.5181   0.5207   0.5344
     0.5347   0.5537   0.5667   0.5672   0.5677   0.5692   0.5993   0.6010
     0.6033   0.6050   0.6074   0.6086   0.6123   0.6144   0.6254   0.6256
     0.6275   0.6285   0.6326   0.6364   0.6481   0.6484   0.6587   0.6601
     0.6680   0.6681   0.6711   0.6711   0.6783   0.6802   0.6813   0.6866
     0.6891   0.6893   0.7019   0.7053   0.7097   0.7108   0.7157   0.7165
     0.7188   0.7189   0.7207   0.7212   0.7548   0.7562   0.7670   0.7678
     0.7838   0.7870   0.8035   0.8071   0.8230   0.8234   0.8246   0.8247
     0.8303   0.8312   0.8432   0.8538   0.8539   0.8543   0.8543   0.8553
     0.8558   0.8645   0.8671   0.8787   0.8828   0.8837   0.8912   0.8949
     0.9000   0.9051   0.9208   0.9286   0.9286   0.9436   0.9509   0.9517
     0.9586   0.9596   0.9644   0.9645   0.9710   0.9711   0.9748   0.9906
     0.9999   1.0031   1.0078   1.0171   1.0183   1.0262   1.0310   1.0381
     1.0462   1.0605   1.0630   1.0657   1.0791   1.0804   1.0866   1.0870
     1.0894   1.0895   1.0908   1.0909   1.0952   1.0953   1.1048   1.1053
     1.1136   1.1157   1.1168   1.1181   1.1355   1.1367   1.1623   1.1655
     1.1662   1.1695   1.1709   1.1729   1.1743   1.1760   1.1813   1.1839
     1.1866   1.1905   1.1914   1.1915   1.1955   1.1978   1.2015   1.2021
     1.2079   1.2098   1.2175   1.2205   1.2232   1.2234   1.2244   1.2246
     1.2361   1.2370   1.2449   1.2450   1.2676   1.2694   1.2775   1.2779
     1.2822   1.2919   1.2935   1.2961   1.3030   1.3098   1.3103   1.3125
     1.3190   1.3219   1.3305   1.3309   1.3346   1.3364   1.3429   1.3451
     1.3476   1.3478   1.3562   1.3597   1.3603   1.3708   1.3785   1.3809
     1.3812   1.3813   1.3862   1.3871   1.3910   1.3920   1.3954   1.4050
     1.4051   1.4099   1.4105   1.4165   1.4199   1.4212   1.4291   1.4334
     1.4359   1.4372   1.4374   1.4423   1.4440   1.4441   1.4443   1.4478
     1.4533   1.4534   1.4781   1.4782   1.4858   1.4860   1.4956   1.5008
     1.5129   1.5192   1.5240   1.5265   1.5274   1.5495   1.5499   1.5566
     1.5569   1.5785   1.5826   1.5886   1.6150   1.6464   1.6615   1.6628
     1.7116   1.7496   1.7584   1.7637   1.7693   1.7809   1.7853   1.7859
     1.7862   1.8073   1.8350   1.8428   2.1243   2.1249   2.1563   2.1576
     2.2821   2.2864   2.5819   2.5831   2.7779   2.7830   2.7864   2.7872
     2.7980   2.8012   2.8281   2.8314   2.9801   2.9825   3.0680   3.0794
     3.5244   3.5356   3.5888   3.6039   3.6520   3.6745   3.7656   3.8352
     3.8406   3.8445   3.8665   3.9906   3.9944   4.0581   4.0891   4.1599
     4.1622   4.3261   4.3712   4.3726   4.4249   4.5432   4.5443   4.6146
     4.6633   4.6786   4.7086   4.7210   4.9174   4.9250   4.9949   5.0144
     5.0201   5.1287   5.2584   5.2764   5.3921   5.4345   5.4392   5.4494
     5.4521   5.4727   5.7490   5.7575   5.8104   5.8803   5.8880   5.9491
     5.9538   5.9675   6.5828   6.5873   6.6043   6.6154   6.7289   6.7450
     6.7965   6.8508   6.8694   7.0220   7.0246   7.0450   7.0702   7.0889
     7.0981   7.1172   7.1924   7.2126   7.2151   7.3197   7.3250   7.3284
     7.3321   7.3954   7.4362   7.4376   7.6560   7.6615   7.7584   7.7853
     7.7885   7.8635   7.9721   7.9804   8.1814   8.1910   8.2324   8.2467
     8.2634   8.3907   8.5792   8.5820   8.5953   8.6045   8.6364   8.6377
     8.7041   8.7058   8.8009   8.8143   8.8978   8.9092   8.9382   8.9430
     9.0681   9.1130   9.1338   9.1440   9.1740   9.1772   9.1911   9.2034
     9.2145   9.2626   9.2678   9.2998   9.3413   9.3515   9.4241   9.4405
     9.4459   9.4785   9.6266   9.6277   9.9540   9.9600   9.9680

          k =-0.5000 0.0000 0.0000 (256496 PWs)   bands (ev):

   -17.1647 -16.0103 -15.7423 -15.6294 -15.6093 -15.5602 -14.8127 -14.6178
   -14.5148 -14.4817 -13.2064 -12.9077 -12.7674 -12.7013 -12.4577 -12.4320
   -11.9124 -11.8915 -11.8080 -11.7999 -11.2449 -11.2059 -10.9817 -10.7496
   -10.3355 -10.3032 -10.0798  -9.7617  -9.1477  -9.1475  -8.9778  -8.9453
    -7.8160  -7.6392  -7.5863  -7.4116  -7.3678  -7.3466  -6.3075  -6.2264
    -5.8452  -5.3243  -5.3213  -5.3089  -5.1440  -4.9987  -4.9688  -4.8646
    -4.8083  -4.8036  -4.8029  -4.8021  -4.7767  -4.7640  -4.7386  -4.6927
    -4.6664  -4.5438  -4.5421  -4.4736  -4.3800  -4.3767  -4.2917  -4.0549
    -4.0160  -3.9969  -3.9670  -3.9654  -3.6913  -3.6750  -3.6030  -3.5743
    -3.5732  -3.5559  -3.4281  -3.4206  -3.4196  -3.4188  -3.4185  -3.4129
    -3.3766  -3.3646  -2.9466  -2.9327  -2.8962  -2.8548  -2.8129  -2.7868
    -2.7669  -2.7600  -2.6220  -2.6091  -2.5678  -2.4789  -2.4511  -2.4397
    -2.3067  -2.3036  -2.3026  -2.3023  -1.8793  -1.8789  -1.8788  -1.8785
    -1.8765  -1.8765  -1.8656  -1.8150  -1.7796  -1.7593  -1.7565  -1.7553
    -1.6874  -1.6515  -1.6509  -1.6500  -1.6498  -1.6024  -1.6022  -1.6014
    -1.6010  -1.5118  -1.5063  -1.4884  -1.4882  -1.4876  -1.4771  -1.4537
    -1.4320  -1.4260  -1.4254  -1.4244  -1.4067  -1.4064  -1.3573  -1.3573
    -1.3554  -1.3543  -1.3524  -1.3431  -1.3424  -1.3405  -1.3400  -1.3379
    -1.2940  -1.2922  -1.2921  -1.2909  -1.2697  -1.2684  -1.2675  -1.2673
    -1.2306  -1.2046  -1.2044  -1.1831  -1.1825  -1.1821  -1.1819  -1.1588
    -1.1560  -1.1545  -1.1523  -1.1513  -1.1508  -1.1493  -1.1082  -1.1080
    -1.1068  -1.1068  -1.0859  -1.0858  -1.0725  -1.0561  -1.0556  -1.0551
    -1.0095  -1.0094  -1.0091  -0.9812  -0.9809  -0.9796  -0.9794  -0.9552
    -0.9533  -0.9527  -0.9514  -0.9476  -0.9462  -0.9432  -0.9318  -0.9316
    -0.9291  -0.9290  -0.9053  -0.9025  -0.8904  -0.8406  -0.8403  -0.8385
    -0.8369  -0.7946  -0.7946  -0.7145  -0.7117  -0.7114  -0.7111  -0.7064
    -0.6885  -0.6804  -0.6730  -0.6729  -0.6720  -0.6719  -0.6675  -0.6614
    -0.6404  -0.6334  -0.6300  -0.6296  -0.6237  -0.6181  -0.6130  -0.6020
    -0.6015  -0.5985  -0.5723  -0.5299  -0.5203  -0.5110  -0.4851  -0.4730
    -0.4665  -0.4652  -0.4564  -0.4563  -0.4321  -0.4161  -0.4134  -0.4098
    -0.4059  -0.4058  -0.4043  -0.4042  -0.3940  -0.3816  -0.3682  -0.3681
    -0.3678  -0.3677  -0.3294  -0.3292  -0.3284  -0.3283  -0.3141  -0.2957
    -0.2956  -0.2955  -0.2949  -0.2840  -0.2839  -0.2526  -0.2510  -0.2510
    -0.2496  -0.2496  -0.2467  -0.2406  -0.2288  -0.2123  -0.2030  -0.1990
    -0.1761  -0.1360  -0.1354  -0.1352  -0.1339  -0.1288  -0.1287  -0.1278
    -0.1276  -0.0885  -0.0882  -0.0867  -0.0860  -0.0653  -0.0522  -0.0518
    -0.0258  -0.0257  -0.0237  -0.0235  -0.0220  -0.0218  -0.0209  -0.0208
    -0.0201  -0.0200  -0.0196  -0.0190   0.0547   0.0558   0.0614   0.0630
     0.0664   0.0672   0.0720   0.0723   0.0729   0.0730   0.0777   0.0778
     0.0798   0.0800   0.0836   0.0839   0.0882   0.0891   0.1022   0.1022
     0.1141   0.1163   0.1166   0.1167   0.1169   0.1169   0.1190   0.1277
     0.1279   0.1281   0.1282   0.1408   0.1411   0.1437   0.1530   0.1532
     0.1535   0.1537   0.1735   0.1818   0.1826   0.1946   0.2514   0.2660
     0.2863   0.2864   0.2875   0.2876   0.3191   0.3197   0.3202   0.3207
     0.3346   0.3347   0.3406   0.3408   0.3441   0.3448   0.3452   0.3458
     0.3492   0.3500   0.3521   0.3524   0.3524   0.3535   0.3667   0.3669
     0.3703   0.3746   0.3816   0.3840   0.3894   0.3900   0.3952   0.3954
     0.3993   0.4009   0.4332   0.4379   0.4904   0.4919   0.4920   0.4926
     0.5008   0.5016   0.5207   0.5238   0.5255   0.5265   0.5281   0.5288
     0.5305   0.5312   0.5326   0.5330   0.5353   0.5358   0.5373   0.5375
     0.5437   0.5446   0.5456   0.5463   0.5596   0.5665   0.5831   0.5835
     0.5873   0.5987   0.6062   0.6120   0.6182   0.6193   0.6217   0.6221
     0.6303   0.6305   0.6313   0.6315   0.6335   0.6339   0.6463   0.6476
     0.6513   0.6519   0.6673   0.6684   0.6690   0.6692   0.7059   0.7061
     0.7068   0.7068   0.7073   0.7074   0.7249   0.7258   0.7509   0.7578
     0.7653   0.7665   0.7675   0.7676   0.7680   0.7683   0.7908   0.8070
     0.8349   0.8351   0.8381   0.8393   0.8400   0.8404   0.8444   0.8453
     0.8492   0.8526   0.8530   0.8538   0.8623   0.8650   0.8815   0.8849
     0.8851   0.8866   0.8868   0.8986   0.9056   0.9059   0.9063   0.9064
     0.9076   0.9081   0.9434   0.9454   0.9458   0.9459   0.9607   0.9917
     1.0122   1.0123   1.0124   1.0129   1.0416   1.0463   1.0463   1.0466
     1.0478   1.0487   1.0652   1.0662   1.0760   1.0767   1.0781   1.0850
     1.0889   1.0894   1.1092   1.1106   1.1154   1.1157   1.1162   1.1166
     1.1236   1.1241   1.1249   1.1251   1.1348   1.1349   1.1361   1.1367
     1.1374   1.1378   1.1382   1.1385   1.1725   1.1743   1.1757   1.1757
     1.1873   1.1991   1.2055   1.2075   1.2103   1.2114   1.2116   1.2122
     1.2294   1.2305   1.2331   1.2402   1.2408   1.2409   1.2418   1.2504
     1.2511   1.2515   1.2516   1.2575   1.2617   1.2655   1.2693   1.2740
     1.2983   1.2987   1.3118   1.3137   1.3143   1.3144   1.3147   1.3147
     1.3148   1.3149   1.3252   1.3269   1.3282   1.3284   1.3286   1.3286
     1.3309   1.3312   1.3359   1.3367   1.3414   1.3414   1.3418   1.3422
     1.3491   1.3493   1.3641   1.3642   1.3796   1.3822   1.3831   1.3833
     1.3911   1.3914   1.3929   1.3931   1.4066   1.4094   1.4131   1.4132
     1.4283   1.4294   1.4332   1.4347   1.4392   1.4475   1.4478   1.4478
     1.4488   1.4661   1.4684   1.4687   1.4696   1.4713   1.4785   1.4787
     1.4788   1.4789   1.4830   1.4874   1.4984   1.4984   1.5115   1.5126
     1.5126   1.5130   1.5130   1.5246   1.5259   1.5261   1.5763   1.5765
     1.5967   1.6061   1.6062   1.6106   1.6106   1.6185   2.0240   2.0275
     2.0287   2.0295   2.2316   2.2329   2.2468   2.2508   2.2833   2.2837
     2.2902   2.2910   2.6036   2.6127   2.6159   2.6174   2.8251   2.8276
     2.8328   2.8353   3.1818   3.1828   3.1855   3.1863   3.4664   3.4678
     3.7236   3.7506   3.7525   3.7545   3.8489   3.9170   3.9200   3.9235
     3.9520   4.0658   4.0712   4.0726   4.0839   4.1789   4.1847   4.3865
     4.3986   4.4840   4.7231   4.7406   4.7479   4.7507   4.8082   4.8238
     4.8239   4.8523   4.9282   5.0188   5.0200   5.0352   5.0413   5.0442
     5.0464   5.0521   5.0705   5.0721   5.0964   5.1032   5.1531   5.1620
     5.4798   5.5131   5.5312   5.5352   5.6447   5.6576   5.7562   5.8272
     5.9859   5.9890   5.9956   6.0011   6.0256   6.0329   6.0392   6.0413
     6.1886   6.3950   6.4293   6.4326   6.4332   6.4364   6.4498   6.4766
     7.0794   7.0905   7.1061   7.1084   7.1182   7.1195   7.5648   7.5781
     7.5966   7.5982   7.5992   7.5993   7.6243   7.6264   7.8103   7.8155
     7.8775   7.8811   7.8841   7.8851   8.0387   8.0475   8.0498   8.0540
     8.1154   8.1185   8.1283   8.1302   8.1599   8.1955   8.6449   8.6891
     8.6914   8.7058   8.8250   8.8269   8.8307   8.8309   8.9623   8.9870
     8.9902   9.0638   9.0674   9.0690   9.0872   9.2586   9.2607   9.3737
     9.4251   9.4469   9.4926   9.4952   9.4953   9.4960   9.5067   9.5100
     9.5153   9.5163   9.5304   9.5341   9.8239   9.8312  10.0186

          k =-0.5000-0.2165 0.0000 (256328 PWs)   bands (ev):

   -17.1646 -15.9786 -15.8206 -15.7956 -15.3891 -15.2197 -15.1509 -15.1148
   -14.0564 -13.8409 -13.7099 -13.6734 -12.6813 -12.4571 -12.0020 -11.9972
   -11.9224 -11.7764 -11.6732 -11.5882 -11.5441 -11.5311 -11.4240 -11.4052
   -10.0439 -10.0375  -9.7698  -9.7240  -9.2267  -8.9133  -8.7979  -8.7594
    -8.2686  -8.2320  -8.0221  -8.0002  -6.5343  -6.3419  -6.1228  -5.9494
    -5.8402  -5.6261  -5.3889  -5.3159  -5.3073  -5.2178  -5.2140  -5.1815
    -5.1796  -5.1795  -5.0192  -5.0053  -4.9503  -4.5117  -4.3885  -4.3515
    -4.3268  -4.3203  -4.2641  -4.2147  -4.2017  -4.1982  -4.1977  -4.1973
    -4.0819  -4.0753  -3.9155  -3.8776  -3.8648  -3.8586  -3.7555  -3.7461
    -3.7033  -3.6904  -3.5988  -3.5929  -3.5875  -3.4873  -3.4665  -3.4566
    -3.1728  -3.0870  -3.0724  -3.0620  -2.6365  -2.5825  -2.5810  -2.5790
    -2.5787  -2.5784  -2.5445  -2.5288  -2.5236  -2.5231  -2.4096  -2.3534
    -2.1617  -2.1530  -2.1101  -2.1007  -2.0965  -2.0957  -2.0527  -2.0500
    -2.0219  -2.0182  -2.0164  -2.0113  -1.9363  -1.8030  -1.8028  -1.8018
    -1.8018  -1.7718  -1.7394  -1.7277  -1.5681  -1.5238  -1.5090  -1.5022
    -1.4934  -1.4933  -1.4932  -1.4932  -1.4593  -1.4561  -1.4538  -1.4537
    -1.4336  -1.4334  -1.4331  -1.4331  -1.3842  -1.3840  -1.3838  -1.3835
    -1.3823  -1.3821  -1.3816  -1.3814  -1.3585  -1.3584  -1.3583  -1.3583
    -1.3088  -1.3084  -1.3073  -1.3072  -1.3038  -1.2383  -1.2334  -1.2328
    -1.2322  -1.1909  -1.1909  -1.1906  -1.1906  -1.1732  -1.1711  -1.1709
    -1.1704  -1.1282  -1.1218  -1.1217  -1.1215  -1.1169  -1.1156  -1.1156
    -1.1155  -1.1122  -1.0959  -1.0923  -1.0903  -1.0884  -1.0571  -1.0570
    -1.0567  -1.0567  -1.0407  -1.0401  -1.0400  -1.0399  -1.0375  -1.0370
    -1.0368  -1.0366  -1.0366  -1.0151  -0.8824  -0.8823  -0.8818  -0.8817
    -0.8533  -0.8527  -0.8525  -0.8524  -0.8041  -0.7709  -0.7701  -0.7698
    -0.7692  -0.7689  -0.7681  -0.7666  -0.7625  -0.7621  -0.7612  -0.7612
    -0.7047  -0.7003  -0.7001  -0.6997  -0.6934  -0.6888  -0.6883  -0.6879
    -0.6758  -0.6676  -0.6670  -0.6669  -0.6427  -0.5834  -0.5712  -0.5709
    -0.5680  -0.5670  -0.5669  -0.5662  -0.5057  -0.4983  -0.4977  -0.4977
    -0.4949  -0.4493  -0.4486  -0.4485  -0.4460  -0.4283  -0.4282  -0.4271
    -0.4271  -0.4098  -0.3999  -0.3997  -0.3892  -0.3891  -0.3882  -0.3882
    -0.3744  -0.3507  -0.3483  -0.3469  -0.3281  -0.2736  -0.2736  -0.2729
    -0.2729  -0.2575  -0.2575  -0.2569  -0.2569  -0.2411  -0.2405  -0.2401
    -0.2383  -0.1599  -0.1591  -0.1581  -0.1574  -0.1534  -0.1532  -0.1528
    -0.1528  -0.1516  -0.1492  -0.1492  -0.1468  -0.1125  -0.1125  -0.1124
    -0.1123  -0.1003  -0.0999  -0.0996  -0.0990  -0.0963  -0.0958  -0.0956
    -0.0955  -0.0705  -0.0267  -0.0266  -0.0260  -0.0257  -0.0003  -0.0000
     0.0016   0.0031   0.0485   0.0490   0.0536   0.0549   0.0613   0.0652
     0.0792   0.0798   0.0804   0.0806   0.0851   0.0864   0.0876   0.0891
     0.0900   0.0910   0.0925   0.0938   0.1003   0.1005   0.1010   0.1012
     0.1064   0.1064   0.1066   0.1066   0.1206   0.1228   0.1230   0.1232
     0.1409   0.1510   0.1511   0.1512   0.1512   0.1604   0.1612   0.1617
     0.1643   0.2098   0.2107   0.2111   0.2113   0.2317   0.2423   0.2439
     0.2442   0.2494   0.2679   0.3107   0.3143   0.3170   0.3259   0.3279
     0.3285   0.3292   0.3340   0.3406   0.3449   0.3453   0.3459   0.3476
     0.3573   0.3611   0.3612   0.3616   0.3618   0.3648   0.3681   0.3689
     0.3693   0.3694   0.3712   0.3730   0.3806   0.3859   0.3972   0.4006
     0.4479   0.4488   0.4511   0.4531   0.4577   0.4580   0.4583   0.4587
     0.4693   0.4694   0.4696   0.4699   0.5057   0.5072   0.5080   0.5087
     0.5099   0.5103   0.5108   0.5112   0.5398   0.5535   0.5538   0.5544
     0.5544   0.5583   0.5669   0.5675   0.5679   0.5682   0.5685   0.5698
     0.5763   0.5766   0.5769   0.5769   0.5880   0.5895   0.5910   0.5912
     0.6034   0.6062   0.6086   0.6101   0.6610   0.6763   0.6764   0.6792
     0.6793   0.6830   0.6832   0.6833   0.6834   0.6860   0.6911   0.6914
     0.6924   0.6996   0.7072   0.7106   0.7283   0.7284   0.7293   0.7294
     0.7310   0.7310   0.7319   0.7323   0.7705   0.7784   0.7835   0.7836
     0.7980   0.8102   0.8115   0.8116   0.8123   0.8184   0.8283   0.8336
     0.8476   0.8478   0.8484   0.8484   0.8692   0.8709   0.8726   0.8729
     0.9253   0.9254   0.9260   0.9260   0.9575   0.9578   0.9599   0.9601
     1.0021   1.0108   1.0122   1.0134   1.0158   1.0218   1.0261   1.0271
     1.0324   1.0371   1.0376   1.0383   1.0391   1.0442   1.0443   1.0445
     1.0446   1.0470   1.0474   1.0483   1.0484   1.0529   1.0714   1.0730
     1.0763   1.0764   1.0773   1.0784   1.0785   1.0790   1.0797   1.0817
     1.0923   1.0944   1.0968   1.0975   1.1177   1.1194   1.1218   1.1223
     1.1256   1.1271   1.1317   1.1329   1.1409   1.1411   1.1418   1.1424
     1.1882   1.1902   1.1942   1.1944   1.1951   1.1953   1.1965   1.1968
     1.2202   1.2209   1.2212   1.2213   1.2307   1.2357   1.2373   1.2389
     1.2397   1.2441   1.2556   1.2561   1.2701   1.2703   1.2705   1.2707
     1.2785   1.2789   1.2802   1.2803   1.2852   1.2857   1.2863   1.2863
     1.3452   1.3523   1.3524   1.3529   1.3531   1.3538   1.3539   1.3546
     1.3546   1.3590   1.3621   1.3640   1.3666   1.3703   1.3713   1.3716
     1.3747   1.3772   1.3810   1.3812   1.3840   1.3854   1.3862   1.3871
     1.3927   1.3934   1.3941   1.3944   1.3985   1.4013   1.4033   1.4044
     1.4144   1.4148   1.4150   1.4153   1.4475   1.4478   1.4479   1.4480
     1.4604   1.4618   1.4631   1.4634   1.4745   1.4763   1.4785   1.4788
     1.4972   1.4993   1.5000   1.5005   1.5380   1.5461   1.5493   1.5518
     1.5724   1.5725   1.5731   1.5731   1.6010   1.6021   1.6036   1.6039
     1.6061   1.6079   1.6088   1.6093   1.6148   1.6150   1.6155   1.6157
     1.8320   1.8336   1.8339   1.8346   2.3280   2.3365   2.3421   2.3428
     2.5550   2.5566   2.5589   2.5589   2.7862   2.7914   2.7929   2.7935
     3.0773   3.0863   3.0875   3.0888   3.4490   3.4520   3.4522   3.4524
     3.6316   3.6376   3.6407   3.6412   3.8999   3.9276   3.9279   3.9280
     3.9959   4.2242   4.2251   4.2261   4.2327   4.3142   4.3273   4.3362
     4.3383   4.5104   4.5514   4.5561   4.5584   4.5640   4.5901   4.5961
     4.6561   4.7921   4.8426   4.8866   4.8980   5.0075   5.0362   5.0700
     5.1620   5.1665   5.1709   5.1722   5.2122   5.2472   5.2986   5.3027
     5.3209   5.3363   5.3460   5.3492   5.5134   5.5946   5.7314   5.7348
     5.7452   5.7460   5.7483   5.7493   5.8428   5.8593   5.8847   5.8857
     6.7815   6.7830   6.7839   6.7844   7.1021   7.1148   7.1201   7.1228
     7.1430   7.1492   7.1504   7.1520   7.2529   7.2667   7.2677   7.2730
     7.3607   7.3654   7.3661   7.3665   7.5228   7.6013   7.6061   7.6095
     7.6587   7.8935   7.9514   7.9571   7.9771   7.9811   7.9853   7.9993
     8.2199   8.2379   8.2397   8.2428   8.2455   8.2832   8.3587   8.3640
     8.8870   8.8893   8.8902   8.8912   8.9210   8.9220   8.9235   8.9247
     8.9626   8.9644   8.9657   8.9666   9.1068   9.1108   9.1185   9.1189
     9.3049   9.3240   9.3375   9.3438   9.5136   9.5218   9.5394   9.5406
     9.5614   9.5648   9.5703   9.5726   9.9257   9.9373   9.9664

     the Fermi energy is     3.3209 ev

!    total energy              =  -12707.14308562 Ry
     Harris-Foulkes estimate   =  -12707.14308558 Ry
     estimated scf accuracy    <          5.0E-09 Ry

     The total energy is the sum of the following terms:

     one-electron contribution = -109279.32452340 Ry
     hartree contribution      =   56001.06767622 Ry
     xc contribution           =   -4447.77467779 Ry
     ewald contribution        =   45025.23133615 Ry
     Dispersion Correction     =      -2.98755446 Ry
     smearing contrib. (-TS)   =      -3.35534234 Ry

     convergence has been achieved in  47 iterations

     Writing output data file gc.save
 
     init_run     :     98.75s CPU    106.92s WALL (       1 calls)
     electrons    :  12292.15s CPU  13174.37s WALL (       1 calls)

     Called by init_run:
     wfcinit      :     96.62s CPU    104.12s WALL (       1 calls)
     potinit      :      0.33s CPU      0.37s WALL (       1 calls)

     Called by electrons:
     c_bands      :  11237.35s CPU  12016.39s WALL (      47 calls)
     sum_band     :    863.26s CPU    936.88s WALL (      47 calls)
     v_of_rho     :      3.04s CPU      3.73s WALL (      48 calls)
     newd         :      7.47s CPU     14.00s WALL (      48 calls)
     mix_rho      :    180.79s CPU    203.16s WALL (      47 calls)

     Called by c_bands:
     init_us_2    :     37.80s CPU     39.00s WALL (     570 calls)
     cegterg      :  11070.00s CPU  11838.47s WALL (     288 calls)

     Called by sum_band:
     sum_band:bec :      4.90s CPU      5.61s WALL (     282 calls)
     addusdens    :      8.29s CPU     13.97s WALL (      47 calls)

     Called by *egterg:
     h_psi        :   4139.89s CPU   4490.89s WALL (    1834 calls)
     s_psi        :    993.59s CPU   1005.56s WALL (    1834 calls)
     g_psi        :     10.47s CPU     10.50s WALL (    1540 calls)
     cdiaghg      :   2922.47s CPU   3040.39s WALL (    1822 calls)

     Called by h_psi:
     add_vuspsi   :    997.54s CPU   1012.03s WALL (    1834 calls)

     General routines
     calbec       :   1461.76s CPU   1473.50s WALL (    2116 calls)
     fft          :      3.16s CPU      3.92s WALL (     623 calls)
     ffts         :    106.21s CPU    119.29s WALL (   27724 calls)
     fftw         :   2367.20s CPU   2653.70s WALL ( 1346002 calls)
     davcio       :      0.20s CPU      3.24s WALL (       6 calls)
 
     Parallel routines
     fft_scatter  :   1517.67s CPU   1672.43s WALL ( 1374349 calls)
 
     PWSCF        :     3h26m CPU        3h41m WALL

 
   This run was terminated on:   1:50:14   8Sep2017            

=------------------------------------------------------------------------------=
   JOB DONE.
=------------------------------------------------------------------------------=
