mpirun: INFO: switching to OpenMPI runtime version 1.10.2

     Program PWSCF v.5.4.0 starts on 12May2017 at 10:52: 6 

     This program is part of the open-source Quantum ESPRESSO suite
     for quantum simulation of materials; please cite
         "P. Giannozzi et al., J. Phys.:Condens. Matter 21 395502 (2009);
          URL http://www.quantum-espresso.org", 
     in publications or presentations arising from this work. More details at
     http://www.quantum-espresso.org/quote

     Parallel version (MPI & OpenMP), running on      56 processor cores
     Number of MPI processes:                56
     Threads/MPI process:                     1
     R & G space division:  proc/nbgrp/npool/nimage =      56
     Waiting for input...
     Reading input from standard input
Warning: card &IONS ignored
Warning: card / ignored

     Current dimensions of program PWSCF are:
     Max number of different atomic species (ntypx) = 10
     Max number of k-points (npk) =  40000
     Max angular momentum in pseudopotentials (lmaxx) =  3
     WARNING: atomic wfc #  2 for atom type 4 has zero norm
     WARNING: atomic wfc #  4 for atom type 4 has zero norm
     WARNING: atomic wfc #  5 for atom type 4 has zero norm

     -------------------------------------
     Parameters for Dispersion Correction:
     -------------------------------------
       atom      VdW radius       C_6     

        Cu         2.952        374.666
        C_h        2.744         60.710
        C          2.744         60.710
        O          2.536         24.284
        H          1.892          4.857

     Subspace diagonalization in iterative solution of the eigenvalue problem:
     one sub-group per band group will be used
     scalapack distributed-memory algorithm (size of sub-group:  5*  5 procs)

 
     Parallelization info
     --------------------
     sticks:   dense  smooth     PW     G-vecs:    dense   smooth      PW
     Min         204     204     54                36612    36612    4962
     Max         205     205     55                36617    36617    4968
     Sum       11433   11433   3039              2050409  2050409  278033
 


     bravais-lattice index     =            0
     lattice parameter (alat)  =      13.9425  a.u.
     unit-cell volume          =   21209.0878 (a.u.)^3
     number of atoms/cell      =          152
     number of atomic types    =            5
     number of electrons       =      1309.00
     number of Kohn-Sham states=          786
     kinetic-energy cutoff     =      80.0000  Ry
     charge density cutoff     =     320.0000  Ry
     convergence threshold     =      1.0E-08
     mixing beta               =       0.7000
     number of iterations used =            8  local-TF  mixing
     Exchange-correlation      =  SLA  PW   PBE  PBE ( 1  4  3  4 0 0)

     celldm(1)=  13.942539  celldm(2)=   0.000000  celldm(3)=   0.000000
     celldm(4)=   0.000000  celldm(5)=   0.000000  celldm(6)=   0.000000

     crystal axes: (cart. coord. in units of alat)
               a(1) = (   1.000000   0.000000   0.000000 )  
               a(2) = (   0.000000   2.309401   0.000000 )  
               a(3) = (   0.000000   0.000000   3.388418 )  

     reciprocal axes: (cart. coord. in units 2 pi/alat)
               b(1) = (  1.000000  0.000000  0.000000 )  
               b(2) = (  0.000000  0.433013  0.000000 )  
               b(3) = (  0.000000  0.000000  0.295123 )  


     PseudoPot. # 1 for Cu read from file:
     /home/549/hxw549/Short/pseudopotentials/Cu.pbe-n-van_ak.UPF
     MD5 check sum: 601f7c30f7467666bec936e0661ce3e1
     Pseudo is Ultrasoft + core correction, Zval = 11.0
     Generated by new atomic code, or converted to UPF format
     Using radial grid of  867 points,  6 beta functions with: 
                l(1) =   0
                l(2) =   0
                l(3) =   1
                l(4) =   1
                l(5) =   2
                l(6) =   2
     Q(r) pseudized with  8 coefficients,  rinner =    1.400   1.400   1.400
                                                       1.400   1.400

     PseudoPot. # 2 for C  read from file:
     /home/549/hxw549/Short/pseudopotentials/C.star1s-pbe-mt_gipaw.UPF
     MD5 check sum: ef0cb3dee31bd9e4ba2a832a2c716264
     Pseudo is Norm-conserving, Zval =  5.0
     Generated by new atomic code, or converted to UPF format
     Using radial grid of 1073 points,  1 beta functions with: 
                l(1) =   0

     PseudoPot. # 3 for C  read from file:
     /home/549/hxw549/Short/pseudopotentials/C.pbe-mt_gipaw.UPF
     MD5 check sum: 5ac2f21f2c440b14befe521540822c15
     Pseudo is Norm-conserving, Zval =  4.0
     Generated by new atomic code, or converted to UPF format
     Using radial grid of 1073 points,  1 beta functions with: 
                l(1) =   0

     PseudoPot. # 4 for O  read from file:
     /home/549/hxw549/Short/pseudopotentials/O.pbe-van_gipaw.UPF
     MD5 check sum: 5ce2a047509d4f331db576c963e74b29
     Pseudo is Ultrasoft, Zval =  6.0
     Generated by new atomic code, or converted to UPF format
     Using radial grid of 1095 points,  4 beta functions with: 
                l(1) =   0
                l(2) =   0
                l(3) =   1
                l(4) =   1
     Q(r) pseudized with 0 coefficients 


     PseudoPot. # 5 for H  read from file:
     /home/549/hxw549/Short/pseudopotentials/H.pbe-van_ak.UPF
     MD5 check sum: 077eb6d537518a38cb46c6de387227b7
     Pseudo is Ultrasoft, Zval =  1.0
     Generated by new atomic code, or converted to UPF format
     Using radial grid of  615 points,  1 beta functions with: 
                l(1) =   0
     Q(r) pseudized with  8 coefficients,  rinner =    0.800

     atomic species   valence    mass     pseudopotential
        Cu            11.00    63.54600     Cu( 1.00)
        C_h            5.00    12.01070     C ( 1.00)
        C              4.00    12.01070     C ( 1.00)
        O              6.00    15.99940     O ( 1.00)
        H              1.00     1.00783     H ( 1.00)

     No symmetry found



   Cartesian axes

     site n.     atom                  positions (alat units)
         1           Cu  tau(   1) = (   0.0000842  -0.0003681   0.9999582  )
         2           Cu  tau(   2) = (   0.2500548   0.2313457   0.9998843  )
         3           Cu  tau(   3) = (   0.5000576  -0.0002607   0.9999865  )
         4           Cu  tau(   4) = (   0.7500833   0.2313139   0.9998641  )
         5           Cu  tau(   5) = (   0.0000630   0.4624576   0.9996374  )
         6           Cu  tau(   6) = (   0.2500574   0.6931393   0.9991054  )
         7           Cu  tau(   7) = (   0.5000697   0.4624370   0.9995248  )
         8           Cu  tau(   8) = (   0.7500716   0.6931484   0.9991088  )
         9           Cu  tau(   9) = (   0.0000622   0.9236166   0.9988218  )
        10           Cu  tau(  10) = (   0.2500643   1.1539091   0.9989623  )
        11           Cu  tau(  11) = (   0.5000640   0.9235821   0.9987715  )
        12           Cu  tau(  12) = (   0.7500634   1.1539179   0.9989606  )
        13           Cu  tau(  13) = (   0.0000687   1.3841458   0.9994650  )
        14           Cu  tau(  14) = (   0.2500837   1.6145936   0.9999104  )
        15           Cu  tau(  15) = (   0.5000627   1.3841804   0.9994855  )
        16           Cu  tau(  16) = (   0.7500522   1.6145705   0.9999235  )
        17           Cu  tau(  17) = (   0.0000612   1.8455769   1.0000095  )
        18           Cu  tau(  18) = (   0.2500741   2.0771549   1.0000108  )
        19           Cu  tau(  19) = (   0.5000791   1.8455049   1.0000850  )
        20           Cu  tau(  20) = (   0.7500687   2.0771896   1.0000020  )
        21           Cu  tau(  21) = (   0.0000704   0.2315434   1.2478653  )
        22           Cu  tau(  22) = (   0.2500664  -0.0002381   1.2475273  )
        23           Cu  tau(  23) = (   0.5000670   0.2316783   1.2479035  )
        24           Cu  tau(  24) = (   0.7500740  -0.0002273   1.2475423  )
        25           Cu  tau(  25) = (   0.0000692   0.6936868   1.2480512  )
        26           Cu  tau(  26) = (   0.2500874   0.4630175   1.2481231  )
        27           Cu  tau(  27) = (   0.5000643   0.6936369   1.2480478  )
        28           Cu  tau(  28) = (   0.7500461   0.4629896   1.2480760  )
        29           Cu  tau(  29) = (   0.0000655   1.1534501   1.2482728  )
        30           Cu  tau(  30) = (   0.2500957   0.9236477   1.2480367  )
        31           Cu  tau(  31) = (   0.5000669   1.1533940   1.2482530  )
        32           Cu  tau(  32) = (   0.7500350   0.9236609   1.2480361  )
        33           Cu  tau(  33) = (   0.0000688   1.6141455   1.2484967  )
        34           Cu  tau(  34) = (   0.2500811   1.3834824   1.2485944  )
        35           Cu  tau(  35) = (   0.5000677   1.6141108   1.2487066  )
        36           Cu  tau(  36) = (   0.7500538   1.3834640   1.2486243  )
        37           Cu  tau(  37) = (   0.0000721   2.0771959   1.2475848  )
        38           Cu  tau(  38) = (   0.2500753   1.8454353   1.2480641  )
        39           Cu  tau(  39) = (   0.5000696   2.0772392   1.2474654  )
        40           Cu  tau(  40) = (   0.7500644   1.8454540   1.2480357  )
        41           Cu  tau(  41) = (   0.0000552  -0.0003437   1.4963069  )
        42           Cu  tau(  42) = (   0.2501594   0.2316922   1.4966729  )
        43           Cu  tau(  43) = (   0.5000801  -0.0003239   1.4961498  )
        44           Cu  tau(  44) = (   0.7499692   0.2317424   1.4967073  )
        45           Cu  tau(  45) = (   0.0000623   0.4634405   1.4974589  )
        46           Cu  tau(  46) = (   0.2501391   0.6941193   1.4986964  )
        47           Cu  tau(  47) = (   0.5000667   0.4635838   1.4978574  )
        48           Cu  tau(  48) = (   0.7499975   0.6940653   1.4985995  )
        49           Cu  tau(  49) = (   0.0000719   0.9236097   1.4991718  )
        50           Cu  tau(  50) = (   0.2500634   1.1527743   1.4992825  )
        51           Cu  tau(  51) = (   0.5000695   0.9235140   1.4993108  )
        52           Cu  tau(  52) = (   0.7500770   1.1527397   1.4993345  )
        53           Cu  tau(  53) = (   0.0000750   1.3828780   1.4988430  )
        54           Cu  tau(  54) = (   0.2500890   1.6138847   1.4980387  )
        55           Cu  tau(  55) = (   0.5000679   1.3824979   1.4990271  )
        56           Cu  tau(  56) = (   0.7500488   1.6139412   1.4979863  )
        57           Cu  tau(  57) = (   0.0000808   1.8455483   1.4970029  )
        58           Cu  tau(  58) = (   0.2499997   2.0773826   1.4963591  )
        59           Cu  tau(  59) = (   0.5000580   1.8459184   1.4969695  )
        60           Cu  tau(  60) = (   0.7501390   2.0773614   1.4963585  )
        61           Cu  tau(  61) = (   0.0000295   0.2315309   1.7444207  )
        62           Cu  tau(  62) = (   0.2502029  -0.0002994   1.7446931  )
        63           Cu  tau(  63) = (   0.5000678   0.2311869   1.7451939  )
        64           Cu  tau(  64) = (   0.7499079  -0.0002989   1.7446971  )
        65           Cu  tau(  65) = (   0.0000435   0.6936173   1.7489464  )
        66           Cu  tau(  66) = (   0.2505725   0.4629719   1.7465844  )
        67           Cu  tau(  67) = (   0.5000601   0.6943936   1.7503369  )
        68           Cu  tau(  68) = (   0.7495268   0.4630920   1.7467012  )
        69           Cu  tau(  69) = (   0.0000924   1.1527931   1.7508173  )
        70           Cu  tau(  70) = (   0.2502615   0.9234581   1.7512347  )
        71           Cu  tau(  71) = (   0.5000542   1.1517041   1.7514155  )
        72           Cu  tau(  72) = (   0.7499023   0.9232312   1.7511647  )
        73           Cu  tau(  73) = (   0.0000949   1.6141779   1.7468887  )
        74           Cu  tau(  74) = (   0.2500008   1.3824766   1.7488313  )
        75           Cu  tau(  75) = (   0.5000403   1.6144221   1.7459068  )
        76           Cu  tau(  76) = (   0.7501499   1.3826237   1.7486353  )
        77           Cu  tau(  77) = (   0.0000597   2.0774819   1.7453209  )
        78           Cu  tau(  78) = (   0.2497908   1.8462237   1.7455670  )
        79           Cu  tau(  79) = (   0.5000663   2.0778525   1.7452871  )
        80           Cu  tau(  80) = (   0.7503417   1.8461915   1.7455604  )
        81           Cu  tau(  81) = (   0.0000293   0.0005630   1.9893151  )
        82           Cu  tau(  82) = (   0.2503945   0.2305317   1.9904370  )
        83           Cu  tau(  83) = (   0.5000451  -0.0001654   1.9914204  )
        84           Cu  tau(  84) = (   0.7496550   0.2306286   1.9903824  )
        85           Cu  tau(  85) = (   0.0001352   0.4606957   1.9911783  )
        86           Cu  tau(  86) = (   0.2509809   0.6915100   1.9960722  )
        87           Cu  tau(  87) = (   0.4999039   0.4602277   1.9939597  )
        88           Cu  tau(  88) = (   0.7490330   0.6914184   1.9964879  )
        89           Cu  tau(  89) = (   0.0000790   0.9223187   1.9982276  )
        90           Cu  tau(  90) = (   0.2509422   1.1535728   1.9995783  )
        91           Cu  tau(  91) = (   0.5001296   0.9227220   2.0050881  )
        92           Cu  tau(  92) = (   0.7492111   1.1536228   1.9988463  )
        93           Cu  tau(  93) = (   0.0000122   1.3841067   1.9962199  )
        94           Cu  tau(  94) = (   0.2491204   1.6154633   1.9915726  )
        95           Cu  tau(  95) = (   0.5001393   1.3858631   1.9939386  )
        96           Cu  tau(  96) = (   0.7510023   1.6154462   1.9916054  )
        97           Cu  tau(  97) = (   0.0000452   1.8467905   1.9920833  )
        98           Cu  tau(  98) = (   0.2500174   2.0780821   1.9906638  )
        99           Cu  tau(  99) = (   0.5000701   1.8458323   1.9897529  )
       100           Cu  tau( 100) = (   0.7500815   2.0780660   1.9906233  )
       101           C   tau( 101) = (   0.0000064   0.0982753   2.3856156  )
       102           C   tau( 102) = (   0.0000439   0.2906318   2.3863779  )
       103           C   tau( 103) = (   0.1666622   0.0021375   2.3846841  )
       104           C   tau( 104) = (   0.1665525   0.3867349   2.3858861  )
       105           C   tau( 105) = (   0.3332165   0.0983228   2.3831609  )
       106           C   tau( 106) = (   0.3332256   0.2906221   2.3844894  )
       107           C   tau( 107) = (   0.5000598   0.0019732   2.3803645  )
       108           C   tau( 108) = (   0.5000831   0.3875023   2.3852626  )
       109           C   tau( 109) = (   0.6668708   0.0983910   2.3827119  )
       110           C   tau( 110) = (   0.6669726   0.2907066   2.3839420  )
       111           C   tau( 111) = (   0.8333707   0.0021311   2.3842294  )
       112           C   tau( 112) = (   0.8335622   0.3868739   2.3852090  )
       113           C   tau( 113) = (  -0.0000664   0.6753953   2.3854927  )
       114           C   tau( 114) = (  -0.0000530   0.8677380   2.3850831  )
       115           C   tau( 115) = (   0.1662822   0.5790995   2.3858133  )
       116           C   tau( 116) = (   0.1669701   0.9636455   2.3943290  )
       117           C   tau( 117) = (   0.3328676   0.6759619   2.3925700  )
       118           C   tau( 118) = (   0.3306870   0.8664276   2.4033686  )
       119           C   tau( 119) = (   0.5000557   0.5791262   2.3918876  )
       120           C   tau( 120) = (   0.5005703   0.9642771   2.4585553  )
       121           C   tau( 121) = (   0.6669877   0.6763032   2.3895459  )
       122           C   tau( 122) = (   0.6689183   0.8667870   2.4013501  )
       123           C   tau( 123) = (   0.8335215   0.5793055   2.3841319  )
       124           C   tau( 124) = (   0.8327639   0.9636664   2.3937551  )
       125           C   tau( 125) = (   0.0001775   1.2524267   2.3940154  )
       126           C   tau( 126) = (   0.0002058   1.4454123   2.3866222  )
       127           C   tau( 127) = (   0.1666178   1.1567825   2.3964067  )
       128           C   tau( 128) = (   0.1669769   1.5416877   2.3844312  )
       129           C_h tau( 129) = (   0.3342788   1.2531476   2.3945734  )
       130           C   tau( 130) = (   0.3337672   1.4457448   2.3873535  )
       131           C   tau( 131) = (   0.5000705   1.1600103   2.4042867  )
       132           C   tau( 132) = (   0.5001390   1.5419263   2.3875286  )
       133           C   tau( 133) = (   0.6659113   1.2532485   2.3961466  )
       134           C   tau( 134) = (   0.6665638   1.4459311   2.3883803  )
       135           C   tau( 135) = (   0.8334444   1.1567853   2.3980193  )
       136           C   tau( 136) = (   0.8334256   1.5416843   2.3850458  )
       137           C   tau( 137) = (   0.0000818   1.8305645   2.3801465  )
       138           C   tau( 138) = (   0.0000178   2.0230047   2.3827294  )
       139           C   tau( 139) = (   0.1669767   1.7342100   2.3821412  )
       140           C   tau( 140) = (   0.1666234   2.1191650   2.3827717  )
       141           C   tau( 141) = (   0.3334727   1.8304533   2.3834572  )
       142           C   tau( 142) = (   0.3334464   2.0228704   2.3818320  )
       143           C   tau( 143) = (   0.5000638   1.7343864   2.3850919  )
       144           C   tau( 144) = (   0.5000445   2.1189962   2.3815734  )
       145           C   tau( 145) = (   0.6666800   1.8303624   2.3835727  )
       146           C   tau( 146) = (   0.6666154   2.0227865   2.3818160  )
       147           C   tau( 147) = (   0.8332512   1.7341954   2.3822333  )
       148           C   tau( 148) = (   0.8333765   2.1191374   2.3825846  )
       149           C   tau( 149) = (   0.4878592   0.9658295   2.6754889  )
       150           O   tau( 150) = (   0.3907150   1.0691884   2.7619711  )
       151           O   tau( 151) = (   0.5916853   0.8343731   2.7542978  )
       152           H   tau( 152) = (   0.5700785   0.8427763   2.8860689  )

     number of k points=     6  gaussian smearing, width (Ry)=  0.1000
                       cart. coord. in units 2pi/alat
        k(    1) = (   0.0000000   0.0000000   0.0000000), wk =   0.2500000
        k(    2) = (   0.0000000  -0.2165064   0.0000000), wk =   0.2500000
        k(    3) = (   0.2500000   0.0000000   0.0000000), wk =   0.5000000
        k(    4) = (   0.2500000  -0.2165064   0.0000000), wk =   0.5000000
        k(    5) = (  -0.5000000   0.0000000   0.0000000), wk =   0.2500000
        k(    6) = (  -0.5000000  -0.2165064   0.0000000), wk =   0.2500000

     Dense  grid:  2050409 G-vectors     FFT dimensions: (  80, 192, 270)

     Largest allocated arrays     est. size (Mb)     dimensions
        Kohn-Sham Wavefunctions        55.22 Mb     (    4604,  786)
        NL pseudopotentials           131.09 Mb     (    4604, 1866)
        Each V/rho on FFT grid          1.17 Mb     (   76800)
        Each G-vector array             0.28 Mb     (   36616)
        G-vector shells                 0.14 Mb     (   17932)
     Largest temporary arrays     est. size (Mb)     dimensions
        Auxiliary wavefunctions       220.87 Mb     (    4604, 3144)
        Each subspace H/S matrix        6.02 Mb     (     628,  628)
        Each <psi_i|beta_j> matrix     22.38 Mb     (    1866,  786)
        Arrays for rho mixing           9.38 Mb     (   76800,    8)

     Initial potential from superposition of free atoms
     Check: negative starting charge=   -0.001569

     starting charge 1283.31750, renormalised to 1309.00000

     negative rho (up, down):  1.601E-03 0.000E+00
     Starting wfc are 1301 randomized atomic wfcs

     total cpu time spent up to now is      109.8 secs

     Self-consistent Calculation

     iteration #  1     ecut=    80.00 Ry     beta=0.70
     Davidson diagonalization with overlap
     c_bands:  4 eigenvalues not converged
     c_bands:  2 eigenvalues not converged
     c_bands:  1 eigenvalues not converged
     c_bands:  1 eigenvalues not converged
     c_bands:  3 eigenvalues not converged
     ethr =  1.00E-04,  avg # of iterations = 36.8

     negative rho (up, down):  2.267E+01 0.000E+00

     total cpu time spent up to now is     2184.9 secs

     total energy              =  -10161.01582488 Ry
     Harris-Foulkes estimate   =  -17464.01654785 Ry
     estimated scf accuracy    <  182160.33987678 Ry

     iteration #  2     ecut=    80.00 Ry     beta=0.70
     Davidson diagonalization with overlap
     ethr =  1.00E-02,  avg # of iterations = 10.0

     negative rho (up, down):  2.703E+01 0.000E+00

     total cpu time spent up to now is     3100.6 secs

     total energy              =  -12005.49281729 Ry
     Harris-Foulkes estimate   =  -13737.39564658 Ry
     estimated scf accuracy    <   29622.42245135 Ry

     iteration #  3     ecut=    80.00 Ry     beta=0.70
     Davidson diagonalization with overlap
     ethr =  1.00E-02,  avg # of iterations =  6.5

     negative rho (up, down):  2.780E+01 0.000E+00

     total cpu time spent up to now is     3665.8 secs

     total energy              =  -12454.53802296 Ry
     Harris-Foulkes estimate   =  -13525.60918714 Ry
     estimated scf accuracy    <    5884.32752722 Ry

     iteration #  4     ecut=    80.00 Ry     beta=0.70
     Davidson diagonalization with overlap
     ethr =  1.00E-02,  avg # of iterations =  5.3

     negative rho (up, down):  1.826E+01 0.000E+00

     total cpu time spent up to now is     4223.7 secs

     total energy              =  -12868.28982723 Ry
     Harris-Foulkes estimate   =  -13106.11856705 Ry
     estimated scf accuracy    <     857.40706762 Ry

     iteration #  5     ecut=    80.00 Ry     beta=0.70
     Davidson diagonalization with overlap
     ethr =  1.00E-02,  avg # of iterations =  2.7

     negative rho (up, down):  1.584E+01 0.000E+00

     total cpu time spent up to now is     4495.0 secs

     total energy              =  -12892.64875674 Ry
     Harris-Foulkes estimate   =  -12951.45346711 Ry
     estimated scf accuracy    <    1526.83846660 Ry

     iteration #  6     ecut=    80.00 Ry     beta=0.70
     Davidson diagonalization with overlap
     ethr =  1.00E-02,  avg # of iterations =  1.0

     negative rho (up, down):  1.016E+01 0.000E+00

     total cpu time spent up to now is     4667.1 secs

     total energy              =  -12863.01350768 Ry
     Harris-Foulkes estimate   =  -12917.71035973 Ry
     estimated scf accuracy    <     439.81647272 Ry

     iteration #  7     ecut=    80.00 Ry     beta=0.70
     Davidson diagonalization with overlap
     ethr =  1.00E-02,  avg # of iterations =  2.0

     negative rho (up, down):  7.835E+00 0.000E+00

     total cpu time spent up to now is     4859.8 secs

     total energy              =  -12850.82412239 Ry
     Harris-Foulkes estimate   =  -12879.70468194 Ry
     estimated scf accuracy    <     825.35260317 Ry

     iteration #  8     ecut=    80.00 Ry     beta=0.70
     Davidson diagonalization with overlap
     ethr =  1.00E-02,  avg # of iterations =  1.0

     negative rho (up, down):  7.054E+00 0.000E+00

     total cpu time spent up to now is     5031.5 secs

     total energy              =  -12848.01801354 Ry
     Harris-Foulkes estimate   =  -12860.81659126 Ry
     estimated scf accuracy    <     517.08543344 Ry

     iteration #  9     ecut=    80.00 Ry     beta=0.70
     Davidson diagonalization with overlap
     ethr =  1.00E-02,  avg # of iterations =  1.0

     negative rho (up, down):  5.788E+00 0.000E+00

     total cpu time spent up to now is     5203.6 secs

     total energy              =  -12838.24309384 Ry
     Harris-Foulkes estimate   =  -12851.33901482 Ry
     estimated scf accuracy    <     213.29923976 Ry

     iteration # 10     ecut=    80.00 Ry     beta=0.70
     Davidson diagonalization with overlap
     ethr =  1.00E-02,  avg # of iterations =  1.0

     negative rho (up, down):  1.819E+00 0.000E+00

     total cpu time spent up to now is     5375.8 secs

     total energy              =  -12802.50383873 Ry
     Harris-Foulkes estimate   =  -12843.13937866 Ry
     estimated scf accuracy    <     334.81058348 Ry

     iteration # 11     ecut=    80.00 Ry     beta=0.70
     Davidson diagonalization with overlap
     ethr =  1.00E-02,  avg # of iterations =  2.3

     negative rho (up, down):  1.670E+00 0.000E+00

     total cpu time spent up to now is     5564.2 secs

     total energy              =  -12801.23079289 Ry
     Harris-Foulkes estimate   =  -12818.02425935 Ry
     estimated scf accuracy    <     288.00253855 Ry

     iteration # 12     ecut=    80.00 Ry     beta=0.70
     Davidson diagonalization with overlap
     ethr =  1.00E-02,  avg # of iterations =  1.2

     negative rho (up, down):  5.923E-01 0.000E+00

     total cpu time spent up to now is     5738.3 secs

     total energy              =  -12798.46063109 Ry
     Harris-Foulkes estimate   =  -12812.49742668 Ry
     estimated scf accuracy    <      70.24156566 Ry

     iteration # 13     ecut=    80.00 Ry     beta=0.70
     Davidson diagonalization with overlap
     ethr =  5.37E-03,  avg # of iterations =  2.2

     negative rho (up, down):  1.605E+00 0.000E+00

     total cpu time spent up to now is     5925.1 secs

     total energy              =  -12794.74932142 Ry
     Harris-Foulkes estimate   =  -12802.39250930 Ry
     estimated scf accuracy    <      39.58824634 Ry

     iteration # 14     ecut=    80.00 Ry     beta=0.70
     Davidson diagonalization with overlap
     ethr =  3.02E-03,  avg # of iterations =  3.8

     negative rho (up, down):  3.866E+00 0.000E+00

     total cpu time spent up to now is     6130.0 secs

     total energy              =  -12791.09171414 Ry
     Harris-Foulkes estimate   =  -12795.68946519 Ry
     estimated scf accuracy    <      38.19474667 Ry

     iteration # 15     ecut=    80.00 Ry     beta=0.70
     Davidson diagonalization with overlap
     ethr =  2.92E-03,  avg # of iterations =  3.7

     negative rho (up, down):  4.126E+00 0.000E+00

     total cpu time spent up to now is     6333.4 secs

     total energy              =  -12789.07895228 Ry
     Harris-Foulkes estimate   =  -12791.88461194 Ry
     estimated scf accuracy    <      22.48731400 Ry

     iteration # 16     ecut=    80.00 Ry     beta=0.70
     Davidson diagonalization with overlap
     ethr =  1.72E-03,  avg # of iterations =  4.8

     negative rho (up, down):  3.252E+00 0.000E+00

     total cpu time spent up to now is     6551.1 secs

     total energy              =  -12787.99581038 Ry
     Harris-Foulkes estimate   =  -12789.54079162 Ry
     estimated scf accuracy    <      15.55780655 Ry

     iteration # 17     ecut=    80.00 Ry     beta=0.70
     Davidson diagonalization with overlap
     ethr =  1.19E-03,  avg # of iterations =  4.2

     negative rho (up, down):  3.228E+00 0.000E+00

     total cpu time spent up to now is     6759.8 secs

     total energy              =  -12787.27657379 Ry
     Harris-Foulkes estimate   =  -12788.25938286 Ry
     estimated scf accuracy    <       9.09603681 Ry

     iteration # 18     ecut=    80.00 Ry     beta=0.70
     Davidson diagonalization with overlap
     ethr =  6.95E-04,  avg # of iterations =  9.7

     negative rho (up, down):  1.436E+00 0.000E+00

     total cpu time spent up to now is     7036.9 secs

     total energy              =  -12785.87260240 Ry
     Harris-Foulkes estimate   =  -12787.41585681 Ry
     estimated scf accuracy    <       5.93999292 Ry

     iteration # 19     ecut=    80.00 Ry     beta=0.70
     Davidson diagonalization with overlap
     ethr =  4.54E-04,  avg # of iterations =  6.7

     negative rho (up, down):  1.720E+00 0.000E+00

     total cpu time spent up to now is     7277.7 secs

     total energy              =  -12785.37687762 Ry
     Harris-Foulkes estimate   =  -12786.16936701 Ry
     estimated scf accuracy    <       7.82509801 Ry

     iteration # 20     ecut=    80.00 Ry     beta=0.70
     Davidson diagonalization with overlap
     ethr =  4.54E-04,  avg # of iterations =  6.3

     negative rho (up, down):  1.726E+00 0.000E+00

     total cpu time spent up to now is     7515.5 secs

     total energy              =  -12785.31958428 Ry
     Harris-Foulkes estimate   =  -12785.59174446 Ry
     estimated scf accuracy    <       6.41419097 Ry

     iteration # 21     ecut=    80.00 Ry     beta=0.70
     Davidson diagonalization with overlap
     ethr =  4.54E-04,  avg # of iterations =  5.3

     negative rho (up, down):  1.361E+00 0.000E+00

     total cpu time spent up to now is     7737.8 secs

     total energy              =  -12784.79395063 Ry
     Harris-Foulkes estimate   =  -12785.75679316 Ry
     estimated scf accuracy    <       3.62156325 Ry

     iteration # 22     ecut=    80.00 Ry     beta=0.70
     Davidson diagonalization with overlap
     ethr =  2.77E-04,  avg # of iterations =  3.0

     negative rho (up, down):  7.538E-01 0.000E+00

     total cpu time spent up to now is     7933.6 secs

     total energy              =  -12783.96551924 Ry
     Harris-Foulkes estimate   =  -12784.88268381 Ry
     estimated scf accuracy    <       2.50385917 Ry

     iteration # 23     ecut=    80.00 Ry     beta=0.70
     Davidson diagonalization with overlap
     ethr =  1.91E-04,  avg # of iterations =  5.8

     negative rho (up, down):  7.628E-01 0.000E+00

     total cpu time spent up to now is     8167.3 secs

     total energy              =  -12783.65379222 Ry
     Harris-Foulkes estimate   =  -12784.06687743 Ry
     estimated scf accuracy    <       3.01893348 Ry

     iteration # 24     ecut=    80.00 Ry     beta=0.70
     Davidson diagonalization with overlap
     ethr =  1.91E-04,  avg # of iterations =  5.8

     negative rho (up, down):  7.170E-01 0.000E+00

     total cpu time spent up to now is     8400.1 secs

     total energy              =  -12783.48918034 Ry
     Harris-Foulkes estimate   =  -12783.73819673 Ry
     estimated scf accuracy    <       1.03374026 Ry

     iteration # 25     ecut=    80.00 Ry     beta=0.70
     Davidson diagonalization with overlap
     ethr =  7.90E-05,  avg # of iterations =  8.0

     negative rho (up, down):  6.672E-01 0.000E+00

     total cpu time spent up to now is     8669.1 secs

     total energy              =  -12783.44287185 Ry
     Harris-Foulkes estimate   =  -12783.55503241 Ry
     estimated scf accuracy    <       0.53597499 Ry

     iteration # 26     ecut=    80.00 Ry     beta=0.70
     Davidson diagonalization with overlap
     ethr =  4.09E-05,  avg # of iterations =  9.5

     negative rho (up, down):  6.181E-01 0.000E+00

     total cpu time spent up to now is     8955.7 secs

     total energy              =  -12783.41497133 Ry
     Harris-Foulkes estimate   =  -12783.47650319 Ry
     estimated scf accuracy    <       0.24801149 Ry

     iteration # 27     ecut=    80.00 Ry     beta=0.70
     Davidson diagonalization with overlap
     ethr =  1.89E-05,  avg # of iterations =  8.5

     negative rho (up, down):  2.035E-01 0.000E+00

     total cpu time spent up to now is     9242.6 secs

     total energy              =  -12783.39037999 Ry
     Harris-Foulkes estimate   =  -12783.42987112 Ry
     estimated scf accuracy    <       0.10932461 Ry

     iteration # 28     ecut=    80.00 Ry     beta=0.70
     Davidson diagonalization with overlap
     ethr =  8.35E-06,  avg # of iterations =  9.2

     negative rho (up, down):  1.681E-01 0.000E+00

     total cpu time spent up to now is     9548.5 secs

     total energy              =  -12783.39231206 Ry
     Harris-Foulkes estimate   =  -12783.39782332 Ry
     estimated scf accuracy    <       0.07397348 Ry

     iteration # 29     ecut=    80.00 Ry     beta=0.70
     Davidson diagonalization with overlap
     ethr =  5.65E-06,  avg # of iterations =  6.5

     negative rho (up, down):  4.558E-02 0.000E+00

     total cpu time spent up to now is     9796.8 secs

     total energy              =  -12783.38757155 Ry
     Harris-Foulkes estimate   =  -12783.39528477 Ry
     estimated scf accuracy    <       0.02616513 Ry

     iteration # 30     ecut=    80.00 Ry     beta=0.70
     Davidson diagonalization with overlap
     c_bands:  1 eigenvalues not converged
     c_bands:  2 eigenvalues not converged
     ethr =  2.00E-06,  avg # of iterations = 17.5

     negative rho (up, down):  8.504E-02 0.000E+00

     total cpu time spent up to now is    10245.6 secs

     total energy              =  -12783.38997294 Ry
     Harris-Foulkes estimate   =  -12783.39268705 Ry
     estimated scf accuracy    <       0.02271626 Ry

     iteration # 31     ecut=    80.00 Ry     beta=0.70
     Davidson diagonalization with overlap
     ethr =  1.74E-06,  avg # of iterations = 12.5

     negative rho (up, down):  3.822E-02 0.000E+00

     total cpu time spent up to now is    10581.6 secs

     total energy              =  -12783.39043254 Ry
     Harris-Foulkes estimate   =  -12783.39187461 Ry
     estimated scf accuracy    <       0.00422611 Ry

     iteration # 32     ecut=    80.00 Ry     beta=0.70
     Davidson diagonalization with overlap
     c_bands:  1 eigenvalues not converged
     c_bands:  1 eigenvalues not converged
     ethr =  3.23E-07,  avg # of iterations = 13.3

     negative rho (up, down):  4.424E-02 0.000E+00

     total cpu time spent up to now is    10924.2 secs

     total energy              =  -12783.39066929 Ry
     Harris-Foulkes estimate   =  -12783.39069585 Ry
     estimated scf accuracy    <       0.00222976 Ry

     iteration # 33     ecut=    80.00 Ry     beta=0.70
     Davidson diagonalization with overlap
     ethr =  1.70E-07,  avg # of iterations =  9.7

     negative rho (up, down):  2.359E-02 0.000E+00

     total cpu time spent up to now is    11218.1 secs

     total energy              =  -12783.39048598 Ry
     Harris-Foulkes estimate   =  -12783.39090168 Ry
     estimated scf accuracy    <       0.00114744 Ry

     iteration # 34     ecut=    80.00 Ry     beta=0.70
     Davidson diagonalization with overlap
     c_bands:  1 eigenvalues not converged
     ethr =  8.77E-08,  avg # of iterations = 11.7

     negative rho (up, down):  1.605E-02 0.000E+00

     total cpu time spent up to now is    11535.4 secs

     total energy              =  -12783.39041864 Ry
     Harris-Foulkes estimate   =  -12783.39057445 Ry
     estimated scf accuracy    <       0.00042447 Ry

     iteration # 35     ecut=    80.00 Ry     beta=0.70
     Davidson diagonalization with overlap
     ethr =  3.24E-08,  avg # of iterations = 11.0

     negative rho (up, down):  7.514E-03 0.000E+00

     total cpu time spent up to now is    11836.4 secs

     total energy              =  -12783.39026471 Ry
     Harris-Foulkes estimate   =  -12783.39044592 Ry
     estimated scf accuracy    <       0.00015333 Ry

     iteration # 36     ecut=    80.00 Ry     beta=0.70
     Davidson diagonalization with overlap
     c_bands:  1 eigenvalues not converged
     c_bands:  1 eigenvalues not converged
     ethr =  1.17E-08,  avg # of iterations = 11.8

     negative rho (up, down):  2.397E-03 0.000E+00

     total cpu time spent up to now is    12159.0 secs

     total energy              =  -12783.39018181 Ry
     Harris-Foulkes estimate   =  -12783.39027815 Ry
     estimated scf accuracy    <       0.00006671 Ry

     iteration # 37     ecut=    80.00 Ry     beta=0.70
     Davidson diagonalization with overlap
     c_bands:  1 eigenvalues not converged
     ethr =  5.10E-09,  avg # of iterations =  8.5

     negative rho (up, down):  1.510E-03 0.000E+00

     total cpu time spent up to now is    12436.6 secs

     total energy              =  -12783.39018120 Ry
     Harris-Foulkes estimate   =  -12783.39018570 Ry
     estimated scf accuracy    <       0.00002394 Ry

     iteration # 38     ecut=    80.00 Ry     beta=0.70
     Davidson diagonalization with overlap
     ethr =  1.83E-09,  avg # of iterations =  2.0

     negative rho (up, down):  1.320E-03 0.000E+00

     total cpu time spent up to now is    12629.0 secs

     total energy              =  -12783.39018177 Ry
     Harris-Foulkes estimate   =  -12783.39018320 Ry
     estimated scf accuracy    <       0.00001204 Ry

     iteration # 39     ecut=    80.00 Ry     beta=0.70
     Davidson diagonalization with overlap
     ethr =  9.19E-10,  avg # of iterations =  3.7

     negative rho (up, down):  1.425E-03 0.000E+00

     total cpu time spent up to now is    12841.3 secs

     total energy              =  -12783.39019245 Ry
     Harris-Foulkes estimate   =  -12783.39018272 Ry
     estimated scf accuracy    <       0.00000386 Ry

     iteration # 40     ecut=    80.00 Ry     beta=0.70
     Davidson diagonalization with overlap
     ethr =  2.95E-10,  avg # of iterations =  3.2

     negative rho (up, down):  1.767E-03 0.000E+00

     total cpu time spent up to now is    13048.3 secs

     total energy              =  -12783.39019492 Ry
     Harris-Foulkes estimate   =  -12783.39019279 Ry
     estimated scf accuracy    <       0.00000229 Ry

     iteration # 41     ecut=    80.00 Ry     beta=0.70
     Davidson diagonalization with overlap
     ethr =  1.75E-10,  avg # of iterations =  3.0

     negative rho (up, down):  1.890E-03 0.000E+00

     total cpu time spent up to now is    13258.0 secs

     total energy              =  -12783.39019536 Ry
     Harris-Foulkes estimate   =  -12783.39019511 Ry
     estimated scf accuracy    <       0.00000078 Ry

     iteration # 42     ecut=    80.00 Ry     beta=0.70
     Davidson diagonalization with overlap
     ethr =  5.93E-11,  avg # of iterations =  2.8

     negative rho (up, down):  1.960E-03 0.000E+00

     total cpu time spent up to now is    13462.1 secs

     total energy              =  -12783.39019538 Ry
     Harris-Foulkes estimate   =  -12783.39019545 Ry
     estimated scf accuracy    <       0.00000042 Ry

     iteration # 43     ecut=    80.00 Ry     beta=0.70
     Davidson diagonalization with overlap
     ethr =  3.23E-11,  avg # of iterations =  2.3

     negative rho (up, down):  1.951E-03 0.000E+00

     total cpu time spent up to now is    13657.0 secs

     total energy              =  -12783.39019535 Ry
     Harris-Foulkes estimate   =  -12783.39019542 Ry
     estimated scf accuracy    <       0.00000011 Ry

     iteration # 44     ecut=    80.00 Ry     beta=0.70
     Davidson diagonalization with overlap
     ethr =  8.67E-12,  avg # of iterations =  3.3

     negative rho (up, down):  1.921E-03 0.000E+00

     total cpu time spent up to now is    13874.0 secs

     total energy              =  -12783.39019539 Ry
     Harris-Foulkes estimate   =  -12783.39019537 Ry
     estimated scf accuracy    <       0.00000003 Ry

     iteration # 45     ecut=    80.00 Ry     beta=0.70
     Davidson diagonalization with overlap
     ethr =  2.25E-12,  avg # of iterations =  2.8

     negative rho (up, down):  1.913E-03 0.000E+00

     total cpu time spent up to now is    14079.4 secs

     total energy              =  -12783.39019540 Ry
     Harris-Foulkes estimate   =  -12783.39019539 Ry
     estimated scf accuracy    <       0.00000001 Ry

     iteration # 46     ecut=    80.00 Ry     beta=0.70
     Davidson diagonalization with overlap
     ethr =  1.06E-12,  avg # of iterations =  3.0

     negative rho (up, down):  1.898E-03 0.000E+00

     total cpu time spent up to now is    14275.3 secs

     End of self-consistent calculation

          k = 0.0000 0.0000 0.0000 (256287 PWs)   bands (ev):

   -20.2252 -17.9833 -17.0805 -16.1211 -15.9599 -15.2897 -14.9175 -14.6265
   -14.5423 -14.1416 -14.0842 -14.0132 -14.0009 -13.3720 -13.1947 -13.0199
   -13.0079 -12.9715 -12.9391 -11.5950 -11.3963 -11.3640 -11.2968 -11.0956
   -10.1994  -9.7289  -9.6046  -9.5569  -9.4710  -8.8619  -8.8156  -8.6379
    -8.5037  -8.2233  -7.8205  -7.7719  -7.6168  -7.5141  -7.4537  -7.4148
    -7.3970  -7.3404  -6.3256  -6.2112  -5.9903  -5.9403  -5.9010  -5.8075
    -5.7730  -5.7341  -5.6964  -5.3898  -5.3700  -5.3043  -4.9232  -4.7458
    -4.6582  -4.6228  -4.5120  -4.4819  -4.3441  -4.2562  -4.1483  -4.1359
    -3.9038  -3.8875  -3.8698  -3.8375  -3.8105  -3.5521  -3.4650  -3.4201
    -3.3582  -3.3386  -3.2903  -3.2839  -3.2192  -3.1268  -3.0877  -3.0452
    -3.0058  -2.9201  -2.8933  -2.8909  -2.8876  -2.8768  -2.8262  -2.7149
    -2.7132  -2.6433  -2.6338  -2.6190  -2.6103  -2.5969  -2.5141  -2.5082
    -2.4144  -2.3037  -2.2617  -2.2421  -2.2288  -2.1877  -2.1277  -2.0786
    -2.0752  -2.0672  -2.0404  -2.0377  -2.0367  -2.0360  -2.0353  -1.9778
    -1.9523  -1.9084  -1.9082  -1.9042  -1.9039  -1.8458  -1.8094  -1.7378
    -1.7260  -1.6622  -1.6268  -1.6238  -1.6222  -1.6183  -1.5835  -1.5621
    -1.5583  -1.5445  -1.5390  -1.4940  -1.4820  -1.4733  -1.4504  -1.4487
    -1.4453  -1.4397  -1.4261  -1.4149  -1.4051  -1.4011  -1.3992  -1.3931
    -1.3319  -1.3240  -1.3021  -1.2892  -1.2833  -1.2660  -1.2564  -1.2384
    -1.2128  -1.1848  -1.1498  -1.1489  -1.1362  -1.1033  -1.0974  -1.0966
    -1.0779  -1.0745  -1.0530  -1.0489  -1.0317  -1.0117  -0.9947  -0.9828
    -0.9367  -0.9331  -0.9255  -0.9190  -0.9152  -0.9098  -0.9083  -0.9078
    -0.9071  -0.9052  -0.9030  -0.8903  -0.8846  -0.8734  -0.8425  -0.8376
    -0.8300  -0.8206  -0.8121  -0.8053  -0.8036  -0.8026  -0.8015  -0.7544
    -0.7456  -0.7440  -0.7430  -0.7422  -0.7415  -0.7405  -0.7378  -0.7349
    -0.7339  -0.7334  -0.7331  -0.7322  -0.7312  -0.7275  -0.7271  -0.7149
    -0.7144  -0.6950  -0.6769  -0.6692  -0.5760  -0.5757  -0.5691  -0.5686
    -0.5474  -0.5461  -0.5273  -0.5272  -0.5073  -0.5057  -0.5033  -0.4954
    -0.4876  -0.4871  -0.4792  -0.4749  -0.4507  -0.4504  -0.4465  -0.4456
    -0.4402  -0.4395  -0.4294  -0.4283  -0.3787  -0.3778  -0.3411  -0.3255
    -0.3247  -0.3239  -0.3142  -0.3136  -0.3119  -0.3079  -0.2974  -0.2955
    -0.2920  -0.2901  -0.2896  -0.2890  -0.2857  -0.2856  -0.2711  -0.2708
    -0.2684  -0.2657  -0.2596  -0.2366  -0.2357  -0.1892  -0.1858  -0.1851
    -0.1806  -0.1778  -0.1776  -0.1546  -0.1544  -0.1477  -0.1476  -0.1355
    -0.1346  -0.1280  -0.1278  -0.1255  -0.1102  -0.1095  -0.1064  -0.1039
    -0.1023  -0.1019  -0.0985  -0.0970  -0.0954  -0.0915  -0.0775  -0.0761
    -0.0734  -0.0732  -0.0657  -0.0513  -0.0077  -0.0052  -0.0050  -0.0040
    -0.0040   0.0363   0.0395   0.0427   0.0459   0.0461   0.0514   0.0520
     0.0535   0.0542   0.0547   0.0658   0.0778   0.0917   0.1035   0.1036
     0.1058   0.1066   0.1136   0.1295   0.1311   0.1361   0.1386   0.1397
     0.1472   0.1592   0.1598   0.1601   0.1610   0.1638   0.1680   0.1762
     0.1766   0.1773   0.1777   0.1861   0.1902   0.1939   0.1996   0.2157
     0.2170   0.2483   0.2491   0.2580   0.2793   0.2816   0.2997   0.3036
     0.3090   0.3419   0.3431   0.3497   0.3568   0.3610   0.3635   0.3754
     0.3854   0.3857   0.3871   0.3874   0.3925   0.3950   0.3984   0.4440
     0.4471   0.4532   0.4541   0.4596   0.4639   0.4648   0.4759   0.4915
     0.4951   0.4958   0.4969   0.4989   0.5183   0.5279   0.5327   0.5371
     0.5427   0.5500   0.5523   0.5543   0.5555   0.5909   0.5934   0.6028
     0.6042   0.6088   0.6165   0.6173   0.6218   0.6363   0.6377   0.6393
     0.6467   0.6475   0.6479   0.6497   0.6515   0.6552   0.6581   0.6609
     0.6644   0.6659   0.6688   0.6712   0.6779   0.6780   0.7061   0.7127
     0.7183   0.7185   0.7231   0.7341   0.7586   0.7622   0.7624   0.7632
     0.7661   0.7670   0.7683   0.7696   0.7757   0.7791   0.7851   0.7875
     0.7920   0.7938   0.7946   0.7999   0.8002   0.8095   0.8120   0.8197
     0.8241   0.8338   0.8354   0.8375   0.8416   0.8475   0.8482   0.8555
     0.8604   0.8612   0.8612   0.8680   0.8681   0.8706   0.8728   0.8812
     0.8850   0.9061   0.9186   0.9191   0.9306   0.9335   0.9338   0.9346
     0.9402   0.9412   0.9686   0.9694   0.9833   0.9839   0.9889   0.9893
     1.0034   1.0038   1.0122   1.0131   1.0132   1.0136   1.0250   1.0340
     1.0499   1.0518   1.0521   1.0552   1.0552   1.0561   1.0723   1.0771
     1.0900   1.0938   1.0981   1.0992   1.1046   1.1122   1.1225   1.1241
     1.1252   1.1262   1.1263   1.1290   1.1331   1.1352   1.1405   1.1410
     1.1417   1.1422   1.1426   1.1568   1.1572   1.1724   1.1772   1.1775
     1.1788   1.1814   1.1880   1.2123   1.2163   1.2182   1.2203   1.2240
     1.2245   1.2267   1.2289   1.2314   1.2319   1.2327   1.2337   1.2343
     1.2355   1.2482   1.2489   1.2630   1.2806   1.2962   1.2980   1.3099
     1.3110   1.3134   1.3169   1.3180   1.3189   1.3210   1.3273   1.3351
     1.3408   1.3504   1.3516   1.3525   1.3535   1.3552   1.3572   1.3581
     1.3593   1.3681   1.3854   1.3864   1.3871   1.3875   1.3895   1.3907
     1.3920   1.3933   1.4067   1.4076   1.4084   1.4137   1.4173   1.4228
     1.4232   1.4241   1.4249   1.4282   1.4340   1.4372   1.4411   1.4562
     1.4567   1.4667   1.4680   1.4690   1.4698   1.4702   1.4737   1.4867
     1.4954   1.5005   1.5008   1.5055   1.5153   1.5247   1.5263   1.5293
     1.5348   1.5376   1.5378   1.5431   1.5444   1.5462   1.5474   1.5482
     1.5492   1.5498   1.5518   1.5599   1.5614   1.5637   1.5788   1.5795
     1.5804   1.5815   1.5843   1.5925   1.5944   1.6003   1.6131   1.6241
     1.6265   1.6334   1.6685   1.6698   1.6746   1.6764   1.6915   1.6932
     1.6937   1.6995   1.7041   1.7198   1.7411   1.7448   1.7459   1.7464
     1.7485   1.7555   1.7565   1.7580   2.0119   2.0686   2.1506   2.2207
     2.2353   2.2689   2.2783   2.3152   2.3196   2.3218   2.3262   2.3316
     2.3386   2.3392   2.3876   2.5078   2.5224   2.5752   2.5823   2.5845
     2.5858   2.5953   2.6040   2.7943   2.8357   2.8399   2.8413   2.9257
     3.1148   3.1344   3.2906   3.6341   3.6360   3.8297   3.9283   3.9382
     3.9597   3.9698   3.9714   3.9909   4.0335   4.0793   4.1032   4.1155
     4.1195   4.1233   4.1234   4.1258   4.1319   4.1522   4.3446   4.3667
     4.3703   4.3913   4.4968   4.5674   4.7808   4.8823   4.9857   5.0035
     5.4111   5.4734   5.5198   5.5397   5.6768   5.8078   5.8272   5.8530
     5.8676   5.9976   6.0456   6.0989   6.4153   6.4608   6.4784   6.5227
     6.5343   6.5949   6.5999   6.6073   6.6184   6.6972   6.7565   6.8084
     6.8506   6.8900   6.9058   6.9161   6.9759   7.0866   7.1365   7.1687
     7.2080   7.2107   7.2179   7.2746   7.4699   7.4738   7.6722   7.6775
     7.7059   7.8129   7.8184   7.8229   7.8405   7.9465   8.1489   8.2108
     8.2844   8.3276   8.3655   8.3812   8.4286   8.4388   8.4511   8.4559
     8.4992   8.5174   8.5283   8.5836   8.6550   8.6720   8.6901   8.7728
     8.7754   8.7802   8.7958   8.8621   8.8880   8.8994   8.9484   8.9526
     8.9585   8.9616   9.1769   9.2275   9.2310   9.2357   9.2426   9.2526
     9.3071   9.3441   9.4193   9.4588   9.4609   9.5472   9.6861   9.6926
     9.6951   9.7720   9.8814   9.9276   9.9448   9.9659  10.1559  10.1573
    10.2179  10.2637

          k = 0.0000-0.2165 0.0000 (256176 PWs)   bands (ev):

   -20.2252 -17.9833 -17.0798 -16.1867 -15.7689 -15.5339 -14.9035 -14.5297
   -14.2436 -14.2260 -14.1383 -14.1073 -13.7049 -13.6406 -13.5900 -13.5797
   -12.5210 -12.3095 -12.2471 -12.2109 -12.0289 -11.9473 -10.5769 -10.4207
   -10.4128 -10.3159  -9.3680  -9.2957  -9.2626  -8.9915  -8.9460  -8.8624
    -8.4517  -8.2696  -8.1460  -8.0409  -7.8903  -7.3265  -7.2027  -6.8746
    -6.8268  -6.7925  -6.7522  -6.7273  -6.6845  -6.1234  -5.9486  -5.7749
    -5.7698  -5.5700  -5.2778  -5.2389  -5.0628  -4.9923  -4.8892  -4.8069
    -4.7341  -4.7306  -4.6762  -4.6326  -4.4920  -4.4820  -4.3970  -4.2751
    -4.1563  -4.0389  -3.7921  -3.7542  -3.5988  -3.5020  -3.4079  -3.3376
    -3.1954  -3.1897  -3.1870  -3.1797  -3.1023  -3.0669  -2.9762  -2.9534
    -2.9417  -2.9169  -2.9139  -2.8563  -2.8551  -2.7737  -2.7476  -2.7249
    -2.6695  -2.6606  -2.6062  -2.5687  -2.5030  -2.4918  -2.4663  -2.4649
    -2.4632  -2.4617  -2.4492  -2.3759  -2.3320  -2.2787  -2.1923  -2.1915
    -2.1417  -2.1291  -2.1265  -2.1002  -2.0563  -2.0332  -2.0297  -2.0245
    -2.0098  -1.9335  -1.8718  -1.8717  -1.8463  -1.8461  -1.7996  -1.7571
    -1.7477  -1.7416  -1.6650  -1.6582  -1.6546  -1.6519  -1.6359  -1.6351
    -1.6261  -1.6261  -1.6101  -1.6046  -1.5414  -1.5334  -1.5274  -1.5107
    -1.4756  -1.4459  -1.4007  -1.3581  -1.3557  -1.3445  -1.3441  -1.2773
    -1.2652  -1.2579  -1.2554  -1.2025  -1.2021  -1.1917  -1.1685  -1.1652
    -1.1619  -1.1611  -1.1600  -1.1539  -1.1536  -1.1364  -1.1217  -1.1120
    -1.1110  -1.1068  -1.1026  -1.0977  -1.0858  -1.0529  -1.0346  -1.0217
    -1.0181  -1.0126  -0.9742  -0.9741  -0.9364  -0.9360  -0.9331  -0.9328
    -0.9178  -0.8959  -0.8855  -0.8723  -0.8718  -0.8666  -0.8659  -0.8626
    -0.8616  -0.8146  -0.8115  -0.8058  -0.8053  -0.7963  -0.7959  -0.7918
    -0.7863  -0.7779  -0.7778  -0.7190  -0.7166  -0.7108  -0.7052  -0.7050
    -0.7015  -0.6994  -0.6869  -0.6822  -0.6815  -0.6703  -0.6618  -0.6406
    -0.6403  -0.6375  -0.6331  -0.5462  -0.5462  -0.5406  -0.5341  -0.5330
    -0.5190  -0.5187  -0.4945  -0.4923  -0.4913  -0.4901  -0.4869  -0.4868
    -0.4648  -0.4602  -0.4293  -0.4289  -0.4280  -0.4245  -0.4240  -0.4222
    -0.4217  -0.4192  -0.3966  -0.3906  -0.3894  -0.3727  -0.3702  -0.3702
    -0.3635  -0.3421  -0.3348  -0.3346  -0.3329  -0.3310  -0.3297  -0.3237
    -0.3145  -0.3129  -0.3122  -0.2728  -0.2518  -0.2512  -0.2352  -0.2345
    -0.2172  -0.2111  -0.2086  -0.1902  -0.1897  -0.1885  -0.1840  -0.1807
    -0.1802  -0.1721  -0.1619  -0.1602  -0.1548  -0.1493  -0.1484  -0.1441
    -0.1356  -0.1324  -0.1304  -0.1303  -0.1299  -0.1292  -0.1238  -0.1233
    -0.1173  -0.0960  -0.0931  -0.0908  -0.0903  -0.0858  -0.0356  -0.0295
    -0.0264  -0.0252  -0.0202  -0.0196  -0.0176  -0.0146  -0.0136  -0.0111
     0.0044   0.0152   0.0210   0.0258   0.0261   0.0325   0.0340   0.0346
     0.0355   0.0375   0.0384   0.0424   0.0435   0.0737   0.0938   0.0959
     0.0963   0.0980   0.0992   0.1175   0.1184   0.1195   0.1205   0.1215
     0.1310   0.1398   0.1410   0.1486   0.1493   0.1526   0.1637   0.1729
     0.1741   0.1887   0.1890   0.1899   0.1908   0.2085   0.2101   0.2248
     0.2249   0.2332   0.2352   0.2452   0.2476   0.2479   0.2488   0.2904
     0.2909   0.2979   0.2988   0.3027   0.3153   0.3157   0.3167   0.3405
     0.3418   0.3583   0.3780   0.3797   0.3813   0.3951   0.4016   0.4288
     0.4367   0.4741   0.4965   0.4971   0.5027   0.5035   0.5109   0.5240
     0.5251   0.5264   0.5284   0.5530   0.5568   0.5627   0.5652   0.5667
     0.5673   0.5687   0.5727   0.5764   0.5766   0.5840   0.5891   0.5902
     0.5909   0.5933   0.5949   0.5977   0.5995   0.6049   0.6278   0.6302
     0.6390   0.6396   0.6407   0.6428   0.6486   0.6486   0.6598   0.6689
     0.6698   0.6705   0.6716   0.6722   0.6728   0.6736   0.6756   0.6870
     0.6906   0.6934   0.6945   0.6966   0.6988   0.7003   0.7020   0.7062
     0.7082   0.7249   0.7580   0.7590   0.7693   0.7698   0.7787   0.7795
     0.7816   0.7817   0.7819   0.7858   0.7919   0.7947   0.7949   0.7960
     0.7971   0.7983   0.8355   0.8375   0.8381   0.8385   0.8485   0.8538
     0.8548   0.8553   0.8569   0.8578   0.8666   0.8774   0.8875   0.8877
     0.8923   0.8940   0.8955   0.8966   0.9467   0.9480   0.9987   0.9989
     1.0035   1.0049   1.0069   1.0071   1.0138   1.0176   1.0224   1.0238
     1.0289   1.0300   1.0337   1.0364   1.0378   1.0384   1.0405   1.0517
     1.0535   1.0544   1.0547   1.0549   1.0610   1.0696   1.0742   1.0771
     1.0790   1.0792   1.0802   1.0805   1.0862   1.0863   1.0898   1.1011
     1.1022   1.1023   1.1040   1.1041   1.1069   1.1073   1.1221   1.1252
     1.1303   1.1354   1.1365   1.1394   1.1432   1.1440   1.1506   1.1513
     1.1523   1.1524   1.1525   1.1556   1.1944   1.2035   1.2145   1.2320
     1.2400   1.2406   1.2536   1.2574   1.2616   1.2657   1.2674   1.2698
     1.2826   1.2840   1.2934   1.2997   1.3012   1.3045   1.3058   1.3073
     1.3087   1.3127   1.3133   1.3136   1.3143   1.3150   1.3157   1.3161
     1.3227   1.3233   1.3316   1.3382   1.3421   1.3432   1.3441   1.3456
     1.3520   1.3535   1.3725   1.3821   1.3822   1.3830   1.3870   1.3875
     1.3906   1.3960   1.4040   1.4074   1.4104   1.4113   1.4147   1.4230
     1.4251   1.4254   1.4268   1.4281   1.4421   1.4447   1.4456   1.4466
     1.4572   1.4637   1.4639   1.4664   1.4816   1.4869   1.4906   1.4917
     1.4927   1.4931   1.5054   1.5063   1.5082   1.5089   1.5222   1.5229
     1.5240   1.5380   1.5392   1.5398   1.5443   1.5576   1.5592   1.5599
     1.5618   1.5633   1.5636   1.5643   1.5647   1.5908   1.5922   1.5997
     1.6004   1.6026   1.6142   1.6173   1.6300   1.6308   1.6318   1.6321
     1.6350   1.6475   1.6493   1.6586   1.6609   1.6951   1.7017   1.7035
     1.7053   1.7968   1.8054   1.8171   1.8334   1.8376   1.8426   1.8462
     1.8786   1.9001   1.9007   1.9058   1.9085   1.9220   1.9262   1.9269
     1.9470   1.9627   1.9690   2.0547   2.2029   2.2126   2.5143   2.5209
     2.5417   2.5419   2.6062   2.6142   2.6693   2.6772   2.6821   2.6835
     2.6947   2.6957   2.8219   2.8222   2.8617   2.8710   2.8976   2.8988
     3.0347   3.0361   3.0862   3.2824   3.2824   3.2963   3.3179   3.5104
     3.5510   3.7589   3.7814   3.7954   4.0361   4.0435   4.1871   4.2017
     4.2242   4.2371   4.4327   4.4400   4.4451   4.4503   4.6067   4.6098
     4.7104   4.8306   4.8451   4.8912   4.9072   5.0598   5.1939   5.2181
     5.2381   5.3871   5.4709   5.4737   5.4745   5.4758   5.5387   5.6416
     5.7580   5.8218   5.8506   5.8744   6.3004   6.4290   6.5163   6.5206
     6.5320   6.5763   6.5768   6.6102   6.6659   6.7423   6.7756   6.7867
     6.9271   6.9327   7.0946   7.1436   7.1571   7.1720   7.1932   7.2171
     7.2317   7.2370   7.2465   7.2549   7.3351   7.3694   7.4563   7.4734
     7.5142   7.5267   7.6131   7.6922   7.8085   7.8687   7.9145   8.2481
     8.2542   8.2590   8.3973   8.4427   8.4716   8.4798   8.4807   8.5246
     8.5374   8.5537   8.5898   8.5930   8.7499   8.7915   8.8192   8.8283
     8.8290   8.8356   8.8627   8.8874   9.0112   9.0422   9.0797   9.1230
     9.1511   9.1594   9.2566   9.2682   9.3293   9.3590   9.3888   9.4787
     9.4804   9.5221   9.5233   9.5301   9.5392   9.5845   9.5986   9.6143
     9.6238   9.6473   9.7794   9.7878   9.9002   9.9026   9.9556  10.0019
    10.0030  10.2308

          k = 0.2500 0.0000 0.0000 (256240 PWs)   bands (ev):

   -20.2251 -17.9832 -17.0288 -16.0124 -15.8373 -15.5005 -15.0303 -14.8843
   -14.8140 -14.7655 -13.9884 -13.8316 -13.6170 -13.1401 -13.0453 -12.9833
   -12.9138 -12.2382 -12.0958 -12.0274 -11.9773 -11.1656 -11.0036 -10.6567
   -10.5567 -10.2864 -10.0964  -9.9085  -9.7648  -9.3874  -9.1508  -9.0780
    -8.6432  -8.3664  -7.8295  -7.6165  -7.5404  -7.4362  -7.4112  -7.3147
    -6.9382  -6.8209  -6.2120  -6.1087  -5.9555  -5.8473  -5.7716  -5.7266
    -5.4985  -5.2817  -5.1984  -5.1898  -5.0603  -4.8094  -4.7485  -4.5749
    -4.4937  -4.4138  -4.3604  -4.3484  -4.3249  -4.2932  -4.1945  -4.1404
    -4.0470  -3.9963  -3.8867  -3.8848  -3.8452  -3.7621  -3.7292  -3.7235
    -3.6592  -3.5986  -3.5399  -3.4816  -3.4442  -3.3888  -3.3322  -3.3001
    -3.2572  -3.2114  -3.1372  -3.1173  -3.0283  -2.9574  -2.9305  -2.8944
    -2.8322  -2.7280  -2.6838  -2.6831  -2.6450  -2.5301  -2.5202  -2.5075
    -2.4732  -2.3343  -2.2849  -2.2369  -2.2255  -2.1867  -2.1122  -1.9925
    -1.9836  -1.9806  -1.9671  -1.9644  -1.9301  -1.8831  -1.8620  -1.7852
    -1.7790  -1.7422  -1.7227  -1.6871  -1.6868  -1.6793  -1.6792  -1.6637
    -1.6588  -1.6336  -1.6282  -1.6158  -1.6047  -1.5900  -1.5748  -1.5354
    -1.5318  -1.5040  -1.4897  -1.4691  -1.4662  -1.4647  -1.4637  -1.4634
    -1.4542  -1.4145  -1.4042  -1.3896  -1.3871  -1.3773  -1.3749  -1.3119
    -1.2580  -1.2201  -1.2169  -1.1986  -1.1611  -1.1532  -1.1356  -1.1304
    -1.1290  -1.1238  -1.1191  -1.1106  -1.0943  -1.0910  -1.0778  -1.0713
    -1.0676  -1.0652  -1.0566  -1.0413  -1.0242  -1.0219  -1.0192  -1.0168
    -1.0127  -0.9989  -0.9966  -0.9867  -0.9669  -0.9625  -0.9417  -0.9366
    -0.9359  -0.9319  -0.9109  -0.9022  -0.9009  -0.8984  -0.8932  -0.8882
    -0.8852  -0.8781  -0.8729  -0.8688  -0.8667  -0.8653  -0.8635  -0.8612
    -0.8607  -0.8504  -0.8347  -0.8319  -0.8277  -0.8105  -0.7918  -0.7890
    -0.7871  -0.7807  -0.7402  -0.7378  -0.7013  -0.7012  -0.6831  -0.6820
    -0.6746  -0.6574  -0.6568  -0.6433  -0.6410  -0.6395  -0.6344  -0.6294
    -0.6241  -0.6090  -0.5386  -0.4931  -0.4883  -0.4859  -0.4793  -0.4549
    -0.4542  -0.4524  -0.4374  -0.4369  -0.4353  -0.4348  -0.4270  -0.4164
    -0.4131  -0.4126  -0.4098  -0.4044  -0.3828  -0.3762  -0.3720  -0.3713
    -0.3686  -0.3669  -0.3511  -0.3472  -0.3471  -0.3438  -0.3348  -0.2861
    -0.2857  -0.2851  -0.2836  -0.2781  -0.2739  -0.2667  -0.2645  -0.2487
    -0.2432  -0.2424  -0.2254  -0.2208  -0.2203  -0.2133  -0.2101  -0.1828
    -0.1817  -0.1794  -0.1770  -0.1709  -0.1677  -0.1642  -0.1576  -0.1525
    -0.1485  -0.1389  -0.1324  -0.1176  -0.1163  -0.0961  -0.0857  -0.0847
    -0.0830  -0.0823  -0.0730  -0.0673  -0.0668  -0.0659  -0.0546  -0.0399
    -0.0395  -0.0300  -0.0264  -0.0234  -0.0127   0.0002   0.0019   0.0028
     0.0280   0.0468   0.0480   0.0508   0.0538   0.0588   0.0752   0.0906
     0.0937   0.0952   0.0998   0.1020   0.1052   0.1062   0.1129   0.1189
     0.1194   0.1201   0.1217   0.1227   0.1265   0.1322   0.1454   0.1463
     0.1471   0.1514   0.1542   0.1619   0.1723   0.1732   0.1891   0.1927
     0.2088   0.2266   0.2274   0.2297   0.2306   0.2337   0.2460   0.2526
     0.2537   0.2548   0.2557   0.2564   0.2783   0.2897   0.2985   0.3050
     0.3537   0.3650   0.3658   0.3689   0.3818   0.3830   0.3838   0.3845
     0.3863   0.3920   0.3957   0.3977   0.4008   0.4028   0.4058   0.4109
     0.4157   0.4192   0.4201   0.4213   0.4291   0.4341   0.4379   0.4418
     0.4458   0.4486   0.4528   0.4686   0.4746   0.4786   0.4974   0.5118
     0.5183   0.5266   0.5361   0.5374   0.5526   0.5554   0.5561   0.5595
     0.5608   0.5759   0.5766   0.5887   0.5922   0.5943   0.5996   0.6009
     0.6046   0.6061   0.6090   0.6107   0.6306   0.6337   0.6407   0.6463
     0.6548   0.6587   0.6606   0.6621   0.6645   0.6662   0.6679   0.6725
     0.6883   0.6934   0.6942   0.6971   0.7058   0.7081   0.7096   0.7132
     0.7215   0.7225   0.7275   0.7307   0.7342   0.7497   0.7513   0.7557
     0.7698   0.7718   0.7735   0.7781   0.7825   0.7855   0.7887   0.8015
     0.8150   0.8184   0.8365   0.8414   0.8535   0.8539   0.8577   0.8597
     0.8607   0.8654   0.8784   0.8835   0.8875   0.8913   0.8921   0.9013
     0.9034   0.9146   0.9162   0.9269   0.9314   0.9361   0.9381   0.9394
     0.9586   0.9648   0.9682   0.9696   0.9714   0.9923   0.9928   1.0029
     1.0054   1.0065   1.0069   1.0080   1.0128   1.0156   1.0200   1.0210
     1.0328   1.0552   1.0609   1.0652   1.0674   1.0678   1.0719   1.0810
     1.0833   1.1020   1.1038   1.1047   1.1065   1.1123   1.1132   1.1156
     1.1286   1.1305   1.1312   1.1313   1.1327   1.1342   1.1355   1.1382
     1.1397   1.1423   1.1461   1.1470   1.1511   1.1582   1.1650   1.1707
     1.1738   1.1754   1.1795   1.1819   1.1824   1.1884   1.1892   1.2031
     1.2037   1.2147   1.2194   1.2200   1.2210   1.2244   1.2318   1.2349
     1.2463   1.2487   1.2500   1.2531   1.2613   1.2656   1.2688   1.2697
     1.2713   1.2777   1.2899   1.2972   1.3021   1.3044   1.3059   1.3374
     1.3439   1.3488   1.3521   1.3563   1.3577   1.3616   1.3653   1.3662
     1.3669   1.3708   1.3749   1.3819   1.3884   1.3912   1.3917   1.3965
     1.4042   1.4109   1.4125   1.4128   1.4151   1.4182   1.4230   1.4258
     1.4270   1.4287   1.4301   1.4334   1.4360   1.4368   1.4452   1.4486
     1.4567   1.4610   1.4633   1.4653   1.4690   1.4698   1.4720   1.4736
     1.4923   1.4926   1.4928   1.4940   1.5151   1.5155   1.5241   1.5266
     1.5308   1.5345   1.5348   1.5360   1.5393   1.5406   1.5452   1.5462
     1.5470   1.5495   1.5534   1.5548   1.5705   1.5753   1.5763   1.5781
     1.5786   1.5819   1.5825   1.5943   1.5954   1.5980   1.6036   1.6070
     1.6171   1.6192   1.6195   1.6271   1.6282   1.6343   1.6498   1.6582
     1.6664   1.6886   1.6936   1.7328   1.7354   1.7392   1.7428   1.7690
     1.7798   1.8568   1.8694   1.8743   1.8761   1.8937   1.9037   1.9136
     1.9493   1.9841   2.1431   2.1600   2.1807   2.1909   2.1998   2.2029
     2.3027   2.3616   2.3732   2.6686   2.6738   2.6770   2.6805   2.9480
     3.0885   3.0890   3.1283   3.3059   3.3065   3.3309   3.3311   3.3848
     3.3996   3.5685   3.5904   3.6883   3.6998   3.7269   3.7461   3.7883
     3.8157   3.8254   3.8342   3.8591   3.9243   3.9827   3.9879   4.0848
     4.0899   4.2815   4.3035   4.3186   4.3739   4.3922   4.5067   4.6416
     4.7893   4.8966   4.9317   4.9659   5.2064   5.2871   5.3321   5.3346
     5.3445   5.4590   5.5297   5.5812   5.5907   5.6161   5.6700   5.7006
     5.7264   5.7802   5.7947   5.8224   5.8483   5.8663   5.9395   5.9473
     6.0948   6.1210   6.1237   6.1375   6.1781   6.4027   6.6050   6.7831
     6.8070   6.8174   6.8478   6.8659   6.9152   6.9898   7.0317   7.1289
     7.1528   7.1627   7.1659   7.1792   7.2742   7.3465   7.3845   7.4210
     7.4389   7.5376   7.6281   7.6476   7.6690   7.6876   7.8519   7.8904
     7.9065   7.9835   8.0811   8.1168   8.1262   8.1543   8.1950   8.2210
     8.3246   8.3603   8.3991   8.4230   8.4243   8.4924   8.5175   8.5450
     8.5575   8.7547   8.7586   8.7921   9.0049   9.0594   9.0631   9.0689
     9.0880   9.2406   9.2541   9.2890   9.3066   9.3243   9.3466   9.3685
     9.3846   9.3978   9.4644   9.5228   9.5345   9.5520   9.5577   9.6075
     9.6731   9.7417   9.8223   9.8331   9.8743   9.9077   9.9179  10.0132
    10.0684  10.1159

          k = 0.2500-0.2165 0.0000 (256316 PWs)   bands (ev):

   -20.2251 -17.9832 -17.0283 -16.0629 -15.7338 -15.4144 -15.3035 -15.0759
   -14.5899 -14.4440 -14.1337 -13.9838 -13.5689 -13.1550 -13.1335 -13.0328
   -12.6406 -12.5548 -12.0633 -11.8970 -11.3964 -11.3031 -11.1778 -11.0074
   -10.8307 -10.5073  -9.8476  -9.7108  -9.2777  -9.2296  -9.0064  -8.9544
    -8.6632  -8.5234  -8.4000  -8.3092  -8.0669  -7.1376  -6.9228  -6.6889
    -6.5644  -6.4737  -6.3377  -6.3204  -6.2249  -5.9942  -5.8974  -5.6007
    -5.5919  -5.4274  -5.2878  -5.0503  -4.9321  -4.8056  -4.7326  -4.6115
    -4.5649  -4.5495  -4.4000  -4.3686  -4.3321  -4.2502  -4.2336  -4.2155
    -4.1279  -4.0857  -4.0343  -3.9602  -3.8767  -3.7782  -3.6612  -3.6211
    -3.5408  -3.4874  -3.4351  -3.3737  -3.3457  -3.3429  -3.2896  -3.2386
    -3.1832  -3.1333  -3.0874  -3.0473  -2.9869  -2.9025  -2.8570  -2.8231
    -2.7993  -2.7944  -2.7913  -2.7478  -2.7221  -2.6427  -2.5463  -2.5108
    -2.4510  -2.3410  -2.2016  -2.1995  -2.1883  -2.1625  -2.0751  -2.0651
    -2.0538  -2.0535  -2.0192  -1.9715  -1.9030  -1.8950  -1.8932  -1.8619
    -1.8486  -1.8357  -1.7767  -1.7258  -1.7106  -1.6983  -1.6976  -1.6774
    -1.6404  -1.6348  -1.6199  -1.6097  -1.5970  -1.5936  -1.5898  -1.5792
    -1.5674  -1.5629  -1.5622  -1.5618  -1.5537  -1.5523  -1.5406  -1.4709
    -1.4634  -1.3579  -1.3542  -1.3281  -1.2561  -1.2498  -1.2409  -1.2167
    -1.2150  -1.1888  -1.1642  -1.1622  -1.1485  -1.1483  -1.1408  -1.1355
    -1.1329  -1.1261  -1.1198  -1.1115  -1.1096  -1.1029  -1.0980  -1.0937
    -1.0853  -1.0836  -1.0791  -1.0728  -1.0667  -1.0493  -1.0191  -1.0168
    -1.0147  -1.0065  -1.0043  -1.0002  -0.9988  -0.9937  -0.9710  -0.9638
    -0.9324  -0.9262  -0.9257  -0.9229  -0.9150  -0.9090  -0.8871  -0.8822
    -0.8817  -0.8651  -0.8562  -0.8479  -0.8471  -0.8434  -0.8422  -0.8410
    -0.8342  -0.8210  -0.8169  -0.8125  -0.8085  -0.7894  -0.7795  -0.7598
    -0.7482  -0.7475  -0.7472  -0.7095  -0.6700  -0.6666  -0.6622  -0.6564
    -0.6552  -0.6525  -0.6160  -0.6096  -0.6065  -0.5991  -0.5988  -0.5916
    -0.5904  -0.5835  -0.5795  -0.5741  -0.5421  -0.5380  -0.5103  -0.5002
    -0.4944  -0.4654  -0.4561  -0.4509  -0.4492  -0.4485  -0.4368  -0.4219
    -0.4192  -0.4141  -0.3997  -0.3890  -0.3870  -0.3808  -0.3750  -0.3730
    -0.3546  -0.3470  -0.3413  -0.3347  -0.3308  -0.3227  -0.3189  -0.3047
    -0.2957  -0.2952  -0.2914  -0.2799  -0.2794  -0.2682  -0.2623  -0.2546
    -0.2533  -0.2498  -0.2493  -0.2435  -0.2418  -0.2386  -0.2378  -0.2245
    -0.2156  -0.2043  -0.2037  -0.1999  -0.1787  -0.1721  -0.1613  -0.1560
    -0.1449  -0.1407  -0.1267  -0.1263  -0.1191  -0.1083  -0.1058  -0.1046
    -0.1038  -0.0948  -0.0712  -0.0596  -0.0429  -0.0423  -0.0064  -0.0049
     0.0049   0.0053   0.0060   0.0093   0.0129   0.0251   0.0254   0.0428
     0.0439   0.0463   0.0533   0.0570   0.0620   0.0690   0.0728   0.0753
     0.0766   0.0789   0.0950   0.1020   0.1048   0.1087   0.1105   0.1118
     0.1129   0.1154   0.1158   0.1191   0.1205   0.1226   0.1436   0.1442
     0.1447   0.1451   0.1753   0.1786   0.1798   0.1864   0.1877   0.1930
     0.2004   0.2121   0.2156   0.2232   0.2388   0.2437   0.2443   0.2509
     0.2594   0.2636   0.2639   0.2649   0.2737   0.2794   0.2848   0.2890
     0.2903   0.3151   0.3199   0.3496   0.3797   0.3819   0.3874   0.3880
     0.3942   0.3947   0.3982   0.3996   0.4059   0.4081   0.4109   0.4134
     0.4213   0.4287   0.4295   0.4349   0.4409   0.4412   0.4439   0.4498
     0.4530   0.4566   0.4741   0.4866   0.4932   0.4941   0.5013   0.5076
     0.5124   0.5174   0.5391   0.5543   0.5570   0.5604   0.5673   0.5676
     0.5686   0.5783   0.5845   0.5847   0.5874   0.5912   0.5938   0.5954
     0.5980   0.6002   0.6190   0.6271   0.6289   0.6322   0.6375   0.6458
     0.6497   0.6797   0.6810   0.6817   0.6829   0.6985   0.7100   0.7166
     0.7176   0.7194   0.7210   0.7234   0.7253   0.7267   0.7371   0.7385
     0.7399   0.7446   0.7475   0.7521   0.7550   0.7668   0.7687   0.7735
     0.7806   0.7816   0.7836   0.7839   0.7882   0.7914   0.7979   0.7998
     0.8011   0.8036   0.8133   0.8219   0.8223   0.8240   0.8286   0.8299
     0.8305   0.8335   0.8339   0.8352   0.8672   0.8695   0.8776   0.8812
     0.8950   0.8995   0.9140   0.9198   0.9358   0.9361   0.9380   0.9387
     0.9427   0.9432   0.9499   0.9656   0.9659   0.9665   0.9670   0.9681
     0.9690   0.9754   0.9831   0.9890   0.9964   0.9967   1.0027   1.0082
     1.0119   1.0175   1.0315   1.0408   1.0410   1.0532   1.0653   1.0668
     1.0699   1.0739   1.0757   1.0782   1.0789   1.0826   1.0913   1.1033
     1.1135   1.1156   1.1263   1.1294   1.1316   1.1408   1.1478   1.1502
     1.1617   1.1666   1.1756   1.1772   1.1919   1.1930   1.1991   1.2000
     1.2010   1.2029   1.2041   1.2044   1.2057   1.2094   1.2171   1.2182
     1.2203   1.2269   1.2298   1.2317   1.2463   1.2492   1.2664   1.2759
     1.2784   1.2795   1.2840   1.2860   1.2876   1.2888   1.2923   1.2976
     1.2992   1.3016   1.3032   1.3059   1.3107   1.3134   1.3146   1.3168
     1.3192   1.3232   1.3294   1.3352   1.3357   1.3362   1.3371   1.3380
     1.3471   1.3505   1.3563   1.3575   1.3625   1.3809   1.3828   1.3893
     1.3907   1.4011   1.4061   1.4103   1.4116   1.4212   1.4224   1.4250
     1.4330   1.4357   1.4426   1.4432   1.4456   1.4471   1.4494   1.4572
     1.4594   1.4602   1.4632   1.4715   1.4722   1.4820   1.4866   1.4935
     1.4938   1.4947   1.4969   1.4981   1.5005   1.5045   1.5048   1.5164
     1.5172   1.5183   1.5220   1.5274   1.5324   1.5333   1.5382   1.5469
     1.5491   1.5502   1.5506   1.5557   1.5561   1.5565   1.5576   1.5607
     1.5657   1.5659   1.5902   1.5903   1.5931   1.5970   1.6036   1.6129
     1.6149   1.6313   1.6349   1.6370   1.6410   1.6600   1.6622   1.6668
     1.6709   1.6741   1.6952   1.6980   1.7272   1.7614   1.7760   1.7782
     1.8089   1.8639   1.8667   1.8790   1.8853   1.8970   1.8996   1.9007
     1.9048   1.9350   1.9448   1.9681   2.2367   2.2379   2.2682   2.2703
     2.3872   2.4050   2.6921   2.6958   2.7976   2.8900   2.9022   2.9037
     2.9080   2.9137   2.9404   2.9491   3.0253   3.0944   3.0978   3.1795
     3.2086   3.6273   3.6600   3.7153   3.7246   3.7669   3.8100   3.9333
     3.9484   3.9556   3.9586   4.0164   4.1071   4.1242   4.1793   4.2090
     4.2746   4.2821   4.4828   4.4860   4.4918   4.6347   4.6572   4.6661
     4.7421   4.7794   4.7963   4.8334   5.0269   5.0465   5.0955   5.1180
     5.1700   5.1959   5.3340   5.4144   5.4565   5.5055   5.5495   5.5679
     5.5707   5.5782   5.6327   5.8588   5.8749   5.9430   6.0000   6.0161
     6.0323   6.0979   6.2871   6.5061   6.6935   6.7107   6.7339   6.7435
     6.8520   6.8670   6.9332   6.9853   7.0103   7.1339   7.1781   7.1926
     7.2057   7.2197   7.2308   7.3087   7.3300   7.3417   7.4113   7.4214
     7.4475   7.4642   7.4691   7.5009   7.5512   7.5542   7.7523   7.8010
     7.8571   7.9067   7.9671   8.0091   8.1102   8.1413   8.2980   8.3137
     8.3349   8.3794   8.4048   8.4973   8.6536   8.6959   8.6973   8.7018
     8.7460   8.7481   8.8158   8.8237   8.8659   8.9317   9.0257   9.0370
     9.0455   9.0602   9.0844   9.2278   9.2498   9.2662   9.2858   9.2925
     9.2991   9.3449   9.3544   9.3774   9.3845   9.4222   9.4424   9.4848
     9.5312   9.5472   9.5553   9.7007   9.7090   9.8410  10.0126  10.0346
    10.0620  10.0767

          k =-0.5000 0.0000 0.0000 (256496 PWs)   bands (ev):

   -20.2251 -17.9830 -16.9669 -15.8559 -15.6298 -15.5030 -15.4772 -15.4352
   -14.6972 -14.4963 -14.3800 -14.3533 -13.1094 -12.7668 -12.6311 -12.5800
   -12.3230 -12.2942 -11.7965 -11.7895 -11.7004 -11.6584 -11.1164 -11.0953
   -10.9263 -10.6601 -10.2869 -10.1456  -9.9221  -9.6229  -9.2086  -9.0195
    -8.8271  -8.8119  -8.3463  -7.6559  -7.5158  -7.4168  -7.2709  -7.2175
    -7.2141  -6.1281  -6.0874  -5.8472  -5.4691  -5.1983  -5.1920  -5.1303
    -4.9604  -4.8526  -4.7579  -4.7140  -4.6946  -4.6898  -4.6826  -4.6721
    -4.6334  -4.6006  -4.5801  -4.5392  -4.5074  -4.4118  -4.3517  -4.3340
    -4.2590  -4.2137  -4.1490  -4.0640  -3.9291  -3.8963  -3.8656  -3.8548
    -3.7032  -3.6164  -3.5586  -3.5289  -3.4519  -3.4396  -3.3721  -3.3110
    -3.3055  -3.3048  -3.3014  -3.2666  -3.2424  -3.2287  -3.1983  -3.1187
    -2.7978  -2.7831  -2.7391  -2.6780  -2.6473  -2.6357  -2.5753  -2.5522
    -2.5076  -2.4875  -2.4286  -2.3571  -2.3074  -2.2367  -2.1909  -2.1868
    -2.1841  -2.1713  -1.8335  -1.7645  -1.7641  -1.7640  -1.7624  -1.7622
    -1.7603  -1.7099  -1.6710  -1.6487  -1.6400  -1.6066  -1.5861  -1.5513
    -1.5367  -1.5363  -1.5361  -1.5311  -1.4884  -1.4872  -1.4863  -1.4852
    -1.3962  -1.3889  -1.3746  -1.3742  -1.3659  -1.3380  -1.3312  -1.3123
    -1.3120  -1.3079  -1.3068  -1.2932  -1.2917  -1.2441  -1.2436  -1.2400
    -1.2376  -1.2363  -1.2282  -1.2276  -1.2257  -1.2226  -1.2185  -1.1796
    -1.1783  -1.1772  -1.1759  -1.1546  -1.1539  -1.1535  -1.1524  -1.0908
    -1.0904  -1.0779  -1.0697  -1.0685  -1.0677  -1.0668  -1.0430  -1.0408
    -1.0385  -1.0356  -1.0349  -1.0326  -1.0188  -0.9940  -0.9936  -0.9928
    -0.9924  -0.9821  -0.9716  -0.9703  -0.9423  -0.9417  -0.8965  -0.8963
    -0.8950  -0.8680  -0.8673  -0.8651  -0.8640  -0.8606  -0.8394  -0.8382
    -0.8370  -0.8326  -0.8303  -0.8268  -0.8201  -0.8187  -0.8154  -0.8139
    -0.8079  -0.7901  -0.7885  -0.7400  -0.7266  -0.7251  -0.7241  -0.7186
    -0.6815  -0.6807  -0.5981  -0.5976  -0.5966  -0.5958  -0.5878  -0.5626
    -0.5600  -0.5592  -0.5578  -0.5570  -0.5536  -0.5512  -0.5374  -0.5227
    -0.5195  -0.5182  -0.5124  -0.5078  -0.5045  -0.4945  -0.4871  -0.4848
    -0.4762  -0.4563  -0.4288  -0.4007  -0.3904  -0.3737  -0.3580  -0.3496
    -0.3434  -0.3432  -0.3414  -0.3215  -0.3168  -0.2997  -0.2958  -0.2941
    -0.2939  -0.2916  -0.2890  -0.2790  -0.2567  -0.2556  -0.2548  -0.2543
    -0.2527  -0.2302  -0.2166  -0.2162  -0.2153  -0.2150  -0.1912  -0.1824
    -0.1823  -0.1819  -0.1812  -0.1705  -0.1700  -0.1377  -0.1376  -0.1352
    -0.1346  -0.1310  -0.1252  -0.1095  -0.1032  -0.0941  -0.0869  -0.0726
    -0.0244  -0.0236  -0.0226  -0.0222  -0.0168  -0.0160  -0.0144  -0.0138
     0.0143   0.0235   0.0243   0.0275   0.0408   0.0602   0.0610   0.0866
     0.0871   0.0884   0.0894   0.0897   0.0903   0.0921   0.0921   0.0938
     0.0942   0.0944   0.0962   0.1455   0.1668   0.1695   0.1757   0.1784
     0.1822   0.1829   0.1838   0.1854   0.1867   0.1886   0.1906   0.1932
     0.1935   0.1959   0.1979   0.1992   0.2004   0.2057   0.2118   0.2119
     0.2273   0.2279   0.2311   0.2314   0.2317   0.2320   0.2365   0.2405
     0.2409   0.2410   0.2431   0.2535   0.2544   0.2659   0.2662   0.2669
     0.2672   0.2778   0.2860   0.2970   0.2982   0.3644   0.3880   0.3973
     0.3980   0.4005   0.4005   0.4301   0.4312   0.4314   0.4326   0.4420
     0.4447   0.4467   0.4492   0.4539   0.4548   0.4588   0.4593   0.4602
     0.4604   0.4672   0.4690   0.4698   0.4720   0.4765   0.4837   0.4876
     0.4887   0.4946   0.4975   0.5013   0.5022   0.5095   0.5098   0.5145
     0.5159   0.5305   0.5495   0.5942   0.6000   0.6024   0.6059   0.6078
     0.6182   0.6212   0.6325   0.6333   0.6375   0.6380   0.6410   0.6422
     0.6440   0.6463   0.6467   0.6476   0.6501   0.6505   0.6529   0.6532
     0.6571   0.6595   0.6598   0.6680   0.6782   0.6876   0.6967   0.6969
     0.7008   0.7121   0.7171   0.7268   0.7312   0.7321   0.7340   0.7409
     0.7438   0.7440   0.7460   0.7471   0.7476   0.7522   0.7606   0.7637
     0.7650   0.7670   0.7806   0.7811   0.7826   0.7837   0.8133   0.8163
     0.8185   0.8199   0.8241   0.8281   0.8377   0.8388   0.8649   0.8673
     0.8742   0.8776   0.8784   0.8796   0.8803   0.8821   0.8846   0.9200
     0.9457   0.9477   0.9519   0.9522   0.9530   0.9534   0.9560   0.9572
     0.9645   0.9649   0.9664   0.9668   0.9771   0.9778   0.9947   0.9963
     0.9981   0.9995   1.0012   1.0152   1.0175   1.0183   1.0190   1.0197
     1.0203   1.0208   1.0573   1.0585   1.0587   1.0600   1.0733   1.1098
     1.1244   1.1248   1.1258   1.1266   1.1455   1.1553   1.1588   1.1593
     1.1610   1.1619   1.1777   1.1781   1.1887   1.1893   1.1917   1.1938
     1.2023   1.2125   1.2201   1.2230   1.2275   1.2281   1.2293   1.2300
     1.2362   1.2365   1.2371   1.2393   1.2471   1.2473   1.2479   1.2486
     1.2498   1.2505   1.2508   1.2532   1.2863   1.2880   1.2882   1.2885
     1.2924   1.3048   1.3168   1.3195   1.3238   1.3243   1.3250   1.3262
     1.3329   1.3423   1.3439   1.3528   1.3534   1.3540   1.3547   1.3614
     1.3644   1.3649   1.3658   1.3671   1.3731   1.3850   1.3859   1.3906
     1.4106   1.4115   1.4195   1.4233   1.4261   1.4263   1.4267   1.4270
     1.4272   1.4278   1.4382   1.4389   1.4414   1.4421   1.4433   1.4444
     1.4446   1.4451   1.4482   1.4512   1.4538   1.4543   1.4543   1.4549
     1.4611   1.4616   1.4759   1.4772   1.4898   1.4942   1.4972   1.5010
     1.5021   1.5036   1.5047   1.5052   1.5081   1.5219   1.5255   1.5268
     1.5271   1.5408   1.5413   1.5480   1.5493   1.5597   1.5604   1.5607
     1.5612   1.5763   1.5799   1.5824   1.5839   1.5868   1.5901   1.5908
     1.5909   1.5912   1.5977   1.6035   1.6101   1.6110   1.6227   1.6246
     1.6250   1.6254   1.6255   1.6358   1.6378   1.6406   1.6862   1.6879
     1.6949   1.7176   1.7183   1.7218   1.7234   1.7333   2.1338   2.1415
     2.1453   2.1463   2.3347   2.3470   2.3603   2.3683   2.3953   2.3960
     2.4032   2.4042   2.6887   2.7277   2.7325   2.7397   2.8720   2.9395
     2.9458   2.9476   3.0199   3.2955   3.2966   3.3002   3.3008   3.5803
     3.5877   3.8516   3.8699   3.8729   3.8790   3.9852   4.0347   4.0390
     4.0434   4.0824   4.1798   4.1822   4.1881   4.1937   4.3022   4.3103
     4.5199   4.5518   4.8024   4.8465   4.8636   4.8734   4.8748   4.9286
     4.9380   4.9395   5.0004   5.0379   5.1293   5.1315   5.1446   5.1564
     5.1615   5.1620   5.1794   5.1851   5.1891   5.2076   5.2376   5.2592
     5.5257   5.5917   5.6222   5.6465   5.7141   5.7888   5.8040   5.8404
     5.9756   6.0972   6.0998   6.1187   6.1296   6.1408   6.1497   6.1613
     6.1758   6.2957   6.5318   6.5468   6.5518   6.5644   6.5817   6.5905
     6.7155   7.1830   7.2075   7.2086   7.2274   7.2302   7.2359   7.4721
     7.6770   7.6948   7.7015   7.7113   7.7160   7.7165   7.7263   7.7503
     7.9056   7.9263   7.9615   7.9939   7.9996   8.0041   8.0604   8.1643
     8.1690   8.1740   8.2018   8.2389   8.2607   8.2721   8.3045   8.4398
     8.5476   8.7502   8.7656   8.8858   8.9390   8.9400   8.9443   8.9480
     9.0571   9.0627   9.0900   9.1781   9.1852   9.1882   9.2093   9.3691
     9.3831   9.4656   9.4963   9.5456   9.5705   9.5755   9.5790   9.5907
     9.6250   9.6298   9.6378   9.6445   9.6508   9.6598   9.8346   9.9686
    10.1040  10.1221

          k =-0.5000-0.2165 0.0000 (256328 PWs)   bands (ev):

   -20.2251 -17.9830 -16.9667 -15.8126 -15.7037 -15.6814 -15.2673 -15.0987
   -15.0149 -14.9884 -13.9544 -13.7117 -13.5777 -13.5438 -12.5237 -12.3389
   -11.9033 -11.8809 -11.8175 -11.6468 -11.5472 -11.4853 -11.4359 -11.4050
   -11.3077 -11.2686 -10.0849  -9.8930  -9.6222  -9.6023  -9.0725  -8.9552
    -8.6793  -8.6408  -8.4118  -8.1064  -7.9348  -7.8753  -7.8361  -6.4717
    -6.1855  -6.0549  -5.8713  -5.6964  -5.5044  -5.4612  -5.2116  -5.1938
    -5.0790  -5.0721  -5.0676  -5.0674  -5.0479  -4.9757  -4.8805  -4.8787
    -4.4964  -4.4216  -4.3395  -4.2627  -4.2160  -4.1907  -4.1355  -4.1062
    -4.0868  -4.0825  -4.0808  -4.0575  -4.0298  -3.9551  -3.9327  -3.8543
    -3.7475  -3.7181  -3.6665  -3.6455  -3.6205  -3.5657  -3.5120  -3.4839
    -3.4681  -3.4275  -3.3415  -3.3130  -3.1759  -3.1316  -3.0379  -2.9471
    -2.9064  -2.7058  -2.4708  -2.4660  -2.4642  -2.4638  -2.4602  -2.4312
    -2.4173  -2.4062  -2.4018  -2.3891  -2.2993  -2.1902  -2.1761  -2.0166
    -2.0053  -1.9838  -1.9833  -1.9659  -1.9458  -1.9179  -1.9120  -1.9006
    -1.8945  -1.8709  -1.8441  -1.7469  -1.6900  -1.6892  -1.6866  -1.6844
    -1.6134  -1.5941  -1.4905  -1.4492  -1.3908  -1.3829  -1.3794  -1.3788
    -1.3787  -1.3783  -1.3455  -1.3404  -1.3392  -1.3387  -1.3212  -1.3206
    -1.3169  -1.3167  -1.2728  -1.2717  -1.2713  -1.2712  -1.2692  -1.2684
    -1.2626  -1.2594  -1.2443  -1.2441  -1.2439  -1.2435  -1.2026  -1.1968
    -1.1925  -1.1919  -1.1765  -1.1398  -1.1224  -1.1182  -1.1158  -1.0947
    -1.0784  -1.0781  -1.0753  -1.0751  -1.0584  -1.0580  -1.0566  -1.0475
    -1.0128  -1.0076  -1.0073  -1.0071  -1.0033  -1.0021  -1.0019  -1.0000
    -0.9971  -0.9790  -0.9746  -0.9555  -0.9485  -0.9481  -0.9373  -0.9356
    -0.9312  -0.9310  -0.9250  -0.9237  -0.9219  -0.9214  -0.9209  -0.9194
    -0.9182  -0.9033  -0.8715  -0.7713  -0.7706  -0.7673  -0.7652  -0.7388
    -0.7386  -0.7383  -0.7379  -0.6795  -0.6597  -0.6591  -0.6558  -0.6537
    -0.6514  -0.6489  -0.6487  -0.6481  -0.6470  -0.6455  -0.6375  -0.5892
    -0.5860  -0.5857  -0.5841  -0.5771  -0.5757  -0.5749  -0.5747  -0.5609
    -0.5592  -0.5486  -0.5444  -0.5101  -0.4653  -0.4636  -0.4586  -0.4570
    -0.4550  -0.4492  -0.4481  -0.3890  -0.3857  -0.3845  -0.3823  -0.3809
    -0.3522  -0.3360  -0.3351  -0.3341  -0.3301  -0.3162  -0.3161  -0.3131
    -0.3125  -0.2893  -0.2856  -0.2814  -0.2767  -0.2757  -0.2754  -0.2739
    -0.2545  -0.2370  -0.2348  -0.2283  -0.1950  -0.1635  -0.1633  -0.1571
    -0.1566  -0.1437  -0.1434  -0.1427  -0.1420  -0.1272  -0.1271  -0.1261
    -0.1233  -0.0463  -0.0458  -0.0443  -0.0426  -0.0408  -0.0400  -0.0379
    -0.0375  -0.0367  -0.0365  -0.0352  -0.0335   0.0000   0.0002   0.0005
     0.0008   0.0125   0.0130   0.0133   0.0135   0.0172   0.0185   0.0187
     0.0196   0.0858   0.0861   0.0871   0.0892   0.1082   0.1083   0.1182
     0.1191   0.1520   0.1578   0.1643   0.1655   0.1719   0.1781   0.1901
     0.1920   0.1921   0.1926   0.1967   0.1979   0.1984   0.2009   0.2046
     0.2049   0.2075   0.2089   0.2125   0.2130   0.2136   0.2139   0.2186
     0.2187   0.2212   0.2218   0.2229   0.2355   0.2358   0.2364   0.2376
     0.2629   0.2629   0.2638   0.2639   0.2719   0.2742   0.2751   0.2773
     0.2925   0.3232   0.3240   0.3246   0.3249   0.3556   0.3568   0.3583
     0.3588   0.3877   0.4193   0.4261   0.4368   0.4369   0.4392   0.4412
     0.4441   0.4499   0.4533   0.4551   0.4564   0.4597   0.4632   0.4690
     0.4698   0.4733   0.4741   0.4788   0.4791   0.4806   0.4846   0.4874
     0.4891   0.4917   0.4926   0.4947   0.4982   0.5062   0.5180   0.5540
     0.5599   0.5652   0.5669   0.5697   0.5705   0.5710   0.5751   0.5809
     0.5814   0.5823   0.5832   0.6014   0.6131   0.6173   0.6210   0.6223
     0.6235   0.6316   0.6340   0.6381   0.6602   0.6624   0.6635   0.6699
     0.6727   0.6745   0.6786   0.6795   0.6816   0.6825   0.6839   0.6869
     0.6876   0.6889   0.6917   0.6960   0.7025   0.7050   0.7062   0.7073
     0.7144   0.7181   0.7228   0.7280   0.7789   0.7826   0.7893   0.7918
     0.7937   0.7957   0.7963   0.7972   0.7983   0.7994   0.8032   0.8042
     0.8100   0.8161   0.8236   0.8292   0.8403   0.8413   0.8420   0.8431
     0.8436   0.8440   0.8449   0.8492   0.8857   0.8895   0.8963   0.8968
     0.9117   0.9228   0.9236   0.9259   0.9272   0.9334   0.9459   0.9566
     0.9588   0.9589   0.9620   0.9644   0.9838   0.9854   0.9865   0.9880
     1.0372   1.0382   1.0388   1.0393   1.0692   1.0696   1.0730   1.0737
     1.1000   1.1139   1.1219   1.1246   1.1300   1.1303   1.1391   1.1418
     1.1444   1.1509   1.1516   1.1522   1.1555   1.1563   1.1566   1.1569
     1.1571   1.1590   1.1593   1.1628   1.1635   1.1736   1.1742   1.1844
     1.1873   1.1897   1.1911   1.1921   1.1944   1.1948   1.1963   1.2012
     1.2022   1.2059   1.2108   1.2114   1.2298   1.2313   1.2366   1.2379
     1.2393   1.2439   1.2459   1.2484   1.2537   1.2546   1.2556   1.2568
     1.2943   1.2975   1.3050   1.3056   1.3069   1.3072   1.3103   1.3107
     1.3313   1.3333   1.3339   1.3344   1.3372   1.3484   1.3505   1.3530
     1.3550   1.3558   1.3713   1.3731   1.3812   1.3826   1.3831   1.3840
     1.3901   1.3907   1.3933   1.3942   1.3975   1.3985   1.3991   1.3999
     1.4392   1.4633   1.4645   1.4651   1.4652   1.4662   1.4664   1.4667
     1.4669   1.4703   1.4741   1.4761   1.4769   1.4799   1.4839   1.4848
     1.4879   1.4907   1.4943   1.4958   1.4970   1.4971   1.5016   1.5028
     1.5048   1.5060   1.5078   1.5080   1.5088   1.5167   1.5179   1.5195
     1.5267   1.5276   1.5283   1.5289   1.5595   1.5602   1.5604   1.5609
     1.5730   1.5757   1.5768   1.5771   1.5829   1.5874   1.5923   1.5955
     1.6052   1.6123   1.6133   1.6140   1.6384   1.6610   1.6662   1.6686
     1.6841   1.6843   1.6849   1.6859   1.7120   1.7141   1.7149   1.7171
     1.7203   1.7223   1.7236   1.7251   1.7270   1.7277   1.7295   1.7299
     1.9438   1.9457   1.9475   1.9478   2.4180   2.4459   2.4684   2.4697
     2.6483   2.6687   2.6740   2.6755   2.8020   2.9025   2.9085   2.9099
     2.9931   3.1969   3.2059   3.2092   3.2330   3.5633   3.5653   3.5662
     3.5691   3.7408   3.7515   3.7597   3.7607   4.0200   4.0405   4.0418
     4.0434   4.1328   4.3356   4.3386   4.3397   4.3476   4.4271   4.4347
     4.4695   4.4722   4.6546   4.6658   4.6730   4.6766   4.6969   4.7001
     4.7332   4.8039   4.9776   4.9899   4.9977   5.0602   5.1318   5.1692
     5.2655   5.2713   5.2759   5.2865   5.3131   5.3528   5.3917   5.3934
     5.4204   5.4525   5.4676   5.4711   5.5289   5.5953   5.8075   5.8432
     5.8597   5.8605   5.8644   5.8660   5.9257   5.9832   6.0275   6.0313
     6.4421   6.8302   6.8642   6.9000   6.9313   6.9351   7.2065   7.2163
     7.2505   7.2584   7.2620   7.2656   7.2669   7.2932   7.3801   7.3962
     7.4072   7.4356   7.4752   7.4804   7.4819   7.4876   7.6415   7.6697
     7.7387   7.7454   7.7896   7.8132   8.0150   8.0740   8.0901   8.0990
     8.1044   8.1525   8.3376   8.3462   8.3566   8.3693   8.3726   8.4488
     8.5076   8.9347   8.9814   8.9960   8.9996   9.0036   9.0224   9.0365
     9.0404   9.0592   9.0796   9.0800   9.0819   9.0909   9.1438   9.1762
     9.1897   9.2115   9.2141   9.3650   9.4003   9.5184   9.6239   9.6344
     9.6690   9.6768   9.6812   9.6870   9.7019   9.7085   9.9255   9.9768
    10.0333  10.0525

     the Fermi energy is     3.4333 ev

!    total energy              =  -12783.39019543 Ry
     Harris-Foulkes estimate   =  -12783.39019540 Ry
     estimated scf accuracy    <          3.6E-09 Ry

     The total energy is the sum of the following terms:

     one-electron contribution = -107449.78318498 Ry
     hartree contribution      =   55099.24480407 Ry
     xc contribution           =   -4465.83653369 Ry
     ewald contribution        =   44039.37536489 Ry
     Dispersion Correction     =      -3.01374636 Ry
     smearing contrib. (-TS)   =      -3.37689935 Ry

     convergence has been achieved in  46 iterations

     Writing output data file gc.save
 
     init_run     :    102.54s CPU    109.56s WALL (       1 calls)
     electrons    :  13284.99s CPU  14165.72s WALL (       1 calls)

     Called by init_run:
     wfcinit      :     99.97s CPU    106.62s WALL (       1 calls)
     potinit      :      0.51s CPU      0.53s WALL (       1 calls)

     Called by electrons:
     c_bands      :  12204.02s CPU  12980.35s WALL (      46 calls)
     sum_band     :    875.22s CPU    948.51s WALL (      46 calls)
     v_of_rho     :      3.15s CPU      3.79s WALL (      47 calls)
     newd         :      9.40s CPU     15.77s WALL (      47 calls)
     mix_rho      :    193.17s CPU    217.28s WALL (      46 calls)

     Called by c_bands:
     init_us_2    :     38.77s CPU     39.39s WALL (     558 calls)
     cegterg      :  12032.43s CPU  12802.66s WALL (     282 calls)

     Called by sum_band:
     sum_band:bec :      4.81s CPU      5.53s WALL (     276 calls)
     addusdens    :      9.61s CPU     15.80s WALL (      46 calls)

     Called by *egterg:
     h_psi        :   4270.09s CPU   4606.59s WALL (    2064 calls)
     s_psi        :   1023.54s CPU   1035.35s WALL (    2064 calls)
     g_psi        :     10.72s CPU     10.72s WALL (    1776 calls)
     cdiaghg      :   3699.63s CPU   3836.65s WALL (    2052 calls)

     Called by h_psi:
     add_vuspsi   :   1029.32s CPU   1042.49s WALL (    2064 calls)

     General routines
     calbec       :   1484.69s CPU   1495.39s WALL (    2340 calls)
     fft          :      3.89s CPU      4.44s WALL (     610 calls)
     ffts         :    113.58s CPU    127.98s WALL (   28687 calls)
     fftw         :   2464.82s CPU   2731.23s WALL ( 1345284 calls)
     davcio       :      0.38s CPU      3.73s WALL (       6 calls)
 
     Parallel routines
     fft_scatter  :   1608.22s CPU   1760.22s WALL ( 1374581 calls)
 
     PWSCF        :     3h43m CPU        3h58m WALL

 
   This run was terminated on:  14:50:12  12May2017            

=------------------------------------------------------------------------------=
   JOB DONE.
=------------------------------------------------------------------------------=
