
     Program PWSCF v.5.4.0 starts on 26Mar2017 at 15:23:54 

     This program is part of the open-source Quantum ESPRESSO suite
     for quantum simulation of materials; please cite
         "P. Giannozzi et al., J. Phys.:Condens. Matter 21 395502 (2009);
          URL http://www.quantum-espresso.org", 
     in publications or presentations arising from this work. More details at
     http://www.quantum-espresso.org/quote

     Parallel version (MPI & OpenMP), running on      56 processor cores
     Number of MPI processes:                56
     Threads/MPI process:                     1
     R & G space division:  proc/nbgrp/npool/nimage =      56
     Waiting for input...
     Reading input from standard input
Warning: card &IONS ignored
Warning: card / ignored

     Current dimensions of program PWSCF are:
     Max number of different atomic species (ntypx) = 10
     Max number of k-points (npk) =  40000
     Max angular momentum in pseudopotentials (lmaxx) =  3

     -------------------------------------
     Parameters for Dispersion Correction:
     -------------------------------------
       atom      VdW radius       C_6     

        Cu         2.952        374.666
        C_h        2.744         60.710
        C          2.744         60.710

     Subspace diagonalization in iterative solution of the eigenvalue problem:
     one sub-group per band group will be used
     scalapack distributed-memory algorithm (size of sub-group:  5*  5 procs)

 
     Parallelization info
     --------------------
     sticks:   dense  smooth     PW     G-vecs:    dense   smooth      PW
     Min         204     204     54                36612    36612    4962
     Max         205     205     55                36617    36617    4968
     Sum       11433   11433   3039              2050409  2050409  278033
 


     bravais-lattice index     =            0
     lattice parameter (alat)  =      13.9425  a.u.
     unit-cell volume          =   21209.0878 (a.u.)^3
     number of atoms/cell      =          148
     number of atomic types    =            3
     number of electrons       =      1292.00
     number of Kohn-Sham states=          775
     kinetic-energy cutoff     =      80.0000  Ry
     charge density cutoff     =     320.0000  Ry
     convergence threshold     =      1.0E-08
     mixing beta               =       0.7000
     number of iterations used =            8  local-TF  mixing
     Exchange-correlation      =  SLA  PW   PBX  PBC ( 1  4  3  4 0 0)

     celldm(1)=  13.942539  celldm(2)=   0.000000  celldm(3)=   0.000000
     celldm(4)=   0.000000  celldm(5)=   0.000000  celldm(6)=   0.000000

     crystal axes: (cart. coord. in units of alat)
               a(1) = (   1.000000   0.000000   0.000000 )  
               a(2) = (   0.000000   2.309401   0.000000 )  
               a(3) = (   0.000000   0.000000   3.388418 )  

     reciprocal axes: (cart. coord. in units 2 pi/alat)
               b(1) = (  1.000000  0.000000  0.000000 )  
               b(2) = (  0.000000  0.433013  0.000000 )  
               b(3) = (  0.000000  0.000000  0.295123 )  


     PseudoPot. # 1 for Cu read from file:
     /home/549/hxw549/Short/pseudopotentials/Cu.pbe-n-van_ak.UPF
     MD5 check sum: 601f7c30f7467666bec936e0661ce3e1
     Pseudo is Ultrasoft + core correction, Zval = 11.0
     Generated by new atomic code, or converted to UPF format
     Using radial grid of  867 points,  6 beta functions with: 
                l(1) =   0
                l(2) =   0
                l(3) =   1
                l(4) =   1
                l(5) =   2
                l(6) =   2
     Q(r) pseudized with  8 coefficients,  rinner =    1.400   1.400   1.400
                                                       1.400   1.400

     PseudoPot. # 2 for C  read from file:
     /home/549/hxw549/Short/pseudopotentials/C.star1s-pbe-mt_gipaw.UPF
     MD5 check sum: ef0cb3dee31bd9e4ba2a832a2c716264
     Pseudo is Norm-conserving, Zval =  5.0
     Generated by new atomic code, or converted to UPF format
     Using radial grid of 1073 points,  1 beta functions with: 
                l(1) =   0

     PseudoPot. # 3 for C  read from file:
     /home/549/hxw549/Short/pseudopotentials/C.pbe-mt_gipaw.UPF
     MD5 check sum: 5ac2f21f2c440b14befe521540822c15
     Pseudo is Norm-conserving, Zval =  4.0
     Generated by new atomic code, or converted to UPF format
     Using radial grid of 1073 points,  1 beta functions with: 
                l(1) =   0

     atomic species   valence    mass     pseudopotential
        Cu            11.00    63.54600     Cu( 1.00)
        C_h            5.00    12.01070     C ( 1.00)
        C              4.00    12.01070     C ( 1.00)

     No symmetry found



   Cartesian axes

     site n.     atom                  positions (alat units)
         1           Cu  tau(   1) = (   0.0000000   0.0000567   0.9971194  )
         2           Cu  tau(   2) = (   0.2499927   0.2309760   0.9972946  )
         3           Cu  tau(   3) = (   0.5000000   0.0000313   0.9971490  )
         4           Cu  tau(   4) = (   0.7500073   0.2309760   0.9972946  )
         5           Cu  tau(   5) = (   0.0000000   0.4618437   0.9973425  )
         6           Cu  tau(   6) = (   0.2499840   0.6927701   0.9971914  )
         7           Cu  tau(   7) = (   0.5000000   0.4618722   0.9973119  )
         8           Cu  tau(   8) = (   0.7500160   0.6927701   0.9971914  )
         9           Cu  tau(   9) = (   0.0000000   0.9237521   0.9970621  )
        10           Cu  tau(  10) = (   0.2500157   1.1547420   0.9971373  )
        11           Cu  tau(  11) = (   0.5000000   0.9237453   0.9970727  )
        12           Cu  tau(  12) = (   0.7499843   1.1547420   0.9971373  )
        13           Cu  tau(  13) = (   0.0000000   1.3856555   0.9972830  )
        14           Cu  tau(  14) = (   0.2500029   1.6165618   0.9973242  )
        15           Cu  tau(  15) = (   0.5000000   1.3857014   0.9973005  )
        16           Cu  tau(  16) = (   0.7499971   1.6165618   0.9973242  )
        17           Cu  tau(  17) = (   0.0000000   1.8474941   0.9971969  )
        18           Cu  tau(  18) = (   0.2500043   2.0784518   0.9970745  )
        19           Cu  tau(  19) = (   0.5000000   1.8474499   0.9971773  )
        20           Cu  tau(  20) = (   0.7499957   2.0784518   0.9970745  )
        21           Cu  tau(  21) = (   0.0000000   0.2308065   1.2457643  )
        22           Cu  tau(  22) = (   0.2499892  -0.0001010   1.2455764  )
        23           Cu  tau(  23) = (   0.5000000   0.2308938   1.2456746  )
        24           Cu  tau(  24) = (   0.7500108  -0.0001010   1.2455764  )
        25           Cu  tau(  25) = (   0.0000000   0.6929786   1.2456406  )
        26           Cu  tau(  26) = (   0.2499874   0.4619293   1.2457459  )
        27           Cu  tau(  27) = (   0.5000000   0.6929012   1.2456074  )
        28           Cu  tau(  28) = (   0.7500126   0.4619293   1.2457459  )
        29           Cu  tau(  29) = (   0.0000000   1.1546142   1.2455676  )
        30           Cu  tau(  30) = (   0.2499981   0.9237849   1.2455149  )
        31           Cu  tau(  31) = (   0.5000000   1.1545763   1.2455800  )
        32           Cu  tau(  32) = (   0.7500019   0.9237849   1.2455149  )
        33           Cu  tau(  33) = (   0.0000000   1.6166029   1.2456910  )
        34           Cu  tau(  34) = (   0.2500161   1.3855492   1.2457134  )
        35           Cu  tau(  35) = (   0.5000000   1.6166555   1.2458019  )
        36           Cu  tau(  36) = (   0.7499839   1.3855492   1.2457134  )
        37           Cu  tau(  37) = (   0.0000000   2.0784993   1.2455162  )
        38           Cu  tau(  38) = (   0.2500161   1.8476387   1.2456210  )
        39           Cu  tau(  39) = (   0.5000000   2.0784755   1.2455152  )
        40           Cu  tau(  40) = (   0.7499839   1.8476387   1.2456210  )
        41           Cu  tau(  41) = (   0.0000000  -0.0003182   1.4954305  )
        42           Cu  tau(  42) = (   0.2500224   0.2307186   1.4951678  )
        43           Cu  tau(  43) = (   0.5000000  -0.0002059   1.4952775  )
        44           Cu  tau(  44) = (   0.7499776   0.2307186   1.4951678  )
        45           Cu  tau(  45) = (   0.0000000   0.4620254   1.4950571  )
        46           Cu  tau(  46) = (   0.2500339   0.6931225   1.4952807  )
        47           Cu  tau(  47) = (   0.5000000   0.4619896   1.4952144  )
        48           Cu  tau(  48) = (   0.7499661   0.6931225   1.4952807  )
        49           Cu  tau(  49) = (   0.0000000   0.9238798   1.4954544  )
        50           Cu  tau(  50) = (   0.2499708   1.1544329   1.4953374  )
        51           Cu  tau(  51) = (   0.5000000   0.9237633   1.4954072  )
        52           Cu  tau(  52) = (   0.7500292   1.1544329   1.4953374  )
        53           Cu  tau(  53) = (   0.0000000   1.3854453   1.4952066  )
        54           Cu  tau(  54) = (   0.2499861   1.6167017   1.4951298  )
        55           Cu  tau(  55) = (   0.5000000   1.3853760   1.4951346  )
        56           Cu  tau(  56) = (   0.7500139   1.6167017   1.4951298  )
        57           Cu  tau(  57) = (   0.0000000   1.8477718   1.4952308  )
        58           Cu  tau(  58) = (   0.2499930   2.0785254   1.4954090  )
        59           Cu  tau(  59) = (   0.5000000   1.8478762   1.4953503  )
        60           Cu  tau(  60) = (   0.7500070   2.0785254   1.4954090  )
        61           Cu  tau(  61) = (   0.0000000   0.2310733   1.7440777  )
        62           Cu  tau(  62) = (   0.2501089  -0.0001294   1.7450479  )
        63           Cu  tau(  63) = (   0.5000000   0.2306045   1.7445985  )
        64           Cu  tau(  64) = (   0.7498911  -0.0001294   1.7450479  )
        65           Cu  tau(  65) = (   0.0000000   0.6927994   1.7446059  )
        66           Cu  tau(  66) = (   0.2502918   0.4619532   1.7441197  )
        67           Cu  tau(  67) = (   0.5000000   0.6931011   1.7451318  )
        68           Cu  tau(  68) = (   0.7497082   0.4619532   1.7441197  )
        69           Cu  tau(  69) = (   0.0000000   1.1545789   1.7453503  )
        70           Cu  tau(  70) = (   0.2500220   0.9237908   1.7453835  )
        71           Cu  tau(  71) = (   0.5000000   1.1545999   1.7449118  )
        72           Cu  tau(  72) = (   0.7499780   0.9237908   1.7453835  )
        73           Cu  tau(  73) = (   0.0000000   1.6167791   1.7444075  )
        74           Cu  tau(  74) = (   0.2497438   1.3855115   1.7442733  )
        75           Cu  tau(  75) = (   0.5000000   1.6164906   1.7439233  )
        76           Cu  tau(  76) = (   0.7502562   1.3855115   1.7442733  )
        77           Cu  tau(  77) = (   0.0000000   2.0782721   1.7455014  )
        78           Cu  tau(  78) = (   0.2498426   1.8476765   1.7447807  )
        79           Cu  tau(  79) = (   0.5000000   2.0787016   1.7454002  )
        80           Cu  tau(  80) = (   0.7501574   1.8476765   1.7447807  )
        81           Cu  tau(  81) = (   0.0000000   0.0010732   1.9906710  )
        82           Cu  tau(  82) = (   0.2503054   0.2314650   1.9904877  )
        83           Cu  tau(  83) = (   0.5000000   0.0001335   1.9924670  )
        84           Cu  tau(  84) = (   0.7496946   0.2314650   1.9904877  )
        85           Cu  tau(  85) = (   0.0000000   0.4618379   1.9901778  )
        86           Cu  tau(  86) = (   0.2508441   0.6921348   1.9910282  )
        87           Cu  tau(  87) = (   0.5000000   0.4613052   1.9913358  )
        88           Cu  tau(  88) = (   0.7491559   0.6921348   1.9910282  )
        89           Cu  tau(  89) = (   0.0000000   0.9224699   1.9915918  )
        90           Cu  tau(  90) = (   0.2491275   1.1552920   1.9912642  )
        91           Cu  tau(  91) = (   0.5000000   0.9247757   1.9920574  )
        92           Cu  tau(  92) = (   0.7508725   1.1552920   1.9912642  )
        93           Cu  tau(  93) = (   0.0000000   1.3865904   1.9916296  )
        94           Cu  tau(  94) = (   0.2499532   1.6162906   1.9903050  )
        95           Cu  tau(  95) = (   0.5000000   1.3858063   1.9901800  )
        96           Cu  tau(  96) = (   0.7500468   1.6162906   1.9903050  )
        97           Cu  tau(  97) = (   0.0000000   1.8468318   1.9923212  )
        98           Cu  tau(  98) = (   0.2497561   2.0783183   1.9915134  )
        99           Cu  tau(  99) = (   0.5000000   1.8467805   1.9903847  )
       100           Cu  tau( 100) = (   0.7502439   2.0783183   1.9915134  )
       101           C   tau( 101) = (   0.0000000   0.0962962   2.3888871  )
       102           C   tau( 102) = (   0.0000000   0.2886925   2.3900713  )
       103           C   tau( 103) = (   0.1666323   0.0000435   2.3878440  )
       104           C   tau( 104) = (   0.1664900   0.3848966   2.3886743  )
       105           C   tau( 105) = (   0.3331238   0.0962174   2.3860158  )
       106           C   tau( 106) = (   0.3331280   0.2886629   2.3856823  )
       107           C   tau( 107) = (   0.5000000  -0.0000818   2.3845687  )
       108           C   tau( 108) = (   0.5000000   0.3849277   2.3842391  )
       109           C   tau( 109) = (   0.6668762   0.0962174   2.3860158  )
       110           C   tau( 110) = (   0.6668720   0.2886629   2.3856823  )
       111           C   tau( 111) = (   0.8333677   0.0000435   2.3878440  )
       112           C   tau( 112) = (   0.8335100   0.3848966   2.3886743  )
       113           C   tau( 113) = (   0.0000000   0.6735163   2.3892509  )
       114           C   tau( 114) = (   0.0000000   0.8659398   2.3870960  )
       115           C   tau( 115) = (   0.1664759   0.5773226   2.3882842  )
       116           C   tau( 116) = (   0.1667428   0.9622141   2.3870264  )
       117           C   tau( 117) = (   0.3332094   0.6735984   2.3858047  )
       118           C   tau( 118) = (   0.3332031   0.8660537   2.3866148  )
       119           C   tau( 119) = (   0.5000000   0.5773685   2.3848465  )
       120           C   tau( 120) = (   0.5000000   0.9623380   2.3860825  )
       121           C   tau( 121) = (   0.6667906   0.6735984   2.3858047  )
       122           C   tau( 122) = (   0.6667969   0.8660537   2.3866148  )
       123           C   tau( 123) = (   0.8335241   0.5773226   2.3882842  )
       124           C   tau( 124) = (   0.8332572   0.9622141   2.3870264  )
       125           C   tau( 125) = (   0.0000000   1.2508867   2.3852683  )
       126           C   tau( 126) = (   0.0000000   1.4433300   2.3840871  )
       127           C   tau( 127) = (   0.1667360   1.1546708   2.3859697  )
       128           C   tau( 128) = (   0.1668939   1.5396104   2.3857176  )
       129           C   tau( 129) = (   0.3335095   1.2509657   2.3878953  )
       130           C   tau( 130) = (   0.3334866   1.4433958   2.3886602  )
       131           C   tau( 131) = (   0.5000000   1.1547731   2.3885512  )
       132           C   tau( 132) = (   0.5000000   1.5396099   2.3901428  )
       133           C   tau( 133) = (   0.6664905   1.2509657   2.3878953  )
       134           C_h tau( 134) = (   0.6665134   1.4433958   2.3886602  )
       135           C   tau( 135) = (   0.8332640   1.1546708   2.3859697  )
       136           C   tau( 136) = (   0.8331061   1.5396104   2.3857176  )
       137           C   tau( 137) = (   0.0000000   1.8283510   2.3842019  )
       138           C   tau( 138) = (   0.0000000   2.0207949   2.3863399  )
       139           C   tau( 139) = (   0.1668959   1.7320513   2.3858703  )
       140           C   tau( 140) = (   0.1666186   2.1169980   2.3865340  )
       141           C   tau( 141) = (   0.3334155   1.8282368   2.3882160  )
       142           C   tau( 142) = (   0.3334352   2.0206763   2.3869561  )
       143           C   tau( 143) = (   0.5000000   1.7319961   2.3895398  )
       144           C   tau( 144) = (   0.5000000   2.1168754   2.3870198  )
       145           C   tau( 145) = (   0.6665845   1.8282368   2.3882160  )
       146           C   tau( 146) = (   0.6665648   2.0206763   2.3869561  )
       147           C   tau( 147) = (   0.8331041   1.7320513   2.3858703  )
       148           C   tau( 148) = (   0.8333814   2.1169980   2.3865340  )

     number of k points=     6  gaussian smearing, width (Ry)=  0.1000
                       cart. coord. in units 2pi/alat
        k(    1) = (   0.0000000   0.0000000   0.0000000), wk =   0.2500000
        k(    2) = (   0.0000000  -0.2165064   0.0000000), wk =   0.2500000
        k(    3) = (   0.2500000   0.0000000   0.0000000), wk =   0.5000000
        k(    4) = (   0.2500000  -0.2165064   0.0000000), wk =   0.5000000
        k(    5) = (  -0.5000000   0.0000000   0.0000000), wk =   0.2500000
        k(    6) = (  -0.5000000  -0.2165064   0.0000000), wk =   0.2500000

     Dense  grid:  2050409 G-vectors     FFT dimensions: (  80, 192, 270)

     Largest allocated arrays     est. size (Mb)     dimensions
        Kohn-Sham Wavefunctions        54.44 Mb     (    4604,  775)
        NL pseudopotentials           129.82 Mb     (    4604, 1848)
        Each V/rho on FFT grid          1.17 Mb     (   76800)
        Each G-vector array             0.28 Mb     (   36616)
        G-vector shells                 0.14 Mb     (   17932)
     Largest temporary arrays     est. size (Mb)     dimensions
        Auxiliary wavefunctions       217.78 Mb     (    4604, 3100)
        Each subspace H/S matrix        5.87 Mb     (     620,  620)
        Each <psi_i|beta_j> matrix     21.85 Mb     (    1848,  775)
        Arrays for rho mixing           9.38 Mb     (   76800,    8)

     Initial potential from superposition of free atoms
     Check: negative starting charge=   -0.001843

     starting charge 1266.81751, renormalised to 1292.00000

     negative rho (up, down):  1.879E-03 0.000E+00
     Starting wfc are 1284 randomized atomic wfcs

     total cpu time spent up to now is      106.1 secs

     Self-consistent Calculation

     iteration #  1     ecut=    80.00 Ry     beta=0.70
     Davidson diagonalization with overlap
     c_bands:  2 eigenvalues not converged
     c_bands:  1 eigenvalues not converged
     c_bands:  3 eigenvalues not converged
     ethr =  1.00E-04,  avg # of iterations = 36.0

     negative rho (up, down):  2.727E+01 0.000E+00

     total cpu time spent up to now is     2058.9 secs

     total energy              =   -9468.07321887 Ry
     Harris-Foulkes estimate   =  -17311.26688741 Ry
     estimated scf accuracy    <  180193.31598899 Ry

     iteration #  2     ecut=    80.00 Ry     beta=0.70
     Davidson diagonalization with overlap
     ethr =  1.00E-02,  avg # of iterations = 12.2

     negative rho (up, down):  3.153E+01 0.000E+00

     total cpu time spent up to now is     2966.3 secs

     total energy              =  -12213.39609498 Ry
     Harris-Foulkes estimate   =  -13665.88599737 Ry
     estimated scf accuracy    <   23928.38420178 Ry

     iteration #  3     ecut=    80.00 Ry     beta=0.70
     Davidson diagonalization with overlap
     ethr =  1.00E-02,  avg # of iterations =  7.5

     negative rho (up, down):  3.204E+01 0.000E+00

     total cpu time spent up to now is     3499.4 secs

     total energy              =  -12461.46362708 Ry
     Harris-Foulkes estimate   =  -13404.22898490 Ry
     estimated scf accuracy    <    5837.26542551 Ry

     iteration #  4     ecut=    80.00 Ry     beta=0.70
     Davidson diagonalization with overlap
     ethr =  1.00E-02,  avg # of iterations =  5.8

     negative rho (up, down):  2.384E+01 0.000E+00

     total cpu time spent up to now is     3985.2 secs

     total energy              =  -12848.72099768 Ry
     Harris-Foulkes estimate   =  -13085.37240776 Ry
     estimated scf accuracy    <    1781.79766969 Ry

     iteration #  5     ecut=    80.00 Ry     beta=0.70
     Davidson diagonalization with overlap
     ethr =  1.00E-02,  avg # of iterations =  3.3

     negative rho (up, down):  1.864E+01 0.000E+00

     total cpu time spent up to now is     4251.2 secs

     total energy              =  -12846.66719421 Ry
     Harris-Foulkes estimate   =  -12962.38749336 Ry
     estimated scf accuracy    <    1281.58886357 Ry

     iteration #  6     ecut=    80.00 Ry     beta=0.70
     Davidson diagonalization with overlap
     ethr =  1.00E-02,  avg # of iterations =  3.0

     negative rho (up, down):  1.286E+01 0.000E+00

     total cpu time spent up to now is     4458.5 secs

     total energy              =  -12835.29874232 Ry
     Harris-Foulkes estimate   =  -12908.76373465 Ry
     estimated scf accuracy    <     564.63125430 Ry

     iteration #  7     ecut=    80.00 Ry     beta=0.70
     Davidson diagonalization with overlap
     ethr =  1.00E-02,  avg # of iterations =  2.0

     negative rho (up, down):  9.194E+00 0.000E+00

     total cpu time spent up to now is     4639.4 secs

     total energy              =  -12808.31559493 Ry
     Harris-Foulkes estimate   =  -12851.37820419 Ry
     estimated scf accuracy    <     440.38806504 Ry

     iteration #  8     ecut=    80.00 Ry     beta=0.70
     Davidson diagonalization with overlap
     ethr =  1.00E-02,  avg # of iterations =  2.0

     negative rho (up, down):  7.250E+00 0.000E+00

     total cpu time spent up to now is     4817.6 secs

     total energy              =  -12788.30092960 Ry
     Harris-Foulkes estimate   =  -12823.01813154 Ry
     estimated scf accuracy    <     493.24439219 Ry

     iteration #  9     ecut=    80.00 Ry     beta=0.70
     Davidson diagonalization with overlap
     ethr =  1.00E-02,  avg # of iterations =  1.8

     negative rho (up, down):  5.601E+00 0.000E+00

     total cpu time spent up to now is     4992.5 secs

     total energy              =  -12782.08370031 Ry
     Harris-Foulkes estimate   =  -12800.37734929 Ry
     estimated scf accuracy    <     187.54220613 Ry

     iteration # 10     ecut=    80.00 Ry     beta=0.70
     Davidson diagonalization with overlap
     ethr =  1.00E-02,  avg # of iterations =  1.0

     negative rho (up, down):  1.479E+00 0.000E+00

     total cpu time spent up to now is     5157.9 secs

     total energy              =  -12731.00906897 Ry
     Harris-Foulkes estimate   =  -12783.39502600 Ry
     estimated scf accuracy    <     144.04422849 Ry

     iteration # 11     ecut=    80.00 Ry     beta=0.70
     Davidson diagonalization with overlap
     ethr =  1.00E-02,  avg # of iterations =  3.0

     negative rho (up, down):  1.510E+00 0.000E+00

     total cpu time spent up to now is     5350.5 secs

     total energy              =  -12731.11961712 Ry
     Harris-Foulkes estimate   =  -12747.98142765 Ry
     estimated scf accuracy    <     651.88368613 Ry

     iteration # 12     ecut=    80.00 Ry     beta=0.70
     Davidson diagonalization with overlap
     ethr =  1.00E-02,  avg # of iterations =  1.0

     negative rho (up, down):  9.314E-01 0.000E+00

     total cpu time spent up to now is     5516.0 secs

     total energy              =  -12722.31927144 Ry
     Harris-Foulkes estimate   =  -12738.43625319 Ry
     estimated scf accuracy    <     343.34477315 Ry

     iteration # 13     ecut=    80.00 Ry     beta=0.70
     Davidson diagonalization with overlap
     ethr =  1.00E-02,  avg # of iterations =  1.0

     negative rho (up, down):  2.623E+00 0.000E+00

     total cpu time spent up to now is     5680.7 secs

     total energy              =  -12717.24684176 Ry
     Harris-Foulkes estimate   =  -12733.30585790 Ry
     estimated scf accuracy    <     165.02761093 Ry

     iteration # 14     ecut=    80.00 Ry     beta=0.70
     Davidson diagonalization with overlap
     ethr =  1.00E-02,  avg # of iterations =  2.0

     negative rho (up, down):  5.389E+00 0.000E+00

     total cpu time spent up to now is     5858.0 secs

     total energy              =  -12717.41633628 Ry
     Harris-Foulkes estimate   =  -12725.63047135 Ry
     estimated scf accuracy    <      55.87117564 Ry

     iteration # 15     ecut=    80.00 Ry     beta=0.70
     Davidson diagonalization with overlap
     ethr =  4.32E-03,  avg # of iterations =  2.0

     negative rho (up, down):  5.019E+00 0.000E+00

     total cpu time spent up to now is     6035.5 secs

     total energy              =  -12714.99081792 Ry
     Harris-Foulkes estimate   =  -12720.94691428 Ry
     estimated scf accuracy    <      51.02177269 Ry

     iteration # 16     ecut=    80.00 Ry     beta=0.70
     Davidson diagonalization with overlap
     ethr =  3.95E-03,  avg # of iterations =  2.0

     negative rho (up, down):  5.742E+00 0.000E+00

     total cpu time spent up to now is     6212.5 secs

     total energy              =  -12715.63352731 Ry
     Harris-Foulkes estimate   =  -12719.11491356 Ry
     estimated scf accuracy    <      30.95798331 Ry

     iteration # 17     ecut=    80.00 Ry     beta=0.70
     Davidson diagonalization with overlap
     ethr =  2.40E-03,  avg # of iterations =  2.5

     negative rho (up, down):  5.786E+00 0.000E+00

     total cpu time spent up to now is     6395.0 secs

     total energy              =  -12715.06518204 Ry
     Harris-Foulkes estimate   =  -12716.50041533 Ry
     estimated scf accuracy    <      20.40719997 Ry

     iteration # 18     ecut=    80.00 Ry     beta=0.70
     Davidson diagonalization with overlap
     ethr =  1.58E-03,  avg # of iterations =  3.8

     negative rho (up, down):  4.331E+00 0.000E+00

     total cpu time spent up to now is     6592.1 secs

     total energy              =  -12713.20250844 Ry
     Harris-Foulkes estimate   =  -12715.37414164 Ry
     estimated scf accuracy    <      15.18072351 Ry

     iteration # 19     ecut=    80.00 Ry     beta=0.70
     Davidson diagonalization with overlap
     ethr =  1.17E-03,  avg # of iterations =  4.7

     negative rho (up, down):  3.753E+00 0.000E+00

     total cpu time spent up to now is     6799.4 secs

     total energy              =  -12712.51014649 Ry
     Harris-Foulkes estimate   =  -12713.54472857 Ry
     estimated scf accuracy    <       8.83247301 Ry

     iteration # 20     ecut=    80.00 Ry     beta=0.70
     Davidson diagonalization with overlap
     ethr =  6.84E-04,  avg # of iterations =  5.3

     negative rho (up, down):  1.732E+00 0.000E+00

     total cpu time spent up to now is     7016.2 secs

     total energy              =  -12711.23886410 Ry
     Harris-Foulkes estimate   =  -12712.71410754 Ry
     estimated scf accuracy    <       7.25324513 Ry

     iteration # 21     ecut=    80.00 Ry     beta=0.70
     Davidson diagonalization with overlap
     ethr =  5.61E-04,  avg # of iterations =  4.2

     negative rho (up, down):  2.370E+00 0.000E+00

     total cpu time spent up to now is     7217.6 secs

     total energy              =  -12711.57539379 Ry
     Harris-Foulkes estimate   =  -12711.46179382 Ry
     estimated scf accuracy    <      14.40389807 Ry

     iteration # 22     ecut=    80.00 Ry     beta=0.70
     Davidson diagonalization with overlap
     ethr =  5.61E-04,  avg # of iterations =  1.0

     negative rho (up, down):  1.798E+00 0.000E+00

     total cpu time spent up to now is     7383.4 secs

     total energy              =  -12711.41102540 Ry
     Harris-Foulkes estimate   =  -12711.87317735 Ry
     estimated scf accuracy    <       6.80058724 Ry

     iteration # 23     ecut=    80.00 Ry     beta=0.70
     Davidson diagonalization with overlap
     ethr =  5.26E-04,  avg # of iterations =  1.0

     negative rho (up, down):  5.823E-01 0.000E+00

     total cpu time spent up to now is     7548.8 secs

     total energy              =  -12710.26671504 Ry
     Harris-Foulkes estimate   =  -12711.49506504 Ry
     estimated scf accuracy    <       6.54321331 Ry

     iteration # 24     ecut=    80.00 Ry     beta=0.70
     Davidson diagonalization with overlap
     ethr =  5.06E-04,  avg # of iterations =  4.0

     negative rho (up, down):  4.919E-03 0.000E+00

     total cpu time spent up to now is     7748.3 secs

     total energy              =  -12708.70811849 Ry
     Harris-Foulkes estimate   =  -12710.35542546 Ry
     estimated scf accuracy    <       8.11727097 Ry

     iteration # 25     ecut=    80.00 Ry     beta=0.70
     Davidson diagonalization with overlap
     ethr =  5.06E-04,  avg # of iterations =  2.2

     total cpu time spent up to now is     7927.4 secs

     total energy              =  -12707.94450118 Ry
     Harris-Foulkes estimate   =  -12708.88805799 Ry
     estimated scf accuracy    <       6.12449598 Ry

     iteration # 26     ecut=    80.00 Ry     beta=0.70
     Davidson diagonalization with overlap
     ethr =  4.74E-04,  avg # of iterations =  1.2

     negative rho (up, down):  3.991E-01 0.000E+00

     total cpu time spent up to now is     8095.2 secs

     total energy              =  -12707.41318690 Ry
     Harris-Foulkes estimate   =  -12708.35052069 Ry
     estimated scf accuracy    <       3.63631858 Ry

     iteration # 27     ecut=    80.00 Ry     beta=0.70
     Davidson diagonalization with overlap
     ethr =  2.81E-04,  avg # of iterations =  5.5

     negative rho (up, down):  5.907E-01 0.000E+00

     total cpu time spent up to now is     8316.5 secs

     total energy              =  -12707.25317908 Ry
     Harris-Foulkes estimate   =  -12707.52417050 Ry
     estimated scf accuracy    <       1.29720914 Ry

     iteration # 28     ecut=    80.00 Ry     beta=0.70
     Davidson diagonalization with overlap
     ethr =  1.00E-04,  avg # of iterations =  9.7

     negative rho (up, down):  6.735E-01 0.000E+00

     total cpu time spent up to now is     8593.1 secs

     total energy              =  -12707.12680977 Ry
     Harris-Foulkes estimate   =  -12707.33850680 Ry
     estimated scf accuracy    <       1.27283820 Ry

     iteration # 29     ecut=    80.00 Ry     beta=0.70
     Davidson diagonalization with overlap
     ethr =  9.85E-05,  avg # of iterations =  8.5

     negative rho (up, down):  5.447E-01 0.000E+00

     total cpu time spent up to now is     8881.7 secs

     total energy              =  -12707.16135140 Ry
     Harris-Foulkes estimate   =  -12707.19482385 Ry
     estimated scf accuracy    <       0.26260023 Ry

     iteration # 30     ecut=    80.00 Ry     beta=0.70
     Davidson diagonalization with overlap
     ethr =  2.03E-05,  avg # of iterations =  5.2

     negative rho (up, down):  4.664E-01 0.000E+00

     total cpu time spent up to now is     9102.1 secs

     total energy              =  -12707.16183391 Ry
     Harris-Foulkes estimate   =  -12707.17888634 Ry
     estimated scf accuracy    <       0.13097029 Ry

     iteration # 31     ecut=    80.00 Ry     beta=0.70
     Davidson diagonalization with overlap
     ethr =  1.01E-05,  avg # of iterations =  9.3

     negative rho (up, down):  2.683E-01 0.000E+00

     total cpu time spent up to now is     9374.3 secs

     total energy              =  -12707.15283811 Ry
     Harris-Foulkes estimate   =  -12707.16835629 Ry
     estimated scf accuracy    <       0.06114177 Ry

     iteration # 32     ecut=    80.00 Ry     beta=0.70
     Davidson diagonalization with overlap
     ethr =  4.73E-06,  avg # of iterations = 15.8

     negative rho (up, down):  1.576E-01 0.000E+00

     total cpu time spent up to now is     9747.1 secs

     total energy              =  -12707.14732987 Ry
     Harris-Foulkes estimate   =  -12707.15625965 Ry
     estimated scf accuracy    <       0.02767685 Ry

     iteration # 33     ecut=    80.00 Ry     beta=0.70
     Davidson diagonalization with overlap
     c_bands:  2 eigenvalues not converged
     c_bands:  1 eigenvalues not converged
     c_bands:  2 eigenvalues not converged
     ethr =  2.14E-06,  avg # of iterations = 15.5

     negative rho (up, down):  8.089E-02 0.000E+00

     total cpu time spent up to now is    10115.1 secs

     total energy              =  -12707.14619378 Ry
     Harris-Foulkes estimate   =  -12707.15000186 Ry
     estimated scf accuracy    <       0.02083996 Ry

     iteration # 34     ecut=    80.00 Ry     beta=0.70
     Davidson diagonalization with overlap
     c_bands:  1 eigenvalues not converged
     c_bands:  2 eigenvalues not converged
     c_bands:  1 eigenvalues not converged
     ethr =  1.61E-06,  avg # of iterations = 15.0

     negative rho (up, down):  4.754E-02 0.000E+00

     total cpu time spent up to now is    10474.2 secs

     total energy              =  -12707.14635786 Ry
     Harris-Foulkes estimate   =  -12707.14753833 Ry
     estimated scf accuracy    <       0.00465449 Ry

     iteration # 35     ecut=    80.00 Ry     beta=0.70
     Davidson diagonalization with overlap
     c_bands:  1 eigenvalues not converged
     c_bands:  1 eigenvalues not converged
     ethr =  3.60E-07,  avg # of iterations = 12.7

     negative rho (up, down):  3.269E-02 0.000E+00

     total cpu time spent up to now is    10797.8 secs

     total energy              =  -12707.14634694 Ry
     Harris-Foulkes estimate   =  -12707.14689731 Ry
     estimated scf accuracy    <       0.00335376 Ry

     iteration # 36     ecut=    80.00 Ry     beta=0.70
     Davidson diagonalization with overlap
     ethr =  2.60E-07,  avg # of iterations =  9.2

     negative rho (up, down):  3.849E-02 0.000E+00

     total cpu time spent up to now is    11075.2 secs

     total energy              =  -12707.14667222 Ry
     Harris-Foulkes estimate   =  -12707.14661868 Ry
     estimated scf accuracy    <       0.00090078 Ry

     iteration # 37     ecut=    80.00 Ry     beta=0.70
     Davidson diagonalization with overlap
     ethr =  6.97E-08,  avg # of iterations =  6.5

     negative rho (up, down):  2.567E-02 0.000E+00

     total cpu time spent up to now is    11322.2 secs

     total energy              =  -12707.14651097 Ry
     Harris-Foulkes estimate   =  -12707.14675190 Ry
     estimated scf accuracy    <       0.00026918 Ry

     iteration # 38     ecut=    80.00 Ry     beta=0.70
     Davidson diagonalization with overlap
     ethr =  2.08E-08,  avg # of iterations =  5.0

     negative rho (up, down):  1.187E-02 0.000E+00

     total cpu time spent up to now is    11541.8 secs

     total energy              =  -12707.14623233 Ry
     Harris-Foulkes estimate   =  -12707.14652620 Ry
     estimated scf accuracy    <       0.00011710 Ry

     iteration # 39     ecut=    80.00 Ry     beta=0.70
     Davidson diagonalization with overlap
     c_bands:  1 eigenvalues not converged
     ethr =  9.06E-09,  avg # of iterations =  9.0

     negative rho (up, down):  5.761E-03 0.000E+00

     total cpu time spent up to now is    11812.4 secs

     total energy              =  -12707.14612648 Ry
     Harris-Foulkes estimate   =  -12707.14624055 Ry
     estimated scf accuracy    <       0.00005979 Ry

     iteration # 40     ecut=    80.00 Ry     beta=0.70
     Davidson diagonalization with overlap
     c_bands:  1 eigenvalues not converged
     c_bands:  1 eigenvalues not converged
     ethr =  4.63E-09,  avg # of iterations = 10.8

     negative rho (up, down):  3.184E-03 0.000E+00

     total cpu time spent up to now is    12101.9 secs

     total energy              =  -12707.14609928 Ry
     Harris-Foulkes estimate   =  -12707.14612995 Ry
     estimated scf accuracy    <       0.00003212 Ry

     iteration # 41     ecut=    80.00 Ry     beta=0.70
     Davidson diagonalization with overlap
     ethr =  2.49E-09,  avg # of iterations =  4.2

     negative rho (up, down):  1.970E-03 0.000E+00

     total cpu time spent up to now is    12311.5 secs

     total energy              =  -12707.14609953 Ry
     Harris-Foulkes estimate   =  -12707.14610053 Ry
     estimated scf accuracy    <       0.00001153 Ry

     iteration # 42     ecut=    80.00 Ry     beta=0.70
     Davidson diagonalization with overlap
     ethr =  8.92E-10,  avg # of iterations =  2.7

     negative rho (up, down):  1.867E-03 0.000E+00

     total cpu time spent up to now is    12508.2 secs

     total energy              =  -12707.14610026 Ry
     Harris-Foulkes estimate   =  -12707.14610041 Ry
     estimated scf accuracy    <       0.00000422 Ry

     iteration # 43     ecut=    80.00 Ry     beta=0.70
     Davidson diagonalization with overlap
     ethr =  3.27E-10,  avg # of iterations =  2.7

     negative rho (up, down):  1.985E-03 0.000E+00

     total cpu time spent up to now is    12705.9 secs

     total energy              =  -12707.14610152 Ry
     Harris-Foulkes estimate   =  -12707.14610065 Ry
     estimated scf accuracy    <       0.00000042 Ry

     iteration # 44     ecut=    80.00 Ry     beta=0.70
     Davidson diagonalization with overlap
     ethr =  3.21E-11,  avg # of iterations =  3.0

     negative rho (up, down):  2.047E-03 0.000E+00

     total cpu time spent up to now is    12922.2 secs

     total energy              =  -12707.14610176 Ry
     Harris-Foulkes estimate   =  -12707.14610157 Ry
     estimated scf accuracy    <       0.00000014 Ry

     iteration # 45     ecut=    80.00 Ry     beta=0.70
     Davidson diagonalization with overlap
     ethr =  1.10E-11,  avg # of iterations =  3.0

     negative rho (up, down):  2.084E-03 0.000E+00

     total cpu time spent up to now is    13126.2 secs

     total energy              =  -12707.14610185 Ry
     Harris-Foulkes estimate   =  -12707.14610178 Ry
     estimated scf accuracy    <       0.00000007 Ry

     iteration # 46     ecut=    80.00 Ry     beta=0.70
     Davidson diagonalization with overlap
     ethr =  5.63E-12,  avg # of iterations =  3.0

     negative rho (up, down):  2.106E-03 0.000E+00

     total cpu time spent up to now is    13325.1 secs

     total energy              =  -12707.14610182 Ry
     Harris-Foulkes estimate   =  -12707.14610186 Ry
     estimated scf accuracy    <       0.00000002 Ry

     iteration # 47     ecut=    80.00 Ry     beta=0.70
     Davidson diagonalization with overlap
     ethr =  1.41E-12,  avg # of iterations =  3.0

     negative rho (up, down):  2.115E-03 0.000E+00

     total cpu time spent up to now is    13521.5 secs

     End of self-consistent calculation

          k = 0.0000 0.0000 0.0000 (256287 PWs)   bands (ev):

   -17.2812 -16.2337 -16.0889 -15.4309 -15.0444 -14.7935 -14.6906 -14.2538
   -14.1969 -14.1414 -14.1245 -13.4649 -13.3258 -13.1563 -13.1232 -13.0852
   -13.0832 -11.6725 -11.5333 -11.4844 -11.3900 -11.2068 -10.3540  -9.7716
    -9.7619  -9.6274  -9.5234  -8.9885  -8.7998  -8.6719  -8.6029  -8.0496
    -7.9031  -7.7637  -7.6339  -7.5823  -7.5740  -7.5400  -7.5254  -6.3578
    -6.3507  -6.1253  -6.0237  -6.0207  -5.9498  -5.8913  -5.8600  -5.8436
    -5.4985  -5.4825  -5.2975  -4.8879  -4.8424  -4.7980  -4.6374  -4.6210
    -4.5830  -4.4261  -4.2577  -4.1465  -3.9889  -3.9873  -3.9705  -3.9521
    -3.6187  -3.5507  -3.5300  -3.5204  -3.4215  -3.4185  -3.4063  -3.3997
    -3.2769  -3.1877  -3.1225  -3.0605  -3.0161  -3.0088  -3.0048  -3.0047
    -2.9931  -2.8582  -2.8358  -2.8008  -2.7818  -2.7431  -2.7401  -2.7391
    -2.7191  -2.7133  -2.5328  -2.4323  -2.3769  -2.3765  -2.3393  -2.3359
    -2.1938  -2.1917  -2.1814  -2.1784  -2.1516  -2.1514  -2.1513  -2.1512
    -2.1121  -2.0793  -2.0786  -2.0364  -2.0206  -2.0205  -2.0205  -2.0202
    -1.9603  -1.8413  -1.7765  -1.7406  -1.7387  -1.7375  -1.7374  -1.7017
    -1.6925  -1.6711  -1.6581  -1.6563  -1.6125  -1.5951  -1.5905  -1.5711
    -1.5645  -1.5635  -1.5615  -1.5511  -1.5399  -1.5337  -1.5337  -1.5151
    -1.5135  -1.4521  -1.4404  -1.4238  -1.4156  -1.3864  -1.3817  -1.3788
    -1.3699  -1.3524  -1.2987  -1.2962  -1.2632  -1.2618  -1.2489  -1.2112
    -1.2108  -1.1914  -1.1892  -1.1778  -1.1666  -1.1636  -1.1298  -1.1204
    -1.1096  -1.1074  -1.0484  -1.0478  -1.0340  -1.0290  -1.0259  -1.0247
    -1.0245  -1.0215  -1.0201  -1.0153  -1.0150  -0.9980  -0.9970  -0.9796
    -0.9512  -0.9412  -0.9390  -0.9340  -0.9229  -0.9181  -0.9175  -0.9166
    -0.9004  -0.8591  -0.8578  -0.8567  -0.8555  -0.8550  -0.8542  -0.8532
    -0.8526  -0.8521  -0.8514  -0.8477  -0.8477  -0.8475  -0.8451  -0.8422
    -0.8416  -0.8308  -0.8293  -0.8256  -0.8225  -0.7852  -0.6892  -0.6892
    -0.6873  -0.6830  -0.6825  -0.6596  -0.6581  -0.6410  -0.6409  -0.6191
    -0.6191  -0.6040  -0.6036  -0.6031  -0.6027  -0.5872  -0.5638  -0.5634
    -0.5614  -0.5608  -0.5533  -0.5524  -0.5418  -0.5413  -0.4917  -0.4915
    -0.4377  -0.4374  -0.4272  -0.4256  -0.4254  -0.4238  -0.4101  -0.4099
    -0.4044  -0.4042  -0.4039  -0.4036  -0.3994  -0.3993  -0.3846  -0.3846
    -0.3800  -0.3776  -0.3748  -0.3744  -0.3506  -0.3499  -0.2998  -0.2970
    -0.2963  -0.2906  -0.2904  -0.2640  -0.2639  -0.2639  -0.2639  -0.2493
    -0.2467  -0.2462  -0.2420  -0.2419  -0.2214  -0.2205  -0.2200  -0.2195
    -0.2145  -0.2141  -0.2137  -0.2135  -0.2113  -0.2080  -0.1928  -0.1896
    -0.1889  -0.1876  -0.1869  -0.1675  -0.1200  -0.1196  -0.1179  -0.1174
    -0.1149  -0.0738  -0.0698  -0.0693  -0.0677  -0.0677  -0.0619  -0.0615
    -0.0613  -0.0612  -0.0611  -0.0531  -0.0475  -0.0346  -0.0099  -0.0088
    -0.0076  -0.0073   0.0015   0.0176   0.0214   0.0219   0.0222   0.0273
     0.0305   0.0461   0.0465   0.0478   0.0484   0.0502   0.0502   0.0637
     0.0641   0.0642   0.0645   0.0693   0.0769   0.0777   0.0789   0.1013
     0.1023   0.1348   0.1357   0.1450   0.1546   0.1650   0.1652   0.1904
     0.1931   0.2304   0.2384   0.2389   0.2392   0.2402   0.2437   0.2458
     0.2706   0.2737   0.2741   0.2745   0.2746   0.2847   0.2849   0.2958
     0.3268   0.3412   0.3413   0.3450   0.3500   0.3505   0.3510   0.3780
     0.3826   0.3843   0.3845   0.3850   0.3973   0.4128   0.4155   0.4231
     0.4235   0.4378   0.4389   0.4394   0.4406   0.4783   0.4795   0.4954
     0.4959   0.4971   0.4974   0.4976   0.5095   0.5243   0.5287   0.5329
     0.5344   0.5356   0.5360   0.5362   0.5379   0.5400   0.5475   0.5478
     0.5499   0.5541   0.5545   0.5552   0.5639   0.5646   0.5962   0.5986
     0.6062   0.6070   0.6167   0.6170   0.6490   0.6495   0.6501   0.6515
     0.6531   0.6535   0.6536   0.6539   0.6654   0.6664   0.6744   0.6778
     0.6786   0.6796   0.6798   0.6875   0.6880   0.6901   0.6979   0.6992
     0.7205   0.7208   0.7210   0.7223   0.7315   0.7330   0.7431   0.7466
     0.7481   0.7483   0.7490   0.7490   0.7559   0.7580   0.7599   0.7628
     0.7688   0.7732   0.8064   0.8064   0.8169   0.8178   0.8242   0.8245
     0.8251   0.8256   0.8561   0.8568   0.8700   0.8714   0.8766   0.8767
     0.8913   0.8914   0.9002   0.9011   0.9011   0.9027   0.9095   0.9226
     0.9362   0.9387   0.9399   0.9426   0.9433   0.9439   0.9587   0.9598
     0.9689   0.9782   0.9862   0.9865   0.9975   1.0052   1.0068   1.0109
     1.0121   1.0133   1.0139   1.0149   1.0218   1.0246   1.0266   1.0292
     1.0292   1.0297   1.0312   1.0443   1.0444   1.0630   1.0639   1.0649
     1.0657   1.0714   1.0743   1.1004   1.1055   1.1059   1.1078   1.1093
     1.1097   1.1118   1.1139   1.1169   1.1202   1.1202   1.1203   1.1204
     1.1214   1.1362   1.1364   1.1613   1.1669   1.1834   1.1850   1.1939
     1.2024   1.2028   1.2041   1.2052   1.2060   1.2073   1.2153   1.2218
     1.2253   1.2360   1.2383   1.2404   1.2409   1.2415   1.2453   1.2468
     1.2470   1.2554   1.2742   1.2752   1.2765   1.2769   1.2778   1.2779
     1.2790   1.2791   1.2948   1.2957   1.2963   1.3026   1.3107   1.3110
     1.3120   1.3122   1.3127   1.3221   1.3237   1.3262   1.3413   1.3450
     1.3512   1.3542   1.3560   1.3567   1.3574   1.3598   1.3615   1.3748
     1.3844   1.3871   1.3887   1.3936   1.4033   1.4166   1.4167   1.4224
     1.4232   1.4240   1.4296   1.4305   1.4329   1.4342   1.4348   1.4351
     1.4358   1.4375   1.4387   1.4464   1.4469   1.4507   1.4678   1.4680
     1.4688   1.4689   1.4725   1.4801   1.4812   1.5014   1.5037   1.5095
     1.5112   1.5211   1.5574   1.5580   1.5605   1.5618   1.5793   1.5801
     1.5804   1.5887   1.5911   1.6064   1.6298   1.6316   1.6324   1.6344
     1.6349   1.6437   1.6444   1.6446   1.9006   1.9563   2.1057   2.1087
     2.1493   2.1542   2.2019   2.2055   2.2068   2.2076   2.2149   2.2239
     2.2260   2.2268   2.3961   2.4019   2.4523   2.4648   2.4680   2.4682
     2.4786   2.4815   2.6413   2.7178   2.7250   2.7251   2.7644   2.9728
     2.9862   3.0195   3.1697   3.5206   3.5232   3.8145   3.8184   3.8416
     3.8523   3.8544   3.8559   3.8952   3.9672   3.9736   3.9924   4.0001
     4.0077   4.0088   4.0101   4.0129   4.0157   4.2381   4.2473   4.2523
     4.2536   4.3828   4.4095   4.6289   4.7657   4.8551   4.8721   4.9214
     5.3051   5.3897   5.3976   5.4080   5.7034   5.7107   5.7222   5.7264
     5.9185   5.9319   6.2419   6.3446   6.3506   6.3863   6.4133   6.4702
     6.4780   6.4804   6.4848   6.5808   6.5987   6.6108   6.6905   6.7718
     6.7791   6.7924   6.7986   6.8424   7.0089   7.0344   7.0534   7.0679
     7.0689   7.0929   7.3549   7.3604   7.5109   7.5474   7.5498   7.6958
     7.6961   7.7104   7.7116   8.0030   8.0391   8.1141   8.1480   8.1933
     8.2115   8.2997   8.3054   8.3064   8.3357   8.3384   8.3683   8.3720
     8.3824   8.4632   8.5079   8.5378   8.5650   8.5727   8.6648   8.6655
     8.6691   8.6708   8.8142   8.8157   8.8312   8.8327   8.8394   8.8399
     9.1089   9.1094   9.1115   9.1160   9.1200   9.1411   9.1737   9.3198
     9.3470   9.3499   9.4194   9.4804   9.4901   9.5778   9.5789   9.6617
     9.6702   9.8277   9.8315  10.0429  10.0443  10.1239  10.1455

          k = 0.0000-0.2165 0.0000 (256176 PWs)   bands (ev):

   -17.2808 -16.3024 -15.8962 -15.6605 -15.0761 -14.6788 -14.3588 -14.3381
   -14.2668 -14.2325 -13.8312 -13.7669 -13.7197 -13.6977 -12.6027 -12.4448
   -12.3855 -12.3077 -12.1497 -12.0808 -10.6523 -10.5554 -10.5218 -10.3922
    -9.4612  -9.4362  -9.3043  -9.1254  -8.9829  -8.9578  -8.4057  -8.2839
    -8.2129  -8.1627  -7.4819  -7.3445  -7.0142  -6.9726  -6.9040  -6.8965
    -6.8547  -6.8394  -6.1902  -6.0835  -5.8904  -5.8821  -5.5204  -5.3873
    -5.2880  -5.2126  -5.1403  -4.9644  -4.9117  -4.8402  -4.8379  -4.7419
    -4.6840  -4.6332  -4.6129  -4.4705  -4.1554  -4.0478  -3.8297  -3.6952
    -3.6635  -3.5907  -3.3161  -3.3044  -3.3015  -3.3007  -3.2494  -3.2266
    -3.1399  -3.0931  -3.0671  -3.0477  -3.0396  -3.0308  -3.0036  -2.8985
    -2.8718  -2.8673  -2.8290  -2.7898  -2.7747  -2.7118  -2.6963  -2.6021
    -2.5872  -2.5870  -2.5782  -2.5777  -2.5774  -2.5772  -2.4757  -2.3689
    -2.3377  -2.3320  -2.2517  -2.2505  -2.2477  -2.2448  -2.1485  -2.1452
    -2.1444  -2.1438  -2.0849  -2.0411  -1.9862  -1.9861  -1.9607  -1.9607
    -1.8782  -1.8640  -1.8580  -1.8076  -1.7884  -1.7863  -1.7682  -1.7672
    -1.7492  -1.7491  -1.7402  -1.7402  -1.7222  -1.7220  -1.6450  -1.6449
    -1.6245  -1.5861  -1.5712  -1.5692  -1.5606  -1.4677  -1.4663  -1.4622
    -1.4618  -1.3770  -1.3766  -1.3704  -1.3701  -1.3694  -1.3163  -1.3161
    -1.2795  -1.2786  -1.2744  -1.2741  -1.2719  -1.2717  -1.2532  -1.2483
    -1.2284  -1.2282  -1.2232  -1.2225  -1.2128  -1.2114  -1.1691  -1.1531
    -1.1494  -1.1489  -1.1326  -1.1325  -1.0884  -1.0883  -1.0502  -1.0501
    -1.0470  -1.0469  -1.0036  -1.0029  -0.9836  -0.9831  -0.9822  -0.9818
    -0.9776  -0.9774  -0.9269  -0.9263  -0.9189  -0.9184  -0.9104  -0.9102
    -0.9007  -0.8979  -0.8968  -0.8964  -0.8342  -0.8277  -0.8275  -0.8183
    -0.8180  -0.8178  -0.8162  -0.8154  -0.7952  -0.7951  -0.7815  -0.7805
    -0.7544  -0.7540  -0.7511  -0.7500  -0.6544  -0.6542  -0.6538  -0.6537
    -0.6331  -0.6328  -0.6265  -0.6085  -0.6063  -0.6058  -0.6050  -0.6010
    -0.6009  -0.5792  -0.5750  -0.5745  -0.5413  -0.5409  -0.5401  -0.5397
    -0.5374  -0.5360  -0.5343  -0.5329  -0.5034  -0.5034  -0.4864  -0.4834
    -0.4834  -0.4722  -0.4482  -0.4472  -0.4469  -0.4462  -0.4444  -0.4355
    -0.4352  -0.4349  -0.4346  -0.4161  -0.3689  -0.3570  -0.3569  -0.3567
    -0.3565  -0.3280  -0.3242  -0.3031  -0.3030  -0.3020  -0.2987  -0.2960
    -0.2949  -0.2947  -0.2734  -0.2692  -0.2687  -0.2683  -0.2679  -0.2622
    -0.2525  -0.2476  -0.2466  -0.2462  -0.2454  -0.2429  -0.2428  -0.2330
    -0.2325  -0.2138  -0.2062  -0.2060  -0.2045  -0.2040  -0.1975  -0.1544
    -0.1427  -0.1405  -0.1402  -0.1374  -0.1330  -0.1307  -0.1293  -0.1279
    -0.1252  -0.1178  -0.1064  -0.1013  -0.0880  -0.0878  -0.0858  -0.0855
    -0.0771  -0.0768  -0.0743  -0.0739  -0.0734  -0.0728  -0.0508  -0.0169
    -0.0168  -0.0128  -0.0128   0.0028   0.0038   0.0056   0.0059   0.0115
     0.0117   0.0136   0.0290   0.0298   0.0304   0.0311   0.0439   0.0443
     0.0589   0.0599   0.0759   0.0762   0.0763   0.0767   0.0944   0.0960
     0.1114   0.1114   0.1223   0.1224   0.1351   0.1354   0.1357   0.1364
     0.1799   0.1808   0.1841   0.1848   0.1961   0.1969   0.2019   0.2025
     0.2293   0.2295   0.2615   0.2631   0.2650   0.2675   0.3006   0.3007
     0.3075   0.3333   0.3855   0.3865   0.3870   0.3874   0.3957   0.4131
     0.4134   0.4139   0.4143   0.4257   0.4422   0.4467   0.4541   0.4549
     0.4555   0.4555   0.4565   0.4574   0.4620   0.4666   0.4774   0.4788
     0.4793   0.4795   0.4812   0.4824   0.4838   0.4852   0.5166   0.5167
     0.5280   0.5283   0.5286   0.5288   0.5364   0.5364   0.5501   0.5545
     0.5569   0.5577   0.5583   0.5583   0.5584   0.5589   0.5597   0.5601
     0.5818   0.5823   0.5834   0.5841   0.5841   0.5851   0.5857   0.5858
     0.6019   0.6020   0.6450   0.6454   0.6571   0.6574   0.6676   0.6686
     0.6690   0.6695   0.6749   0.6758   0.6765   0.6773   0.6822   0.6827
     0.6837   0.6837   0.7241   0.7247   0.7248   0.7253   0.7398   0.7417
     0.7420   0.7428   0.7441   0.7449   0.7555   0.7588   0.7753   0.7761
     0.7814   0.7815   0.7818   0.7826   0.8342   0.8351   0.8851   0.8862
     0.8913   0.8941   0.8944   0.8948   0.9037   0.9045   0.9109   0.9111
     0.9173   0.9177   0.9224   0.9252   0.9261   0.9270   0.9380   0.9390
     0.9411   0.9418   0.9423   0.9431   0.9523   0.9539   0.9622   0.9669
     0.9669   0.9684   0.9692   0.9711   0.9712   0.9745   0.9780   0.9782
     0.9896   0.9896   0.9906   0.9922   0.9932   0.9936   1.0115   1.0118
     1.0225   1.0254   1.0262   1.0265   1.0295   1.0298   1.0389   1.0390
     1.0399   1.0400   1.0407   1.0410   1.0847   1.0882   1.0986   1.1118
     1.1276   1.1277   1.1422   1.1440   1.1478   1.1543   1.1548   1.1573
     1.1704   1.1706   1.1849   1.1866   1.1923   1.1935   1.1955   1.1960
     1.1977   1.1984   1.1989   1.1994   1.2011   1.2025   1.2030   1.2037
     1.2105   1.2107   1.2213   1.2252   1.2288   1.2312   1.2315   1.2319
     1.2400   1.2414   1.2668   1.2701   1.2703   1.2704   1.2770   1.2770
     1.2794   1.2800   1.2927   1.2960   1.2962   1.2966   1.3106   1.3111
     1.3135   1.3146   1.3150   1.3158   1.3322   1.3329   1.3334   1.3341
     1.3519   1.3520   1.3532   1.3550   1.3711   1.3728   1.3772   1.3794
     1.3802   1.3806   1.3953   1.3954   1.3955   1.3958   1.4123   1.4129
     1.4266   1.4267   1.4271   1.4290   1.4469   1.4473   1.4492   1.4496
     1.4501   1.4502   1.4513   1.4516   1.4793   1.4794   1.4874   1.4880
     1.4955   1.4970   1.5032   1.5047   1.5190   1.5196   1.5198   1.5203
     1.5289   1.5291   1.5413   1.5413   1.5811   1.5857   1.5880   1.5885
     1.6735   1.6895   1.6946   1.7136   1.7168   1.7296   1.7307   1.7342
     1.7834   1.7869   1.7926   1.7935   1.8073   1.8128   1.8130   1.8141
     1.8536   1.8537   1.8822   2.0583   2.0642   2.0979   2.4120   2.4146
     2.4195   2.4197   2.4961   2.4987   2.5562   2.5615   2.5662   2.5666
     2.5806   2.5817   2.7096   2.7114   2.7570   2.7610   2.7796   2.7807
     2.9236   2.9246   3.1695   3.1701   3.1718   3.1860   3.3944   3.4153
     3.5899   3.6710   3.6779   3.9061   3.9218   3.9632   4.0923   4.1023
     4.1064   4.1135   4.3223   4.3263   4.3273   4.3278   4.4975   4.4993
     4.6614   4.6909   4.7674   4.7700   4.9156   5.0703   5.0985   5.1027
     5.3003   5.3590   5.3592   5.3598   5.3612   5.4285   5.5150   5.6548
     5.6789   5.7195   5.7869   5.8093   6.3789   6.3892   6.4242   6.4292
     6.4400   6.4445   6.5477   6.5565   6.6627   6.6682   6.8049   6.8098
     6.9778   7.0196   7.0275   7.0390   7.0709   7.0815   7.1220   7.1229
     7.1315   7.1336   7.2503   7.3381   7.3424   7.3802   7.4042   7.4212
     7.5227   7.6002   7.6797   7.6982   7.7443   7.7585   8.1435   8.1442
     8.3262   8.3570   8.3715   8.4235   8.4277   8.4285   8.4327   8.4480
     8.4493   8.4833   8.6400   8.6491   8.7118   8.7142   8.7190   8.7212
     8.7579   8.7633   8.8926   8.9180   8.9223   9.0161   9.0255   9.0519
     9.1480   9.1518   9.2353   9.2417   9.2810   9.3148   9.3849   9.3858
     9.3871   9.3873   9.4596   9.4597   9.4807   9.4845   9.4901   9.4933
     9.6641   9.6681   9.7865   9.7881   9.8207   9.8899   9.8901

          k = 0.2500 0.0000 0.0000 (256240 PWs)   bands (ev):

   -17.2297 -16.1274 -15.9660 -15.6645 -15.1434 -15.0057 -14.9462 -14.8951
   -14.1129 -13.9542 -13.7724 -13.2457 -13.1753 -13.0925 -13.0453 -12.3460
   -12.2361 -12.1537 -12.0790 -11.2378 -11.1419 -10.7891 -10.6724 -10.3609
   -10.2285  -9.9559  -9.9035  -9.5089  -9.2555  -9.1596  -8.6813  -7.9925
    -7.7992  -7.7314  -7.5651  -7.5452  -7.4460  -7.0948  -6.9771  -6.3016
    -6.2202  -6.0445  -5.9698  -5.9155  -5.8414  -5.4550  -5.3304  -5.3093
    -5.3023  -5.1659  -4.9246  -4.7437  -4.6340  -4.5443  -4.4672  -4.4652
    -4.4628  -4.4266  -4.3742  -4.2294  -4.1389  -4.0017  -3.9995  -3.9963
    -3.9108  -3.8448  -3.8401  -3.8128  -3.7955  -3.6272  -3.6027  -3.5748
    -3.5254  -3.4809  -3.4060  -3.4043  -3.2790  -3.2345  -3.2140  -3.1989
    -3.1423  -3.0369  -2.9575  -2.8954  -2.7996  -2.7984  -2.7912  -2.7527
    -2.6556  -2.6275  -2.6203  -2.5075  -2.4008  -2.3960  -2.3461  -2.3371
    -2.1292  -2.0988  -2.0970  -2.0813  -2.0802  -2.0590  -2.0037  -1.9899
    -1.9820  -1.8986  -1.8938  -1.8415  -1.8033  -1.8012  -1.7999  -1.7936
    -1.7931  -1.7862  -1.7734  -1.7456  -1.7338  -1.7261  -1.7187  -1.7178
    -1.7106  -1.6532  -1.6460  -1.6028  -1.5897  -1.5827  -1.5806  -1.5781
    -1.5779  -1.5775  -1.5487  -1.5218  -1.5175  -1.5036  -1.5017  -1.4904
    -1.4890  -1.3722  -1.3354  -1.3297  -1.3126  -1.2748  -1.2696  -1.2613
    -1.2436  -1.2428  -1.2375  -1.2358  -1.2297  -1.2201  -1.2073  -1.1984
    -1.1914  -1.1847  -1.1833  -1.1780  -1.1577  -1.1409  -1.1355  -1.1341
    -1.1333  -1.1306  -1.1160  -1.1113  -1.1106  -1.0907  -1.0766  -1.0692
    -1.0512  -1.0490  -1.0465  -1.0462  -1.0426  -1.0208  -1.0133  -1.0113
    -1.0038  -1.0013  -0.9961  -0.9925  -0.9815  -0.9810  -0.9808  -0.9800
    -0.9756  -0.9754  -0.9640  -0.9539  -0.9516  -0.9476  -0.9450  -0.9406
    -0.9192  -0.9015  -0.9003  -0.8953  -0.8525  -0.8518  -0.8159  -0.8159
    -0.7965  -0.7955  -0.7856  -0.7706  -0.7703  -0.7572  -0.7544  -0.7521
    -0.7496  -0.7423  -0.7412  -0.7219  -0.6078  -0.6017  -0.5989  -0.5971
    -0.5680  -0.5674  -0.5663  -0.5511  -0.5496  -0.5492  -0.5479  -0.5376
    -0.5299  -0.5265  -0.5264  -0.5230  -0.5189  -0.5060  -0.4931  -0.4883
    -0.4846  -0.4843  -0.4817  -0.4807  -0.4604  -0.4604  -0.4571  -0.4015
    -0.3991  -0.3991  -0.3971  -0.3910  -0.3891  -0.3821  -0.3800  -0.3757
    -0.3561  -0.3561  -0.3393  -0.3330  -0.3327  -0.3315  -0.3279  -0.3068
    -0.2946  -0.2945  -0.2916  -0.2888  -0.2813  -0.2806  -0.2706  -0.2696
    -0.2634  -0.2589  -0.2462  -0.2381  -0.2295  -0.2122  -0.2027  -0.1994
    -0.1985  -0.1960  -0.1944  -0.1817  -0.1799  -0.1796  -0.1787  -0.1658
    -0.1520  -0.1517  -0.1484  -0.1390  -0.1369  -0.1309  -0.1123  -0.1104
    -0.1103  -0.0654  -0.0636  -0.0629  -0.0554  -0.0545  -0.0443  -0.0257
    -0.0189  -0.0179  -0.0121  -0.0115  -0.0107  -0.0061   0.0016   0.0040
     0.0047   0.0063   0.0078   0.0086   0.0131   0.0178   0.0287   0.0332
     0.0337   0.0359   0.0401   0.0471   0.0588   0.0597   0.0640   0.0755
     0.0770   0.0912   0.1146   0.1150   0.1169   0.1172   0.1188   0.1356
     0.1380   0.1408   0.1420   0.1425   0.1427   0.1574   0.1775   0.1794
     0.1913   0.2539   0.2541   0.2555   0.2664   0.2707   0.2749   0.2752
     0.2770   0.2776   0.2827   0.2830   0.2845   0.2863   0.2880   0.2891
     0.2957   0.3055   0.3071   0.3075   0.3090   0.3214   0.3216   0.3266
     0.3292   0.3339   0.3361   0.3588   0.3595   0.3623   0.3778   0.3889
     0.3957   0.4056   0.4141   0.4253   0.4254   0.4436   0.4437   0.4443
     0.4474   0.4576   0.4594   0.4775   0.4802   0.4810   0.4856   0.4859
     0.4913   0.4919   0.4963   0.4965   0.5171   0.5214   0.5242   0.5326
     0.5404   0.5448   0.5450   0.5513   0.5519   0.5522   0.5550   0.5560
     0.5746   0.5797   0.5801   0.5918   0.5930   0.5936   0.5948   0.5970
     0.6102   0.6106   0.6138   0.6181   0.6184   0.6377   0.6381   0.6532
     0.6575   0.6640   0.6641   0.6650   0.6695   0.6723   0.6816   0.6916
     0.7013   0.7053   0.7242   0.7293   0.7407   0.7411   0.7454   0.7455
     0.7478   0.7513   0.7660   0.7714   0.7743   0.7785   0.7790   0.7845
     0.7891   0.8002   0.8030   0.8080   0.8156   0.8248   0.8249   0.8260
     0.8505   0.8516   0.8558   0.8567   0.8583   0.8791   0.8808   0.8912
     0.8933   0.8935   0.8941   0.8944   0.8999   0.9041   0.9047   0.9058
     0.9172   0.9393   0.9468   0.9486   0.9548   0.9551   0.9572   0.9678
     0.9705   0.9899   0.9910   0.9923   0.9933   0.9994   1.0014   1.0027
     1.0162   1.0173   1.0187   1.0191   1.0220   1.0224   1.0229   1.0259
     1.0263   1.0296   1.0332   1.0340   1.0392   1.0436   1.0570   1.0588
     1.0614   1.0623   1.0686   1.0693   1.0697   1.0765   1.0769   1.0904
     1.0909   1.1028   1.1075   1.1080   1.1087   1.1118   1.1216   1.1265
     1.1339   1.1365   1.1373   1.1433   1.1486   1.1521   1.1574   1.1578
     1.1588   1.1708   1.1841   1.1896   1.1911   1.1925   1.1946   1.2250
     1.2309   1.2356   1.2387   1.2426   1.2453   1.2515   1.2533   1.2537
     1.2547   1.2601   1.2626   1.2725   1.2759   1.2785   1.2796   1.2798
     1.2963   1.2975   1.3009   1.3010   1.3063   1.3117   1.3124   1.3143
     1.3161   1.3171   1.3207   1.3215   1.3243   1.3248   1.3327   1.3368
     1.3446   1.3496   1.3506   1.3520   1.3559   1.3562   1.3604   1.3635
     1.3731   1.3803   1.3805   1.3817   1.4037   1.4040   1.4124   1.4174
     1.4188   1.4227   1.4233   1.4255   1.4270   1.4273   1.4339   1.4344
     1.4350   1.4406   1.4414   1.4461   1.4618   1.4631   1.4643   1.4652
     1.4660   1.4699   1.4703   1.4830   1.4835   1.4901   1.4935   1.4999
     1.5064   1.5066   1.5092   1.5119   1.5147   1.5189   1.5460   1.5487
     1.5529   1.5768   1.5820   1.6237   1.6249   1.6286   1.6389   1.6552
     1.6671   1.7380   1.7558   1.7619   1.7629   1.7825   1.7940   1.7999
     1.8371   1.9603   2.0306   2.0601   2.0688   2.0813   2.0858   2.0877
     2.1894   2.2490   2.2525   2.5591   2.5624   2.5640   2.5669   2.9754
     2.9756   3.0079   3.1932   3.1937   3.2181   3.2182   3.2670   3.2751
     3.4524   3.4676   3.5586   3.5800   3.6006   3.6280   3.6595   3.6986
     3.7091   3.7178   3.7235   3.7862   3.8692   3.8714   3.9675   3.9702
     4.0533   4.1785   4.1827   4.1931   4.2809   4.3309   4.4179   4.5386
     4.7529   4.8165   4.8266   5.1024   5.1581   5.2183   5.2188   5.2293
     5.2575   5.3477   5.4609   5.4666   5.5062   5.5497   5.5766   5.5994
     5.6493   5.6786   5.6845   5.7310   5.7373   5.7954   5.8230   5.8252
     6.0074   6.0109   6.0254   6.0409   6.4344   6.5842   6.6769   6.6957
     6.7010   6.7452   6.7583   6.7646   6.8661   6.9537   7.0151   7.0338
     7.0510   7.0524   7.0676   7.2355   7.2409   7.3013   7.3044   7.4965
     7.5154   7.5208   7.5527   7.5709   7.6779   7.7609   7.7640   7.7946
     7.9959   8.0035   8.0341   8.0621   8.0882   8.1823   8.2043   8.2091
     8.2354   8.2763   8.3126   8.3130   8.3937   8.3993   8.4465   8.4713
     8.6445   8.6456   8.9416   8.9592   8.9843   8.9869   9.0057   9.1439
     9.1710   9.1888   9.2119   9.2245   9.2276   9.2569   9.2708   9.3368
     9.4023   9.4068   9.4411   9.4430   9.4849   9.5107   9.6359   9.6774
     9.7154   9.7200   9.8240   9.8316   9.8370   9.8488   9.9417

          k = 0.2500-0.2165 0.0000 (256316 PWs)   bands (ev):

   -17.2293 -16.1786 -15.8754 -15.5406 -15.4601 -15.1909 -14.7125 -14.5647
   -14.2565 -14.1167 -13.7237 -13.2678 -13.2519 -13.1622 -12.7675 -12.6637
   -12.1523 -12.0258 -11.5145 -11.4326 -11.2834 -11.1262 -10.9636 -10.6228
    -9.8695  -9.7864  -9.3907  -9.3597  -9.1031  -9.0517  -8.6792  -8.6257
    -8.4730  -8.4256  -7.3044  -7.0291  -6.8308  -6.6714  -6.6011  -6.5039
    -6.4504  -6.3186  -6.0855  -6.0326  -5.7132  -5.7039  -5.4270  -5.2572
    -5.1658  -5.0710  -4.9353  -4.8017  -4.6771  -4.6745  -4.5443  -4.5416
    -4.4819  -4.3491  -4.3455  -4.3165  -4.1873  -4.1625  -4.1485  -4.0524
    -3.9016  -3.7733  -3.7643  -3.7390  -3.5853  -3.5615  -3.5017  -3.4594
    -3.4577  -3.4550  -3.3628  -3.2928  -3.2543  -3.1953  -3.1424  -3.1039
    -3.0310  -2.9438  -2.9419  -2.9240  -2.9106  -2.9090  -2.8629  -2.8163
    -2.6948  -2.6571  -2.6050  -2.5051  -2.3354  -2.3133  -2.3117  -2.2687
    -2.1863  -2.1805  -2.1684  -2.1683  -2.1043  -2.0686  -2.0095  -2.0092
    -1.9777  -1.9767  -1.9722  -1.9686  -1.8931  -1.8297  -1.8220  -1.8126
    -1.8125  -1.7815  -1.7597  -1.7519  -1.7315  -1.7237  -1.7213  -1.7094
    -1.7092  -1.6927  -1.6785  -1.6772  -1.6759  -1.6759  -1.6668  -1.6668
    -1.5820  -1.5819  -1.5533  -1.4687  -1.4670  -1.3769  -1.3694  -1.3661
    -1.3616  -1.3297  -1.3294  -1.2773  -1.2770  -1.2693  -1.2624  -1.2623
    -1.2490  -1.2486  -1.2413  -1.2395  -1.2248  -1.2241  -1.2127  -1.2125
    -1.2110  -1.2036  -1.2001  -1.1987  -1.1870  -1.1867  -1.1725  -1.1331
    -1.1305  -1.1268  -1.1252  -1.1198  -1.1150  -1.1139  -1.1116  -1.0936
    -1.0829  -1.0813  -1.0395  -1.0392  -1.0355  -1.0292  -1.0259  -1.0238
    -0.9960  -0.9960  -0.9731  -0.9723  -0.9621  -0.9614  -0.9610  -0.9559
    -0.9554  -0.9529  -0.9492  -0.9356  -0.9238  -0.9236  -0.9133  -0.9048
    -0.8851  -0.8678  -0.8674  -0.8622  -0.8616  -0.8254  -0.7779  -0.7777
    -0.7735  -0.7735  -0.7705  -0.7690  -0.7234  -0.7215  -0.7144  -0.7121
    -0.7114  -0.7058  -0.7056  -0.6942  -0.6934  -0.6783  -0.6526  -0.6518
    -0.6152  -0.6142  -0.5806  -0.5684  -0.5661  -0.5661  -0.5630  -0.5607
    -0.5334  -0.5330  -0.5206  -0.5201  -0.5016  -0.5005  -0.4929  -0.4895
    -0.4884  -0.4734  -0.4607  -0.4577  -0.4513  -0.4500  -0.4426  -0.4424
    -0.4092  -0.4077  -0.4073  -0.3958  -0.3936  -0.3874  -0.3814  -0.3807
    -0.3678  -0.3672  -0.3629  -0.3628  -0.3572  -0.3557  -0.3516  -0.3515
    -0.3337  -0.3335  -0.3172  -0.3172  -0.2937  -0.2887  -0.2747  -0.2736
    -0.2610  -0.2566  -0.2397  -0.2397  -0.2350  -0.2307  -0.2176  -0.2171
    -0.2129  -0.2126  -0.1857  -0.1808  -0.1566  -0.1539  -0.1530  -0.1177
    -0.1174  -0.1087  -0.1086  -0.1046  -0.1036  -0.0872  -0.0871  -0.0848
    -0.0699  -0.0696  -0.0583  -0.0565  -0.0483  -0.0476  -0.0426  -0.0422
    -0.0401  -0.0395  -0.0146  -0.0133  -0.0124  -0.0055  -0.0039  -0.0027
    -0.0021  -0.0009  -0.0003   0.0012   0.0061   0.0073   0.0314   0.0319
     0.0319   0.0320   0.0361   0.0653   0.0658   0.0737   0.0740   0.0754
     0.0774   0.0972   0.0999   0.1041   0.1168   0.1317   0.1319   0.1321
     0.1406   0.1414   0.1521   0.1523   0.1552   0.1559   0.1692   0.1693
     0.1753   0.1767   0.2050   0.2054   0.2679   0.2693   0.2812   0.2819
     0.2828   0.2835   0.2846   0.2870   0.2879   0.2888   0.2923   0.2939
     0.3093   0.3172   0.3174   0.3196   0.3204   0.3269   0.3302   0.3315
     0.3346   0.3346   0.3662   0.3673   0.3798   0.3815   0.3830   0.3951
     0.3997   0.4025   0.4211   0.4435   0.4441   0.4489   0.4513   0.4538
     0.4577   0.4578   0.4692   0.4693   0.4723   0.4791   0.4804   0.4809
     0.4815   0.4822   0.4955   0.5125   0.5130   0.5184   0.5199   0.5346
     0.5348   0.5481   0.5670   0.5673   0.5680   0.5695   0.5994   0.6013
     0.6038   0.6047   0.6079   0.6088   0.6124   0.6148   0.6248   0.6268
     0.6284   0.6293   0.6334   0.6367   0.6484   0.6487   0.6589   0.6605
     0.6682   0.6684   0.6712   0.6713   0.6784   0.6803   0.6821   0.6866
     0.6892   0.6895   0.7025   0.7058   0.7100   0.7110   0.7161   0.7166
     0.7187   0.7195   0.7208   0.7218   0.7542   0.7561   0.7672   0.7677
     0.7824   0.7906   0.8033   0.8062   0.8232   0.8236   0.8250   0.8250
     0.8306   0.8311   0.8392   0.8537   0.8540   0.8543   0.8545   0.8556
     0.8561   0.8614   0.8699   0.8781   0.8831   0.8835   0.8913   0.8954
     0.8984   0.9051   0.9184   0.9287   0.9288   0.9391   0.9516   0.9521
     0.9584   0.9602   0.9644   0.9647   0.9712   0.9713   0.9754   0.9887
     1.0006   1.0030   1.0104   1.0174   1.0187   1.0268   1.0328   1.0376
     1.0466   1.0581   1.0611   1.0639   1.0794   1.0807   1.0869   1.0870
     1.0894   1.0898   1.0910   1.0911   1.0954   1.0956   1.1050   1.1057
     1.1147   1.1155   1.1165   1.1183   1.1362   1.1372   1.1604   1.1659
     1.1662   1.1696   1.1710   1.1736   1.1745   1.1754   1.1823   1.1837
     1.1842   1.1905   1.1912   1.1917   1.1954   1.1972   1.2005   1.2025
     1.2091   1.2096   1.2178   1.2209   1.2235   1.2236   1.2248   1.2249
     1.2367   1.2372   1.2444   1.2454   1.2675   1.2695   1.2778   1.2781
     1.2830   1.2920   1.2934   1.2960   1.3061   1.3101   1.3110   1.3129
     1.3192   1.3220   1.3308   1.3312   1.3349   1.3367   1.3435   1.3457
     1.3478   1.3481   1.3562   1.3598   1.3605   1.3696   1.3795   1.3812
     1.3814   1.3815   1.3865   1.3874   1.3918   1.3922   1.3979   1.4053
     1.4054   1.4095   1.4107   1.4178   1.4200   1.4217   1.4291   1.4338
     1.4374   1.4376   1.4378   1.4414   1.4443   1.4444   1.4465   1.4488
     1.4536   1.4537   1.4784   1.4784   1.4861   1.4863   1.4960   1.5007
     1.5165   1.5191   1.5264   1.5268   1.5278   1.5498   1.5501   1.5568
     1.5572   1.5776   1.5827   1.5886   1.6167   1.6457   1.6619   1.6632
     1.7092   1.7487   1.7577   1.7634   1.7717   1.7833   1.7848   1.7858
     1.7866   1.8113   1.8359   1.8433   2.1250   2.1250   2.1558   2.1572
     2.2822   2.2867   2.5821   2.5831   2.7775   2.7836   2.7869   2.7877
     2.7964   2.8001   2.8285   2.8319   2.9798   2.9819   3.0681   3.0788
     3.5205   3.5359   3.5914   3.6042   3.6534   3.6749   3.7717   3.8358
     3.8400   3.8443   3.8708   3.9898   3.9935   4.0579   4.0874   4.1598
     4.1612   4.3268   4.3720   4.3730   4.4257   4.5436   4.5452   4.6152
     4.6688   4.6765   4.7052   4.7199   4.9167   4.9250   4.9940   5.0048
     5.0194   5.1298   5.2621   5.2790   5.3921   5.4357   5.4400   5.4514
     5.4535   5.4722   5.7393   5.7583   5.8111   5.8812   5.8941   5.9482
     5.9552   5.9715   6.5696   6.5889   6.6072   6.6118   6.7395   6.7457
     6.8050   6.8519   6.8724   7.0220   7.0297   7.0464   7.0717   7.0864
     7.0986   7.1070   7.1903   7.2126   7.2156   7.3208   7.3263   7.3298
     7.3363   7.3969   7.4372   7.4377   7.6607   7.6643   7.7576   7.7876
     7.7902   7.8640   7.9780   7.9811   8.1787   8.1906   8.2399   8.2474
     8.2667   8.3868   8.5815   8.5837   8.5946   8.6044   8.6370   8.6385
     8.7041   8.7054   8.8016   8.8138   8.9029   8.9110   8.9389   8.9435
     9.0670   9.1057   9.1342   9.1553   9.1713   9.1762   9.1901   9.2032
     9.2166   9.2637   9.2685   9.3020   9.3436   9.3529   9.4279   9.4403
     9.4479   9.4784   9.6264   9.6273   9.9557   9.9590   9.9683

          k =-0.5000 0.0000 0.0000 (256496 PWs)   bands (ev):

   -17.1682 -16.0112 -15.7426 -15.6308 -15.6079 -15.5607 -14.8137 -14.6192
   -14.5145 -14.4816 -13.2086 -12.9085 -12.7642 -12.7025 -12.4573 -12.4374
   -11.9127 -11.8910 -11.8082 -11.8006 -11.2454 -11.2067 -10.9821 -10.7502
   -10.3357 -10.3039 -10.0813  -9.7621  -9.1475  -9.1468  -8.9794  -8.9471
    -7.8195  -7.6382  -7.5895  -7.4110  -7.3697  -7.3440  -6.3084  -6.2280
    -5.8448  -5.3269  -5.3204  -5.3087  -5.1443  -4.9897  -4.9712  -4.8660
    -4.8084  -4.8040  -4.8014  -4.8006  -4.7782  -4.7624  -4.7389  -4.6911
    -4.6678  -4.5466  -4.5427  -4.4734  -4.3806  -4.3772  -4.2927  -4.0564
    -4.0171  -3.9973  -3.9719  -3.9596  -3.6915  -3.6777  -3.6041  -3.5744
    -3.5721  -3.5554  -3.4285  -3.4204  -3.4195  -3.4184  -3.4183  -3.4117
    -3.3765  -3.3649  -2.9448  -2.9366  -2.8973  -2.8541  -2.8128  -2.7890
    -2.7662  -2.7600  -2.6244  -2.6090  -2.5661  -2.4793  -2.4504  -2.4397
    -2.3084  -2.3042  -2.3010  -2.3003  -1.8790  -1.8788  -1.8784  -1.8782
    -1.8764  -1.8762  -1.8658  -1.8190  -1.7803  -1.7590  -1.7564  -1.7549
    -1.6855  -1.6505  -1.6503  -1.6502  -1.6500  -1.6024  -1.6021  -1.6008
    -1.6006  -1.5114  -1.5055  -1.4899  -1.4879  -1.4869  -1.4762  -1.4555
    -1.4297  -1.4257  -1.4252  -1.4247  -1.4062  -1.4062  -1.3582  -1.3572
    -1.3564  -1.3540  -1.3536  -1.3424  -1.3411  -1.3410  -1.3374  -1.3367
    -1.2943  -1.2920  -1.2906  -1.2904  -1.2689  -1.2678  -1.2678  -1.2675
    -1.2295  -1.2044  -1.2042  -1.1829  -1.1826  -1.1821  -1.1817  -1.1589
    -1.1551  -1.1541  -1.1518  -1.1510  -1.1507  -1.1499  -1.1077  -1.1076
    -1.1069  -1.1067  -1.0861  -1.0856  -1.0749  -1.0567  -1.0554  -1.0554
    -1.0092  -1.0091  -1.0068  -0.9810  -0.9808  -0.9794  -0.9792  -0.9550
    -0.9529  -0.9526  -0.9510  -0.9480  -0.9452  -0.9439  -0.9314  -0.9312
    -0.9293  -0.9290  -0.9052  -0.9020  -0.8943  -0.8403  -0.8399  -0.8380
    -0.8372  -0.7944  -0.7943  -0.7141  -0.7116  -0.7113  -0.7108  -0.7051
    -0.6912  -0.6751  -0.6728  -0.6727  -0.6717  -0.6716  -0.6684  -0.6634
    -0.6364  -0.6320  -0.6312  -0.6308  -0.6216  -0.6183  -0.6089  -0.6028
    -0.6013  -0.5985  -0.5709  -0.5307  -0.5199  -0.5107  -0.4856  -0.4728
    -0.4647  -0.4642  -0.4561  -0.4560  -0.4309  -0.4158  -0.4129  -0.4100
    -0.4058  -0.4058  -0.4044  -0.4040  -0.3912  -0.3818  -0.3680  -0.3676
    -0.3676  -0.3675  -0.3290  -0.3289  -0.3281  -0.3280  -0.3068  -0.2955
    -0.2953  -0.2953  -0.2945  -0.2837  -0.2837  -0.2531  -0.2508  -0.2508
    -0.2494  -0.2493  -0.2466  -0.2410  -0.2158  -0.2142  -0.2095  -0.1998
    -0.1782  -0.1358  -0.1355  -0.1350  -0.1336  -0.1286  -0.1284  -0.1277
    -0.1274  -0.0881  -0.0879  -0.0862  -0.0859  -0.0661  -0.0520  -0.0515
    -0.0255  -0.0254  -0.0233  -0.0232  -0.0216  -0.0214  -0.0210  -0.0204
    -0.0196  -0.0196  -0.0194  -0.0181   0.0564   0.0566   0.0624   0.0632
     0.0662   0.0666   0.0724   0.0726   0.0729   0.0730   0.0777   0.0779
     0.0800   0.0800   0.0837   0.0847   0.0870   0.0885   0.1024   0.1024
     0.1151   0.1164   0.1169   0.1169   0.1171   0.1171   0.1217   0.1277
     0.1282   0.1284   0.1294   0.1401   0.1414   0.1445   0.1532   0.1533
     0.1537   0.1537   0.1724   0.1835   0.1840   0.2005   0.2420   0.2552
     0.2861   0.2863   0.2882   0.2884   0.3189   0.3198   0.3202   0.3204
     0.3348   0.3350   0.3404   0.3406   0.3450   0.3452   0.3457   0.3469
     0.3489   0.3495   0.3523   0.3524   0.3529   0.3533   0.3669   0.3670
     0.3757   0.3772   0.3801   0.3810   0.3892   0.3900   0.3956   0.3957
     0.4010   0.4027   0.4316   0.4377   0.4915   0.4921   0.4922   0.4927
     0.4978   0.5009   0.5196   0.5240   0.5252   0.5269   0.5284   0.5293
     0.5297   0.5300   0.5330   0.5336   0.5344   0.5351   0.5376   0.5379
     0.5432   0.5453   0.5455   0.5457   0.5597   0.5663   0.5835   0.5839
     0.5857   0.5990   0.6060   0.6084   0.6176   0.6189   0.6214   0.6221
     0.6307   0.6309   0.6313   0.6315   0.6339   0.6342   0.6480   0.6484
     0.6506   0.6511   0.6672   0.6684   0.6686   0.6687   0.7060   0.7062
     0.7069   0.7070   0.7075   0.7077   0.7248   0.7258   0.7497   0.7556
     0.7658   0.7666   0.7675   0.7678   0.7679   0.7682   0.7940   0.8093
     0.8289   0.8325   0.8386   0.8396   0.8402   0.8406   0.8418   0.8428
     0.8502   0.8527   0.8530   0.8535   0.8644   0.8652   0.8810   0.8851
     0.8852   0.8869   0.8870   0.8902   0.9057   0.9060   0.9066   0.9069
     0.9077   0.9078   0.9436   0.9456   0.9464   0.9468   0.9619   0.9947
     1.0116   1.0123   1.0133   1.0134   1.0401   1.0451   1.0466   1.0470
     1.0482   1.0492   1.0647   1.0660   1.0759   1.0769   1.0782   1.0823
     1.0927   1.0931   1.1078   1.1099   1.1159   1.1160   1.1165   1.1169
     1.1240   1.1245   1.1253   1.1259   1.1351   1.1351   1.1358   1.1365
     1.1381   1.1384   1.1385   1.1388   1.1727   1.1746   1.1759   1.1759
     1.1871   1.1998   1.2037   1.2044   1.2111   1.2117   1.2121   1.2125
     1.2297   1.2308   1.2352   1.2406   1.2411   1.2414   1.2427   1.2509
     1.2515   1.2521   1.2523   1.2567   1.2624   1.2673   1.2738   1.2755
     1.2984   1.2990   1.3108   1.3130   1.3145   1.3148   1.3149   1.3149
     1.3150   1.3152   1.3248   1.3270   1.3284   1.3287   1.3295   1.3296
     1.3309   1.3313   1.3350   1.3356   1.3415   1.3417   1.3423   1.3424
     1.3493   1.3496   1.3643   1.3644   1.3792   1.3824   1.3842   1.3849
     1.3916   1.3918   1.3930   1.3932   1.4072   1.4097   1.4133   1.4134
     1.4283   1.4289   1.4349   1.4354   1.4407   1.4477   1.4481   1.4482
     1.4490   1.4665   1.4684   1.4690   1.4699   1.4708   1.4787   1.4789
     1.4792   1.4794   1.4879   1.4888   1.4976   1.4981   1.5128   1.5128
     1.5132   1.5132   1.5140   1.5249   1.5262   1.5265   1.5744   1.5757
     1.6035   1.6062   1.6065   1.6107   1.6111   1.6219   2.0251   2.0279
     2.0293   2.0299   2.2314   2.2331   2.2474   2.2513   2.2834   2.2839
     2.2902   2.2907   2.6062   2.6143   2.6152   2.6161   2.8250   2.8285
     2.8329   2.8332   3.1822   3.1829   3.1853   3.1867   3.4645   3.4682
     3.7223   3.7515   3.7543   3.7546   3.8552   3.9171   3.9217   3.9218
     3.9617   4.0672   4.0679   4.0724   4.0858   4.1815   4.1834   4.3835
     4.3927   4.4842   4.7285   4.7420   4.7430   4.7475   4.8089   4.8235
     4.8259   4.8539   4.9258   5.0191   5.0205   5.0401   5.0409   5.0449
     5.0482   5.0547   5.0692   5.0711   5.0971   5.1006   5.1489   5.1560
     5.4731   5.5166   5.5269   5.5324   5.6532   5.6618   5.7550   5.8252
     5.9809   5.9902   5.9918   5.9996   6.0298   6.0326   6.0426   6.0442
     6.1877   6.3866   6.4172   6.4274   6.4362   6.4529   6.4561   6.4646
     7.0908   7.0950   7.1073   7.1079   7.1176   7.1231   7.5809   7.5846
     7.5956   7.5980   7.6004   7.6007   7.6210   7.6247   7.8146   7.8162
     7.8822   7.8834   7.8840   7.8851   8.0459   8.0508   8.0551   8.0563
     8.1148   8.1187   8.1302   8.1324   8.1586   8.1938   8.6464   8.6886
     8.6916   8.7060   8.8238   8.8260   8.8310   8.8320   8.9638   8.9866
     8.9899   9.0642   9.0665   9.0712   9.0929   9.2571   9.2596   9.3708
     9.4218   9.4442   9.4921   9.4945   9.4954   9.4962   9.5111   9.5142
     9.5187   9.5212   9.5286   9.5306   9.8239   9.8308  10.0205

          k =-0.5000-0.2165 0.0000 (256328 PWs)   bands (ev):

   -17.1681 -15.9799 -15.8213 -15.7943 -15.3904 -15.2206 -15.1506 -15.1147
   -14.0583 -13.8417 -13.7093 -13.6735 -12.6825 -12.4601 -12.0031 -11.9969
   -11.9221 -11.7753 -11.6737 -11.5884 -11.5428 -11.5374 -11.4232 -11.4048
   -10.0449 -10.0384  -9.7697  -9.7242  -9.2274  -8.9152  -8.8009  -8.7575
    -8.2709  -8.2327  -8.0221  -8.0000  -6.5341  -6.3449  -6.1248  -5.9499
    -5.8385  -5.6285  -5.3888  -5.3145  -5.3053  -5.2235  -5.2117  -5.1815
    -5.1794  -5.1789  -5.0225  -5.0015  -4.9423  -4.5130  -4.3927  -4.3525
    -4.3310  -4.3155  -4.2648  -4.2147  -4.2008  -4.1982  -4.1972  -4.1971
    -4.0826  -4.0765  -3.9161  -3.8781  -3.8657  -3.8570  -3.7547  -3.7478
    -3.7044  -3.6917  -3.6021  -3.5922  -3.5872  -3.4873  -3.4659  -3.4561
    -3.1730  -3.0870  -3.0721  -3.0618  -2.6361  -2.5842  -2.5801  -2.5787
    -2.5785  -2.5782  -2.5447  -2.5282  -2.5235  -2.5227  -2.4096  -2.3539
    -2.1600  -2.1569  -2.1102  -2.1005  -2.0964  -2.0952  -2.0547  -2.0495
    -2.0202  -2.0183  -2.0163  -2.0132  -1.9348  -1.8030  -1.8025  -1.8017
    -1.8013  -1.7727  -1.7387  -1.7280  -1.5694  -1.5237  -1.5089  -1.5019
    -1.4931  -1.4931  -1.4930  -1.4930  -1.4586  -1.4559  -1.4534  -1.4532
    -1.4334  -1.4331  -1.4330  -1.4328  -1.3839  -1.3837  -1.3836  -1.3834
    -1.3819  -1.3817  -1.3814  -1.3812  -1.3582  -1.3582  -1.3581  -1.3580
    -1.3085  -1.3082  -1.3072  -1.3068  -1.3025  -1.2372  -1.2332  -1.2326
    -1.2319  -1.1906  -1.1906  -1.1905  -1.1904  -1.1723  -1.1710  -1.1707
    -1.1703  -1.1282  -1.1217  -1.1214  -1.1213  -1.1165  -1.1154  -1.1154
    -1.1153  -1.1133  -1.0958  -1.0942  -1.0919  -1.0902  -1.0569  -1.0568
    -1.0564  -1.0563  -1.0401  -1.0399  -1.0398  -1.0396  -1.0369  -1.0366
    -1.0365  -1.0362  -1.0341  -1.0152  -0.8827  -0.8820  -0.8816  -0.8814
    -0.8533  -0.8525  -0.8523  -0.8522  -0.8046  -0.7706  -0.7698  -0.7694
    -0.7690  -0.7687  -0.7674  -0.7669  -0.7622  -0.7619  -0.7610  -0.7609
    -0.7058  -0.7001  -0.6999  -0.6995  -0.6919  -0.6889  -0.6885  -0.6873
    -0.6743  -0.6672  -0.6669  -0.6666  -0.6454  -0.5810  -0.5728  -0.5716
    -0.5678  -0.5668  -0.5659  -0.5658  -0.5022  -0.4980  -0.4976  -0.4975
    -0.4892  -0.4491  -0.4485  -0.4482  -0.4464  -0.4279  -0.4275  -0.4273
    -0.4270  -0.4090  -0.4002  -0.3993  -0.3889  -0.3888  -0.3880  -0.3880
    -0.3761  -0.3514  -0.3477  -0.3473  -0.3107  -0.2734  -0.2732  -0.2728
    -0.2726  -0.2573  -0.2572  -0.2566  -0.2566  -0.2409  -0.2401  -0.2398
    -0.2365  -0.1597  -0.1586  -0.1581  -0.1573  -0.1530  -0.1529  -0.1527
    -0.1525  -0.1509  -0.1493  -0.1491  -0.1473  -0.1123  -0.1123  -0.1122
    -0.1121  -0.1007  -0.0997  -0.0990  -0.0986  -0.0961  -0.0955  -0.0954
    -0.0952  -0.0670  -0.0265  -0.0262  -0.0255  -0.0251  -0.0016   0.0001
     0.0022   0.0034   0.0477   0.0507   0.0531   0.0567   0.0598   0.0669
     0.0796   0.0801   0.0804   0.0808   0.0839   0.0871   0.0879   0.0886
     0.0896   0.0904   0.0932   0.0940   0.1006   0.1007   0.1012   0.1015
     0.1066   0.1067   0.1068   0.1069   0.1217   0.1230   0.1235   0.1235
     0.1476   0.1513   0.1514   0.1515   0.1517   0.1602   0.1614   0.1619
     0.1649   0.2095   0.2108   0.2112   0.2115   0.2226   0.2418   0.2440
     0.2444   0.2492   0.2632   0.2935   0.3071   0.3213   0.3255   0.3275
     0.3287   0.3291   0.3337   0.3421   0.3446   0.3454   0.3465   0.3513
     0.3611   0.3614   0.3615   0.3618   0.3628   0.3658   0.3669   0.3679
     0.3698   0.3703   0.3729   0.3766   0.3788   0.3811   0.4012   0.4025
     0.4431   0.4467   0.4520   0.4524   0.4572   0.4577   0.4581   0.4589
     0.4691   0.4695   0.4697   0.4699   0.5060   0.5078   0.5090   0.5092
     0.5098   0.5100   0.5107   0.5109   0.5382   0.5540   0.5544   0.5547
     0.5549   0.5603   0.5665   0.5674   0.5682   0.5683   0.5688   0.5708
     0.5762   0.5764   0.5768   0.5770   0.5908   0.5910   0.5916   0.5920
     0.6036   0.6046   0.6065   0.6086   0.6578   0.6762   0.6779   0.6785
     0.6796   0.6830   0.6833   0.6835   0.6837   0.6847   0.6906   0.6915
     0.6948   0.6974   0.7064   0.7116   0.7286   0.7288   0.7291   0.7296
     0.7307   0.7311   0.7319   0.7321   0.7758   0.7812   0.7824   0.7829
     0.7937   0.8016   0.8119   0.8120   0.8135   0.8139   0.8292   0.8300
     0.8478   0.8482   0.8485   0.8487   0.8689   0.8717   0.8725   0.8740
     0.9256   0.9256   0.9262   0.9263   0.9585   0.9588   0.9598   0.9599
     0.9985   1.0112   1.0123   1.0127   1.0138   1.0177   1.0254   1.0281
     1.0347   1.0379   1.0386   1.0389   1.0409   1.0444   1.0445   1.0447
     1.0449   1.0468   1.0479   1.0482   1.0491   1.0557   1.0685   1.0708
     1.0756   1.0759   1.0770   1.0776   1.0788   1.0794   1.0810   1.0819
     1.0933   1.0939   1.0968   1.0970   1.1183   1.1196   1.1221   1.1226
     1.1283   1.1294   1.1324   1.1327   1.1415   1.1418   1.1424   1.1427
     1.1838   1.1911   1.1931   1.1939   1.1946   1.1956   1.1963   1.1975
     1.2206   1.2213   1.2214   1.2218   1.2322   1.2368   1.2379   1.2403
     1.2414   1.2445   1.2559   1.2564   1.2704   1.2705   1.2708   1.2710
     1.2784   1.2794   1.2801   1.2808   1.2855   1.2858   1.2866   1.2866
     1.3466   1.3525   1.3529   1.3532   1.3534   1.3541   1.3544   1.3546
     1.3548   1.3596   1.3619   1.3622   1.3689   1.3695   1.3722   1.3724
     1.3786   1.3788   1.3804   1.3811   1.3841   1.3858   1.3861   1.3868
     1.3930   1.3939   1.3941   1.3944   1.4003   1.4027   1.4044   1.4050
     1.4145   1.4150   1.4156   1.4156   1.4478   1.4481   1.4482   1.4483
     1.4605   1.4626   1.4629   1.4639   1.4748   1.4755   1.4787   1.4800
     1.4990   1.4998   1.5007   1.5008   1.5431   1.5481   1.5516   1.5523
     1.5726   1.5728   1.5732   1.5734   1.6022   1.6022   1.6028   1.6040
     1.6071   1.6084   1.6092   1.6098   1.6149   1.6156   1.6158   1.6164
     1.8316   1.8337   1.8339   1.8345   2.3277   2.3386   2.3409   2.3441
     2.5543   2.5579   2.5581   2.5599   2.7865   2.7918   2.7933   2.7938
     3.0776   3.0869   3.0884   3.0893   3.4480   3.4521   3.4524   3.4526
     3.6296   3.6390   3.6402   3.6418   3.8985   3.9276   3.9279   3.9282
     4.0036   4.2237   4.2252   4.2265   4.2360   4.3178   4.3309   4.3329
     4.3392   4.5102   4.5518   4.5557   4.5606   4.5610   4.5924   4.5945
     4.6817   4.7865   4.8242   4.8841   4.9018   4.9998   5.0246   5.0766
     5.1513   5.1652   5.1693   5.1736   5.2084   5.2512   5.2818   5.3015
     5.3321   5.3361   5.3423   5.3483   5.5232   5.5934   5.7265   5.7329
     5.7457   5.7464   5.7476   5.7490   5.8622   5.8713   5.8795   5.8826
     6.7751   6.7830   6.7839   6.7843   7.1003   7.1139   7.1192   7.1223
     7.1475   7.1498   7.1530   7.1538   7.2582   7.2659   7.2708   7.2731
     7.3613   7.3659   7.3667   7.3669   7.5248   7.6019   7.6066   7.6113
     7.6682   7.9027   7.9519   7.9602   7.9796   7.9810   7.9890   8.0048
     8.2292   8.2357   8.2398   8.2412   8.2468   8.2805   8.3576   8.3662
     8.8861   8.8898   8.8907   8.8916   8.9214   8.9221   8.9241   8.9249
     8.9624   8.9642   8.9654   8.9656   9.1062   9.1100   9.1184   9.1189
     9.3062   9.3240   9.3377   9.3435   9.5148   9.5307   9.5394   9.5504
     9.5635   9.5644   9.5722   9.5733   9.9265   9.9363   9.9654

     the Fermi energy is     3.3211 ev

!    total energy              =  -12707.14610180 Ry
     Harris-Foulkes estimate   =  -12707.14610182 Ry
     estimated scf accuracy    <          7.4E-09 Ry

     The total energy is the sum of the following terms:

     one-electron contribution = -109278.34892879 Ry
     hartree contribution      =   56000.58872971 Ry
     xc contribution           =   -4447.77100606 Ry
     ewald contribution        =   45024.72742867 Ry
     Dispersion Correction     =      -2.98700982 Ry
     smearing contrib. (-TS)   =      -3.35531551 Ry

     convergence has been achieved in  47 iterations

     Writing output data file gc.save
 
     init_run     :     98.65s CPU    105.80s WALL (       1 calls)
     electrons    :  12544.36s CPU  13415.57s WALL (       1 calls)

     Called by init_run:
     wfcinit      :     96.33s CPU    103.16s WALL (       1 calls)
     potinit      :      0.35s CPU      0.38s WALL (       1 calls)

     Called by electrons:
     c_bands      :  11494.00s CPU  12264.70s WALL (      47 calls)
     sum_band     :    866.15s CPU    938.46s WALL (      47 calls)
     v_of_rho     :      3.15s CPU      3.84s WALL (      48 calls)
     newd         :      9.58s CPU     15.35s WALL (      48 calls)
     mix_rho      :    171.32s CPU    193.14s WALL (      47 calls)

     Called by c_bands:
     init_us_2    :     39.41s CPU     39.90s WALL (     570 calls)
     cegterg      :  11313.82s CPU  12078.36s WALL (     288 calls)

     Called by sum_band:
     sum_band:bec :      4.82s CPU      5.51s WALL (     282 calls)
     addusdens    :      9.50s CPU     15.15s WALL (      47 calls)

     Called by *egterg:
     h_psi        :   4195.56s CPU   4539.56s WALL (    1942 calls)
     s_psi        :   1002.42s CPU   1014.07s WALL (    1942 calls)
     g_psi        :     10.63s CPU     10.64s WALL (    1648 calls)
     cdiaghg      :   3203.14s CPU   3327.41s WALL (    1930 calls)

     Called by h_psi:
     add_vuspsi   :   1007.39s CPU   1020.90s WALL (    1942 calls)

     General routines
     calbec       :   1441.59s CPU   1452.42s WALL (    2224 calls)
     fft          :      4.63s CPU      5.29s WALL (     623 calls)
     ffts         :    101.18s CPU    114.32s WALL (   25768 calls)
     fftw         :   2438.45s CPU   2716.38s WALL ( 1350086 calls)
     davcio       :      0.34s CPU      5.16s WALL (       6 calls)
 
     Parallel routines
     fft_scatter  :   1593.09s CPU   1740.05s WALL ( 1376477 calls)
 
     PWSCF        :     3h30m CPU        3h45m WALL

 
   This run was terminated on:  19: 9:25  26Mar2017            

=------------------------------------------------------------------------------=
   JOB DONE.
=------------------------------------------------------------------------------=
