
     Program PWSCF v.5.4.0 starts on  2Feb2017 at 22: 4:10 

     This program is part of the open-source Quantum ESPRESSO suite
     for quantum simulation of materials; please cite
         "P. Giannozzi et al., J. Phys.:Condens. Matter 21 395502 (2009);
          URL http://www.quantum-espresso.org", 
     in publications or presentations arising from this work. More details at
     http://www.quantum-espresso.org/quote

     Parallel version (MPI & OpenMP), running on      56 processor cores
     Number of MPI processes:                56
     Threads/MPI process:                     1
     R & G space division:  proc/nbgrp/npool/nimage =      56
     Waiting for input...
     Reading input from standard input
Warning: card &IONS ignored
Warning: card / ignored

     Current dimensions of program PWSCF are:
     Max number of different atomic species (ntypx) = 10
     Max number of k-points (npk) =  40000
     Max angular momentum in pseudopotentials (lmaxx) =  3
     WARNING: atomic wfc #  2 for atom type 4 has zero norm
     WARNING: atomic wfc #  4 for atom type 4 has zero norm
     WARNING: atomic wfc #  5 for atom type 4 has zero norm

     -------------------------------------
     Parameters for Dispersion Correction:
     -------------------------------------
       atom      VdW radius       C_6     

        Cu         2.952        374.666
        C_h        2.744         60.710
        C          2.744         60.710
        O          2.536         24.284
        H          1.892          4.857

     Subspace diagonalization in iterative solution of the eigenvalue problem:
     one sub-group per band group will be used
     scalapack distributed-memory algorithm (size of sub-group:  5*  5 procs)

 
     Parallelization info
     --------------------
     sticks:   dense  smooth     PW     G-vecs:    dense   smooth      PW
     Min         204     204     54                36612    36612    4962
     Max         205     205     55                36617    36617    4968
     Sum       11433   11433   3039              2050409  2050409  278033
 


     bravais-lattice index     =            0
     lattice parameter (alat)  =      13.9425  a.u.
     unit-cell volume          =   21209.0878 (a.u.)^3
     number of atoms/cell      =          150
     number of atomic types    =            5
     number of electrons       =      1299.00
     number of Kohn-Sham states=          780
     kinetic-energy cutoff     =      80.0000  Ry
     charge density cutoff     =     320.0000  Ry
     convergence threshold     =      1.0E-08
     mixing beta               =       0.7000
     number of iterations used =            8  local-TF  mixing
     Exchange-correlation      =  SLA  PW   PBE  PBE ( 1  4  3  4 0 0)

     celldm(1)=  13.942539  celldm(2)=   0.000000  celldm(3)=   0.000000
     celldm(4)=   0.000000  celldm(5)=   0.000000  celldm(6)=   0.000000

     crystal axes: (cart. coord. in units of alat)
               a(1) = (   1.000000   0.000000   0.000000 )  
               a(2) = (   0.000000   2.309401   0.000000 )  
               a(3) = (   0.000000   0.000000   3.388418 )  

     reciprocal axes: (cart. coord. in units 2 pi/alat)
               b(1) = (  1.000000  0.000000  0.000000 )  
               b(2) = (  0.000000  0.433013  0.000000 )  
               b(3) = (  0.000000  0.000000  0.295123 )  


     PseudoPot. # 1 for Cu read from file:
     /home/549/hxw549/Short/pseudopotentials/Cu.pbe-n-van_ak.UPF
     MD5 check sum: 601f7c30f7467666bec936e0661ce3e1
     Pseudo is Ultrasoft + core correction, Zval = 11.0
     Generated by new atomic code, or converted to UPF format
     Using radial grid of  867 points,  6 beta functions with: 
                l(1) =   0
                l(2) =   0
                l(3) =   1
                l(4) =   1
                l(5) =   2
                l(6) =   2
     Q(r) pseudized with  8 coefficients,  rinner =    1.400   1.400   1.400
                                                       1.400   1.400

     PseudoPot. # 2 for C  read from file:
     /home/549/hxw549/Short/pseudopotentials/C.star1s-pbe-mt_gipaw.UPF
     MD5 check sum: ef0cb3dee31bd9e4ba2a832a2c716264
     Pseudo is Norm-conserving, Zval =  5.0
     Generated by new atomic code, or converted to UPF format
     Using radial grid of 1073 points,  1 beta functions with: 
                l(1) =   0

     PseudoPot. # 3 for C  read from file:
     /home/549/hxw549/Short/pseudopotentials/C.pbe-mt_gipaw.UPF
     MD5 check sum: 5ac2f21f2c440b14befe521540822c15
     Pseudo is Norm-conserving, Zval =  4.0
     Generated by new atomic code, or converted to UPF format
     Using radial grid of 1073 points,  1 beta functions with: 
                l(1) =   0

     PseudoPot. # 4 for O  read from file:
     /home/549/hxw549/Short/pseudopotentials/O.pbe-van_gipaw.UPF
     MD5 check sum: 5ce2a047509d4f331db576c963e74b29
     Pseudo is Ultrasoft, Zval =  6.0
     Generated by new atomic code, or converted to UPF format
     Using radial grid of 1095 points,  4 beta functions with: 
                l(1) =   0
                l(2) =   0
                l(3) =   1
                l(4) =   1
     Q(r) pseudized with 0 coefficients 


     PseudoPot. # 5 for H  read from file:
     /home/549/hxw549/Short/pseudopotentials/H.pbe-van_ak.UPF
     MD5 check sum: 077eb6d537518a38cb46c6de387227b7
     Pseudo is Ultrasoft, Zval =  1.0
     Generated by new atomic code, or converted to UPF format
     Using radial grid of  615 points,  1 beta functions with: 
                l(1) =   0
     Q(r) pseudized with  8 coefficients,  rinner =    0.800

     atomic species   valence    mass     pseudopotential
        Cu            11.00    63.54600     Cu( 1.00)
        C_h            5.00    12.01070     C ( 1.00)
        C              4.00    12.01070     C ( 1.00)
        O              6.00    15.99940     O ( 1.00)
        H              1.00     1.00783     H ( 1.00)

     No symmetry found



   Cartesian axes

     site n.     atom                  positions (alat units)
         1           Cu  tau(   1) = (   0.0000278  -0.0002768   0.9972875  )
         2           Cu  tau(   2) = (   0.2500214   0.2300592   0.9964781  )
         3           Cu  tau(   3) = (   0.4999379  -0.0008021   0.9967565  )
         4           Cu  tau(   4) = (   0.7499938   0.2301066   0.9966299  )
         5           Cu  tau(   5) = (   0.0000368   0.4611612   0.9964670  )
         6           Cu  tau(   6) = (   0.2501556   0.6926513   0.9969316  )
         7           Cu  tau(   7) = (   0.5000725   0.4614195   0.9968158  )
         8           Cu  tau(   8) = (   0.7500733   0.6926077   0.9969288  )
         9           Cu  tau(   9) = (   0.0001817   0.9237007   0.9969673  )
        10           Cu  tau(  10) = (   0.2501864   1.1547399   0.9969388  )
        11           Cu  tau(  11) = (   0.5001000   0.9236813   0.9971421  )
        12           Cu  tau(  12) = (   0.7500350   1.1547883   0.9969509  )
        13           Cu  tau(  13) = (   0.0000256   1.3862740   0.9964245  )
        14           Cu  tau(  14) = (   0.2500182   1.6173874   0.9965674  )
        15           Cu  tau(  15) = (   0.5000855   1.3860092   0.9969524  )
        16           Cu  tau(  16) = (   0.7500020   1.6173469   0.9967271  )
        17           Cu  tau(  17) = (   0.0000589   1.8476413   0.9974502  )
        18           Cu  tau(  18) = (   0.2497677   2.0783648   0.9976647  )
        19           Cu  tau(  19) = (   0.4999083   1.8482307   0.9967929  )
        20           Cu  tau(  20) = (   0.7501842   2.0783708   0.9971403  )
        21           Cu  tau(  21) = (   0.0001222   0.2301461   1.2453200  )
        22           Cu  tau(  22) = (   0.2499160  -0.0003375   1.2457320  )
        23           Cu  tau(  23) = (   0.5000760   0.2296546   1.2445751  )
        24           Cu  tau(  24) = (   0.7501253  -0.0008082   1.2452774  )
        25           Cu  tau(  25) = (   0.0004560   0.6919042   1.2444398  )
        26           Cu  tau(  26) = (   0.2502604   0.4604283   1.2441641  )
        27           Cu  tau(  27) = (   0.5005290   0.6920792   1.2449013  )
        28           Cu  tau(  28) = (   0.7502594   0.4606436   1.2444322  )
        29           Cu  tau(  29) = (   0.0004845   1.1556372   1.2443765  )
        30           Cu  tau(  30) = (   0.2506070   0.9237561   1.2452404  )
        31           Cu  tau(  31) = (   0.5004996   1.1552771   1.2450168  )
        32           Cu  tau(  32) = (   0.7506209   0.9237195   1.2449593  )
        33           Cu  tau(  33) = (   0.0001889   1.6170091   1.2456247  )
        34           Cu  tau(  34) = (   0.2502719   1.3869351   1.2442606  )
        35           Cu  tau(  35) = (   0.5000476   1.6177597   1.2448016  )
        36           Cu  tau(  36) = (   0.7502719   1.3867859   1.2444933  )
        37           Cu  tau(  37) = (   0.0001297   2.0783238   1.2457288  )
        38           Cu  tau(  38) = (   0.2498837   1.8474392   1.2461817  )
        39           Cu  tau(  39) = (   0.4998735   2.0782826   1.2456599  )
        40           Cu  tau(  40) = (   0.7501762   1.8480311   1.2455042  )
        41           Cu  tau(  41) = (   0.0002718  -0.0011296   1.4951325  )
        42           Cu  tau(  42) = (   0.2502480   0.2303139   1.4952280  )
        43           Cu  tau(  43) = (   0.5000574  -0.0006898   1.4948808  )
        44           Cu  tau(  44) = (   0.7505846   0.2291334   1.4938282  )
        45           Cu  tau(  45) = (   0.0009624   0.4607787   1.4943109  )
        46           Cu  tau(  46) = (   0.2514145   0.6908209   1.4926831  )
        47           Cu  tau(  47) = (   0.5008195   0.4598745   1.4933701  )
        48           Cu  tau(  48) = (   0.7516451   0.6913243   1.4932782  )
        49           Cu  tau(  49) = (   0.0019318   0.9239193   1.4927730  )
        50           Cu  tau(  50) = (   0.2514121   1.1564455   1.4932287  )
        51           Cu  tau(  51) = (   0.5021641   0.9235540   1.4935214  )
        52           Cu  tau(  52) = (   0.7518116   1.1562283   1.4932047  )
        53           Cu  tau(  53) = (   0.0011789   1.3861859   1.4950249  )
        54           Cu  tau(  54) = (   0.2501668   1.6161289   1.4962436  )
        55           Cu  tau(  55) = (   0.5008242   1.3872970   1.4934908  )
        56           Cu  tau(  56) = (   0.7508208   1.6176916   1.4943697  )
        57           Cu  tau(  57) = (   0.0003793   1.8479269   1.4954295  )
        58           Cu  tau(  58) = (   0.2502332   2.0783539   1.4953567  )
        59           Cu  tau(  59) = (   0.5000263   1.8477072   1.4952729  )
        60           Cu  tau(  60) = (   0.7499856   2.0782028   1.4954651  )
        61           Cu  tau(  61) = (   0.0013816   0.2292930   1.7432885  )
        62           Cu  tau(  62) = (   0.2507645  -0.0010149   1.7448229  )
        63           Cu  tau(  63) = (   0.5007496   0.2295791   1.7436658  )
        64           Cu  tau(  64) = (   0.7503272  -0.0006935   1.7445977  )
        65           Cu  tau(  65) = (   0.0045463   0.6918465   1.7436705  )
        66           Cu  tau(  66) = (   0.2520141   0.4626440   1.7460287  )
        67           Cu  tau(  67) = (   0.5022653   0.6898550   1.7406262  )
        68           Cu  tau(  68) = (   0.7517890   0.4595199   1.7411334  )
        69           Cu  tau(  69) = (   0.0047011   1.1548943   1.7449750  )
        70           Cu  tau(  70) = (   0.2530542   0.9228037   1.7325019  )
        71           Cu  tau(  71) = (   0.5030046   1.1568396   1.7399891  )
        72           Cu  tau(  72) = (   0.7561874   0.9239067   1.7398848  )
        73           Cu  tau(  73) = (   0.0018646   1.6171245   1.7448817  )
        74           Cu  tau(  74) = (   0.2519253   1.3838820   1.7474102  )
        75           Cu  tau(  75) = (   0.5009287   1.6165997   1.7436324  )
        76           Cu  tau(  76) = (   0.7529422   1.3868330   1.7421903  )
        77           Cu  tau(  77) = (   0.0002295   2.0780753   1.7453542  )
        78           Cu  tau(  78) = (   0.2505869   1.8481607   1.7445926  )
        79           Cu  tau(  79) = (   0.5005487   2.0784516   1.7451245  )
        80           Cu  tau(  80) = (   0.7507322   1.8473351   1.7448549  )
        81           Cu  tau(  81) = (   0.0007331   0.0000523   1.9906293  )
        82           Cu  tau(  82) = (   0.2525995   0.2291339   1.9904422  )
        83           Cu  tau(  83) = (   0.5012472  -0.0005218   1.9921329  )
        84           Cu  tau(  84) = (   0.7505674   0.2306852   1.9894324  )
        85           Cu  tau(  85) = (   0.0042086   0.4583194   1.9895302  )
        86           Cu  tau(  86) = (   0.2533238   0.6859888   1.9919788  )
        87           Cu  tau(  87) = (   0.5013086   0.4599114   1.9907049  )
        88           Cu  tau(  88) = (   0.7545155   0.6843983   1.9888510  )
        89           Cu  tau(  89) = (  -0.0132795   0.9222968   1.9898577  )
        90           Cu  tau(  90) = (   0.2536667   1.1630440   1.9871555  )
        91           Cu  tau(  91) = (   0.5253338   0.9231525   1.9735697  )
        92           Cu  tau(  92) = (   0.7554366   1.1624939   1.9907504  )
        93           Cu  tau(  93) = (   0.0065718   1.3880187   1.9935465  )
        94           Cu  tau(  94) = (   0.2526338   1.6190218   1.9906841  )
        95           Cu  tau(  95) = (   0.5015104   1.3866197   1.9900095  )
        96           Cu  tau(  96) = (   0.7522394   1.6149579   1.9899113  )
        97           Cu  tau(  97) = (   0.0003722   1.8475400   1.9923328  )
        98           Cu  tau(  98) = (   0.2509673   2.0779645   1.9916155  )
        99           Cu  tau(  99) = (   0.5021872   1.8468334   1.9901015  )
       100           Cu  tau( 100) = (   0.7506424   2.0783722   1.9912597  )
       101           C   tau( 101) = (   0.0004633   0.0969185   2.3843282  )
       102           C   tau( 102) = (   0.0006891   0.2895165   2.3836482  )
       103           C   tau( 103) = (   0.1666585   0.0002933   2.3867679  )
       104           C   tau( 104) = (   0.1673277   0.3850769   2.3903157  )
       105           C   tau( 105) = (   0.3334301   0.0964012   2.3837630  )
       106           C   tau( 106) = (   0.3336820   0.2893218   2.3841831  )
       107           C   tau( 107) = (   0.5002537   0.0000620   2.3840475  )
       108           C   tau( 108) = (   0.5005861   0.3857862   2.3862407  )
       109           C   tau( 109) = (   0.6668225   0.0970972   2.3821103  )
       110           C   tau( 110) = (   0.6668789   0.2897006   2.3793787  )
       111           C   tau( 111) = (   0.8334847   0.0007853   2.3854227  )
       112           C   tau( 112) = (   0.8338985   0.3855644   2.3821889  )
       113           C   tau( 113) = (   0.0007087   0.6732112   2.4042444  )
       114           C   tau( 114) = (   0.0006883   0.8656023   2.4132578  )
       115           C   tau( 115) = (   0.1676172   0.5766239   2.4117145  )
       116           C   tau( 116) = (   0.1654579   0.9620878   2.4451114  )
       117           C   tau( 117) = (   0.3341007   0.6722734   2.4322949  )
       118           C   tau( 118) = (   0.3325860   0.8659509   2.4520552  )
       119           C   tau( 119) = (   0.5009673   0.5775343   2.4087855  )
       120           C_h tau( 120) = (   0.5017558   0.9623222   2.4385030  )
       121           O   tau( 121) = (   0.2791307   0.9260168   2.1070364  )
       122           H   tau( 122) = (   0.3593119   0.9331071   2.2172280  )
       123           C   tau( 123) = (   0.6676340   0.6738812   2.4034622  )
       124           C   tau( 124) = (   0.6677084   0.8654913   2.4173642  )
       125           C   tau( 125) = (   0.8341283   0.5782705   2.3892616  )
       126           C   tau( 126) = (   0.8335734   0.9617234   2.4042072  )
       127           C   tau( 127) = (   0.0003039   1.2497142   2.3939206  )
       128           C   tau( 128) = (   0.0001774   1.4424794   2.3830571  )
       129           C   tau( 129) = (   0.1667008   1.1540354   2.4176282  )
       130           C   tau( 130) = (   0.1670336   1.5388816   2.3839660  )
       131           C   tau( 131) = (   0.3339796   1.2508192   2.4128917  )
       132           C   tau( 132) = (   0.3334608   1.4424981   2.3940123  )
       133           C   tau( 133) = (   0.5014908   1.1552464   2.4213605  )
       134           C   tau( 134) = (   0.4999382   1.5390631   2.3885153  )
       135           C   tau( 135) = (   0.6672132   1.2498776   2.3964384  )
       136           C   tau( 136) = (   0.6664090   1.4424231   2.3856276  )
       137           C   tau( 137) = (   0.8339124   1.1534927   2.3972902  )
       138           C   tau( 138) = (   0.8331158   1.5383499   2.3799296  )
       139           C   tau( 139) = (  -0.0002215   1.8284265   2.3816093  )
       140           C   tau( 140) = (  -0.0001179   2.0210629   2.3863119  )
       141           C   tau( 141) = (   0.1667477   1.7318750   2.3825680  )
       142           C   tau( 142) = (   0.1664658   2.1173245   2.3871874  )
       143           C   tau( 143) = (   0.3331949   1.8285190   2.3874739  )
       144           C   tau( 144) = (   0.3333678   2.0210706   2.3878090  )
       145           C   tau( 145) = (   0.4996565   1.7319631   2.3871412  )
       146           C   tau( 146) = (   0.5000751   2.1171626   2.3880207  )
       147           C   tau( 147) = (   0.6665831   1.8281220   2.3863563  )
       148           C   tau( 148) = (   0.6665579   2.0209124   2.3873875  )
       149           C   tau( 149) = (   0.8330402   1.7312308   2.3813732  )
       150           C   tau( 150) = (   0.8334119   2.1174588   2.3867188  )

     number of k points=     6  gaussian smearing, width (Ry)=  0.1000
                       cart. coord. in units 2pi/alat
        k(    1) = (   0.0000000   0.0000000   0.0000000), wk =   0.2500000
        k(    2) = (   0.0000000  -0.2165064   0.0000000), wk =   0.2500000
        k(    3) = (   0.2500000   0.0000000   0.0000000), wk =   0.5000000
        k(    4) = (   0.2500000  -0.2165064   0.0000000), wk =   0.5000000
        k(    5) = (  -0.5000000   0.0000000   0.0000000), wk =   0.2500000
        k(    6) = (  -0.5000000  -0.2165064   0.0000000), wk =   0.2500000

     Dense  grid:  2050409 G-vectors     FFT dimensions: (  80, 192, 270)

     Largest allocated arrays     est. size (Mb)     dimensions
        Kohn-Sham Wavefunctions        54.80 Mb     (    4604,  780)
        NL pseudopotentials           130.46 Mb     (    4604, 1857)
        Each V/rho on FFT grid          1.17 Mb     (   76800)
        Each G-vector array             0.28 Mb     (   36616)
        G-vector shells                 0.14 Mb     (   17932)
     Largest temporary arrays     est. size (Mb)     dimensions
        Auxiliary wavefunctions       219.18 Mb     (    4604, 3120)
        Each subspace H/S matrix        5.94 Mb     (     624,  624)
        Each <psi_i|beta_j> matrix     22.10 Mb     (    1857,  780)
        Arrays for rho mixing           9.38 Mb     (   76800,    8)

     Initial potential from superposition of free atoms
     Check: negative starting charge=   -0.001824

     starting charge 1273.81750, renormalised to 1299.00000

     negative rho (up, down):  1.860E-03 0.000E+00
     Starting wfc are 1289 randomized atomic wfcs

     total cpu time spent up to now is      109.4 secs

     Self-consistent Calculation

     iteration #  1     ecut=    80.00 Ry     beta=0.70
     Davidson diagonalization with overlap
     c_bands:  2 eigenvalues not converged
     c_bands:  5 eigenvalues not converged
     c_bands:  3 eigenvalues not converged
     ethr =  1.00E-04,  avg # of iterations = 38.2

     negative rho (up, down):  2.820E+01 0.000E+00

     total cpu time spent up to now is     2165.3 secs

     total energy              =   -9321.15207313 Ry
     Harris-Foulkes estimate   =  -17407.30203206 Ry
     estimated scf accuracy    <  185327.58195373 Ry

     iteration #  2     ecut=    80.00 Ry     beta=0.70
     Davidson diagonalization with overlap
     ethr =  1.00E-02,  avg # of iterations = 13.2

     negative rho (up, down):  3.184E+01 0.000E+00

     total cpu time spent up to now is     3109.6 secs

     total energy              =  -12188.90740855 Ry
     Harris-Foulkes estimate   =  -13741.37145108 Ry
     estimated scf accuracy    <   24889.36101774 Ry

     iteration #  3     ecut=    80.00 Ry     beta=0.70
     Davidson diagonalization with overlap
     ethr =  1.00E-02,  avg # of iterations =  7.5

     negative rho (up, down):  3.265E+01 0.000E+00

     total cpu time spent up to now is     3648.3 secs

     total energy              =  -12482.32459194 Ry
     Harris-Foulkes estimate   =  -13466.07388859 Ry
     estimated scf accuracy    <    6200.95176766 Ry

     iteration #  4     ecut=    80.00 Ry     beta=0.70
     Davidson diagonalization with overlap
     ethr =  1.00E-02,  avg # of iterations =  5.8

     negative rho (up, down):  2.400E+01 0.000E+00

     total cpu time spent up to now is     4156.2 secs

     total energy              =  -12904.47770145 Ry
     Harris-Foulkes estimate   =  -13135.23156874 Ry
     estimated scf accuracy    <    1671.06752262 Ry

     iteration #  5     ecut=    80.00 Ry     beta=0.70
     Davidson diagonalization with overlap
     ethr =  1.00E-02,  avg # of iterations =  3.2

     negative rho (up, down):  1.550E+01 0.000E+00

     total cpu time spent up to now is     4426.4 secs

     total energy              =  -12888.25852230 Ry
     Harris-Foulkes estimate   =  -12990.33744565 Ry
     estimated scf accuracy    <     734.44596639 Ry

     iteration #  6     ecut=    80.00 Ry     beta=0.70
     Davidson diagonalization with overlap
     ethr =  1.00E-02,  avg # of iterations =  2.0

     negative rho (up, down):  1.246E+01 0.000E+00

     total cpu time spent up to now is     4632.3 secs

     total energy              =  -12871.64296550 Ry
     Harris-Foulkes estimate   =  -12905.31460797 Ry
     estimated scf accuracy    <     562.33365925 Ry

     iteration #  7     ecut=    80.00 Ry     beta=0.70
     Davidson diagonalization with overlap
     ethr =  1.00E-02,  avg # of iterations =  2.0

     negative rho (up, down):  8.457E+00 0.000E+00

     total cpu time spent up to now is     4813.3 secs

     total energy              =  -12838.48603792 Ry
     Harris-Foulkes estimate   =  -12883.97267864 Ry
     estimated scf accuracy    <     435.67794338 Ry

     iteration #  8     ecut=    80.00 Ry     beta=0.70
     Davidson diagonalization with overlap
     ethr =  1.00E-02,  avg # of iterations =  1.3

     negative rho (up, down):  7.663E+00 0.000E+00

     total cpu time spent up to now is     4985.9 secs

     total energy              =  -12835.62297140 Ry
     Harris-Foulkes estimate   =  -12847.33696827 Ry
     estimated scf accuracy    <     248.44380540 Ry

     iteration #  9     ecut=    80.00 Ry     beta=0.70
     Davidson diagonalization with overlap
     ethr =  1.00E-02,  avg # of iterations =  1.3

     negative rho (up, down):  4.854E+00 0.000E+00

     total cpu time spent up to now is     5158.0 secs

     total energy              =  -12808.98706239 Ry
     Harris-Foulkes estimate   =  -12838.23863636 Ry
     estimated scf accuracy    <     201.88245183 Ry

     iteration # 10     ecut=    80.00 Ry     beta=0.70
     Davidson diagonalization with overlap
     ethr =  1.00E-02,  avg # of iterations =  1.0

     negative rho (up, down):  1.198E+00 0.000E+00

     total cpu time spent up to now is     5326.8 secs

     total energy              =  -12770.68350401 Ry
     Harris-Foulkes estimate   =  -12811.75969076 Ry
     estimated scf accuracy    <     194.02376914 Ry

     iteration # 11     ecut=    80.00 Ry     beta=0.70
     Davidson diagonalization with overlap
     ethr =  1.00E-02,  avg # of iterations =  3.2

     negative rho (up, down):  1.126E+00 0.000E+00

     total cpu time spent up to now is     5521.4 secs

     total energy              =  -12756.66127189 Ry
     Harris-Foulkes estimate   =  -12780.25203381 Ry
     estimated scf accuracy    <     252.83856366 Ry

     iteration # 12     ecut=    80.00 Ry     beta=0.70
     Davidson diagonalization with overlap
     ethr =  1.00E-02,  avg # of iterations =  2.2

     negative rho (up, down):  3.118E+00 0.000E+00

     total cpu time spent up to now is     5704.8 secs

     total energy              =  -12752.54324056 Ry
     Harris-Foulkes estimate   =  -12768.24590229 Ry
     estimated scf accuracy    <      98.82137755 Ry

     iteration # 13     ecut=    80.00 Ry     beta=0.70
     Davidson diagonalization with overlap
     ethr =  7.61E-03,  avg # of iterations =  2.3

     negative rho (up, down):  4.652E+00 0.000E+00

     total cpu time spent up to now is     5890.2 secs

     total energy              =  -12754.01104760 Ry
     Harris-Foulkes estimate   =  -12761.09509939 Ry
     estimated scf accuracy    <      63.91380571 Ry

     iteration # 14     ecut=    80.00 Ry     beta=0.70
     Davidson diagonalization with overlap
     ethr =  4.92E-03,  avg # of iterations =  1.5

     negative rho (up, down):  6.704E+00 0.000E+00

     total cpu time spent up to now is     6064.3 secs

     total energy              =  -12751.10784791 Ry
     Harris-Foulkes estimate   =  -12755.29871937 Ry
     estimated scf accuracy    <      41.77733121 Ry

     iteration # 15     ecut=    80.00 Ry     beta=0.70
     Davidson diagonalization with overlap
     ethr =  3.22E-03,  avg # of iterations =  2.0

     negative rho (up, down):  5.517E+00 0.000E+00

     total cpu time spent up to now is     6243.8 secs

     total energy              =  -12748.11125018 Ry
     Harris-Foulkes estimate   =  -12751.92436840 Ry
     estimated scf accuracy    <      32.14255358 Ry

     iteration # 16     ecut=    80.00 Ry     beta=0.70
     Davidson diagonalization with overlap
     ethr =  2.47E-03,  avg # of iterations =  2.3

     negative rho (up, down):  4.799E+00 0.000E+00

     total cpu time spent up to now is     6429.6 secs

     total energy              =  -12747.28434798 Ry
     Harris-Foulkes estimate   =  -12748.96563945 Ry
     estimated scf accuracy    <      16.04469237 Ry

     iteration # 17     ecut=    80.00 Ry     beta=0.70
     Davidson diagonalization with overlap
     ethr =  1.24E-03,  avg # of iterations =  6.7

     negative rho (up, down):  3.006E+00 0.000E+00

     total cpu time spent up to now is     6665.2 secs

     total energy              =  -12745.55745628 Ry
     Harris-Foulkes estimate   =  -12747.57415173 Ry
     estimated scf accuracy    <      10.66147165 Ry

     iteration # 18     ecut=    80.00 Ry     beta=0.70
     Davidson diagonalization with overlap
     ethr =  8.21E-04,  avg # of iterations =  7.2

     negative rho (up, down):  3.077E+00 0.000E+00

     total cpu time spent up to now is     6907.8 secs

     total energy              =  -12744.86355227 Ry
     Harris-Foulkes estimate   =  -12745.86868598 Ry
     estimated scf accuracy    <       8.22843088 Ry

     iteration # 19     ecut=    80.00 Ry     beta=0.70
     Davidson diagonalization with overlap
     ethr =  6.33E-04,  avg # of iterations =  8.2

     negative rho (up, down):  2.462E+00 0.000E+00

     total cpu time spent up to now is     7168.8 secs

     total energy              =  -12744.19886654 Ry
     Harris-Foulkes estimate   =  -12745.03844875 Ry
     estimated scf accuracy    <       7.63579667 Ry

     iteration # 20     ecut=    80.00 Ry     beta=0.70
     Davidson diagonalization with overlap
     ethr =  5.88E-04,  avg # of iterations =  2.3

     negative rho (up, down):  2.127E+00 0.000E+00

     total cpu time spent up to now is     7353.3 secs

     total energy              =  -12743.72347350 Ry
     Harris-Foulkes estimate   =  -12744.37587800 Ry
     estimated scf accuracy    <       6.11119804 Ry

     iteration # 21     ecut=    80.00 Ry     beta=0.70
     Davidson diagonalization with overlap
     ethr =  4.70E-04,  avg # of iterations =  1.3

     negative rho (up, down):  1.302E+00 0.000E+00

     total cpu time spent up to now is     7525.2 secs

     total energy              =  -12741.97257809 Ry
     Harris-Foulkes estimate   =  -12743.88923180 Ry
     estimated scf accuracy    <       5.32199352 Ry

     iteration # 22     ecut=    80.00 Ry     beta=0.70
     Davidson diagonalization with overlap
     ethr =  4.10E-04,  avg # of iterations =  1.0

     negative rho (up, down):  5.556E-01 0.000E+00

     total cpu time spent up to now is     7694.2 secs

     total energy              =  -12740.76049082 Ry
     Harris-Foulkes estimate   =  -12742.08679395 Ry
     estimated scf accuracy    <       3.97149499 Ry

     iteration # 23     ecut=    80.00 Ry     beta=0.70
     Davidson diagonalization with overlap
     ethr =  3.06E-04,  avg # of iterations =  3.2

     negative rho (up, down):  4.737E-01 0.000E+00

     total cpu time spent up to now is     7888.8 secs

     total energy              =  -12740.38870887 Ry
     Harris-Foulkes estimate   =  -12740.88945107 Ry
     estimated scf accuracy    <       2.98748884 Ry

     iteration # 24     ecut=    80.00 Ry     beta=0.70
     Davidson diagonalization with overlap
     ethr =  2.30E-04,  avg # of iterations =  7.2

     negative rho (up, down):  8.308E-01 0.000E+00

     total cpu time spent up to now is     8128.8 secs

     total energy              =  -12740.30862358 Ry
     Harris-Foulkes estimate   =  -12740.55316979 Ry
     estimated scf accuracy    <       1.06371809 Ry

     iteration # 25     ecut=    80.00 Ry     beta=0.70
     Davidson diagonalization with overlap
     ethr =  8.19E-05,  avg # of iterations =  8.3

     negative rho (up, down):  7.787E-01 0.000E+00

     total cpu time spent up to now is     8399.3 secs

     total energy              =  -12740.20295045 Ry
     Harris-Foulkes estimate   =  -12740.35770726 Ry
     estimated scf accuracy    <       0.74775798 Ry

     iteration # 26     ecut=    80.00 Ry     beta=0.70
     Davidson diagonalization with overlap
     ethr =  5.76E-05,  avg # of iterations =  7.0

     negative rho (up, down):  4.328E-01 0.000E+00

     total cpu time spent up to now is     8647.9 secs

     total energy              =  -12740.12932503 Ry
     Harris-Foulkes estimate   =  -12740.24044562 Ry
     estimated scf accuracy    <       0.44065357 Ry

     iteration # 27     ecut=    80.00 Ry     beta=0.70
     Davidson diagonalization with overlap
     ethr =  3.39E-05,  avg # of iterations =  7.8

     negative rho (up, down):  1.953E-01 0.000E+00

     total cpu time spent up to now is     8926.8 secs

     total energy              =  -12740.13023453 Ry
     Harris-Foulkes estimate   =  -12740.15998426 Ry
     estimated scf accuracy    <       0.15947623 Ry

     iteration # 28     ecut=    80.00 Ry     beta=0.70
     Davidson diagonalization with overlap
     c_bands:  1 eigenvalues not converged
     c_bands:  1 eigenvalues not converged
     ethr =  1.23E-05,  avg # of iterations = 15.5

     negative rho (up, down):  5.055E-02 0.000E+00

     total cpu time spent up to now is     9295.8 secs

     total energy              =  -12740.13816134 Ry
     Harris-Foulkes estimate   =  -12740.15867174 Ry
     estimated scf accuracy    <       0.12429356 Ry

     iteration # 29     ecut=    80.00 Ry     beta=0.70
     Davidson diagonalization with overlap
     ethr =  9.57E-06,  avg # of iterations =  8.7

     negative rho (up, down):  1.649E-02 0.000E+00

     total cpu time spent up to now is     9574.3 secs

     total energy              =  -12740.14726181 Ry
     Harris-Foulkes estimate   =  -12740.14975272 Ry
     estimated scf accuracy    <       0.02122216 Ry

     iteration # 30     ecut=    80.00 Ry     beta=0.70
     Davidson diagonalization with overlap
     c_bands:  1 eigenvalues not converged
     ethr =  1.63E-06,  avg # of iterations = 13.3

     negative rho (up, down):  1.646E-02 0.000E+00

     total cpu time spent up to now is     9917.5 secs

     total energy              =  -12740.14804737 Ry
     Harris-Foulkes estimate   =  -12740.14934084 Ry
     estimated scf accuracy    <       0.00863002 Ry

     iteration # 31     ecut=    80.00 Ry     beta=0.70
     Davidson diagonalization with overlap
     ethr =  6.64E-07,  avg # of iterations =  6.8

     negative rho (up, down):  1.120E-02 0.000E+00

     total cpu time spent up to now is    10170.4 secs

     total energy              =  -12740.14845754 Ry
     Harris-Foulkes estimate   =  -12740.14890755 Ry
     estimated scf accuracy    <       0.00406330 Ry

     iteration # 32     ecut=    80.00 Ry     beta=0.70
     Davidson diagonalization with overlap
     ethr =  3.13E-07,  avg # of iterations =  6.2

     negative rho (up, down):  1.304E-02 0.000E+00

     total cpu time spent up to now is    10410.2 secs

     total energy              =  -12740.14875287 Ry
     Harris-Foulkes estimate   =  -12740.14881503 Ry
     estimated scf accuracy    <       0.00121649 Ry

     iteration # 33     ecut=    80.00 Ry     beta=0.70
     Davidson diagonalization with overlap
     ethr =  9.36E-08,  avg # of iterations =  5.8

     negative rho (up, down):  1.205E-02 0.000E+00

     total cpu time spent up to now is    10656.1 secs

     total energy              =  -12740.14886488 Ry
     Harris-Foulkes estimate   =  -12740.14888151 Ry
     estimated scf accuracy    <       0.00027229 Ry

     iteration # 34     ecut=    80.00 Ry     beta=0.70
     Davidson diagonalization with overlap
     ethr =  2.10E-08,  avg # of iterations =  5.3

     negative rho (up, down):  9.702E-03 0.000E+00

     total cpu time spent up to now is    10886.8 secs

     total energy              =  -12740.14882624 Ry
     Harris-Foulkes estimate   =  -12740.14888029 Ry
     estimated scf accuracy    <       0.00006358 Ry

     iteration # 35     ecut=    80.00 Ry     beta=0.70
     Davidson diagonalization with overlap
     ethr =  4.89E-09,  avg # of iterations =  3.7

     negative rho (up, down):  7.950E-03 0.000E+00

     total cpu time spent up to now is    11101.2 secs

     total energy              =  -12740.14879371 Ry
     Harris-Foulkes estimate   =  -12740.14883162 Ry
     estimated scf accuracy    <       0.00004869 Ry

     iteration # 36     ecut=    80.00 Ry     beta=0.70
     Davidson diagonalization with overlap
     ethr =  3.75E-09,  avg # of iterations =  5.5

     negative rho (up, down):  4.627E-03 0.000E+00

     total cpu time spent up to now is    11333.3 secs

     total energy              =  -12740.14874503 Ry
     Harris-Foulkes estimate   =  -12740.14879732 Ry
     estimated scf accuracy    <       0.00001933 Ry

     iteration # 37     ecut=    80.00 Ry     beta=0.70
     Davidson diagonalization with overlap
     ethr =  1.49E-09,  avg # of iterations =  8.0

     negative rho (up, down):  2.798E-03 0.000E+00

     total cpu time spent up to now is    11601.4 secs

     total energy              =  -12740.14872899 Ry
     Harris-Foulkes estimate   =  -12740.14874660 Ry
     estimated scf accuracy    <       0.00000659 Ry

     iteration # 38     ecut=    80.00 Ry     beta=0.70
     Davidson diagonalization with overlap
     ethr =  5.07E-10,  avg # of iterations =  5.5

     negative rho (up, down):  2.545E-03 0.000E+00

     total cpu time spent up to now is    11864.7 secs

     total energy              =  -12740.14872972 Ry
     Harris-Foulkes estimate   =  -12740.14873042 Ry
     estimated scf accuracy    <       0.00000458 Ry

     iteration # 39     ecut=    80.00 Ry     beta=0.70
     Davidson diagonalization with overlap
     ethr =  3.53E-10,  avg # of iterations =  2.0

     negative rho (up, down):  2.272E-03 0.000E+00

     total cpu time spent up to now is    12052.3 secs

     total energy              =  -12740.14872995 Ry
     Harris-Foulkes estimate   =  -12740.14873017 Ry
     estimated scf accuracy    <       0.00000103 Ry

     iteration # 40     ecut=    80.00 Ry     beta=0.70
     Davidson diagonalization with overlap
     ethr =  7.96E-11,  avg # of iterations =  2.0

     negative rho (up, down):  2.140E-03 0.000E+00

     total cpu time spent up to now is    12240.4 secs

     total energy              =  -12740.14873012 Ry
     Harris-Foulkes estimate   =  -12740.14873002 Ry
     estimated scf accuracy    <       0.00000018 Ry

     iteration # 41     ecut=    80.00 Ry     beta=0.70
     Davidson diagonalization with overlap
     ethr =  1.42E-11,  avg # of iterations =  2.7

     negative rho (up, down):  2.119E-03 0.000E+00

     total cpu time spent up to now is    12482.2 secs

     total energy              =  -12740.14873019 Ry
     Harris-Foulkes estimate   =  -12740.14873016 Ry
     estimated scf accuracy    <       0.00000016 Ry

     iteration # 42     ecut=    80.00 Ry     beta=0.70
     Davidson diagonalization with overlap
     ethr =  1.20E-11,  avg # of iterations =  2.0

     negative rho (up, down):  2.107E-03 0.000E+00

     total cpu time spent up to now is    12670.4 secs

     total energy              =  -12740.14873025 Ry
     Harris-Foulkes estimate   =  -12740.14873020 Ry
     estimated scf accuracy    <       0.00000002 Ry

     iteration # 43     ecut=    80.00 Ry     beta=0.70
     Davidson diagonalization with overlap
     ethr =  1.53E-12,  avg # of iterations =  2.7

     negative rho (up, down):  2.073E-03 0.000E+00

     total cpu time spent up to now is    12861.1 secs

     End of self-consistent calculation

          k = 0.0000 0.0000 0.0000 (256287 PWs)   bands (ev):

   -17.9895 -17.1009 -16.1773 -16.0110 -15.3592 -14.9633 -14.6986 -14.5974
   -14.1974 -14.1368 -14.0607 -14.0516 -13.4028 -13.2549 -13.1009 -13.0523
   -13.0113 -12.9908 -11.6072 -11.4692 -11.4277 -11.3243 -11.1436 -10.2733
    -9.7153  -9.7042  -9.5577  -9.4669  -8.9212  -8.7328  -8.6071  -8.5301
    -7.9732  -7.8408  -7.6980  -7.5879  -7.5107  -7.5015  -7.4639  -7.4443
    -6.3603  -6.2908  -6.2755  -6.0601  -5.9711  -5.9523  -5.8860  -5.8223
    -5.7900  -5.7812  -5.4544  -5.4330  -5.0659  -4.7979  -4.7478  -4.6843
    -4.5932  -4.5717  -4.5072  -4.3686  -4.1472  -4.0957  -3.9863  -3.9562
    -3.9097  -3.8816  -3.5735  -3.5410  -3.5132  -3.4743  -3.4543  -3.4033
    -3.3656  -3.3547  -3.3438  -3.2893  -3.0923  -3.0642  -3.0478  -2.9860
    -2.9710  -2.9501  -2.9413  -2.9170  -2.8916  -2.8212  -2.7954  -2.7298
    -2.6974  -2.6725  -2.6621  -2.6478  -2.5945  -2.5446  -2.4588  -2.3274
    -2.2993  -2.2824  -2.2610  -2.1961  -2.1573  -2.1512  -2.1369  -2.1293
    -2.1194  -2.1177  -2.1163  -2.1148  -2.0214  -2.0169  -1.9971  -1.9861
    -1.9778  -1.9694  -1.9665  -1.9116  -1.8891  -1.7977  -1.7401  -1.7044
    -1.7033  -1.6867  -1.6838  -1.6500  -1.6426  -1.6294  -1.6196  -1.6186
    -1.5761  -1.5724  -1.5364  -1.5275  -1.5268  -1.5181  -1.5166  -1.5031
    -1.5000  -1.4865  -1.4817  -1.4769  -1.4401  -1.4185  -1.3762  -1.3466
    -1.3410  -1.3300  -1.3165  -1.3129  -1.3030  -1.2629  -1.2456  -1.2250
    -1.2220  -1.2141  -1.1773  -1.1744  -1.1737  -1.1565  -1.1511  -1.1303
    -1.1266  -1.0886  -1.0627  -1.0563  -1.0471  -1.0306  -1.0202  -1.0072
    -1.0034  -1.0001  -0.9886  -0.9881  -0.9870  -0.9826  -0.9656  -0.9611
    -0.9522  -0.9497  -0.9366  -0.9176  -0.9121  -0.9015  -0.8954  -0.8915
    -0.8858  -0.8800  -0.8764  -0.8602  -0.8419  -0.8299  -0.8262  -0.8216
    -0.8198  -0.8189  -0.8175  -0.8167  -0.8159  -0.8135  -0.8107  -0.8094
    -0.8075  -0.8065  -0.8061  -0.7981  -0.7911  -0.7762  -0.7644  -0.7440
    -0.7314  -0.6892  -0.6589  -0.6509  -0.6498  -0.6422  -0.6330  -0.6268
    -0.6138  -0.6060  -0.6044  -0.5847  -0.5826  -0.5741  -0.5635  -0.5621
    -0.5561  -0.5527  -0.5288  -0.5225  -0.5214  -0.5199  -0.5184  -0.5065
    -0.5036  -0.4772  -0.4583  -0.4569  -0.4064  -0.4047  -0.4016  -0.4004
    -0.3824  -0.3769  -0.3724  -0.3716  -0.3693  -0.3666  -0.3626  -0.3619
    -0.3587  -0.3519  -0.3493  -0.3465  -0.3439  -0.3402  -0.3345  -0.3314
    -0.3165  -0.3071  -0.2657  -0.2601  -0.2595  -0.2541  -0.2502  -0.2333
    -0.2275  -0.2244  -0.2229  -0.2177  -0.2153  -0.2115  -0.2073  -0.2034
    -0.1925  -0.1864  -0.1844  -0.1830  -0.1797  -0.1782  -0.1763  -0.1723
    -0.1605  -0.1598  -0.1550  -0.1476  -0.1463  -0.1449  -0.1382  -0.1238
    -0.0960  -0.0912  -0.0862  -0.0732  -0.0564  -0.0522  -0.0399  -0.0374
    -0.0335  -0.0311  -0.0250  -0.0230  -0.0222  -0.0197  -0.0141  -0.0085
    -0.0012   0.0142   0.0255   0.0280   0.0339   0.0411   0.0453   0.0549
     0.0570   0.0607   0.0618   0.0646   0.0722   0.0791   0.0845   0.0864
     0.0885   0.0894   0.0978   0.0995   0.1015   0.1072   0.1094   0.1112
     0.1253   0.1309   0.1341   0.1388   0.1477   0.1631   0.1679   0.1922
     0.1983   0.2003   0.2234   0.2246   0.2484   0.2568   0.2655   0.2712
     0.2751   0.2761   0.2841   0.2894   0.2905   0.2988   0.3087   0.3177
     0.3271   0.3328   0.3551   0.3610   0.3666   0.3699   0.3825   0.3839
     0.3848   0.3932   0.4066   0.4152   0.4191   0.4232   0.4295   0.4312
     0.4438   0.4499   0.4570   0.4626   0.4636   0.4728   0.4802   0.4869
     0.5060   0.5088   0.5187   0.5239   0.5287   0.5328   0.5397   0.5416
     0.5493   0.5514   0.5560   0.5715   0.5747   0.5771   0.5781   0.5811
     0.5826   0.5841   0.5886   0.5915   0.5941   0.5974   0.6032   0.6049
     0.6109   0.6120   0.6284   0.6415   0.6426   0.6485   0.6499   0.6657
     0.6716   0.6836   0.6851   0.6884   0.6925   0.6941   0.6964   0.7008
     0.7049   0.7140   0.7150   0.7201   0.7229   0.7293   0.7311   0.7363
     0.7391   0.7448   0.7494   0.7527   0.7561   0.7636   0.7690   0.7790
     0.7814   0.7847   0.7861   0.7882   0.7925   0.7926   0.7932   0.7957
     0.8028   0.8062   0.8156   0.8224   0.8390   0.8465   0.8488   0.8503
     0.8541   0.8664   0.8691   0.8709   0.8788   0.8887   0.8940   0.9004
     0.9067   0.9187   0.9227   0.9249   0.9318   0.9348   0.9388   0.9436
     0.9445   0.9500   0.9527   0.9657   0.9744   0.9759   0.9795   0.9831
     0.9860   0.9868   0.9971   1.0003   1.0151   1.0170   1.0186   1.0217
     1.0267   1.0308   1.0362   1.0472   1.0508   1.0519   1.0552   1.0567
     1.0639   1.0658   1.0682   1.0727   1.0800   1.0817   1.0831   1.0898
     1.0931   1.0955   1.0982   1.1102   1.1142   1.1233   1.1320   1.1346
     1.1411   1.1425   1.1467   1.1555   1.1577   1.1590   1.1601   1.1625
     1.1642   1.1646   1.1721   1.1783   1.1821   1.1938   1.2009   1.2062
     1.2200   1.2203   1.2283   1.2343   1.2440   1.2444   1.2469   1.2482
     1.2534   1.2538   1.2566   1.2656   1.2705   1.2708   1.2735   1.2748
     1.2831   1.2885   1.2917   1.2952   1.3025   1.3056   1.3089   1.3122
     1.3170   1.3182   1.3209   1.3245   1.3275   1.3362   1.3391   1.3409
     1.3458   1.3472   1.3525   1.3550   1.3555   1.3581   1.3595   1.3661
     1.3669   1.3700   1.3867   1.3910   1.3924   1.3942   1.3976   1.4032
     1.4054   1.4077   1.4124   1.4278   1.4314   1.4317   1.4429   1.4437
     1.4468   1.4525   1.4599   1.4607   1.4628   1.4652   1.4701   1.4714
     1.4729   1.4747   1.4762   1.4800   1.4806   1.4834   1.4882   1.4937
     1.4960   1.5040   1.5051   1.5092   1.5174   1.5181   1.5202   1.5294
     1.5310   1.5541   1.5579   1.5597   1.5622   1.5664   1.5892   1.5971
     1.6040   1.6140   1.6222   1.6390   1.6411   1.6488   1.6489   1.6639
     1.6709   1.6727   1.6849   1.6871   1.6896   1.7431   1.7992   1.8685
     1.9232   2.0002   2.1576   2.1819   2.1979   2.2208   2.2301   2.2381
     2.2463   2.2537   2.2578   2.2654   2.2675   2.3251   2.4508   2.4638
     2.4984   2.5002   2.5031   2.5866   2.6212   2.6331   2.6846   2.7602
     2.7819   2.8405   2.9988   3.0496   3.0687   3.1086   3.2761   3.5877
     3.5960   3.8472   3.8693   3.8774   3.8840   3.8994   3.9684   3.9891
     4.0125   4.0211   4.0410   4.0423   4.0457   4.0484   4.0937   4.1127
     4.2060   4.2744   4.2940   4.3476   4.4164   4.4297   4.7348   4.7705
     4.8859   4.9281   4.9522   5.0401   5.3797   5.4170   5.4647   5.5120
     5.7558   5.7591   5.8440   5.8740   5.9616   5.9880   6.1865   6.3903
     6.4339   6.4445   6.4582   6.5118   6.5173   6.5382   6.6040   6.6273
     6.6852   6.7045   6.7941   6.8131   6.8144   6.8296   6.8545   6.8905
     7.0646   7.0979   7.1180   7.1740   7.2200   7.3807   7.3997   7.5288
     7.5600   7.6037   7.6240   7.7296   7.7657   7.8005   7.8236   8.0441
     8.0577   8.0876   8.1771   8.2365   8.2611   8.3238   8.3248   8.3408
     8.3607   8.3962   8.4059   8.4358   8.4430   8.4656   8.5650   8.5727
     8.6258   8.6719   8.7094   8.7201   8.7508   8.7956   8.8553   8.8557
     8.8953   8.9269   8.9327   8.9970   9.0988   9.1383   9.1457   9.1493
     9.2222   9.2710   9.3238   9.3561   9.3769   9.3926   9.4944   9.5160
     9.5336   9.6013   9.6308   9.7063   9.7235   9.7899   9.8735   9.9889
    10.0745  10.0862  10.1615  10.1940

          k = 0.0000-0.2165 0.0000 (256176 PWs)   bands (ev):

   -17.9895 -17.1003 -16.2392 -15.8331 -15.5799 -14.9815 -14.5852 -14.2940
   -14.2749 -14.1929 -14.1558 -13.7611 -13.7115 -13.6407 -13.6151 -12.5432
   -12.3678 -12.3221 -12.2423 -12.0758 -12.0125 -10.5898 -10.4930 -10.4673
   -10.3287  -9.3920  -9.3751  -9.2260  -9.0578  -8.9187  -8.8937  -8.3431
    -8.2280  -8.1411  -8.0897  -7.3989  -7.2725  -6.9513  -6.9094  -6.8430
    -6.8291  -6.7873  -6.7705  -6.3234  -6.1283  -6.0337  -5.8504  -5.8157
    -5.4633  -5.3334  -5.1611  -5.0960  -4.9538  -4.9296  -4.8474  -4.8138
    -4.8026  -4.6879  -4.5691  -4.5502  -4.4699  -4.4237  -4.0816  -4.0602
    -3.7597  -3.6285  -3.6101  -3.5537  -3.4398  -3.3829  -3.2678  -3.2603
    -3.2385  -3.1984  -3.1815  -3.1627  -3.0387  -3.0348  -3.0196  -2.9823
    -2.9573  -2.9404  -2.8500  -2.8355  -2.8257  -2.7926  -2.7685  -2.7322
    -2.7068  -2.6481  -2.5480  -2.5441  -2.5435  -2.5426  -2.5399  -2.5357
    -2.5166  -2.4776  -2.3799  -2.2844  -2.2562  -2.2121  -2.2046  -2.2024
    -2.1800  -2.1421  -2.1069  -2.0840  -2.0706  -2.0567  -1.9914  -1.9709
    -1.9512  -1.9488  -1.9204  -1.9197  -1.8274  -1.7952  -1.7633  -1.7335
    -1.7268  -1.7207  -1.7133  -1.7096  -1.7049  -1.6888  -1.6859  -1.6844
    -1.6652  -1.6509  -1.6092  -1.6083  -1.5803  -1.5398  -1.5177  -1.4833
    -1.4565  -1.4285  -1.4246  -1.4171  -1.3935  -1.3334  -1.3295  -1.3151
    -1.2996  -1.2811  -1.2795  -1.2783  -1.2410  -1.2400  -1.2396  -1.2347
    -1.2337  -1.2331  -1.2089  -1.2023  -1.1939  -1.1901  -1.1894  -1.1865
    -1.1654  -1.1388  -1.1249  -1.1174  -1.1075  -1.1011  -1.0590  -1.0517
    -1.0357  -1.0313  -1.0165  -1.0128  -1.0095  -1.0084  -0.9739  -0.9668
    -0.9467  -0.9461  -0.9442  -0.9406  -0.9381  -0.9093  -0.8929  -0.8900
    -0.8834  -0.8813  -0.8751  -0.8733  -0.8641  -0.8588  -0.8427  -0.8214
    -0.7979  -0.7903  -0.7895  -0.7857  -0.7817  -0.7803  -0.7737  -0.7657
    -0.7594  -0.7441  -0.7423  -0.7223  -0.7208  -0.7150  -0.7046  -0.6682
    -0.6239  -0.6223  -0.6151  -0.6129  -0.5975  -0.5969  -0.5740  -0.5725
    -0.5679  -0.5653  -0.5649  -0.5641  -0.5605  -0.5448  -0.5367  -0.5231
    -0.5217  -0.5141  -0.5085  -0.5066  -0.4977  -0.4967  -0.4935  -0.4706
    -0.4695  -0.4630  -0.4501  -0.4439  -0.4437  -0.4186  -0.4147  -0.4140
    -0.4088  -0.4069  -0.4038  -0.3963  -0.3902  -0.3816  -0.3788  -0.3617
    -0.3542  -0.3269  -0.3238  -0.3146  -0.3062  -0.2928  -0.2881  -0.2692
    -0.2668  -0.2621  -0.2595  -0.2559  -0.2527  -0.2515  -0.2411  -0.2339
    -0.2324  -0.2264  -0.2240  -0.2209  -0.2189  -0.2149  -0.2131  -0.2049
    -0.2003  -0.1969  -0.1951  -0.1927  -0.1853  -0.1749  -0.1654  -0.1649
    -0.1629  -0.1612  -0.1307  -0.1117  -0.1100  -0.1026  -0.1018  -0.0988
    -0.0972  -0.0919  -0.0864  -0.0793  -0.0736  -0.0680  -0.0639  -0.0605
    -0.0551  -0.0498  -0.0444  -0.0419  -0.0398  -0.0370  -0.0345  -0.0339
    -0.0315  -0.0136   0.0031   0.0053   0.0192   0.0245   0.0340   0.0362
     0.0423   0.0432   0.0473   0.0492   0.0528   0.0647   0.0686   0.0709
     0.0762   0.0824   0.0874   0.1015   0.1050   0.1104   0.1147   0.1156
     0.1182   0.1290   0.1362   0.1414   0.1506   0.1544   0.1644   0.1674
     0.1694   0.1725   0.1742   0.1869   0.2171   0.2236   0.2249   0.2327
     0.2348   0.2365   0.2439   0.2613   0.2720   0.2829   0.2882   0.2984
     0.3071   0.3313   0.3371   0.3450   0.3566   0.3795   0.3826   0.4020
     0.4142   0.4268   0.4287   0.4330   0.4416   0.4469   0.4571   0.4659
     0.4694   0.4757   0.4770   0.4791   0.4896   0.4951   0.4966   0.5010
     0.5030   0.5045   0.5086   0.5138   0.5197   0.5233   0.5278   0.5291
     0.5500   0.5554   0.5601   0.5614   0.5679   0.5711   0.5735   0.5757
     0.5804   0.5805   0.5808   0.5870   0.5933   0.5974   0.5981   0.6013
     0.6024   0.6113   0.6141   0.6196   0.6231   0.6235   0.6266   0.6290
     0.6306   0.6357   0.6409   0.6450   0.6476   0.6668   0.6806   0.6835
     0.6977   0.7001   0.7042   0.7052   0.7082   0.7143   0.7168   0.7199
     0.7223   0.7256   0.7268   0.7296   0.7376   0.7395   0.7636   0.7643
     0.7673   0.7684   0.7724   0.7778   0.7803   0.7848   0.7901   0.7967
     0.8019   0.8152   0.8201   0.8215   0.8219   0.8260   0.8332   0.8651
     0.8778   0.8789   0.9051   0.9113   0.9205   0.9292   0.9305   0.9352
     0.9386   0.9396   0.9405   0.9453   0.9473   0.9511   0.9566   0.9592
     0.9636   0.9685   0.9745   0.9813   0.9817   0.9859   0.9944   0.9985
     0.9990   0.9997   1.0084   1.0101   1.0111   1.0127   1.0160   1.0172
     1.0185   1.0229   1.0270   1.0286   1.0332   1.0336   1.0340   1.0367
     1.0413   1.0538   1.0582   1.0600   1.0621   1.0647   1.0694   1.0718
     1.0725   1.0776   1.0811   1.0843   1.0853   1.0924   1.1031   1.1089
     1.1256   1.1281   1.1353   1.1649   1.1665   1.1716   1.1748   1.1806
     1.1853   1.1926   1.2064   1.2090   1.2098   1.2125   1.2203   1.2224
     1.2294   1.2314   1.2325   1.2367   1.2393   1.2410   1.2421   1.2434
     1.2440   1.2481   1.2491   1.2556   1.2588   1.2600   1.2696   1.2708
     1.2725   1.2735   1.2762   1.2909   1.2926   1.3053   1.3072   1.3088
     1.3124   1.3137   1.3179   1.3210   1.3280   1.3336   1.3359   1.3375
     1.3396   1.3436   1.3508   1.3532   1.3553   1.3578   1.3676   1.3695
     1.3731   1.3784   1.3843   1.3883   1.3935   1.3993   1.4118   1.4142
     1.4168   1.4182   1.4238   1.4263   1.4274   1.4355   1.4378   1.4395
     1.4419   1.4557   1.4583   1.4651   1.4667   1.4680   1.4824   1.4853
     1.4862   1.4893   1.4925   1.4943   1.4949   1.4982   1.5121   1.5162
     1.5180   1.5235   1.5305   1.5307   1.5333   1.5370   1.5464   1.5488
     1.5634   1.5664   1.5680   1.5713   1.5779   1.5814   1.5872   1.6034
     1.6292   1.6312   1.6347   1.7237   1.7400   1.7479   1.7565   1.7583
     1.7620   1.7713   1.7775   1.7950   1.8032   1.8354   1.8421   1.8490
     1.8523   1.8580   1.8952   1.8990   1.9153   1.9560   1.9712   2.0976
     2.1307   2.1693   2.4580   2.4587   2.4726   2.5262   2.5391   2.5663
     2.5866   2.6081   2.6212   2.6262   2.7099   2.7417   2.7460   2.7762
     2.8092   2.8165   2.9308   2.9405   2.9635   2.9674   3.1987   3.2128
     3.2131   3.3981   3.4635   3.5999   3.6398   3.7946   3.8021   3.9035
     3.9733   4.0133   4.1373   4.1408   4.2099   4.2371   4.3503   4.3625
     4.4418   4.4696   4.5679   4.6623   4.7319   4.7929   4.8061   5.0208
     5.0762   5.1356   5.1426   5.2044   5.3669   5.3874   5.3921   5.4018
     5.4731   5.5387   5.6588   5.7031   5.7171   5.7792   5.8052   5.8539
     6.4119   6.4165   6.4815   6.4841   6.4868   6.6090   6.6226   6.6568
     6.6994   6.7612   6.8683   6.9296   7.0332   7.0549   7.0653   7.1147
     7.1341   7.1400   7.1618   7.1771   7.2230   7.2472   7.2949   7.3538
     7.4017   7.4816   7.5086   7.5686   7.6161   7.6679   7.7294   7.7451
     7.8493   8.0241   8.1915   8.2280   8.2951   8.3731   8.4007   8.4637
     8.4693   8.4722   8.4851   8.4889   8.5054   8.5344   8.6698   8.6748
     8.7472   8.7594   8.7788   8.7834   8.8378   8.8859   8.9371   8.9392
     8.9641   9.0176   9.0922   9.1208   9.2025   9.2422   9.2633   9.2940
     9.3422   9.3498   9.4038   9.4377   9.4463   9.4568   9.4980   9.5002
     9.5123   9.5300   9.5541   9.6023   9.6607   9.7267   9.8210   9.8360
     9.8586   9.9331   9.9349  10.1893

          k = 0.2500 0.0000 0.0000 (256240 PWs)   bands (ev):

   -17.9838 -17.0609 -16.0686 -15.8881 -15.5623 -15.0848 -14.9292 -14.8742
   -14.8131 -14.0448 -13.8758 -13.6920 -13.1825 -13.1073 -13.0219 -12.9693
   -12.2838 -12.1654 -12.0904 -12.0039 -11.1696 -11.0864 -10.7214 -10.6142
   -10.3049 -10.1461  -9.8853  -9.8270  -9.4321  -9.1973  -9.0830  -8.6337
    -7.9371  -7.7389  -7.6607  -7.5054  -7.4832  -7.3772  -7.0164  -6.9034
    -6.3295  -6.2410  -6.1655  -5.9799  -5.8978  -5.8511  -5.7883  -5.3923
    -5.2817  -5.2652  -5.2346  -4.9216  -4.8504  -4.5847  -4.5647  -4.4708
    -4.4433  -4.4377  -4.4084  -4.3515  -4.2968  -4.1646  -4.0470  -3.9847
    -3.9619  -3.9475  -3.8570  -3.8424  -3.8233  -3.7621  -3.7237  -3.5694
    -3.5332  -3.5090  -3.4945  -3.4647  -3.4436  -3.3645  -3.3577  -3.2704
    -3.1856  -3.1644  -3.1498  -2.9701  -2.9446  -2.8864  -2.8504  -2.8305
    -2.7561  -2.7396  -2.7104  -2.6289  -2.5986  -2.5541  -2.4757  -2.4360
    -2.3550  -2.3353  -2.2607  -2.2557  -2.0804  -2.0608  -2.0552  -2.0441
    -2.0296  -1.9995  -1.9453  -1.9354  -1.8982  -1.8291  -1.8199  -1.7823
    -1.7668  -1.7654  -1.7565  -1.7551  -1.7444  -1.7362  -1.7210  -1.7041
    -1.6852  -1.6802  -1.6690  -1.6641  -1.6436  -1.6036  -1.6002  -1.5665
    -1.5489  -1.5450  -1.5444  -1.5425  -1.5383  -1.5373  -1.4842  -1.4728
    -1.4668  -1.4548  -1.4516  -1.4040  -1.3604  -1.3330  -1.2965  -1.2821
    -1.2758  -1.2345  -1.2302  -1.2099  -1.2075  -1.2022  -1.1968  -1.1904
    -1.1724  -1.1611  -1.1562  -1.1519  -1.1494  -1.1473  -1.1395  -1.1325
    -1.1155  -1.1039  -1.0984  -1.0964  -1.0862  -1.0740  -1.0730  -1.0704
    -1.0559  -1.0481  -1.0242  -1.0177  -1.0101  -1.0091  -1.0003  -0.9916
    -0.9849  -0.9791  -0.9752  -0.9734  -0.9623  -0.9494  -0.9451  -0.9441
    -0.9419  -0.9400  -0.9398  -0.9365  -0.9347  -0.9259  -0.9157  -0.9129
    -0.9021  -0.8896  -0.8773  -0.8679  -0.8667  -0.8374  -0.8268  -0.8164
    -0.8139  -0.7844  -0.7795  -0.7693  -0.7660  -0.7577  -0.7382  -0.7362
    -0.7246  -0.7219  -0.7161  -0.7103  -0.7072  -0.6990  -0.6972  -0.6612
    -0.5762  -0.5714  -0.5627  -0.5511  -0.5376  -0.5342  -0.5300  -0.5225
    -0.5129  -0.5095  -0.5083  -0.5014  -0.4943  -0.4910  -0.4896  -0.4762
    -0.4696  -0.4639  -0.4618  -0.4541  -0.4489  -0.4434  -0.4363  -0.4302
    -0.4258  -0.4200  -0.4188  -0.3689  -0.3660  -0.3625  -0.3620  -0.3568
    -0.3518  -0.3488  -0.3473  -0.3379  -0.3266  -0.3147  -0.2978  -0.2912
    -0.2898  -0.2794  -0.2778  -0.2596  -0.2579  -0.2555  -0.2543  -0.2504
    -0.2488  -0.2453  -0.2328  -0.2282  -0.2185  -0.2136  -0.2087  -0.1989
    -0.1956  -0.1765  -0.1701  -0.1660  -0.1612  -0.1574  -0.1493  -0.1454
    -0.1433  -0.1401  -0.1155  -0.1123  -0.1102  -0.1018  -0.0962  -0.0908
    -0.0860  -0.0742  -0.0719  -0.0666  -0.0457  -0.0363  -0.0292  -0.0242
    -0.0168  -0.0109  -0.0073  -0.0004   0.0085   0.0198   0.0220   0.0291
     0.0301   0.0308   0.0347   0.0366   0.0410   0.0438   0.0465   0.0517
     0.0536   0.0575   0.0680   0.0732   0.0772   0.0810   0.0835   0.0951
     0.0987   0.1098   0.1161   0.1209   0.1277   0.1396   0.1415   0.1472
     0.1537   0.1583   0.1707   0.1739   0.1786   0.1813   0.1858   0.1872
     0.1952   0.2095   0.2227   0.2298   0.2372   0.2660   0.2717   0.2894
     0.2972   0.3005   0.3090   0.3133   0.3170   0.3198   0.3209   0.3231
     0.3258   0.3276   0.3312   0.3339   0.3352   0.3408   0.3433   0.3490
     0.3582   0.3615   0.3639   0.3718   0.3742   0.3794   0.3835   0.3870
     0.4078   0.4095   0.4228   0.4306   0.4432   0.4488   0.4547   0.4567
     0.4606   0.4769   0.4824   0.4845   0.4910   0.4931   0.5050   0.5133
     0.5187   0.5208   0.5232   0.5257   0.5304   0.5371   0.5382   0.5465
     0.5553   0.5625   0.5636   0.5662   0.5753   0.5845   0.5852   0.5872
     0.5943   0.5955   0.6070   0.6105   0.6198   0.6233   0.6261   0.6310
     0.6342   0.6372   0.6402   0.6524   0.6539   0.6564   0.6617   0.6653
     0.6790   0.6817   0.6880   0.7015   0.7045   0.7064   0.7068   0.7086
     0.7115   0.7204   0.7263   0.7375   0.7434   0.7615   0.7633   0.7739
     0.7794   0.7806   0.7865   0.7882   0.7925   0.8071   0.8111   0.8136
     0.8165   0.8197   0.8219   0.8264   0.8372   0.8410   0.8521   0.8559
     0.8618   0.8672   0.8718   0.8806   0.8848   0.8931   0.8992   0.9111
     0.9142   0.9193   0.9214   0.9255   0.9314   0.9347   0.9370   0.9386
     0.9401   0.9488   0.9531   0.9577   0.9623   0.9713   0.9791   0.9831
     0.9951   1.0014   1.0058   1.0117   1.0147   1.0254   1.0274   1.0302
     1.0320   1.0381   1.0412   1.0443   1.0497   1.0525   1.0575   1.0603
     1.0618   1.0631   1.0667   1.0725   1.0738   1.0754   1.0792   1.0814
     1.0872   1.0931   1.0951   1.1021   1.1083   1.1103   1.1120   1.1133
     1.1191   1.1254   1.1304   1.1322   1.1367   1.1447   1.1476   1.1534
     1.1553   1.1642   1.1714   1.1726   1.1755   1.1790   1.1844   1.1895
     1.1909   1.1969   1.2042   1.2081   1.2173   1.2253   1.2274   1.2298
     1.2374   1.2492   1.2533   1.2678   1.2731   1.2781   1.2820   1.2833
     1.2901   1.2924   1.2944   1.2982   1.3027   1.3063   1.3100   1.3117
     1.3155   1.3209   1.3241   1.3262   1.3288   1.3367   1.3416   1.3456
     1.3473   1.3494   1.3511   1.3538   1.3554   1.3566   1.3626   1.3674
     1.3735   1.3773   1.3821   1.3864   1.3893   1.3932   1.3946   1.3990
     1.4039   1.4133   1.4144   1.4171   1.4226   1.4277   1.4371   1.4386
     1.4482   1.4514   1.4556   1.4593   1.4600   1.4618   1.4673   1.4697
     1.4716   1.4758   1.4777   1.4789   1.4830   1.4854   1.4873   1.4961
     1.4998   1.5063   1.5092   1.5104   1.5134   1.5213   1.5248   1.5267
     1.5334   1.5381   1.5453   1.5487   1.5512   1.5527   1.5581   1.5624
     1.5833   1.5902   1.5952   1.6087   1.6137   1.6488   1.6544   1.6649
     1.6715   1.6740   1.6921   1.7018   1.7342   1.7861   1.8069   1.8107
     1.8289   1.8534   1.8706   1.8812   1.9256   2.0180   2.0693   2.1038
     2.1080   2.1396   2.1977   2.2441   2.2904   2.3217   2.4418   2.5935
     2.6120   2.6855   2.7605   3.0120   3.0184   3.0888   3.2241   3.2351
     3.2603   3.2607   3.3251   3.3955   3.5088   3.5221   3.5798   3.6215
     3.6335   3.6958   3.7046   3.7355   3.7566   3.7775   3.8449   3.8737
     3.9466   3.9857   4.0237   4.1128   4.1810   4.2166   4.3158   4.3250
     4.3977   4.4545   4.5827   4.6263   4.8379   4.8584   4.8797   5.1179
     5.2152   5.2490   5.2576   5.2981   5.3562   5.4225   5.4938   5.5258
     5.5660   5.6073   5.6281   5.6513   5.6988   5.7241   5.7588   5.8174
     5.8250   5.8433   5.9259   6.0119   6.0570   6.0665   6.0986   6.3486
     6.4060   6.6294   6.7139   6.7478   6.7750   6.7872   6.7942   6.8493
     6.9188   6.9382   7.0626   7.0783   7.1116   7.1183   7.2184   7.3242
     7.3279   7.4527   7.4923   7.5183   7.5490   7.5905   7.6376   7.6736
     7.7190   7.7923   7.8288   7.9194   7.9858   8.0799   8.0826   8.1089
     8.1834   8.2110   8.2244   8.2332   8.3295   8.3497   8.3612   8.4265
     8.4498   8.5115   8.5510   8.6129   8.7303   8.7931   9.0007   9.0095
     9.0268   9.0276   9.0358   9.1807   9.1887   9.2268   9.2522   9.2680
     9.3134   9.3349   9.3857   9.3881   9.4740   9.4815   9.4859   9.5040
     9.5402   9.5976   9.6816   9.7121   9.7520   9.7766   9.8295   9.8660
     9.8708   9.8817   9.9491   9.9914

          k = 0.2500-0.2165 0.0000 (256316 PWs)   bands (ev):

   -17.9838 -17.0605 -16.1152 -15.7966 -15.4602 -15.3632 -15.1275 -14.6486
   -14.4858 -14.1866 -14.0427 -13.6323 -13.2049 -13.1876 -13.0860 -12.7090
   -12.5858 -12.0843 -11.9629 -11.4460 -11.3682 -11.2223 -11.0623 -10.8843
   -10.5624  -9.7999  -9.7029  -9.3236  -9.3036  -9.0441  -8.9879  -8.6078
    -8.5664  -8.4054  -8.3566  -7.2382  -6.9648  -6.7758  -6.6061  -6.5381
    -6.4331  -6.3868  -6.3159  -6.2526  -6.0193  -5.9800  -5.6724  -5.6460
    -5.3718  -5.2022  -5.0046  -4.8779  -4.8234  -4.7689  -4.6522  -4.6412
    -4.4761  -4.4123  -4.3757  -4.3156  -4.2843  -4.2699  -4.1302  -4.1044
    -4.0852  -3.9701  -3.9350  -3.7510  -3.7068  -3.6755  -3.5535  -3.5290
    -3.4771  -3.4580  -3.4251  -3.4122  -3.3133  -3.2518  -3.2412  -3.2174
    -3.1404  -3.0981  -3.0375  -3.0011  -2.9688  -2.8990  -2.8943  -2.8855
    -2.8535  -2.7957  -2.6754  -2.6434  -2.6140  -2.5919  -2.5363  -2.4263
    -2.2796  -2.2786  -2.2220  -2.1938  -2.1373  -2.1341  -2.1003  -2.0764
    -2.0476  -2.0056  -1.9725  -1.9695  -1.9345  -1.9287  -1.8926  -1.8800
    -1.8364  -1.7852  -1.7824  -1.7770  -1.7749  -1.7319  -1.7169  -1.6987
    -1.6753  -1.6742  -1.6696  -1.6563  -1.6533  -1.6428  -1.6412  -1.6401
    -1.6375  -1.6309  -1.6242  -1.5716  -1.5456  -1.5272  -1.4298  -1.4262
    -1.4112  -1.3376  -1.3136  -1.2937  -1.2907  -1.2813  -1.2684  -1.2422
    -1.2398  -1.2296  -1.2279  -1.2269  -1.2176  -1.2174  -1.1999  -1.1909
    -1.1862  -1.1805  -1.1784  -1.1748  -1.1728  -1.1697  -1.1528  -1.1463
    -1.1354  -1.1277  -1.0971  -1.0950  -1.0902  -1.0883  -1.0798  -1.0755
    -1.0736  -1.0718  -1.0511  -1.0419  -1.0172  -1.0067  -1.0019  -1.0001
    -0.9918  -0.9893  -0.9820  -0.9707  -0.9614  -0.9566  -0.9375  -0.9277
    -0.9242  -0.9203  -0.9196  -0.9146  -0.9095  -0.9034  -0.8867  -0.8858
    -0.8802  -0.8574  -0.8542  -0.8379  -0.8346  -0.8325  -0.8274  -0.8228
    -0.8033  -0.7743  -0.7458  -0.7375  -0.7363  -0.7324  -0.7298  -0.7173
    -0.6888  -0.6847  -0.6786  -0.6775  -0.6695  -0.6678  -0.6543  -0.6428
    -0.6194  -0.6141  -0.6098  -0.5913  -0.5828  -0.5750  -0.5482  -0.5359
    -0.5297  -0.5247  -0.5229  -0.5134  -0.4997  -0.4951  -0.4822  -0.4810
    -0.4677  -0.4647  -0.4539  -0.4478  -0.4448  -0.4352  -0.4323  -0.4181
    -0.4137  -0.4112  -0.4010  -0.3923  -0.3829  -0.3728  -0.3645  -0.3608
    -0.3581  -0.3489  -0.3420  -0.3366  -0.3282  -0.3266  -0.3247  -0.3232
    -0.3211  -0.3169  -0.3133  -0.3096  -0.2969  -0.2922  -0.2796  -0.2781
    -0.2541  -0.2464  -0.2378  -0.2258  -0.2211  -0.2095  -0.2066  -0.1998
    -0.1944  -0.1861  -0.1810  -0.1779  -0.1750  -0.1683  -0.1457  -0.1345
    -0.1134  -0.1122  -0.0879  -0.0842  -0.0748  -0.0717  -0.0665  -0.0642
    -0.0549  -0.0539  -0.0474  -0.0364  -0.0344  -0.0303  -0.0264  -0.0231
    -0.0134  -0.0104  -0.0077  -0.0061  -0.0038   0.0072   0.0138   0.0234
     0.0285   0.0301   0.0341   0.0351   0.0366   0.0389   0.0427   0.0467
     0.0480   0.0512   0.0607   0.0652   0.0699   0.0737   0.0936   0.0969
     0.1026   0.1046   0.1120   0.1216   0.1284   0.1301   0.1576   0.1632
     0.1688   0.1715   0.1747   0.1781   0.1804   0.1855   0.1890   0.1920
     0.1953   0.2016   0.2098   0.2104   0.2159   0.2296   0.2382   0.2712
     0.2745   0.2843   0.3122   0.3141   0.3190   0.3216   0.3254   0.3282
     0.3292   0.3314   0.3396   0.3420   0.3476   0.3542   0.3598   0.3620
     0.3632   0.3676   0.3696   0.3731   0.3779   0.3921   0.3998   0.4047
     0.4152   0.4260   0.4299   0.4341   0.4405   0.4533   0.4607   0.4618
     0.4741   0.4821   0.4878   0.4911   0.4958   0.5020   0.5062   0.5125
     0.5141   0.5186   0.5223   0.5240   0.5254   0.5301   0.5470   0.5525
     0.5586   0.5683   0.5723   0.5751   0.5897   0.6007   0.6039   0.6077
     0.6104   0.6177   0.6244   0.6341   0.6368   0.6446   0.6457   0.6498
     0.6539   0.6555   0.6600   0.6656   0.6692   0.6772   0.6785   0.6893
     0.6921   0.7020   0.7034   0.7046   0.7119   0.7125   0.7137   0.7165
     0.7218   0.7248   0.7254   0.7300   0.7338   0.7387   0.7410   0.7435
     0.7483   0.7513   0.7569   0.7584   0.7617   0.7630   0.7794   0.7950
     0.7963   0.8080   0.8098   0.8303   0.8403   0.8440   0.8471   0.8547
     0.8624   0.8640   0.8672   0.8698   0.8775   0.8816   0.8912   0.8926
     0.8958   0.8969   0.8981   0.9000   0.9042   0.9078   0.9132   0.9235
     0.9272   0.9304   0.9381   0.9430   0.9468   0.9538   0.9593   0.9682
     0.9745   0.9758   0.9821   0.9911   0.9922   0.9955   1.0044   1.0069
     1.0147   1.0162   1.0270   1.0301   1.0365   1.0429   1.0526   1.0606
     1.0646   1.0740   1.0798   1.0901   1.0999   1.1067   1.1107   1.1143
     1.1180   1.1212   1.1279   1.1298   1.1309   1.1322   1.1341   1.1355
     1.1406   1.1419   1.1472   1.1518   1.1581   1.1614   1.1655   1.1684
     1.1752   1.1818   1.1956   1.1981   1.2036   1.2068   1.2105   1.2129
     1.2208   1.2222   1.2247   1.2274   1.2293   1.2309   1.2337   1.2367
     1.2421   1.2452   1.2461   1.2499   1.2514   1.2563   1.2588   1.2593
     1.2613   1.2741   1.2754   1.2835   1.2851   1.2919   1.2936   1.3049
     1.3108   1.3141   1.3220   1.3226   1.3275   1.3351   1.3406   1.3442
     1.3480   1.3513   1.3526   1.3557   1.3647   1.3687   1.3699   1.3769
     1.3814   1.3826   1.3863   1.3886   1.3895   1.3976   1.4036   1.4079
     1.4115   1.4146   1.4190   1.4229   1.4251   1.4259   1.4301   1.4343
     1.4360   1.4390   1.4432   1.4467   1.4510   1.4573   1.4597   1.4620
     1.4692   1.4737   1.4765   1.4783   1.4792   1.4801   1.4818   1.4837
     1.4858   1.4917   1.4954   1.5105   1.5200   1.5226   1.5276   1.5306
     1.5360   1.5374   1.5453   1.5474   1.5568   1.5622   1.5697   1.5749
     1.5830   1.5951   1.5978   1.6040   1.6125   1.6251   1.6328   1.6429
     1.6746   1.6796   1.7410   1.7426   1.7548   1.7935   1.8000   1.8040
     1.8185   1.8280   1.8386   1.8538   1.8842   1.9148   1.9710   2.0638
     2.1636   2.1710   2.2034   2.2905   2.3243   2.4252   2.6217   2.6303
     2.8133   2.8201   2.8248   2.8284   2.8561   2.8656   2.9663   2.9878
     3.0188   3.1123   3.1246   3.2757   3.5718   3.6201   3.6394   3.6994
     3.7209   3.7564   3.7943   3.8722   3.8895   3.9444   3.9718   4.0348
     4.1087   4.1338   4.1721   4.1980   4.2833   4.3506   4.4072   4.4568
     4.4665   4.6109   4.6244   4.6426   4.7066   4.7277   4.7788   4.8666
     4.9508   5.0293   5.0601   5.0942   5.1640   5.1880   5.3240   5.3874
     5.4405   5.4795   5.4856   5.5189   5.5833   5.7503   5.7844   5.8305
     5.8498   5.9141   5.9752   6.0092   6.0326   6.1464   6.6067   6.6319
     6.6674   6.6946   6.7894   6.8185   6.8221   6.8997   6.9251   7.0119
     7.0869   7.1009   7.1302   7.1431   7.1646   7.1974   7.2508   7.2586
     7.3259   7.3389   7.3980   7.4314   7.4589   7.4655   7.5708   7.6158
     7.6893   7.7469   7.8129   7.8759   7.8970   7.9199   8.0831   8.1275
     8.2012   8.2371   8.2415   8.3303   8.3380   8.4022   8.6326   8.6354
     8.6443   8.6569   8.6928   8.7385   8.7449   8.7769   8.8284   8.8397
     8.9392   8.9499   8.9998   9.0131   9.0776   9.1072   9.1589   9.2099
     9.2145   9.2260   9.2358   9.2535   9.2837   9.3116   9.3712   9.3822
     9.4546   9.4605   9.5103   9.5142   9.5995   9.6540   9.6690   9.6735
     9.9493   9.9948  10.0071  10.0204

          k =-0.5000 0.0000 0.0000 (256496 PWs)   bands (ev):

   -17.9782 -17.0130 -15.9071 -15.6846 -15.5515 -15.5337 -15.4857 -14.7503
   -14.5388 -14.4486 -14.3979 -13.1426 -12.8414 -12.7032 -12.6348 -12.3797
   -12.3419 -11.8553 -11.8302 -11.7398 -11.7217 -11.1822 -11.1463 -10.9319
   -10.6948 -10.2590 -10.2211  -9.9994  -9.6805  -9.0905  -9.0749  -8.9145
    -8.8855  -7.7653  -7.5808  -7.5451  -7.3549  -7.3052  -7.2739  -6.3257
    -6.2361  -6.1473  -5.7781  -5.2809  -5.2567  -5.2408  -5.0873  -4.9042
    -4.8164  -4.7927  -4.7821  -4.7672  -4.7607  -4.7428  -4.7057  -4.6770
    -4.6446  -4.6108  -4.5340  -4.4701  -4.4613  -4.3968  -4.3295  -4.3173
    -4.2045  -4.0455  -4.0418  -3.9538  -3.9088  -3.8568  -3.6411  -3.6320
    -3.5545  -3.5339  -3.5291  -3.5167  -3.5064  -3.4039  -3.3807  -3.3739
    -3.3636  -3.3497  -3.3117  -3.2985  -3.2302  -2.9800  -2.8953  -2.8896
    -2.8222  -2.7915  -2.7547  -2.7132  -2.6410  -2.5429  -2.5367  -2.5276
    -2.4757  -2.4203  -2.3702  -2.3165  -2.2668  -2.2133  -2.1926  -2.1009
    -1.8495  -1.8460  -1.8440  -1.8416  -1.8397  -1.8340  -1.8151  -1.7643
    -1.7279  -1.7192  -1.7043  -1.7038  -1.6362  -1.6172  -1.6136  -1.6106
    -1.6000  -1.5711  -1.5684  -1.5635  -1.5590  -1.4818  -1.4505  -1.4492
    -1.4386  -1.4311  -1.4255  -1.4081  -1.3962  -1.3930  -1.3816  -1.3743
    -1.3722  -1.3667  -1.3276  -1.3217  -1.3198  -1.3187  -1.3167  -1.3093
    -1.3062  -1.2957  -1.2910  -1.2631  -1.2562  -1.2548  -1.2528  -1.2397
    -1.2353  -1.2322  -1.2310  -1.1877  -1.1691  -1.1682  -1.1599  -1.1588
    -1.1477  -1.1441  -1.1424  -1.1267  -1.1247  -1.1187  -1.1130  -1.0956
    -1.0760  -1.0729  -1.0724  -1.0674  -1.0524  -1.0474  -1.0430  -1.0374
    -1.0231  -1.0212  -1.0185  -0.9899  -0.9711  -0.9637  -0.9570  -0.9488
    -0.9458  -0.9442  -0.9413  -0.9221  -0.9198  -0.9149  -0.9054  -0.9008
    -0.8941  -0.8907  -0.8894  -0.8880  -0.8847  -0.8734  -0.8671  -0.8485
    -0.8284  -0.8069  -0.7977  -0.7949  -0.7604  -0.7568  -0.7404  -0.6825
    -0.6797  -0.6786  -0.6762  -0.6526  -0.6459  -0.6417  -0.6413  -0.6367
    -0.6240  -0.6204  -0.6109  -0.6006  -0.5956  -0.5916  -0.5913  -0.5861
    -0.5833  -0.5752  -0.5634  -0.5618  -0.5551  -0.5511  -0.5294  -0.4838
    -0.4744  -0.4640  -0.4558  -0.4534  -0.4339  -0.4224  -0.4148  -0.4078
    -0.3866  -0.3826  -0.3727  -0.3712  -0.3680  -0.3652  -0.3599  -0.3359
    -0.3310  -0.3288  -0.3268  -0.3265  -0.3264  -0.3119  -0.3025  -0.2986
    -0.2918  -0.2826  -0.2647  -0.2603  -0.2563  -0.2557  -0.2494  -0.2477
    -0.2466  -0.2162  -0.2155  -0.2128  -0.2105  -0.2100  -0.2087  -0.1872
    -0.1709  -0.1660  -0.1626  -0.1370  -0.1054  -0.1047  -0.0969  -0.0950
    -0.0936  -0.0926  -0.0884  -0.0833  -0.0677  -0.0566  -0.0534  -0.0331
    -0.0311  -0.0143  -0.0099   0.0087   0.0099   0.0144   0.0147   0.0164
     0.0187   0.0195   0.0217   0.0243   0.0289   0.0292   0.0461   0.0502
     0.0786   0.0840   0.0930   0.0974   0.1022   0.1036   0.1047   0.1054
     0.1090   0.1100   0.1128   0.1146   0.1165   0.1208   0.1248   0.1328
     0.1353   0.1389   0.1439   0.1454   0.1461   0.1550   0.1599   0.1608
     0.1611   0.1618   0.1620   0.1670   0.1682   0.1716   0.1738   0.1831
     0.1867   0.1928   0.1946   0.1965   0.1974   0.2023   0.2099   0.2231
     0.2306   0.2798   0.2892   0.3053   0.3194   0.3284   0.3367   0.3398
     0.3493   0.3547   0.3580   0.3636   0.3684   0.3759   0.3799   0.3807
     0.3835   0.3857   0.3865   0.3872   0.3891   0.3896   0.3920   0.3934
     0.3976   0.3994   0.4071   0.4098   0.4116   0.4155   0.4163   0.4248
     0.4299   0.4325   0.4410   0.4441   0.4473   0.4649   0.4784   0.4855
     0.4932   0.5034   0.5240   0.5315   0.5360   0.5386   0.5435   0.5470
     0.5586   0.5621   0.5666   0.5707   0.5715   0.5731   0.5738   0.5765
     0.5784   0.5794   0.5817   0.5863   0.5870   0.5888   0.5935   0.6001
     0.6072   0.6136   0.6216   0.6255   0.6348   0.6395   0.6434   0.6458
     0.6525   0.6637   0.6641   0.6674   0.6721   0.6744   0.6750   0.6774
     0.6807   0.6817   0.6858   0.6920   0.6962   0.7040   0.7067   0.7088
     0.7140   0.7338   0.7390   0.7474   0.7478   0.7502   0.7539   0.7548
     0.7653   0.7671   0.7813   0.7919   0.7998   0.8087   0.8110   0.8189
     0.8353   0.8453   0.8536   0.8656   0.8715   0.8753   0.8796   0.8817
     0.8835   0.8847   0.8864   0.8897   0.8907   0.8980   0.8991   0.8999
     0.9071   0.9100   0.9224   0.9234   0.9259   0.9291   0.9305   0.9335
     0.9458   0.9492   0.9499   0.9556   0.9681   0.9752   0.9803   0.9846
     0.9875   1.0088   1.0215   1.0441   1.0486   1.0519   1.0540   1.0580
     1.0665   1.0737   1.0781   1.0863   1.0930   1.0973   1.1043   1.1063
     1.1123   1.1204   1.1286   1.1296   1.1313   1.1398   1.1435   1.1500
     1.1518   1.1552   1.1619   1.1639   1.1669   1.1671   1.1711   1.1721
     1.1773   1.1790   1.1801   1.1805   1.1823   1.1890   1.2050   1.2067
     1.2107   1.2185   1.2195   1.2203   1.2241   1.2330   1.2415   1.2459
     1.2544   1.2558   1.2597   1.2628   1.2672   1.2744   1.2805   1.2828
     1.2849   1.2860   1.2867   1.2887   1.2911   1.2942   1.2988   1.3049
     1.3108   1.3173   1.3270   1.3367   1.3424   1.3464   1.3497   1.3537
     1.3548   1.3560   1.3582   1.3594   1.3607   1.3624   1.3665   1.3678
     1.3685   1.3705   1.3724   1.3733   1.3749   1.3762   1.3771   1.3779
     1.3826   1.3878   1.3909   1.3971   1.4002   1.4050   1.4076   1.4169
     1.4192   1.4233   1.4255   1.4284   1.4319   1.4439   1.4485   1.4533
     1.4573   1.4585   1.4625   1.4668   1.4696   1.4740   1.4758   1.4804
     1.4873   1.4913   1.4965   1.4993   1.5027   1.5036   1.5066   1.5087
     1.5135   1.5163   1.5166   1.5173   1.5220   1.5332   1.5443   1.5532
     1.5552   1.5563   1.5572   1.5575   1.5591   1.5705   1.5763   1.5996
     1.6109   1.6179   1.6230   1.6385   1.6502   1.6518   1.6587   1.6608
     1.7307   1.7899   2.0626   2.0644   2.1540   2.1729   2.2738   2.2776
     2.3037   2.3247   2.3269   2.3526   2.3593   2.4280   2.6613   2.6709
     2.6799   2.7481   2.8615   2.8646   2.9568   3.0360   3.2151   3.2247
     3.2457   3.2641   3.5153   3.5617   3.7800   3.7815   3.8079   3.8565
     3.8712   3.9474   3.9637   4.0423   4.0920   4.0941   4.1223   4.1579
     4.1822   4.2631   4.3910   4.4433   4.4651   4.5530   4.7694   4.7969
     4.8181   4.8304   4.8519   4.8671   4.8934   4.9162   4.9626   5.0497
     5.0623   5.0641   5.0692   5.0780   5.0858   5.0920   5.1331   5.1505
     5.1539   5.1943   5.2629   5.3743   5.5159   5.5412   5.6182   5.6739
     5.7135   5.7818   5.8078   5.8372   5.9995   6.0250   6.0337   6.0520
     6.0835   6.0899   6.1278   6.2082   6.3591   6.4241   6.4356   6.4714
     6.4759   6.4959   6.5228   6.7365   7.1154   7.1324   7.1674   7.2206
     7.2379   7.3238   7.6129   7.6372   7.6421   7.6462   7.6487   7.6559
     7.7231   7.7706   7.8432   7.8683   7.9205   7.9391   7.9466   7.9895
     8.0545   8.0654   8.1075   8.1403   8.1763   8.1794   8.2104   8.2616
     8.4557   8.5647   8.6774   8.7107   8.7331   8.7445   8.8372   8.8596
     8.8756   8.8884   8.9286   9.0258   9.0277   9.0847   9.1138   9.1430
     9.1663   9.2673   9.3149   9.3451   9.4106   9.4191   9.5329   9.5334
     9.5343   9.5363   9.5592   9.5704   9.5799   9.6348   9.6740   9.7285
     9.8571   9.8815  10.0203  10.0514

          k =-0.5000-0.2165 0.0000 (256328 PWs)   bands (ev):

   -17.9782 -17.0128 -15.8641 -15.7551 -15.7340 -15.3266 -15.1404 -15.0786
   -15.0345 -13.9906 -13.7704 -13.6402 -13.5983 -12.6033 -12.3823 -11.9389
   -11.9334 -11.8646 -11.7074 -11.6086 -11.5291 -11.4689 -11.4639 -11.3571
   -11.3363  -9.9659  -9.9546  -9.7089  -9.6631  -9.1581  -8.8520  -8.7215
    -8.6977  -8.2144  -8.1704  -7.9628  -7.9444  -6.4771  -6.3317  -6.2697
    -6.0660  -5.8963  -5.7766  -5.5579  -5.3110  -5.2556  -5.2421  -5.1588
    -5.1497  -5.1465  -5.1340  -5.1115  -4.9538  -4.9443  -4.5406  -4.4522
    -4.3267  -4.3110  -4.2883  -4.2841  -4.1980  -4.1974  -4.1759  -4.1605
    -4.1591  -4.1486  -4.0292  -3.9768  -3.8358  -3.8237  -3.8161  -3.8046
    -3.6956  -3.6894  -3.6717  -3.6361  -3.6201  -3.5567  -3.5484  -3.5366
    -3.4472  -3.4034  -3.1540  -3.0580  -3.0479  -3.0203  -2.9963  -2.7398
    -2.5761  -2.5570  -2.5429  -2.5408  -2.5337  -2.5133  -2.4887  -2.4735
    -2.4487  -2.3579  -2.3327  -2.3014  -2.1244  -2.1057  -2.0686  -2.0583
    -2.0433  -2.0341  -1.9994  -1.9911  -1.9700  -1.9616  -1.9516  -1.9118
    -1.8409  -1.7701  -1.7690  -1.7652  -1.7554  -1.6891  -1.6288  -1.5779
    -1.5214  -1.4840  -1.4638  -1.4633  -1.4606  -1.4563  -1.4542  -1.4482
    -1.4188  -1.4153  -1.4042  -1.3966  -1.3943  -1.3941  -1.3920  -1.3711
    -1.3535  -1.3532  -1.3502  -1.3485  -1.3454  -1.3444  -1.3411  -1.3244
    -1.3222  -1.3217  -1.3208  -1.3001  -1.2742  -1.2714  -1.2680  -1.2531
    -1.2495  -1.2022  -1.1902  -1.1835  -1.1617  -1.1558  -1.1551  -1.1543
    -1.1495  -1.1385  -1.1322  -1.1150  -1.1122  -1.0860  -1.0837  -1.0828
    -1.0807  -1.0779  -1.0761  -1.0688  -1.0682  -1.0639  -1.0597  -1.0270
    -1.0237  -1.0230  -1.0184  -1.0177  -1.0150  -1.0089  -1.0069  -1.0047
    -1.0025  -1.0011  -0.9994  -0.9938  -0.9913  -0.9833  -0.9795  -0.9679
    -0.8573  -0.8464  -0.8430  -0.8238  -0.8199  -0.8189  -0.8163  -0.7810
    -0.7567  -0.7501  -0.7446  -0.7392  -0.7333  -0.7314  -0.7281  -0.7264
    -0.7216  -0.7181  -0.7118  -0.7086  -0.6716  -0.6655  -0.6644  -0.6583
    -0.6518  -0.6504  -0.6455  -0.6443  -0.6348  -0.6256  -0.6233  -0.6131
    -0.5691  -0.5460  -0.5348  -0.5327  -0.5286  -0.5273  -0.5256  -0.4936
    -0.4728  -0.4691  -0.4528  -0.4386  -0.4153  -0.4137  -0.4125  -0.4114
    -0.3997  -0.3947  -0.3919  -0.3863  -0.3843  -0.3654  -0.3630  -0.3603
    -0.3576  -0.3551  -0.3474  -0.3417  -0.3346  -0.3240  -0.3080  -0.2923
    -0.2481  -0.2417  -0.2387  -0.2344  -0.2298  -0.2199  -0.2191  -0.2182
    -0.2154  -0.2030  -0.2008  -0.1994  -0.1684  -0.1396  -0.1332  -0.1283
    -0.1245  -0.1189  -0.1161  -0.1124  -0.1117  -0.1098  -0.1031  -0.1027
    -0.0747  -0.0734  -0.0731  -0.0683  -0.0671  -0.0655  -0.0606  -0.0586
    -0.0551  -0.0545  -0.0536  -0.0494  -0.0215  -0.0060  -0.0038   0.0053
     0.0123   0.0208   0.0282   0.0412   0.0468   0.0639   0.0796   0.0848
     0.0916   0.0991   0.1050   0.1080   0.1118   0.1145   0.1164   0.1185
     0.1204   0.1234   0.1254   0.1262   0.1288   0.1329   0.1334   0.1368
     0.1392   0.1433   0.1443   0.1483   0.1488   0.1513   0.1520   0.1573
     0.1615   0.1626   0.1656   0.1712   0.1871   0.1918   0.1920   0.1926
     0.1964   0.1977   0.2052   0.2128   0.2223   0.2360   0.2496   0.2505
     0.2588   0.2702   0.2770   0.2783   0.2894   0.3101   0.3166   0.3412
     0.3511   0.3570   0.3622   0.3650   0.3669   0.3738   0.3767   0.3817
     0.3870   0.3881   0.3891   0.3930   0.3957   0.3984   0.3987   0.4047
     0.4057   0.4063   0.4105   0.4138   0.4186   0.4214   0.4255   0.4328
     0.4370   0.4416   0.4448   0.4524   0.4644   0.4649   0.4753   0.4799
     0.4872   0.5071   0.5104   0.5110   0.5136   0.5144   0.5250   0.5274
     0.5357   0.5437   0.5460   0.5502   0.5538   0.5578   0.5579   0.5674
     0.5746   0.5833   0.5872   0.5902   0.5961   0.5990   0.6045   0.6076
     0.6106   0.6113   0.6151   0.6180   0.6194   0.6222   0.6243   0.6283
     0.6299   0.6316   0.6328   0.6410   0.6468   0.6633   0.6808   0.6876
     0.6931   0.7068   0.7150   0.7163   0.7184   0.7206   0.7260   0.7293
     0.7301   0.7318   0.7397   0.7414   0.7501   0.7521   0.7596   0.7617
     0.7660   0.7667   0.7720   0.7728   0.7742   0.7749   0.7752   0.7990
     0.8126   0.8219   0.8244   0.8273   0.8349   0.8419   0.8542   0.8549
     0.8608   0.8687   0.8769   0.8864   0.8901   0.8913   0.8955   0.8971
     0.9071   0.9121   0.9156   0.9445   0.9588   0.9671   0.9732   0.9776
     0.9816   1.0017   1.0072   1.0195   1.0263   1.0367   1.0413   1.0463
     1.0508   1.0549   1.0585   1.0629   1.0644   1.0683   1.0707   1.0771
     1.0820   1.0847   1.0858   1.0866   1.0876   1.0891   1.0908   1.0919
     1.0936   1.1039   1.1057   1.1087   1.1147   1.1155   1.1165   1.1213
     1.1224   1.1256   1.1302   1.1349   1.1362   1.1433   1.1525   1.1615
     1.1632   1.1648   1.1659   1.1682   1.1697   1.1739   1.1753   1.1824
     1.1847   1.1848   1.1949   1.2121   1.2205   1.2290   1.2340   1.2345
     1.2367   1.2428   1.2483   1.2526   1.2589   1.2612   1.2634   1.2704
     1.2708   1.2746   1.2832   1.2894   1.2917   1.2958   1.3026   1.3062
     1.3104   1.3139   1.3188   1.3197   1.3215   1.3238   1.3262   1.3296
     1.3305   1.3490   1.3591   1.3604   1.3791   1.3840   1.3852   1.3883
     1.3890   1.3949   1.3963   1.3969   1.3979   1.4030   1.4052   1.4068
     1.4095   1.4135   1.4166   1.4172   1.4210   1.4219   1.4221   1.4247
     1.4274   1.4304   1.4309   1.4332   1.4344   1.4384   1.4413   1.4436
     1.4456   1.4477   1.4505   1.4525   1.4548   1.4674   1.4765   1.4824
     1.4875   1.4900   1.4911   1.4928   1.4973   1.5066   1.5115   1.5157
     1.5254   1.5307   1.5371   1.5415   1.5421   1.5439   1.5594   1.5728
     1.5835   1.5897   1.5933   1.6135   1.6147   1.6165   1.6251   1.6301
     1.6351   1.6434   1.6444   1.6459   1.6482   1.6528   1.6555   1.6582
     1.6604   1.7008   1.7412   1.7935   1.8687   1.8698   2.0052   2.0744
     2.3859   2.3897   2.3971   2.4724   2.5937   2.5964   2.6080   2.6732
     2.8212   2.8233   2.9127   2.9645   3.1261   3.1415   3.1750   3.3309
     3.4878   3.4884   3.5212   3.5277   3.6755   3.6775   3.7267   3.7935
     3.9492   3.9645   3.9801   3.9932   4.0264   4.2556   4.2666   4.2737
     4.3129   4.3623   4.3771   4.3963   4.4210   4.5459   4.5740   4.5743
     4.5965   4.6311   4.7022   4.7205   4.7880   4.8713   4.8792   4.9394
     4.9607   5.0531   5.0822   5.1118   5.1930   5.2011   5.2113   5.2391
     5.2714   5.2986   5.3216   5.3802   5.4201   5.4621   5.5125   5.5437
     5.6033   5.6964   5.7546   5.7677   5.7770   5.7883   5.7967   5.8783
     5.9072   5.9255   5.9415   6.3236   6.7877   6.8185   6.8415   6.8451
     7.1251   7.1543   7.1621   7.1646   7.1873   7.2263   7.2505   7.2719
     7.3000   7.3295   7.3463   7.3857   7.4119   7.4285   7.4463   7.5010
     7.5343   7.6542   7.6782   7.7637   7.7826   7.8723   7.8916   7.9649
     7.9892   8.0643   8.1460   8.1875   8.2425   8.2552   8.2970   8.3396
     8.3905   8.3969   8.4319   8.5988   8.9182   8.9300   8.9322   8.9651
     8.9665   8.9681   8.9735   8.9810   9.0015   9.0471   9.0651   9.1414
     9.1515   9.1578   9.1588   9.2191   9.3443   9.3490   9.3744   9.3938
     9.4942   9.5581   9.5766   9.5909   9.6188   9.6741   9.7300   9.7457
     9.9604   9.9986  10.0007  10.0036

     the Fermi energy is     3.3662 ev

!    total energy              =  -12740.14873032 Ry
     Harris-Foulkes estimate   =  -12740.14873026 Ry
     estimated scf accuracy    <          9.9E-09 Ry

     The total energy is the sum of the following terms:

     one-electron contribution = -109494.40812448 Ry
     hartree contribution      =   56113.67164808 Ry
     xc contribution           =   -4455.62154413 Ry
     ewald contribution        =   45102.56087558 Ry
     Dispersion Correction     =      -2.99769418 Ry
     smearing contrib. (-TS)   =      -3.35389119 Ry

     convergence has been achieved in  43 iterations

     Writing output data file gc.save
 
     init_run     :    101.49s CPU    108.84s WALL (       1 calls)
     electrons    :  11921.24s CPU  12751.89s WALL (       1 calls)

     Called by init_run:
     wfcinit      :     98.94s CPU    105.79s WALL (       1 calls)
     potinit      :      0.50s CPU      0.55s WALL (       1 calls)

     Called by electrons:
     c_bands      :  10927.17s CPU  11654.63s WALL (      43 calls)
     sum_band     :    805.70s CPU    878.10s WALL (      43 calls)
     v_of_rho     :      2.79s CPU      3.53s WALL (      44 calls)
     newd         :      9.21s CPU     15.07s WALL (      44 calls)
     mix_rho      :    176.19s CPU    198.54s WALL (      43 calls)

     Called by c_bands:
     init_us_2    :     36.07s CPU     36.65s WALL (     522 calls)
     cegterg      :  10763.62s CPU  11479.50s WALL (     264 calls)

     Called by sum_band:
     sum_band:bec :      4.56s CPU      5.19s WALL (     258 calls)
     addusdens    :      9.26s CPU     14.93s WALL (      43 calls)

     Called by *egterg:
     h_psi        :   4029.55s CPU   4357.94s WALL (    1739 calls)
     s_psi        :    985.64s CPU    996.92s WALL (    1739 calls)
     g_psi        :     10.24s CPU     10.24s WALL (    1469 calls)
     cdiaghg      :   2937.04s CPU   3050.19s WALL (    1727 calls)

     Called by h_psi:
     add_vuspsi   :    990.77s CPU   1003.53s WALL (    1739 calls)

     General routines
     calbec       :   1394.62s CPU   1404.56s WALL (    1997 calls)
     fft          :      4.17s CPU      4.79s WALL (     571 calls)
     ffts         :    101.99s CPU    115.19s WALL (   26822 calls)
     fftw         :   2288.17s CPU   2556.84s WALL ( 1268362 calls)
     davcio       :      0.24s CPU      3.37s WALL (       6 calls)
 
     Parallel routines
     fft_scatter  :   1491.53s CPU   1641.43s WALL ( 1295755 calls)
 
     PWSCF        :     3h20m CPU        3h34m WALL

 
   This run was terminated on:   1:38:43   3Feb2017            

=------------------------------------------------------------------------------=
   JOB DONE.
=------------------------------------------------------------------------------=
