
     Program PWSCF v.5.4.0 starts on  9Apr2017 at  9:57:49 

     This program is part of the open-source Quantum ESPRESSO suite
     for quantum simulation of materials; please cite
         "P. Giannozzi et al., J. Phys.:Condens. Matter 21 395502 (2009);
          URL http://www.quantum-espresso.org", 
     in publications or presentations arising from this work. More details at
     http://www.quantum-espresso.org/quote

     Parallel version (MPI & OpenMP), running on      56 processor cores
     Number of MPI processes:                56
     Threads/MPI process:                     1
     R & G space division:  proc/nbgrp/npool/nimage =      56
     Waiting for input...
     Reading input from standard input
Warning: card &IONS ignored
Warning: card / ignored

     Current dimensions of program PWSCF are:
     Max number of different atomic species (ntypx) = 10
     Max number of k-points (npk) =  40000
     Max angular momentum in pseudopotentials (lmaxx) =  3
     WARNING: atomic wfc #  2 for atom type 4 has zero norm
     WARNING: atomic wfc #  4 for atom type 4 has zero norm
     WARNING: atomic wfc #  5 for atom type 4 has zero norm

     -------------------------------------
     Parameters for Dispersion Correction:
     -------------------------------------
       atom      VdW radius       C_6     

        Cu         2.952        374.666
        C_h        2.744         60.710
        C          2.744         60.710
        O          2.536         24.284

     Subspace diagonalization in iterative solution of the eigenvalue problem:
     one sub-group per band group will be used
     scalapack distributed-memory algorithm (size of sub-group:  5*  5 procs)

 
     Parallelization info
     --------------------
     sticks:   dense  smooth     PW     G-vecs:    dense   smooth      PW
     Min         204     204     54                36612    36612    4962
     Max         205     205     55                36617    36617    4968
     Sum       11433   11433   3039              2050409  2050409  278033
 
     Generating pointlists ...
     new r_m :   0.1382 (alat units)  1.9275 (a.u.) for type    1
     new r_m :   0.0791 (alat units)  1.1028 (a.u.) for type    2
     new r_m :   0.0786 (alat units)  1.0964 (a.u.) for type    3
     new r_m :   0.0791 (alat units)  1.1028 (a.u.) for type    4


     bravais-lattice index     =            0
     lattice parameter (alat)  =      13.9425  a.u.
     unit-cell volume          =   21209.0878 (a.u.)^3
     number of atoms/cell      =          149
     number of atomic types    =            4
     number of electrons       =      1298.00
     number of Kohn-Sham states=          779
     kinetic-energy cutoff     =      80.0000  Ry
     charge density cutoff     =     320.0000  Ry
     convergence threshold     =      1.0E-08
     mixing beta               =       0.7000
     number of iterations used =            8  local-TF  mixing
     Exchange-correlation      =  SLA  PW   PBX  PBC ( 1  4  3  4 0 0)

     celldm(1)=  13.942539  celldm(2)=   0.000000  celldm(3)=   0.000000
     celldm(4)=   0.000000  celldm(5)=   0.000000  celldm(6)=   0.000000

     crystal axes: (cart. coord. in units of alat)
               a(1) = (   1.000000   0.000000   0.000000 )  
               a(2) = (   0.000000   2.309401   0.000000 )  
               a(3) = (   0.000000   0.000000   3.388418 )  

     reciprocal axes: (cart. coord. in units 2 pi/alat)
               b(1) = (  1.000000  0.000000  0.000000 )  
               b(2) = (  0.000000  0.433013  0.000000 )  
               b(3) = (  0.000000  0.000000  0.295123 )  


     PseudoPot. # 1 for Cu read from file:
     /home/549/hxw549/Short/pseudopotentials/Cu.pbe-n-van_ak.UPF
     MD5 check sum: 601f7c30f7467666bec936e0661ce3e1
     Pseudo is Ultrasoft + core correction, Zval = 11.0
     Generated by new atomic code, or converted to UPF format
     Using radial grid of  867 points,  6 beta functions with: 
                l(1) =   0
                l(2) =   0
                l(3) =   1
                l(4) =   1
                l(5) =   2
                l(6) =   2
     Q(r) pseudized with  8 coefficients,  rinner =    1.400   1.400   1.400
                                                       1.400   1.400

     PseudoPot. # 2 for C  read from file:
     /home/549/hxw549/Short/pseudopotentials/C.star1s-pbe-mt_gipaw.UPF
     MD5 check sum: ef0cb3dee31bd9e4ba2a832a2c716264
     Pseudo is Norm-conserving, Zval =  5.0
     Generated by new atomic code, or converted to UPF format
     Using radial grid of 1073 points,  1 beta functions with: 
                l(1) =   0

     PseudoPot. # 3 for C  read from file:
     /home/549/hxw549/Short/pseudopotentials/C.pbe-mt_gipaw.UPF
     MD5 check sum: 5ac2f21f2c440b14befe521540822c15
     Pseudo is Norm-conserving, Zval =  4.0
     Generated by new atomic code, or converted to UPF format
     Using radial grid of 1073 points,  1 beta functions with: 
                l(1) =   0

     PseudoPot. # 4 for O  read from file:
     /home/549/hxw549/Short/pseudopotentials/O.pbe-van_gipaw.UPF
     MD5 check sum: 5ce2a047509d4f331db576c963e74b29
     Pseudo is Ultrasoft, Zval =  6.0
     Generated by new atomic code, or converted to UPF format
     Using radial grid of 1095 points,  4 beta functions with: 
                l(1) =   0
                l(2) =   0
                l(3) =   1
                l(4) =   1
     Q(r) pseudized with 0 coefficients 


     atomic species   valence    mass     pseudopotential
        Cu            11.00    63.54600     Cu( 1.00)
        C_h            5.00    12.01070     C ( 1.00)
        C              4.00    12.01070     C ( 1.00)
        O              6.00    15.99940     O ( 1.00)

     Starting magnetic structure 
     atomic species   magnetization
        Cu           0.000
        C_h          0.000
        C            0.000
        O            1.000

     No symmetry found



   Cartesian axes

     site n.     atom                  positions (alat units)
         1           Cu  tau(   1) = (   0.0001178   0.0001751   0.9991399  )
         2           Cu  tau(   2) = (   0.2500647   0.2315788   0.9992879  )
         3           Cu  tau(   3) = (   0.5001090   0.0002824   0.9991514  )
         4           Cu  tau(   4) = (   0.7501448   0.2315979   0.9993693  )
         5           Cu  tau(   5) = (   0.0000932   0.4624661   0.9992448  )
         6           Cu  tau(   6) = (   0.2501040   0.6930408   0.9987587  )
         7           Cu  tau(   7) = (   0.5001044   0.4624308   0.9992470  )
         8           Cu  tau(   8) = (   0.7500909   0.6930451   0.9988127  )
         9           Cu  tau(   9) = (   0.0000907   0.9236195   0.9983746  )
        10           Cu  tau(  10) = (   0.2501315   1.1542013   0.9984774  )
        11           Cu  tau(  11) = (   0.5001085   0.9236121   0.9984107  )
        12           Cu  tau(  12) = (   0.7500776   1.1542041   0.9985334  )
        13           Cu  tau(  13) = (   0.0001210   1.3847107   0.9989336  )
        14           Cu  tau(  14) = (   0.2501076   1.6153136   0.9993453  )
        15           Cu  tau(  15) = (   0.5001016   1.3847235   0.9991112  )
        16           Cu  tau(  16) = (   0.7501325   1.6152607   0.9994161  )
        17           Cu  tau(  17) = (   0.0000836   1.8463185   0.9992677  )
        18           Cu  tau(  18) = (   0.2501939   2.0778557   0.9990932  )
        19           Cu  tau(  19) = (   0.5001665   1.8462421   0.9993297  )
        20           Cu  tau(  20) = (   0.7500499   2.0778858   0.9990886  )
        21           Cu  tau(  21) = (   0.0001201   0.2315510   1.2474060  )
        22           Cu  tau(  22) = (   0.2501297   0.0000932   1.2468084  )
        23           Cu  tau(  23) = (   0.5000985   0.2315859   1.2474013  )
        24           Cu  tau(  24) = (   0.7501392   0.0000369   1.2467986  )
        25           Cu  tau(  25) = (   0.0000837   0.6935790   1.2476031  )
        26           Cu  tau(  26) = (   0.2500834   0.4627990   1.2476878  )
        27           Cu  tau(  27) = (   0.5000729   0.6935238   1.2475645  )
        28           Cu  tau(  28) = (   0.7500921   0.4627963   1.2477406  )
        29           Cu  tau(  29) = (   0.0001043   1.1538633   1.2473903  )
        30           Cu  tau(  30) = (   0.2500740   0.9237755   1.2473144  )
        31           Cu  tau(  31) = (   0.5000779   1.1537741   1.2475188  )
        32           Cu  tau(  32) = (   0.7500848   0.9237806   1.2473699  )
        33           Cu  tau(  33) = (   0.0001394   1.6150341   1.2477604  )
        34           Cu  tau(  34) = (   0.2501124   1.3841605   1.2478282  )
        35           Cu  tau(  35) = (   0.5001301   1.6150934   1.2478863  )
        36           Cu  tau(  36) = (   0.7501066   1.3841739   1.2478487  )
        37           Cu  tau(  37) = (   0.0001703   2.0778855   1.2466178  )
        38           Cu  tau(  38) = (   0.2501557   1.8463742   1.2472016  )
        39           Cu  tau(  39) = (   0.5001379   2.0779082   1.2466660  )
        40           Cu  tau(  40) = (   0.7501553   1.8464101   1.2472347  )
        41           Cu  tau(  41) = (   0.0001561  -0.0004210   1.4957109  )
        42           Cu  tau(  42) = (   0.2501545   0.2312899   1.4963241  )
        43           Cu  tau(  43) = (   0.5001223  -0.0003473   1.4956858  )
        44           Cu  tau(  44) = (   0.7500415   0.2311756   1.4962428  )
        45           Cu  tau(  45) = (   0.0000797   0.4629130   1.4969910  )
        46           Cu  tau(  46) = (   0.2500644   0.6939574   1.4977027  )
        47           Cu  tau(  47) = (   0.5000448   0.4629913   1.4971228  )
        48           Cu  tau(  48) = (   0.7500213   0.6939388   1.4976647  )
        49           Cu  tau(  49) = (   0.0000772   0.9240249   1.4981269  )
        50           Cu  tau(  50) = (   0.2500138   1.1533268   1.4981828  )
        51           Cu  tau(  51) = (   0.4999981   0.9236958   1.4981756  )
        52           Cu  tau(  52) = (   0.7500898   1.1534051   1.4980997  )
        53           Cu  tau(  53) = (   0.0000854   1.3837290   1.4977758  )
        54           Cu  tau(  54) = (   0.2500811   1.6151223   1.4969711  )
        55           Cu  tau(  55) = (   0.5000715   1.3836600   1.4977194  )
        56           Cu  tau(  56) = (   0.7501512   1.6151612   1.4969707  )
        57           Cu  tau(  57) = (   0.0001647   1.8467653   1.4961187  )
        58           Cu  tau(  58) = (   0.2501492   2.0780074   1.4956995  )
        59           Cu  tau(  59) = (   0.5001483   1.8469374   1.4962451  )
        60           Cu  tau(  60) = (   0.7501797   2.0780088   1.4957512  )
        61           Cu  tau(  61) = (   0.0001434   0.2303911   1.7440553  )
        62           Cu  tau(  62) = (   0.2502640  -0.0007400   1.7447773  )
        63           Cu  tau(  63) = (   0.5000564   0.2301922   1.7446801  )
        64           Cu  tau(  64) = (   0.7499969  -0.0007135   1.7448307  )
        65           Cu  tau(  65) = (   0.0000745   0.6935765   1.7472176  )
        66           Cu  tau(  66) = (   0.2505720   0.4624882   1.7457398  )
        67           Cu  tau(  67) = (   0.5000325   0.6937721   1.7485044  )
        68           Cu  tau(  68) = (   0.7495773   0.4622837   1.7454788  )
        69           Cu  tau(  69) = (   0.0000649   1.1534345   1.7495728  )
        70           Cu  tau(  70) = (   0.2503992   0.9235614   1.7498004  )
        71           Cu  tau(  71) = (   0.5000004   1.1529972   1.7490166  )
        72           Cu  tau(  72) = (   0.7496815   0.9236872   1.7494164  )
        73           Cu  tau(  73) = (   0.0000855   1.6159662   1.7455781  )
        74           Cu  tau(  74) = (   0.2497537   1.3839283   1.7470177  )
        75           Cu  tau(  75) = (   0.5000619   1.6158775   1.7448370  )
        76           Cu  tau(  76) = (   0.7503425   1.3839909   1.7469833  )
        77           Cu  tau(  77) = (   0.0000998   2.0779821   1.7452386  )
        78           Cu  tau(  78) = (   0.2499195   1.8474556   1.7449487  )
        79           Cu  tau(  79) = (   0.5001760   2.0783808   1.7453206  )
        80           Cu  tau(  80) = (   0.7503055   1.8474368   1.7450066  )
        81           Cu  tau(  81) = (   0.0000913  -0.0001846   1.9906150  )
        82           Cu  tau(  82) = (   0.2499008   0.2299686   1.9899715  )
        83           Cu  tau(  83) = (   0.5001755  -0.0003051   1.9924353  )
        84           Cu  tau(  84) = (   0.7503545   0.2299454   1.9900033  )
        85           Cu  tau(  85) = (   0.0000150   0.4609338   1.9884698  )
        86           Cu  tau(  86) = (   0.2526326   0.6910888   1.9945534  )
        87           Cu  tau(  87) = (   0.5002257   0.4585509   1.9920995  )
        88           Cu  tau(  88) = (   0.7476506   0.6911566   1.9938358  )
        89           Cu  tau(  89) = (   0.0000269   0.9212800   1.9947875  )
        90           Cu  tau(  90) = (   0.2501613   1.1549799   1.9964917  )
        91           Cu  tau(  91) = (   0.5001528   0.9243607   2.0003832  )
        92           Cu  tau(  92) = (   0.7499540   1.1549185   1.9962842  )
        93           Cu  tau(  93) = (  -0.0000171   1.3864821   1.9936837  )
        94           Cu  tau(  94) = (   0.2496421   1.6167895   1.9902549  )
        95           Cu  tau(  95) = (   0.5001156   1.3865848   1.9912321  )
        96           Cu  tau(  96) = (   0.7504721   1.6169147   1.9903198  )
        97           Cu  tau(  97) = (   0.0001452   1.8476448   1.9922626  )
        98           Cu  tau(  98) = (   0.2502472   2.0782997   1.9914950  )
        99           Cu  tau(  99) = (   0.5000204   1.8469043   1.9903178  )
       100           Cu  tau( 100) = (   0.7499866   2.0781930   1.9916427  )
       101           C   tau( 101) = (  -0.0000031   0.0971043   2.3879420  )
       102           C   tau( 102) = (  -0.0000524   0.2892846   2.3845655  )
       103           C   tau( 103) = (   0.1666660   0.0010496   2.3880821  )
       104           C   tau( 104) = (   0.1662983   0.3853857   2.3800619  )
       105           C   tau( 105) = (   0.3331661   0.0971851   2.3854343  )
       106           C   tau( 106) = (   0.3330371   0.2894063   2.3808165  )
       107           C   tau( 107) = (   0.5000001   0.0008852   2.3858518  )
       108           C   tau( 108) = (   0.4998997   0.3862011   2.3779419  )
       109           C   tau( 109) = (   0.6668162   0.0971870   2.3857123  )
       110           C   tau( 110) = (   0.6668276   0.2894144   2.3811848  )
       111           C   tau( 111) = (   0.8333307   0.0010413   2.3884541  )
       112           C   tau( 112) = (   0.8335336   0.3853915   2.3804495  )
       113           C   tau( 113) = (  -0.0001756   0.6740120   2.3734364  )
       114           C   tau( 114) = (  -0.0002095   0.8665229   2.3686346  )
       115           C   tau( 115) = (   0.1660471   0.5775765   2.3741779  )
       116           C   tau( 116) = (   0.1667453   0.9625008   2.3748476  )
       117           C   tau( 117) = (   0.3324872   0.6745332   2.3738281  )
       118           C   tau( 118) = (   0.3307487   0.8654330   2.3798499  )
       119           C   tau( 119) = (   0.4998391   0.5778621   2.3760650  )
       120           C_h tau( 120) = (   0.4996895   0.9621637   2.4356682  )
       121           O   tau( 121) = (   0.4987041   0.9573919   2.6273532  )
       122           C   tau( 122) = (   0.6671796   0.6745385   2.3743426  )
       123           C   tau( 123) = (   0.6688087   0.8654535   2.3800444  )
       124           C   tau( 124) = (   0.8336398   0.5775636   2.3746523  )
       125           C   tau( 125) = (   0.8328414   0.9625091   2.3750327  )
       126           C   tau( 126) = (  -0.0001226   1.2514969   2.3780858  )
       127           C   tau( 127) = (  -0.0000580   1.4446335   2.3767340  )
       128           C   tau( 128) = (   0.1665618   1.1557680   2.3784869  )
       129           C   tau( 129) = (   0.1667114   1.5410833   2.3789669  )
       130           C   tau( 130) = (   0.3338787   1.2526757   2.3819609  )
       131           C   tau( 131) = (   0.3334272   1.4452607   2.3812252  )
       132           C   tau( 132) = (   0.4998303   1.1589812   2.3878147  )
       133           C   tau( 133) = (   0.4999354   1.5412396   2.3843628  )
       134           C   tau( 134) = (   0.6658220   1.2526489   2.3820371  )
       135           C   tau( 135) = (   0.6664446   1.4452600   2.3811871  )
       136           C   tau( 136) = (   0.8331461   1.1557891   2.3786206  )
       137           C   tau( 137) = (   0.8331791   1.5411000   2.3788400  )
       138           C   tau( 138) = (   0.0000179   1.8297592   2.3820829  )
       139           C   tau( 139) = (   0.0000276   2.0220587   2.3867410  )
       140           C   tau( 140) = (   0.1668445   1.7334918   2.3820555  )
       141           C   tau( 141) = (   0.1666563   2.1181397   2.3871975  )
       142           C   tau( 142) = (   0.3333905   1.8295594   2.3863147  )
       143           C   tau( 143) = (   0.3334142   2.0218884   2.3874303  )
       144           C   tau( 144) = (   0.4999921   1.7335804   2.3866084  )
       145           C   tau( 145) = (   0.5000164   2.1179819   2.3890180  )
       146           C   tau( 146) = (   0.6666062   1.8295781   2.3867473  )
       147           C   tau( 147) = (   0.6665755   2.0218860   2.3882889  )
       148           C   tau( 148) = (   0.8331746   1.7335137   2.3821733  )
       149           C   tau( 149) = (   0.8333866   2.1181027   2.3878917  )

     number of k points=     6  gaussian smearing, width (Ry)=  0.1000
                       cart. coord. in units 2pi/alat
        k(    1) = (   0.0000000   0.0000000   0.0000000), wk =   0.1250000
        k(    2) = (   0.0000000  -0.2165064   0.0000000), wk =   0.1250000
        k(    3) = (   0.2500000   0.0000000   0.0000000), wk =   0.2500000
        k(    4) = (   0.2500000  -0.2165064   0.0000000), wk =   0.2500000
        k(    5) = (  -0.5000000   0.0000000   0.0000000), wk =   0.1250000
        k(    6) = (  -0.5000000  -0.2165064   0.0000000), wk =   0.1250000

     Dense  grid:  2050409 G-vectors     FFT dimensions: (  80, 192, 270)

     Largest allocated arrays     est. size (Mb)     dimensions
        Kohn-Sham Wavefunctions        54.73 Mb     (    4604,  779)
        NL pseudopotentials           130.39 Mb     (    4604, 1856)
        Each V/rho on FFT grid          2.34 Mb     (   76800,   2)
        Each G-vector array             0.28 Mb     (   36616)
        G-vector shells                 0.14 Mb     (   17932)
     Largest temporary arrays     est. size (Mb)     dimensions
        Auxiliary wavefunctions       218.90 Mb     (    4604, 3116)
        Each subspace H/S matrix        5.92 Mb     (     623,  623)
        Each <psi_i|beta_j> matrix     22.06 Mb     (    1856,  779)
        Arrays for rho mixing           9.38 Mb     (   76800,    8)

     Initial potential from superposition of free atoms
     Check: negative starting charge=(component1):   -0.000885
     Check: negative starting charge=(component2):   -0.000929

     starting charge 1272.81751, renormalised to 1298.00000

     negative rho (up, down):  9.020E-04 9.471E-04
     Starting wfc are 1288 randomized atomic wfcs

     total cpu time spent up to now is      212.9 secs

     Self-consistent Calculation

     iteration #  1     ecut=    80.00 Ry     beta=0.70
     Davidson diagonalization with overlap
     c_bands:  3 eigenvalues not converged
     c_bands:  4 eigenvalues not converged
     c_bands:  1 eigenvalues not converged
     c_bands:  3 eigenvalues not converged
     ethr =  1.00E-04,  avg # of iterations = 26.3

     negative rho (up, down):  1.219E+01 1.372E+01

     total cpu time spent up to now is     3905.6 secs

     total energy              =   -9805.51278157 Ry
     Harris-Foulkes estimate   =  -17277.66811575 Ry
     estimated scf accuracy    <  177500.07251040 Ry

     total magnetization       =     3.25 Bohr mag/cell
     absolute magnetization    =     4.15 Bohr mag/cell

     iteration #  2     ecut=    80.00 Ry     beta=0.70
     Davidson diagonalization with overlap
     ethr =  1.00E-02,  avg # of iterations = 11.7

     negative rho (up, down):  1.481E+01 1.508E+01

     total cpu time spent up to now is     5705.5 secs

     total energy              =  -12307.10877791 Ry
     Harris-Foulkes estimate   =  -13651.95220207 Ry
     estimated scf accuracy    <   22351.96619281 Ry

     total magnetization       =     0.29 Bohr mag/cell
     absolute magnetization    =     1.13 Bohr mag/cell

     iteration #  3     ecut=    80.00 Ry     beta=0.70
     Davidson diagonalization with overlap
     ethr =  1.00E-02,  avg # of iterations =  7.0

     negative rho (up, down):  1.522E+01 1.515E+01

     total cpu time spent up to now is     6767.6 secs

     total energy              =  -12456.97631310 Ry
     Harris-Foulkes estimate   =  -13386.50463189 Ry
     estimated scf accuracy    <    6031.55403055 Ry

     total magnetization       =     0.03 Bohr mag/cell
     absolute magnetization    =     0.37 Bohr mag/cell

     iteration #  4     ecut=    80.00 Ry     beta=0.70
     Davidson diagonalization with overlap
     ethr =  1.00E-02,  avg # of iterations =  5.4

     negative rho (up, down):  1.118E+01 1.115E+01

     total cpu time spent up to now is     7867.3 secs

     total energy              =  -12850.70151289 Ry
     Harris-Foulkes estimate   =  -13092.79178117 Ry
     estimated scf accuracy    <    2025.96542810 Ry

     total magnetization       =     0.13 Bohr mag/cell
     absolute magnetization    =     0.22 Bohr mag/cell

     iteration #  5     ecut=    80.00 Ry     beta=0.70
     Davidson diagonalization with overlap
     ethr =  1.00E-02,  avg # of iterations =  4.0

     negative rho (up, down):  8.248E+00 8.242E+00

     total cpu time spent up to now is     8453.8 secs

     total energy              =  -12860.27383747 Ry
     Harris-Foulkes estimate   =  -12975.95529995 Ry
     estimated scf accuracy    <    1075.70226938 Ry

     total magnetization       =     0.00 Bohr mag/cell
     absolute magnetization    =     0.11 Bohr mag/cell

     iteration #  6     ecut=    80.00 Ry     beta=0.70
     Davidson diagonalization with overlap
     ethr =  1.00E-02,  avg # of iterations =  3.0

     negative rho (up, down):  5.814E+00 5.823E+00

     total cpu time spent up to now is     8861.0 secs

     total energy              =  -12845.71174627 Ry
     Harris-Foulkes estimate   =  -12914.07898332 Ry
     estimated scf accuracy    <     556.60068950 Ry

     total magnetization       =    -0.02 Bohr mag/cell
     absolute magnetization    =     0.09 Bohr mag/cell

     iteration #  7     ecut=    80.00 Ry     beta=0.70
     Davidson diagonalization with overlap
     ethr =  1.00E-02,  avg # of iterations =  2.0

     negative rho (up, down):  4.037E+00 4.041E+00

     total cpu time spent up to now is     9231.6 secs

     total energy              =  -12823.72873046 Ry
     Harris-Foulkes estimate   =  -12867.32507944 Ry
     estimated scf accuracy    <     422.14927528 Ry

     total magnetization       =     0.00 Bohr mag/cell
     absolute magnetization    =     0.07 Bohr mag/cell

     iteration #  8     ecut=    80.00 Ry     beta=0.70
     Davidson diagonalization with overlap
     ethr =  1.00E-02,  avg # of iterations =  2.0

     negative rho (up, down):  3.413E+00 3.413E+00

     total cpu time spent up to now is     9590.0 secs

     total energy              =  -12810.63144919 Ry
     Harris-Foulkes estimate   =  -12839.17501703 Ry
     estimated scf accuracy    <     506.70228124 Ry

     total magnetization       =     0.02 Bohr mag/cell
     absolute magnetization    =     0.11 Bohr mag/cell

     iteration #  9     ecut=    80.00 Ry     beta=0.70
     Davidson diagonalization with overlap
     ethr =  1.00E-02,  avg # of iterations =  1.2

     negative rho (up, down):  2.645E+00 2.645E+00

     total cpu time spent up to now is     9928.7 secs

     total energy              =  -12804.89242992 Ry
     Harris-Foulkes estimate   =  -12822.27714704 Ry
     estimated scf accuracy    <     202.35261413 Ry

     total magnetization       =     0.03 Bohr mag/cell
     absolute magnetization    =     0.09 Bohr mag/cell

     iteration # 10     ecut=    80.00 Ry     beta=0.70
     Davidson diagonalization with overlap
     ethr =  1.00E-02,  avg # of iterations =  1.0

     negative rho (up, down):  6.442E-01 6.442E-01

     total cpu time spent up to now is    10263.0 secs

     total energy              =  -12769.77679280 Ry
     Harris-Foulkes estimate   =  -12807.17049001 Ry
     estimated scf accuracy    <     129.25290428 Ry

     total magnetization       =     0.01 Bohr mag/cell
     absolute magnetization    =     0.08 Bohr mag/cell

     iteration # 11     ecut=    80.00 Ry     beta=0.70
     Davidson diagonalization with overlap
     ethr =  9.96E-03,  avg # of iterations =  2.8

     negative rho (up, down):  4.587E-01 4.587E-01

     total cpu time spent up to now is    10638.5 secs

     total energy              =  -12767.30072437 Ry
     Harris-Foulkes estimate   =  -12778.41958111 Ry
     estimated scf accuracy    <     280.91108864 Ry

     total magnetization       =     0.03 Bohr mag/cell
     absolute magnetization    =     0.09 Bohr mag/cell

     iteration # 12     ecut=    80.00 Ry     beta=0.70
     Davidson diagonalization with overlap
     ethr =  9.96E-03,  avg # of iterations =  1.8

     negative rho (up, down):  3.054E-01 3.054E-01

     total cpu time spent up to now is    10990.3 secs

     total energy              =  -12764.87820155 Ry
     Harris-Foulkes estimate   =  -12772.14122441 Ry
     estimated scf accuracy    <      99.00953009 Ry

     total magnetization       =     0.01 Bohr mag/cell
     absolute magnetization    =     0.07 Bohr mag/cell

     iteration # 13     ecut=    80.00 Ry     beta=0.70
     Davidson diagonalization with overlap
     ethr =  7.63E-03,  avg # of iterations =  1.8

     negative rho (up, down):  5.384E-01 5.383E-01

     total cpu time spent up to now is    11342.2 secs

     total energy              =  -12752.35884443 Ry
     Harris-Foulkes estimate   =  -12769.34390630 Ry
     estimated scf accuracy    <     104.29707372 Ry

     total magnetization       =     0.03 Bohr mag/cell
     absolute magnetization    =     0.07 Bohr mag/cell

     iteration # 14     ecut=    80.00 Ry     beta=0.70
     Davidson diagonalization with overlap
     ethr =  7.63E-03,  avg # of iterations =  2.0

     negative rho (up, down):  2.039E+00 2.038E+00

     total cpu time spent up to now is    11700.3 secs

     total energy              =  -12747.61678788 Ry
     Harris-Foulkes estimate   =  -12759.99717912 Ry
     estimated scf accuracy    <     124.81208345 Ry

     total magnetization       =     0.03 Bohr mag/cell
     absolute magnetization    =     0.07 Bohr mag/cell

     iteration # 15     ecut=    80.00 Ry     beta=0.70
     Davidson diagonalization with overlap
     ethr =  7.63E-03,  avg # of iterations =  1.1

     negative rho (up, down):  2.125E+00 2.124E+00

     total cpu time spent up to now is    12036.2 secs

     total energy              =  -12746.51010361 Ry
     Harris-Foulkes estimate   =  -12753.33462526 Ry
     estimated scf accuracy    <     104.23793571 Ry

     total magnetization       =     0.01 Bohr mag/cell
     absolute magnetization    =     0.04 Bohr mag/cell

     iteration # 16     ecut=    80.00 Ry     beta=0.70
     Davidson diagonalization with overlap
     ethr =  7.63E-03,  avg # of iterations =  1.0

     negative rho (up, down):  2.270E+00 2.269E+00

     total cpu time spent up to now is    12370.2 secs

     total energy              =  -12747.26356782 Ry
     Harris-Foulkes estimate   =  -12750.24743138 Ry
     estimated scf accuracy    <      22.54355056 Ry

     total magnetization       =     0.02 Bohr mag/cell
     absolute magnetization    =     0.05 Bohr mag/cell

     iteration # 17     ecut=    80.00 Ry     beta=0.70
     Davidson diagonalization with overlap
     ethr =  1.74E-03,  avg # of iterations =  6.9

     negative rho (up, down):  2.573E+00 2.573E+00

     total cpu time spent up to now is    12853.1 secs

     total energy              =  -12746.54390875 Ry
     Harris-Foulkes estimate   =  -12748.42134342 Ry
     estimated scf accuracy    <      14.81339509 Ry

     total magnetization       =     0.02 Bohr mag/cell
     absolute magnetization    =     0.04 Bohr mag/cell

     iteration # 18     ecut=    80.00 Ry     beta=0.70
     Davidson diagonalization with overlap
     ethr =  1.14E-03,  avg # of iterations =  4.7

     negative rho (up, down):  2.444E+00 2.444E+00

     total cpu time spent up to now is    13270.6 secs

     total energy              =  -12744.92320931 Ry
     Harris-Foulkes estimate   =  -12746.86923374 Ry
     estimated scf accuracy    <      12.27834745 Ry

     total magnetization       =     0.02 Bohr mag/cell
     absolute magnetization    =     0.04 Bohr mag/cell

     iteration # 19     ecut=    80.00 Ry     beta=0.70
     Davidson diagonalization with overlap
     ethr =  9.46E-04,  avg # of iterations =  6.2

     negative rho (up, down):  2.542E+00 2.542E+00

     total cpu time spent up to now is    13731.2 secs

     total energy              =  -12744.70969476 Ry
     Harris-Foulkes estimate   =  -12745.51291140 Ry
     estimated scf accuracy    <      15.27886904 Ry

     total magnetization       =     0.00 Bohr mag/cell
     absolute magnetization    =     0.03 Bohr mag/cell

     iteration # 20     ecut=    80.00 Ry     beta=0.70
     Davidson diagonalization with overlap
     ethr =  9.46E-04,  avg # of iterations =  4.1

     negative rho (up, down):  2.101E+00 2.101E+00

     total cpu time spent up to now is    14135.0 secs

     total energy              =  -12744.30390480 Ry
     Harris-Foulkes estimate   =  -12745.10895367 Ry
     estimated scf accuracy    <       9.93745970 Ry

     total magnetization       =     0.00 Bohr mag/cell
     absolute magnetization    =     0.02 Bohr mag/cell

     iteration # 21     ecut=    80.00 Ry     beta=0.70
     Davidson diagonalization with overlap
     ethr =  7.66E-04,  avg # of iterations =  1.0

     negative rho (up, down):  1.735E+00 1.735E+00

     total cpu time spent up to now is    14468.8 secs

     total energy              =  -12743.52559623 Ry
     Harris-Foulkes estimate   =  -12744.53372816 Ry
     estimated scf accuracy    <      10.12265509 Ry

     total magnetization       =     0.01 Bohr mag/cell
     absolute magnetization    =     0.02 Bohr mag/cell

     iteration # 22     ecut=    80.00 Ry     beta=0.70
     Davidson diagonalization with overlap
     ethr =  7.66E-04,  avg # of iterations =  1.0

     negative rho (up, down):  7.461E-01 7.460E-01

     total cpu time spent up to now is    14803.7 secs

     total energy              =  -12741.83595649 Ry
     Harris-Foulkes estimate   =  -12743.72639946 Ry
     estimated scf accuracy    <       9.03760107 Ry

     total magnetization       =     0.00 Bohr mag/cell
     absolute magnetization    =     0.01 Bohr mag/cell

     iteration # 23     ecut=    80.00 Ry     beta=0.70
     Davidson diagonalization with overlap
     ethr =  6.96E-04,  avg # of iterations =  3.6

     negative rho (up, down):  2.705E-01 2.705E-01

     total cpu time spent up to now is    15195.0 secs

     total energy              =  -12741.01744732 Ry
     Harris-Foulkes estimate   =  -12742.03591372 Ry
     estimated scf accuracy    <       9.68348245 Ry

     total magnetization       =    -0.00 Bohr mag/cell
     absolute magnetization    =     0.01 Bohr mag/cell

     iteration # 24     ecut=    80.00 Ry     beta=0.70
     Davidson diagonalization with overlap
     ethr =  6.96E-04,  avg # of iterations =  6.3

     negative rho (up, down):  4.035E-01 4.034E-01

     total cpu time spent up to now is    15652.6 secs

     total energy              =  -12741.46230441 Ry
     Harris-Foulkes estimate   =  -12741.16105586 Ry
     estimated scf accuracy    <       8.93668032 Ry

     total magnetization       =    -0.01 Bohr mag/cell
     absolute magnetization    =     0.01 Bohr mag/cell

     iteration # 25     ecut=    80.00 Ry     beta=0.70
     Davidson diagonalization with overlap
     ethr =  6.88E-04,  avg # of iterations =  2.2

     negative rho (up, down):  1.541E-01 1.542E-01

     total cpu time spent up to now is    16016.4 secs

     total energy              =  -12740.13740028 Ry
     Harris-Foulkes estimate   =  -12741.90003013 Ry
     estimated scf accuracy    <       5.67519683 Ry

     total magnetization       =    -0.00 Bohr mag/cell
     absolute magnetization    =     0.01 Bohr mag/cell

     iteration # 26     ecut=    80.00 Ry     beta=0.70
     Davidson diagonalization with overlap
     ethr =  4.37E-04,  avg # of iterations =  3.3

     negative rho (up, down):  1.426E-01 1.426E-01

     total cpu time spent up to now is    16406.6 secs

     total energy              =  -12739.87331210 Ry
     Harris-Foulkes estimate   =  -12740.32507573 Ry
     estimated scf accuracy    <       6.64652814 Ry

     total magnetization       =    -0.01 Bohr mag/cell
     absolute magnetization    =     0.02 Bohr mag/cell

     iteration # 27     ecut=    80.00 Ry     beta=0.70
     Davidson diagonalization with overlap
     ethr =  4.37E-04,  avg # of iterations =  2.0

     negative rho (up, down):  8.800E-02 8.798E-02

     total cpu time spent up to now is    16763.6 secs

     total energy              =  -12739.59046364 Ry
     Harris-Foulkes estimate   =  -12740.01936513 Ry
     estimated scf accuracy    <       4.63990553 Ry

     total magnetization       =    -0.01 Bohr mag/cell
     absolute magnetization    =     0.02 Bohr mag/cell

     iteration # 28     ecut=    80.00 Ry     beta=0.70
     Davidson diagonalization with overlap
     ethr =  3.57E-04,  avg # of iterations =  1.0

     negative rho (up, down):  2.158E-01 2.158E-01

     total cpu time spent up to now is    17098.5 secs

     total energy              =  -12739.12937458 Ry
     Harris-Foulkes estimate   =  -12739.66973161 Ry
     estimated scf accuracy    <       3.21157732 Ry

     total magnetization       =    -0.02 Bohr mag/cell
     absolute magnetization    =     0.02 Bohr mag/cell

     iteration # 29     ecut=    80.00 Ry     beta=0.70
     Davidson diagonalization with overlap
     ethr =  2.47E-04,  avg # of iterations =  4.3

     negative rho (up, down):  2.407E-01 2.407E-01

     total cpu time spent up to now is    17510.3 secs

     total energy              =  -12738.74341894 Ry
     Harris-Foulkes estimate   =  -12739.24800635 Ry
     estimated scf accuracy    <       2.39538230 Ry

     total magnetization       =    -0.02 Bohr mag/cell
     absolute magnetization    =     0.02 Bohr mag/cell

     iteration # 30     ecut=    80.00 Ry     beta=0.70
     Davidson diagonalization with overlap
     ethr =  1.85E-04,  avg # of iterations =  9.8

     negative rho (up, down):  1.053E-01 1.053E-01

     total cpu time spent up to now is    18066.3 secs

     total energy              =  -12738.78159556 Ry
     Harris-Foulkes estimate   =  -12738.91366343 Ry
     estimated scf accuracy    <       0.87758553 Ry

     total magnetization       =    -0.00 Bohr mag/cell
     absolute magnetization    =     0.01 Bohr mag/cell

     iteration # 31     ecut=    80.00 Ry     beta=0.70
     Davidson diagonalization with overlap
     ethr =  6.76E-05,  avg # of iterations =  3.2

     negative rho (up, down):  1.925E-01 1.925E-01

     total cpu time spent up to now is    18458.7 secs

     total energy              =  -12738.72230994 Ry
     Harris-Foulkes estimate   =  -12738.86427558 Ry
     estimated scf accuracy    <       0.65634713 Ry

     total magnetization       =    -0.01 Bohr mag/cell
     absolute magnetization    =     0.01 Bohr mag/cell

     iteration # 32     ecut=    80.00 Ry     beta=0.70
     Davidson diagonalization with overlap
     ethr =  5.06E-05,  avg # of iterations =  7.5

     negative rho (up, down):  3.981E-02 3.981E-02

     total cpu time spent up to now is    18990.9 secs

     total energy              =  -12738.72855051 Ry
     Harris-Foulkes estimate   =  -12738.75874474 Ry
     estimated scf accuracy    <       0.29369174 Ry

     total magnetization       =    -0.00 Bohr mag/cell
     absolute magnetization    =     0.01 Bohr mag/cell

     iteration # 33     ecut=    80.00 Ry     beta=0.70
     Davidson diagonalization with overlap
     ethr =  2.26E-05,  avg # of iterations =  8.3

     negative rho (up, down):  3.470E-02 3.470E-02

     total cpu time spent up to now is    19515.0 secs

     total energy              =  -12738.73376029 Ry
     Harris-Foulkes estimate   =  -12738.74584625 Ry
     estimated scf accuracy    <       0.10844594 Ry

     total magnetization       =    -0.00 Bohr mag/cell
     absolute magnetization    =     0.00 Bohr mag/cell

     iteration # 34     ecut=    80.00 Ry     beta=0.70
     Davidson diagonalization with overlap
     ethr =  8.35E-06,  avg # of iterations = 11.2

     negative rho (up, down):  3.018E-02 3.018E-02

     total cpu time spent up to now is    20119.6 secs

     total energy              =  -12738.73536253 Ry
     Harris-Foulkes estimate   =  -12738.74464627 Ry
     estimated scf accuracy    <       0.05405598 Ry

     total magnetization       =    -0.00 Bohr mag/cell
     absolute magnetization    =     0.00 Bohr mag/cell

     iteration # 35     ecut=    80.00 Ry     beta=0.70
     Davidson diagonalization with overlap
     ethr =  4.16E-06,  avg # of iterations =  8.7

     negative rho (up, down):  1.545E-02 1.545E-02

     total cpu time spent up to now is    20661.5 secs

     total energy              =  -12738.74188117 Ry
     Harris-Foulkes estimate   =  -12738.74096884 Ry
     estimated scf accuracy    <       0.00784529 Ry

     total magnetization       =    -0.00 Bohr mag/cell
     absolute magnetization    =     0.00 Bohr mag/cell

     iteration # 36     ecut=    80.00 Ry     beta=0.70
     Davidson diagonalization with overlap
     ethr =  6.04E-07,  avg # of iterations =  7.3

     negative rho (up, down):  7.853E-03 7.853E-03

     total cpu time spent up to now is    21185.6 secs

     total energy              =  -12738.74203972 Ry
     Harris-Foulkes estimate   =  -12738.74246549 Ry
     estimated scf accuracy    <       0.00118579 Ry

     total magnetization       =    -0.00 Bohr mag/cell
     absolute magnetization    =     0.00 Bohr mag/cell

     iteration # 37     ecut=    80.00 Ry     beta=0.70
     Davidson diagonalization with overlap
     ethr =  9.14E-08,  avg # of iterations =  8.7

     negative rho (up, down):  7.983E-03 7.983E-03

     total cpu time spent up to now is    21785.9 secs

     total energy              =  -12738.74223119 Ry
     Harris-Foulkes estimate   =  -12738.74231430 Ry
     estimated scf accuracy    <       0.00158696 Ry

     total magnetization       =    -0.00 Bohr mag/cell
     absolute magnetization    =     0.00 Bohr mag/cell

     iteration # 38     ecut=    80.00 Ry     beta=0.70
     Davidson diagonalization with overlap
     ethr =  9.14E-08,  avg # of iterations =  4.5

     negative rho (up, down):  6.305E-03 6.305E-03

     total cpu time spent up to now is    22208.9 secs

     total energy              =  -12738.74228686 Ry
     Harris-Foulkes estimate   =  -12738.74231841 Ry
     estimated scf accuracy    <       0.00021138 Ry

     total magnetization       =    -0.00 Bohr mag/cell
     absolute magnetization    =     0.00 Bohr mag/cell

     iteration # 39     ecut=    80.00 Ry     beta=0.70
     Davidson diagonalization with overlap
     ethr =  1.63E-08,  avg # of iterations =  6.8

     negative rho (up, down):  2.394E-03 2.394E-03

     total cpu time spent up to now is    22697.8 secs

     total energy              =  -12738.74218769 Ry
     Harris-Foulkes estimate   =  -12738.74230201 Ry
     estimated scf accuracy    <       0.00005681 Ry

     total magnetization       =    -0.00 Bohr mag/cell
     absolute magnetization    =     0.00 Bohr mag/cell

     iteration # 40     ecut=    80.00 Ry     beta=0.70
     Davidson diagonalization with overlap
     ethr =  4.38E-09,  avg # of iterations =  8.8

     negative rho (up, down):  1.734E-03 1.734E-03

     total cpu time spent up to now is    23253.3 secs

     total energy              =  -12738.74218261 Ry
     Harris-Foulkes estimate   =  -12738.74219326 Ry
     estimated scf accuracy    <       0.00003149 Ry

     total magnetization       =    -0.00 Bohr mag/cell
     absolute magnetization    =     0.00 Bohr mag/cell

     iteration # 41     ecut=    80.00 Ry     beta=0.70
     Davidson diagonalization with overlap
     ethr =  2.43E-09,  avg # of iterations =  6.5

     negative rho (up, down):  1.146E-03 1.146E-03

     total cpu time spent up to now is    23722.8 secs

     total energy              =  -12738.74218583 Ry
     Harris-Foulkes estimate   =  -12738.74218532 Ry
     estimated scf accuracy    <       0.00001217 Ry

     total magnetization       =    -0.00 Bohr mag/cell
     absolute magnetization    =     0.00 Bohr mag/cell

     iteration # 42     ecut=    80.00 Ry     beta=0.70
     Davidson diagonalization with overlap
     ethr =  9.37E-10,  avg # of iterations =  5.4

     negative rho (up, down):  9.920E-04 9.920E-04

     total cpu time spent up to now is    24189.2 secs

     total energy              =  -12738.74219258 Ry
     Harris-Foulkes estimate   =  -12738.74218706 Ry
     estimated scf accuracy    <       0.00000257 Ry

     total magnetization       =    -0.00 Bohr mag/cell
     absolute magnetization    =     0.00 Bohr mag/cell

     iteration # 43     ecut=    80.00 Ry     beta=0.70
     Davidson diagonalization with overlap
     ethr =  1.98E-10,  avg # of iterations =  3.0

     negative rho (up, down):  9.800E-04 9.800E-04

     total cpu time spent up to now is    24585.3 secs

     total energy              =  -12738.74219367 Ry
     Harris-Foulkes estimate   =  -12738.74219278 Ry
     estimated scf accuracy    <       0.00000055 Ry

     total magnetization       =    -0.00 Bohr mag/cell
     absolute magnetization    =     0.00 Bohr mag/cell

     iteration # 44     ecut=    80.00 Ry     beta=0.70
     Davidson diagonalization with overlap
     ethr =  4.26E-11,  avg # of iterations =  3.0

     negative rho (up, down):  1.023E-03 1.023E-03

     total cpu time spent up to now is    24994.4 secs

     total energy              =  -12738.74219460 Ry
     Harris-Foulkes estimate   =  -12738.74219374 Ry
     estimated scf accuracy    <       0.00000033 Ry

     total magnetization       =    -0.00 Bohr mag/cell
     absolute magnetization    =     0.00 Bohr mag/cell

     iteration # 45     ecut=    80.00 Ry     beta=0.70
     Davidson diagonalization with overlap
     ethr =  2.52E-11,  avg # of iterations =  3.0

     negative rho (up, down):  1.033E-03 1.033E-03

     total cpu time spent up to now is    25394.6 secs

     total energy              =  -12738.74219468 Ry
     Harris-Foulkes estimate   =  -12738.74219463 Ry
     estimated scf accuracy    <       0.00000013 Ry

     total magnetization       =     0.00 Bohr mag/cell
     absolute magnetization    =     0.00 Bohr mag/cell

     iteration # 46     ecut=    80.00 Ry     beta=0.70
     Davidson diagonalization with overlap
     ethr =  1.03E-11,  avg # of iterations =  2.3

     negative rho (up, down):  1.035E-03 1.035E-03

     total cpu time spent up to now is    25772.8 secs

     total energy              =  -12738.74219467 Ry
     Harris-Foulkes estimate   =  -12738.74219469 Ry
     estimated scf accuracy    <       0.00000004 Ry

     total magnetization       =     0.00 Bohr mag/cell
     absolute magnetization    =     0.00 Bohr mag/cell

     iteration # 47     ecut=    80.00 Ry     beta=0.70
     Davidson diagonalization with overlap
     ethr =  3.01E-12,  avg # of iterations =  2.7

     negative rho (up, down):  1.036E-03 1.036E-03

     total cpu time spent up to now is    26189.5 secs

     total energy              =  -12738.74219464 Ry
     Harris-Foulkes estimate   =  -12738.74219468 Ry
     estimated scf accuracy    <       0.00000003 Ry

     total magnetization       =     0.00 Bohr mag/cell
     absolute magnetization    =     0.00 Bohr mag/cell

     iteration # 48     ecut=    80.00 Ry     beta=0.70
     Davidson diagonalization with overlap
     ethr =  2.38E-12,  avg # of iterations =  2.0

     negative rho (up, down):  1.043E-03 1.043E-03
 
     Magnetic moment per site:
     atom:    1    charge:    9.5915    magn:   -0.0000    constr:    0.0000
     atom:    2    charge:    9.5920    magn:   -0.0000    constr:    0.0000
     atom:    3    charge:    9.5915    magn:   -0.0000    constr:    0.0000
     atom:    4    charge:    9.5920    magn:   -0.0000    constr:    0.0000
     atom:    5    charge:    9.5926    magn:    0.0000    constr:    0.0000
     atom:    6    charge:    9.5925    magn:   -0.0000    constr:    0.0000
     atom:    7    charge:    9.5926    magn:   -0.0000    constr:    0.0000
     atom:    8    charge:    9.5926    magn:    0.0000    constr:    0.0000
     atom:    9    charge:    9.5924    magn:    0.0000    constr:    0.0000
     atom:   10    charge:    9.5926    magn:    0.0000    constr:    0.0000
     atom:   11    charge:    9.5925    magn:   -0.0000    constr:    0.0000
     atom:   12    charge:    9.5927    magn:   -0.0000    constr:    0.0000
     atom:   13    charge:    9.5927    magn:    0.0000    constr:    0.0000
     atom:   14    charge:    9.5923    magn:    0.0000    constr:    0.0000
     atom:   15    charge:    9.5929    magn:   -0.0000    constr:    0.0000
     atom:   16    charge:    9.5925    magn:    0.0000    constr:    0.0000
     atom:   17    charge:    9.5917    magn:   -0.0000    constr:    0.0000
     atom:   18    charge:    9.5911    magn:    0.0000    constr:    0.0000
     atom:   19    charge:    9.5919    magn:   -0.0000    constr:    0.0000
     atom:   20    charge:    9.5912    magn:    0.0000    constr:    0.0000
     atom:   21    charge:    9.6679    magn:    0.0000    constr:    0.0000
     atom:   22    charge:    9.6683    magn:    0.0000    constr:    0.0000
     atom:   23    charge:    9.6680    magn:   -0.0000    constr:    0.0000
     atom:   24    charge:    9.6684    magn:    0.0000    constr:    0.0000
     atom:   25    charge:    9.6682    magn:   -0.0000    constr:    0.0000
     atom:   26    charge:    9.6680    magn:    0.0000    constr:    0.0000
     atom:   27    charge:    9.6684    magn:    0.0000    constr:    0.0000
     atom:   28    charge:    9.6680    magn:    0.0000    constr:    0.0000
     atom:   29    charge:    9.6687    magn:   -0.0000    constr:    0.0000
     atom:   30    charge:    9.6688    magn:   -0.0000    constr:    0.0000
     atom:   31    charge:    9.6687    magn:    0.0000    constr:    0.0000
     atom:   32    charge:    9.6688    magn:    0.0000    constr:    0.0000
     atom:   33    charge:    9.6678    magn:    0.0000    constr:    0.0000
     atom:   34    charge:    9.6682    magn:    0.0000    constr:    0.0000
     atom:   35    charge:    9.6677    magn:    0.0000    constr:    0.0000
     atom:   36    charge:    9.6683    magn:   -0.0000    constr:    0.0000
     atom:   37    charge:    9.6683    magn:    0.0000    constr:    0.0000
     atom:   38    charge:    9.6681    magn:    0.0000    constr:    0.0000
     atom:   39    charge:    9.6683    magn:   -0.0000    constr:    0.0000
     atom:   40    charge:    9.6681    magn:   -0.0000    constr:    0.0000
     atom:   41    charge:    9.6705    magn:    0.0000    constr:    0.0000
     atom:   42    charge:    9.6699    magn:   -0.0000    constr:    0.0000
     atom:   43    charge:    9.6708    magn:    0.0000    constr:    0.0000
     atom:   44    charge:    9.6699    magn:   -0.0000    constr:    0.0000
     atom:   45    charge:    9.6697    magn:    0.0000    constr:    0.0000
     atom:   46    charge:    9.6694    magn:   -0.0000    constr:    0.0000
     atom:   47    charge:    9.6694    magn:   -0.0000    constr:    0.0000
     atom:   48    charge:    9.6695    magn:   -0.0000    constr:    0.0000
     atom:   49    charge:    9.6696    magn:   -0.0000    constr:    0.0000
     atom:   50    charge:    9.6696    magn:    0.0000    constr:    0.0000
     atom:   51    charge:    9.6699    magn:   -0.0000    constr:    0.0000
     atom:   52    charge:    9.6697    magn:    0.0000    constr:    0.0000
     atom:   53    charge:    9.6692    magn:    0.0000    constr:    0.0000
     atom:   54    charge:    9.6693    magn:    0.0000    constr:    0.0000
     atom:   55    charge:    9.6692    magn:    0.0000    constr:    0.0000
     atom:   56    charge:    9.6693    magn:   -0.0000    constr:    0.0000
     atom:   57    charge:    9.6704    magn:   -0.0000    constr:    0.0000
     atom:   58    charge:    9.6708    magn:    0.0000    constr:    0.0000
     atom:   59    charge:    9.6702    magn:   -0.0000    constr:    0.0000
     atom:   60    charge:    9.6707    magn:   -0.0000    constr:    0.0000
     atom:   61    charge:    9.6745    magn:   -0.0000    constr:    0.0000
     atom:   62    charge:    9.6735    magn:   -0.0000    constr:    0.0000
     atom:   63    charge:    9.6738    magn:   -0.0000    constr:    0.0000
     atom:   64    charge:    9.6734    magn:   -0.0000    constr:    0.0000
     atom:   65    charge:    9.6724    magn:   -0.0000    constr:    0.0000
     atom:   66    charge:    9.6730    magn:    0.0000    constr:    0.0000
     atom:   67    charge:    9.6708    magn:   -0.0000    constr:    0.0000
     atom:   68    charge:    9.6732    magn:   -0.0000    constr:    0.0000
     atom:   69    charge:    9.6705    magn:    0.0000    constr:    0.0000
     atom:   70    charge:    9.6702    magn:    0.0000    constr:    0.0000
     atom:   71    charge:    9.6706    magn:    0.0000    constr:    0.0000
     atom:   72    charge:    9.6705    magn:   -0.0000    constr:    0.0000
     atom:   73    charge:    9.6728    magn:    0.0000    constr:    0.0000
     atom:   74    charge:    9.6720    magn:    0.0000    constr:    0.0000
     atom:   75    charge:    9.6738    magn:    0.0000    constr:    0.0000
     atom:   76    charge:    9.6720    magn:    0.0000    constr:    0.0000
     atom:   77    charge:    9.6730    magn:   -0.0000    constr:    0.0000
     atom:   78    charge:    9.6732    magn:   -0.0000    constr:    0.0000
     atom:   79    charge:    9.6729    magn:   -0.0000    constr:    0.0000
     atom:   80    charge:    9.6732    magn:   -0.0000    constr:    0.0000
     atom:   81    charge:    9.6086    magn:    0.0000    constr:    0.0000
     atom:   82    charge:    9.6108    magn:    0.0000    constr:    0.0000
     atom:   83    charge:    9.6057    magn:   -0.0000    constr:    0.0000
     atom:   84    charge:    9.6109    magn:    0.0000    constr:    0.0000
     atom:   85    charge:    9.6119    magn:    0.0000    constr:    0.0000
     atom:   86    charge:    9.6067    magn:    0.0000    constr:    0.0000
     atom:   87    charge:    9.6115    magn:   -0.0000    constr:    0.0000
     atom:   88    charge:    9.6077    magn:    0.0000    constr:    0.0000
     atom:   89    charge:    9.6069    magn:   -0.0000    constr:    0.0000
     atom:   90    charge:    9.6034    magn:   -0.0000    constr:    0.0000
     atom:   91    charge:    9.6035    magn:   -0.0000    constr:    0.0000
     atom:   92    charge:    9.6038    magn:   -0.0000    constr:    0.0000
     atom:   93    charge:    9.6081    magn:   -0.0000    constr:    0.0000
     atom:   94    charge:    9.6109    magn:    0.0000    constr:    0.0000
     atom:   95    charge:    9.6101    magn:    0.0000    constr:    0.0000
     atom:   96    charge:    9.6108    magn:   -0.0000    constr:    0.0000
     atom:   97    charge:    9.6069    magn:    0.0000    constr:    0.0000
     atom:   98    charge:    9.6069    magn:    0.0000    constr:    0.0000
     atom:   99    charge:    9.6085    magn:    0.0000    constr:    0.0000
     atom:  100    charge:    9.6067    magn:    0.0000    constr:    0.0000
     atom:  101    charge:    1.6832    magn:    0.0000    constr:    0.0000
     atom:  102    charge:    1.6853    magn:   -0.0000    constr:    0.0000
     atom:  103    charge:    1.6813    magn:   -0.0000    constr:    0.0000
     atom:  104    charge:    1.6814    magn:    0.0000    constr:    0.0000
     atom:  105    charge:    1.6803    magn:    0.0000    constr:    0.0000
     atom:  106    charge:    1.6795    magn:   -0.0000    constr:    0.0000
     atom:  107    charge:    1.6821    magn:   -0.0000    constr:    0.0000
     atom:  108    charge:    1.6786    magn:    0.0000    constr:    0.0000
     atom:  109    charge:    1.6802    magn:    0.0000    constr:    0.0000
     atom:  110    charge:    1.6796    magn:   -0.0000    constr:    0.0000
     atom:  111    charge:    1.6810    magn:   -0.0000    constr:    0.0000
     atom:  112    charge:    1.6814    magn:    0.0000    constr:    0.0000
     atom:  113    charge:    1.6838    magn:    0.0000    constr:    0.0000
     atom:  114    charge:    1.6789    magn:   -0.0000    constr:    0.0000
     atom:  115    charge:    1.6808    magn:   -0.0000    constr:    0.0000
     atom:  116    charge:    1.6797    magn:    0.0000    constr:    0.0000
     atom:  117    charge:    1.6796    magn:    0.0000    constr:    0.0000
     atom:  118    charge:    1.6439    magn:   -0.0000    constr:    0.0000
     atom:  119    charge:    1.6797    magn:   -0.0000    constr:    0.0000
     atom:  120    charge:    2.5430    magn:    0.0000    constr:    0.0000
     atom:  121    charge:    3.6895    magn:    0.0000    constr:    0.0000
     atom:  122    charge:    1.6794    magn:    0.0000    constr:    0.0000
     atom:  123    charge:    1.6439    magn:   -0.0000    constr:    0.0000
     atom:  124    charge:    1.6807    magn:   -0.0000    constr:    0.0000
     atom:  125    charge:    1.6793    magn:    0.0000    constr:    0.0000
     atom:  126    charge:    1.6772    magn:   -0.0000    constr:    0.0000
     atom:  127    charge:    1.6783    magn:    0.0000    constr:    0.0000
     atom:  128    charge:    1.6758    magn:    0.0000    constr:    0.0000
     atom:  129    charge:    1.6781    magn:   -0.0000    constr:    0.0000
     atom:  130    charge:    1.6801    magn:   -0.0000    constr:    0.0000
     atom:  131    charge:    1.6804    magn:    0.0000    constr:    0.0000
     atom:  132    charge:    1.6465    magn:   -0.0000    constr:    0.0000
     atom:  133    charge:    1.6833    magn:   -0.0000    constr:    0.0000
     atom:  134    charge:    1.6801    magn:    0.0000    constr:    0.0000
     atom:  135    charge:    1.6803    magn:    0.0000    constr:    0.0000
     atom:  136    charge:    1.6756    magn:    0.0000    constr:    0.0000
     atom:  137    charge:    1.6779    magn:   -0.0000    constr:    0.0000
     atom:  138    charge:    1.6812    magn:   -0.0000    constr:    0.0000
     atom:  139    charge:    1.6828    magn:   -0.0000    constr:    0.0000
     atom:  140    charge:    1.6801    magn:    0.0000    constr:    0.0000
     atom:  141    charge:    1.6805    magn:    0.0000    constr:    0.0000
     atom:  142    charge:    1.6815    magn:   -0.0000    constr:    0.0000
     atom:  143    charge:    1.6809    magn:   -0.0000    constr:    0.0000
     atom:  144    charge:    1.6841    magn:    0.0000    constr:    0.0000
     atom:  145    charge:    1.6823    magn:    0.0000    constr:    0.0000
     atom:  146    charge:    1.6813    magn:   -0.0000    constr:    0.0000
     atom:  147    charge:    1.6807    magn:   -0.0000    constr:    0.0000
     atom:  148    charge:    1.6800    magn:    0.0000    constr:    0.0000
     atom:  149    charge:    1.6801    magn:    0.0000    constr:    0.0000

     total cpu time spent up to now is    26544.5 secs

     End of self-consistent calculation

 ------ SPIN UP ------------


          k = 0.0000 0.0000 0.0000 (256287 PWs)   bands (ev):

   -18.9308 -16.4117 -16.1514 -15.9259 -15.0881 -14.9488 -14.6595 -14.4618
   -14.2725 -14.2001 -14.1836 -14.0716 -13.3474 -13.2512 -13.2059 -13.1463
   -13.1350 -13.1320 -11.5972 -11.5458 -11.5240 -11.4421 -11.2683 -10.3672
    -9.7687  -9.7268  -9.6542  -9.5844  -8.9909  -8.8418  -8.7266  -8.6648
    -8.0643  -7.9487  -7.8333  -7.7040  -7.6415  -7.6280  -7.5895  -7.5789
    -6.4355  -6.4295  -6.2090  -6.1432  -6.0814  -6.0038  -5.9444  -5.9257
    -5.8948  -5.6110  -5.6079  -5.2399  -4.9408  -4.9286  -4.8427  -4.7623
    -4.7053  -4.6917  -4.5049  -4.3500  -4.2407  -4.1143  -4.1135  -4.0570
    -4.0409  -3.9220  -3.6660  -3.6168  -3.5824  -3.5303  -3.5293  -3.4868
    -3.4664  -3.3658  -3.3101  -3.2723  -3.2422  -3.1333  -3.1325  -3.1295
    -3.1258  -3.0797  -2.9836  -2.9150  -2.8982  -2.8897  -2.8523  -2.8476
    -2.8061  -2.7840  -2.7763  -2.7147  -2.5260  -2.5029  -2.4997  -2.4603
    -2.4430  -2.3507  -2.3162  -2.3157  -2.3060  -2.2761  -2.2757  -2.2754
    -2.2751  -2.1818  -2.1809  -2.1474  -2.1473  -2.1431  -2.1426  -2.1389
    -2.0829  -2.0783  -1.9650  -1.9303  -1.9006  -1.8649  -1.8619  -1.8617
    -1.8548  -1.8084  -1.7964  -1.7934  -1.7833  -1.7780  -1.7216  -1.7107
    -1.7057  -1.6876  -1.6865  -1.6817  -1.6718  -1.6543  -1.6507  -1.6437
    -1.6394  -1.6375  -1.6133  -1.5598  -1.5516  -1.5398  -1.5118  -1.5048
    -1.4993  -1.4764  -1.4606  -1.4431  -1.4226  -1.3880  -1.3860  -1.3742
    -1.3357  -1.3342  -1.3160  -1.3124  -1.2912  -1.2870  -1.2583  -1.2501
    -1.2487  -1.2275  -1.2251  -1.1751  -1.1713  -1.1653  -1.1546  -1.1525
    -1.1465  -1.1454  -1.1432  -1.1423  -1.1398  -1.1385  -1.1254  -1.1225
    -1.0932  -1.0802  -1.0736  -1.0664  -1.0543  -1.0527  -1.0445  -1.0432
    -1.0406  -1.0289  -0.9838  -0.9814  -0.9805  -0.9794  -0.9792  -0.9775
    -0.9774  -0.9737  -0.9734  -0.9720  -0.9715  -0.9713  -0.9678  -0.9656
    -0.9653  -0.9519  -0.9497  -0.9274  -0.9099  -0.9094  -0.8792  -0.8141
    -0.8136  -0.8071  -0.8069  -0.7849  -0.7844  -0.7660  -0.7658  -0.7522
    -0.7453  -0.7437  -0.7333  -0.7282  -0.7231  -0.7223  -0.7120  -0.6885
    -0.6884  -0.6833  -0.6831  -0.6779  -0.6775  -0.6664  -0.6660  -0.6170
    -0.6166  -0.5628  -0.5627  -0.5532  -0.5527  -0.5523  -0.5495  -0.5472
    -0.5327  -0.5316  -0.5284  -0.5273  -0.5270  -0.5261  -0.5245  -0.5243
    -0.5085  -0.5084  -0.4985  -0.4981  -0.4940  -0.4756  -0.4752  -0.4259
    -0.4227  -0.4210  -0.4146  -0.4144  -0.4086  -0.3889  -0.3888  -0.3853
    -0.3851  -0.3711  -0.3710  -0.3658  -0.3657  -0.3610  -0.3449  -0.3431
    -0.3403  -0.3377  -0.3375  -0.3366  -0.3355  -0.3348  -0.3330  -0.3258
    -0.3144  -0.3142  -0.3104  -0.3099  -0.2982  -0.2872  -0.2440  -0.2422
    -0.2416  -0.2383  -0.2381  -0.1960  -0.1954  -0.1928  -0.1924  -0.1907
    -0.1856  -0.1849  -0.1845  -0.1840  -0.1805  -0.1637  -0.1552  -0.1388
    -0.1333  -0.1306  -0.1283  -0.1277  -0.1233  -0.1043  -0.1040  -0.0982
    -0.0972  -0.0959  -0.0898  -0.0793  -0.0778  -0.0762  -0.0760  -0.0742
    -0.0701  -0.0598  -0.0596  -0.0590  -0.0590  -0.0495  -0.0460  -0.0431
    -0.0396  -0.0198  -0.0188   0.0122   0.0127   0.0408   0.0443   0.0448
     0.0654   0.0755   0.0829   0.1092   0.1106   0.1116   0.1195   0.1215
     0.1235   0.1477   0.1479   0.1498   0.1502   0.1520   0.1570   0.1584
     0.1612   0.2044   0.2187   0.2190   0.2235   0.2256   0.2259   0.2289
     0.2508   0.2542   0.2597   0.2610   0.2623   0.2670   0.2946   0.2962
     0.2963   0.2984   0.3049   0.3150   0.3171   0.3187   0.3248   0.3573
     0.3612   0.3705   0.3707   0.3736   0.3770   0.3776   0.3839   0.3997
     0.4010   0.4067   0.4107   0.4109   0.4120   0.4136   0.4163   0.4171
     0.4207   0.4254   0.4334   0.4342   0.4350   0.4366   0.4431   0.4445
     0.4725   0.4833   0.4838   0.4863   0.4970   0.5245   0.5246   0.5249
     0.5283   0.5307   0.5311   0.5321   0.5329   0.5346   0.5372   0.5508
     0.5552   0.5574   0.5585   0.5587   0.5650   0.5653   0.5762   0.5780
     0.5910   0.5978   0.5987   0.6004   0.6048   0.6095   0.6142   0.6190
     0.6240   0.6270   0.6270   0.6275   0.6276   0.6321   0.6333   0.6369
     0.6463   0.6465   0.6650   0.6831   0.6836   0.6959   0.6992   0.6999
     0.7006   0.7012   0.7013   0.7324   0.7334   0.7486   0.7491   0.7539
     0.7541   0.7674   0.7676   0.7766   0.7782   0.7794   0.7795   0.7851
     0.7956   0.8127   0.8140   0.8171   0.8185   0.8199   0.8204   0.8303
     0.8384   0.8462   0.8536   0.8632   0.8633   0.8749   0.8762   0.8789
     0.8891   0.8897   0.8902   0.8905   0.8915   0.8925   0.8985   0.9029
     0.9041   0.9054   0.9061   0.9066   0.9229   0.9231   0.9336   0.9386
     0.9413   0.9464   0.9469   0.9527   0.9770   0.9803   0.9817   0.9825
     0.9878   0.9900   0.9919   0.9939   0.9968   0.9973   0.9981   0.9986
     1.0001   1.0010   1.0135   1.0143   1.0263   1.0578   1.0597   1.0657
     1.0742   1.0759   1.0782   1.0814   1.0823   1.0844   1.0855   1.0891
     1.1049   1.1078   1.1143   1.1164   1.1173   1.1188   1.1199   1.1211
     1.1224   1.1233   1.1323   1.1494   1.1506   1.1508   1.1518   1.1537
     1.1552   1.1557   1.1567   1.1676   1.1701   1.1721   1.1723   1.1778
     1.1881   1.1882   1.1892   1.1897   1.1920   1.1969   1.2039   1.2076
     1.2220   1.2269   1.2283   1.2307   1.2317   1.2330   1.2389   1.2462
     1.2559   1.2595   1.2656   1.2664   1.2690   1.2802   1.2906   1.2916
     1.2919   1.2985   1.3017   1.3027   1.3050   1.3127   1.3128   1.3133
     1.3146   1.3150   1.3161   1.3171   1.3283   1.3287   1.3292   1.3426
     1.3444   1.3449   1.3460   1.3465   1.3560   1.3614   1.3645   1.3863
     1.3863   1.3992   1.4000   1.4340   1.4351   1.4404   1.4437   1.4574
     1.4591   1.4623   1.4627   1.4656   1.4834   1.5064   1.5095   1.5113
     1.5122   1.5128   1.5205   1.5220   1.5227   1.6752   1.7042   1.7719
     1.8073   1.8343   2.0000   2.0010   2.0505   2.0588   2.0850   2.0858
     2.0866   2.0915   2.1063   2.1125   2.1142   2.1375   2.2930   2.2941
     2.3562   2.3575   2.3584   2.3605   2.3669   2.3738   2.6052   2.6062
     2.6203   2.6252   2.9519   3.0171   3.0198   3.0934   3.4142   3.4232
     3.5576   3.7040   3.7077   3.7361   3.7396   3.7448   3.7610   3.8128
     3.8434   3.8869   3.8872   3.8910   3.8983   3.9045   3.9129   3.9152
     3.9236   4.1472   4.1500   4.1535   4.1671   4.3527   4.5562   4.6442
     4.8277   4.8578   4.8617   5.1793   5.2801   5.3311   5.3518   5.4756
     5.6153   5.6233   5.6350   5.6472   5.8123   5.8149   6.2624   6.2661
     6.2794   6.2909   6.3783   6.3813   6.3867   6.3879   6.5097   6.5127
     6.5161   6.5906   6.6826   6.6831   6.6947   6.7258   6.7470   6.9075
     6.9381   6.9716   6.9861   7.0019   7.0042   7.2390   7.2421   7.4594
     7.4789   7.4884   7.5851   7.5909   7.5977   7.6134   7.7270   8.0230
     8.1019   8.1320   8.1896   8.2154   8.2160   8.2186   8.2359   8.2487
     8.2767   8.3035   8.3072   8.3101   8.3816   8.4092   8.4433   8.4771
     8.4956   8.5596   8.5705   8.5725   8.5727   8.7128   8.7255   8.7288
     8.7439   8.8024   8.8066   8.8619   8.9374   9.0226   9.0287   9.0349
     9.0377   9.0515   9.1374   9.2241   9.2299   9.2654   9.2667   9.3165
     9.4592   9.4605   9.6944   9.7090   9.7425   9.7628   9.8452   9.9206
     9.9218   9.9328   9.9855

          k = 0.0000-0.2165 0.0000 (256176 PWs)   bands (ev):

   -18.9308 -16.3939 -16.2327 -15.7099 -15.5086 -14.6331 -14.4409 -14.4303
   -14.3911 -14.2732 -14.1368 -13.8304 -13.7736 -13.7407 -13.6764 -12.4729
   -12.4326 -12.4234 -12.3640 -12.1949 -12.1395 -10.6303 -10.5735 -10.5464
   -10.4488  -9.4395  -9.3841  -9.3269  -9.1540  -9.0624  -9.0318  -8.4512
    -8.3495  -8.2689  -8.2190  -7.4966  -7.3853  -7.0925  -7.0312  -6.9840
    -6.9594  -6.9025  -6.8964  -6.2575  -6.1502  -6.0101  -6.0073  -5.6085
    -5.4744  -5.3191  -5.2142  -5.1379  -5.0906  -4.9899  -4.9648  -4.9614
    -4.7932  -4.7447  -4.6679  -4.6335  -4.5732  -4.2949  -4.1692  -3.9526
    -3.9443  -3.8230  -3.6352  -3.5383  -3.4292  -3.4283  -3.4250  -3.4130
    -3.3226  -3.3029  -3.1819  -3.1668  -3.1557  -3.1537  -3.1311  -3.1131
    -2.9799  -2.9583  -2.9344  -2.9092  -2.8566  -2.8417  -2.8357  -2.7187
    -2.7125  -2.7094  -2.7045  -2.7020  -2.7002  -2.6992  -2.6549  -2.6547
    -2.4642  -2.4534  -2.3867  -2.3615  -2.3593  -2.3574  -2.3571  -2.2772
    -2.2706  -2.2699  -2.2689  -2.2302  -2.1197  -2.1106  -2.1106  -2.0846
    -2.0844  -2.0355  -1.9851  -1.9785  -1.9353  -1.9033  -1.8974  -1.8908
    -1.8891  -1.8745  -1.8736  -1.8650  -1.8649  -1.8486  -1.8438  -1.7818
    -1.7715  -1.7661  -1.7401  -1.6783  -1.6730  -1.5991  -1.5908  -1.5827
    -1.5823  -1.5669  -1.5094  -1.5047  -1.4955  -1.4937  -1.4411  -1.4392
    -1.4262  -1.4144  -1.4026  -1.4002  -1.3989  -1.3976  -1.3928  -1.3909
    -1.3673  -1.3575  -1.3508  -1.3489  -1.3468  -1.3426  -1.3322  -1.3170
    -1.2684  -1.2661  -1.2626  -1.2570  -1.2564  -1.2120  -1.2118  -1.1742
    -1.1740  -1.1710  -1.1708  -1.1335  -1.1301  -1.1257  -1.1100  -1.1093
    -1.1043  -1.1028  -1.1017  -1.0941  -1.0525  -1.0510  -1.0431  -1.0428
    -1.0344  -1.0343  -1.0204  -1.0178  -1.0177  -1.0097  -0.9546  -0.9497
    -0.9431  -0.9427  -0.9413  -0.9404  -0.9282  -0.9211  -0.9210  -0.9109
    -0.9033  -0.8983  -0.8791  -0.8790  -0.8723  -0.8670  -0.7823  -0.7821
    -0.7738  -0.7736  -0.7659  -0.7564  -0.7563  -0.7310  -0.7296  -0.7281
    -0.7270  -0.7243  -0.7242  -0.7017  -0.6975  -0.6675  -0.6661  -0.6658
    -0.6647  -0.6645  -0.6635  -0.6588  -0.6580  -0.6285  -0.6279  -0.6076
    -0.6067  -0.6066  -0.6066  -0.6061  -0.5725  -0.5722  -0.5697  -0.5682
    -0.5614  -0.5611  -0.5562  -0.5559  -0.5384  -0.5031  -0.4858  -0.4857
    -0.4756  -0.4753  -0.4510  -0.4495  -0.4264  -0.4262  -0.4209  -0.4204
    -0.4174  -0.4174  -0.3959  -0.3957  -0.3934  -0.3891  -0.3884  -0.3846
    -0.3773  -0.3773  -0.3735  -0.3696  -0.3683  -0.3674  -0.3671  -0.3669
    -0.3668  -0.3595  -0.3551  -0.3304  -0.3303  -0.3262  -0.3260  -0.2724
    -0.2655  -0.2630  -0.2626  -0.2603  -0.2561  -0.2554  -0.2498  -0.2485
    -0.2428  -0.2276  -0.2216  -0.2202  -0.2162  -0.2115  -0.2107  -0.2095
    -0.2057  -0.2019  -0.2012  -0.1987  -0.1978  -0.1969  -0.1951  -0.1621
    -0.1408  -0.1403  -0.1403  -0.1386  -0.1193  -0.1169  -0.1166  -0.1162
    -0.1151  -0.1081  -0.1038  -0.0970  -0.0961  -0.0905  -0.0904  -0.0815
    -0.0692  -0.0635  -0.0632  -0.0476  -0.0474  -0.0460  -0.0458  -0.0294
    -0.0263  -0.0121  -0.0120  -0.0031  -0.0013   0.0092   0.0114   0.0127
     0.0129   0.0522   0.0522   0.0629   0.0637   0.0707   0.0776   0.0783
     0.0784   0.1045   0.1056   0.1295   0.1417   0.1436   0.1459   0.1700
     0.1815   0.1850   0.2265   0.2478   0.2589   0.2590   0.2667   0.2673
     0.2866   0.2875   0.2880   0.2884   0.3075   0.3263   0.3263   0.3291
     0.3294   0.3304   0.3304   0.3341   0.3356   0.3356   0.3360   0.3506
     0.3509   0.3542   0.3545   0.3588   0.3606   0.3620   0.3653   0.3877
     0.3916   0.3931   0.4044   0.4045   0.4049   0.4055   0.4144   0.4144
     0.4313   0.4323   0.4353   0.4363   0.4370   0.4372   0.4380   0.4400
     0.4540   0.4547   0.4561   0.4569   0.4602   0.4611   0.4622   0.4654
     0.4660   0.4753   0.4838   0.5225   0.5233   0.5342   0.5345   0.5376
     0.5436   0.5454   0.5455   0.5493   0.5504   0.5531   0.5580   0.5606
     0.5606   0.5609   0.5626   0.5928   0.6017   0.6023   0.6027   0.6048
     0.6188   0.6195   0.6197   0.6205   0.6207   0.6390   0.6412   0.6507
     0.6507   0.6524   0.6589   0.6605   0.6610   0.7097   0.7121   0.7458
     0.7607   0.7654   0.7677   0.7682   0.7706   0.7743   0.7815   0.7844
     0.7861   0.7871   0.7940   0.7943   0.7997   0.7999   0.8013   0.8016
     0.8116   0.8166   0.8193   0.8197   0.8199   0.8232   0.8336   0.8387
     0.8436   0.8448   0.8450   0.8451   0.8457   0.8476   0.8505   0.8538
     0.8620   0.8677   0.8678   0.8687   0.8708   0.8722   0.8725   0.8831
     0.8892   0.8907   0.8994   0.9032   0.9039   0.9074   0.9074   0.9152
     0.9155   0.9161   0.9163   0.9171   0.9193   0.9439   0.9635   0.9697
     0.9977   1.0047   1.0052   1.0151   1.0223   1.0256   1.0272   1.0273
     1.0293   1.0459   1.0470   1.0527   1.0571   1.0648   1.0694   1.0702
     1.0720   1.0743   1.0756   1.0785   1.0791   1.0794   1.0795   1.0804
     1.0821   1.0875   1.0878   1.0936   1.0980   1.1062   1.1074   1.1103
     1.1123   1.1164   1.1181   1.1292   1.1451   1.1459   1.1474   1.1529
     1.1542   1.1550   1.1567   1.1590   1.1703   1.1772   1.1776   1.1799
     1.1880   1.1890   1.1907   1.1913   1.1941   1.2051   1.2075   1.2100
     1.2110   1.2117   1.2263   1.2267   1.2300   1.2437   1.2521   1.2558
     1.2559   1.2571   1.2583   1.2627   1.2698   1.2718   1.2724   1.2759
     1.2888   1.2889   1.3015   1.3035   1.3042   1.3045   1.3226   1.3229
     1.3245   1.3261   1.3285   1.3286   1.3300   1.3301   1.3561   1.3573
     1.3657   1.3660   1.3690   1.3771   1.3884   1.3959   1.3966   1.3973
     1.3978   1.4016   1.4102   1.4113   1.4144   1.4224   1.4472   1.4659
     1.4686   1.4751   1.5025   1.5461   1.5758   1.5794   1.6037   1.6104
     1.6107   1.6340   1.6380   1.6395   1.6614   1.6707   1.6749   1.6818
     1.6932   1.6938   1.6962   1.7130   1.7293   1.7336   2.0427   2.1359
     2.1821   2.2981   2.3058   2.3067   2.3119   2.3757   2.3767   2.4421
     2.4512   2.4546   2.4559   2.4639   2.4709   2.5819   2.5880   2.6398
     2.6593   2.6620   2.6733   2.7564   2.8011   2.8053   3.0485   3.0485
     3.0865   3.1084   3.3220   3.3450   3.5490   3.5584   3.8766   3.8823
     3.9053   3.9702   4.0156   4.0295   4.0405   4.2141   4.2202   4.2246
     4.2255   4.3859   4.3982   4.5128   4.6041   4.6393   4.6935   4.7149
     4.9806   4.9863   4.9886   5.0356   5.2389   5.2398   5.2430   5.2431
     5.3067   5.3771   5.5492   5.6149   5.6855   5.6958   5.7486   6.2457
     6.3237   6.3303   6.3461   6.3579   6.3581   6.4127   6.4515   6.5237
     6.5461   6.5495   6.7196   6.7258   6.9102   6.9199   6.9614   6.9631
     6.9662   6.9804   7.0020   7.0193   7.0279   7.0352   7.2380   7.2520
     7.2668   7.2999   7.3413   7.4072   7.6317   7.6771   7.6982   7.7612
     7.9821   8.0287   8.0310   8.0450   8.2390   8.2400   8.3241   8.3488
     8.3622   8.3673   8.3895   8.4029   8.4365   8.5775   8.5868   8.5967
     8.5979   8.6122   8.6441   8.6485   8.7429   8.8403   8.8623   8.8727
     8.8863   8.9142   8.9717   9.0492   9.0668   9.1074   9.1518   9.1827
     9.2566   9.2613   9.2738   9.2783   9.3446   9.4047   9.4079   9.4131
     9.4272   9.4457   9.4523   9.4987   9.5183   9.5824   9.6132   9.6645
     9.6660   9.7674   9.7684

          k = 0.2500 0.0000 0.0000 (256240 PWs)   bands (ev):

   -18.9263 -16.2995 -16.0289 -15.8688 -15.3422 -15.0547 -15.0293 -14.9453
   -14.7221 -14.0061 -13.9400 -13.5248 -13.2140 -13.1878 -13.1362 -13.1106
   -12.3015 -12.2577 -12.1834 -12.1281 -11.2093 -11.0943 -10.8491 -10.7648
   -10.3868 -10.2480  -9.9612  -9.9380  -9.5432  -9.3101  -9.2161  -8.7314
    -8.0011  -7.8495  -7.7676  -7.6208  -7.5964  -7.5175  -7.1382  -7.0068
    -6.3860  -6.3011  -6.1273  -6.0206  -5.9904  -5.9635  -5.5293  -5.4377
    -5.4357  -5.3775  -5.0856  -5.0173  -4.7667  -4.7336  -4.6138  -4.5907
    -4.5805  -4.5376  -4.5247  -4.4317  -4.3398  -4.2039  -4.1263  -4.1221
    -4.0991  -3.9911  -3.9688  -3.9615  -3.9418  -3.8499  -3.7104  -3.7059
    -3.6614  -3.6326  -3.5889  -3.4962  -3.4899  -3.4014  -3.3515  -3.3291
    -3.2749  -3.2363  -3.1574  -3.1177  -2.9966  -2.9241  -2.9230  -2.9197
    -2.8470  -2.7574  -2.7430  -2.7345  -2.5967  -2.5666  -2.5228  -2.4802
    -2.4523  -2.4393  -2.2235  -2.2233  -2.2067  -2.2054  -2.1554  -2.1181
    -2.0927  -2.0657  -2.0270  -2.0119  -1.9882  -1.9523  -1.9259  -1.9256
    -1.9175  -1.9172  -1.8977  -1.8686  -1.8643  -1.8561  -1.8358  -1.8329
    -1.8115  -1.7908  -1.7751  -1.7724  -1.7451  -1.7275  -1.7078  -1.7036
    -1.7031  -1.7027  -1.7022  -1.6953  -1.6465  -1.6346  -1.6281  -1.6254
    -1.6139  -1.6105  -1.4965  -1.4619  -1.4545  -1.4365  -1.4201  -1.3978
    -1.3916  -1.3687  -1.3666  -1.3617  -1.3557  -1.3474  -1.3431  -1.3324
    -1.3255  -1.3094  -1.3057  -1.3020  -1.2929  -1.2781  -1.2619  -1.2601
    -1.2564  -1.2522  -1.2465  -1.2425  -1.2361  -1.2343  -1.2069  -1.1977
    -1.1843  -1.1762  -1.1730  -1.1720  -1.1711  -1.1475  -1.1389  -1.1363
    -1.1328  -1.1274  -1.1206  -1.1167  -1.1147  -1.1048  -1.1046  -1.1031
    -1.1023  -1.0999  -1.0988  -1.0884  -1.0706  -1.0666  -1.0648  -1.0515
    -1.0366  -1.0291  -1.0257  -1.0238  -1.0205  -0.9781  -0.9757  -0.9397
    -0.9394  -0.9215  -0.9182  -0.9117  -0.8949  -0.8944  -0.8805  -0.8801
    -0.8770  -0.8723  -0.8679  -0.8646  -0.8476  -0.7773  -0.7264  -0.7257
    -0.7244  -0.7153  -0.6926  -0.6911  -0.6903  -0.6743  -0.6731  -0.6729
    -0.6724  -0.6554  -0.6512  -0.6509  -0.6470  -0.6454  -0.6373  -0.6122
    -0.6093  -0.6089  -0.6064  -0.6059  -0.6023  -0.5839  -0.5837  -0.5825
    -0.5757  -0.5260  -0.5229  -0.5226  -0.5220  -0.5162  -0.5120  -0.5041
    -0.4978  -0.4893  -0.4811  -0.4806  -0.4581  -0.4566  -0.4555  -0.4514
    -0.4386  -0.4178  -0.4176  -0.4147  -0.4142  -0.4050  -0.4043  -0.3932
    -0.3909  -0.3885  -0.3797  -0.3763  -0.3588  -0.3541  -0.3486  -0.3241
    -0.3227  -0.3216  -0.3199  -0.3159  -0.3054  -0.3048  -0.3033  -0.2992
    -0.2828  -0.2749  -0.2746  -0.2631  -0.2592  -0.2582  -0.2433  -0.2376
    -0.2348  -0.2343  -0.2069  -0.1895  -0.1867  -0.1852  -0.1809  -0.1788
    -0.1665  -0.1436  -0.1430  -0.1379  -0.1357  -0.1324  -0.1310  -0.1284
    -0.1239  -0.1196  -0.1182  -0.1163  -0.1162  -0.1135  -0.1101  -0.0924
    -0.0903  -0.0885  -0.0880  -0.0827  -0.0812  -0.0641  -0.0638  -0.0494
    -0.0455  -0.0270  -0.0233  -0.0110  -0.0101  -0.0070  -0.0064  -0.0043
     0.0126   0.0157   0.0172   0.0187   0.0203   0.0213   0.0531   0.0571
     0.0683   0.0772   0.1269   0.1294   0.1305   0.1352   0.1436   0.1467
     0.1477   0.1501   0.1511   0.1571   0.1599   0.1621   0.1658   0.1666
     0.1688   0.1748   0.1837   0.1840   0.1852   0.1877   0.1961   0.1981
     0.2027   0.2078   0.2121   0.2140   0.2158   0.2313   0.2415   0.2433
     0.2753   0.2764   0.2826   0.2873   0.2986   0.2990   0.3192   0.3197
     0.3202   0.3245   0.3307   0.3402   0.3541   0.3573   0.3589   0.3612
     0.3615   0.3679   0.3689   0.3719   0.3732   0.3885   0.3933   0.4030
     0.4092   0.4178   0.4185   0.4204   0.4236   0.4252   0.4285   0.4317
     0.4328   0.4504   0.4558   0.4571   0.4619   0.4674   0.4688   0.4725
     0.4742   0.4777   0.4870   0.4879   0.4936   0.4944   0.4951   0.5132
     0.5155   0.5354   0.5358   0.5406   0.5431   0.5474   0.5482   0.5539
     0.5657   0.5798   0.5830   0.6007   0.6040   0.6170   0.6175   0.6210
     0.6224   0.6289   0.6411   0.6440   0.6477   0.6524   0.6561   0.6566
     0.6631   0.6684   0.6782   0.6800   0.6831   0.6912   0.6964   0.7000
     0.7003   0.7160   0.7332   0.7334   0.7351   0.7362   0.7536   0.7577
     0.7646   0.7677   0.7694   0.7713   0.7722   0.7782   0.7793   0.7825
     0.7848   0.7964   0.8149   0.8263   0.8270   0.8305   0.8325   0.8332
     0.8462   0.8477   0.8666   0.8687   0.8690   0.8699   0.8746   0.8758
     0.8780   0.8865   0.8944   0.8952   0.8960   0.8966   0.8974   0.8990
     0.8992   0.9017   0.9077   0.9091   0.9099   0.9145   0.9180   0.9234
     0.9342   0.9358   0.9401   0.9419   0.9472   0.9475   0.9519   0.9535
     0.9669   0.9676   0.9728   0.9806   0.9844   0.9852   0.9880   0.9886
     1.0006   1.0132   1.0151   1.0157   1.0213   1.0253   1.0294   1.0325
     1.0333   1.0356   1.0455   1.0539   1.0621   1.0669   1.0703   1.0714
     1.1061   1.1120   1.1141   1.1192   1.1211   1.1234   1.1275   1.1300
     1.1307   1.1314   1.1373   1.1398   1.1451   1.1529   1.1556   1.1568
     1.1593   1.1671   1.1764   1.1773   1.1778   1.1801   1.1824   1.1879
     1.1902   1.1909   1.1947   1.1950   1.1982   1.1986   1.2079   1.2117
     1.2138   1.2228   1.2256   1.2290   1.2301   1.2360   1.2363   1.2374
     1.2414   1.2542   1.2573   1.2586   1.2588   1.2775   1.2785   1.2858
     1.2885   1.2962   1.2993   1.3000   1.3007   1.3035   1.3044   1.3060
     1.3098   1.3111   1.3120   1.3197   1.3214   1.3343   1.3413   1.3423
     1.3442   1.3453   1.3466   1.3473   1.3571   1.3609   1.3616   1.3660
     1.3733   1.3833   1.3851   1.3869   1.3917   1.3925   1.3966   1.4175
     1.4239   1.4303   1.4442   1.4591   1.4895   1.5007   1.5016   1.5064
     1.5290   1.5515   1.5817   1.6217   1.6405   1.6416   1.6491   1.6544
     1.6788   1.6876   1.7150   1.8029   1.8911   1.9077   1.9450   1.9661
     1.9742   1.9795   2.0213   2.0806   2.1480   2.1576   2.4334   2.4424
     2.4477   2.4512   2.6175   2.8526   2.8533   2.9110   3.0698   3.0706
     3.0957   3.0958   3.1705   3.1843   3.3549   3.3928   3.4805   3.4812
     3.5131   3.5163   3.5848   3.5876   3.6033   3.6060   3.6454   3.7569
     3.7593   3.8667   3.8702   3.9823   4.0931   4.1087   4.1136   4.1538
     4.3044   4.3421   4.4806   4.6732   4.7054   4.7169   4.7913   5.0820
     5.1025   5.1029   5.1112   5.2179   5.2536   5.3407   5.3622   5.3747
     5.3925   5.4750   5.5064   5.5377   5.6049   5.6236   5.6285   5.6346
     5.7353   5.7424   5.7524   5.8850   5.8880   5.9122   5.9414   6.0824
     6.5118   6.5866   6.5947   6.5987   6.6330   6.6746   6.7031   6.7971
     6.8171   6.8997   6.9181   6.9348   6.9376   6.9537   7.0809   7.1635
     7.1850   7.2352   7.3162   7.4398   7.4447   7.4539   7.4593   7.6479
     7.7030   7.7081   7.7293   7.8849   7.8933   7.9045   7.9457   7.9651
     8.1278   8.1615   8.1776   8.2000   8.2017   8.2719   8.3075   8.3396
     8.3839   8.4471   8.5196   8.5313   8.5408   8.7119   8.8289   8.8421
     8.9732   8.9886   9.0142   9.0167   9.0650   9.0770   9.0990   9.1540
     9.1617   9.1742   9.2007   9.2598   9.2944   9.3251   9.3382   9.3588
     9.4227   9.4773   9.6043   9.6089   9.6307   9.7852   9.8057   9.8790
     9.8849   9.9040   9.9184

          k = 0.2500-0.2165 0.0000 (256316 PWs)   bands (ev):

   -18.9263 -16.2701 -16.1464 -15.5919 -15.5001 -15.2830 -15.1425 -14.6143
   -14.5310 -14.1587 -14.0448 -13.5082 -13.3579 -13.2106 -13.1765 -12.7666
   -12.7088 -12.1295 -12.0528 -11.4896 -11.4657 -11.2887 -11.1729 -10.9542
   -10.7182  -9.8852  -9.7939  -9.3964  -9.3756  -9.1730  -9.1239  -8.7014
    -8.6745  -8.5408  -8.4842  -7.2919  -7.0730  -6.9036  -6.7361  -6.6634
    -6.5490  -6.5374  -6.3935  -6.1470  -6.0992  -5.8320  -5.8294  -5.5265
    -5.3381  -5.1494  -5.0435  -4.9648  -4.9240  -4.8013  -4.8000  -4.6254
    -4.6133  -4.5528  -4.4732  -4.4666  -4.4164  -4.2820  -4.2293  -4.2195
    -4.1583  -4.0113  -3.9114  -3.8404  -3.8041  -3.6973  -3.6706  -3.6334
    -3.5832  -3.5825  -3.5492  -3.4548  -3.4362  -3.3471  -3.2721  -3.2492
    -3.1563  -3.1358  -3.1004  -3.0396  -3.0339  -3.0332  -3.0225  -2.9922
    -2.9305  -2.8516  -2.7571  -2.7299  -2.5925  -2.4980  -2.4406  -2.4364
    -2.3814  -2.3300  -2.2951  -2.2925  -2.2924  -2.2712  -2.2034  -2.1343
    -2.1340  -2.1001  -2.0872  -2.0683  -2.0331  -1.9763  -1.9640  -1.9371
    -1.9369  -1.9345  -1.8983  -1.8737  -1.8641  -1.8487  -1.8460  -1.8357
    -1.8342  -1.8318  -1.8182  -1.8054  -1.8008  -1.8005  -1.8002  -1.7920
    -1.7911  -1.7795  -1.7088  -1.7025  -1.5936  -1.5926  -1.4941  -1.4886
[...]
     1.1043   1.1094   1.1183   1.1210   1.1219   1.1248   1.1467   1.1476
     1.1548   1.1556   1.1689   1.1716   1.1757   1.1758   1.1869   1.1875
     1.1932   1.2004   1.2020   1.2075   1.2090   1.2108   1.2110   1.2124
     1.2228   1.2233   1.2248   1.2278   1.2346   1.2373   1.2440   1.2515
     1.2577   1.2588   1.2594   1.2597   1.2618   1.2623   1.2698   1.2707
     1.2793   1.2797   1.2829   1.2861   1.2936   1.2980   1.3019   1.3031
     1.3124   1.3144   1.3148   1.3155   1.3185   1.3198   1.3203   1.3233
     1.3305   1.3307   1.3326   1.3532   1.3557   1.3560   1.3617   1.3659
     1.3767   1.3799   1.3938   1.3995   1.4022   1.4054   1.4251   1.4281
     1.4343   1.4345   1.4385   1.4559   1.4622   1.5061   1.5238   1.5472
     1.5488   1.5745   1.6259   1.6329   1.6418   1.6591   1.6604   1.6660
     1.6693   1.6769   1.6837   1.7319   1.7386   1.8139   1.8531   2.0007
     2.0051   2.0366   2.0406   2.1677   2.1700   2.4511   2.4617   2.5016
     2.6649   2.6685   2.6744   2.6799   2.6892   2.7150   2.7333   2.7652
     2.8631   2.8650   2.9727   2.9813   3.4235   3.4258   3.5054   3.5095
     3.5810   3.6026   3.7135   3.7215   3.7278   3.7295   3.8769   3.8837
     3.9360   3.9437   4.0399   4.0427   4.2520   4.2534   4.2921   4.3462
     4.4426   4.4445   4.5391   4.5468   4.6093   4.6516   4.6932   4.8316
     4.8421   4.9163   4.9405   4.9778   5.0479   5.1659   5.1873   5.2525
     5.3291   5.3325   5.3421   5.3438   5.3598   5.5511   5.6426   5.6491
     5.7907   5.7981   5.8181   5.8639   5.9130   6.2188   6.4732   6.4850
     6.5403   6.5526   6.6405   6.6481   6.7644   6.7682   6.9523   6.9621
     6.9822   6.9853   6.9863   6.9982   7.0411   7.0945   7.1002   7.1075
     7.2043   7.2153   7.2326   7.2430   7.3086   7.3243   7.3262   7.5515
     7.5630   7.6394   7.6898   7.7765   7.9066   7.9172   7.9316   8.0735
     8.0798   8.1385   8.1514   8.1826   8.2664   8.4728   8.4756   8.5299
     8.5409   8.5610   8.5743   8.5986   8.6052   8.6162   8.7783   8.8365
     8.8439   8.8571   9.0148   9.0253   9.0349   9.0464   9.0624   9.0788
     9.1062   9.1175   9.1513   9.1520   9.1718   9.2165   9.2415   9.2490
     9.2654   9.3154   9.3365   9.4992   9.5081   9.5839   9.6162   9.6364
     9.6948   9.7605   9.8278

          k =-0.5000 0.0000 0.0000 (256496 PWs)   bands (ev):

   -18.9217 -16.0471 -15.8952 -15.6862 -15.6741 -15.6294 -15.3089 -14.6407
   -14.5825 -14.5441 -14.3579 -12.9245 -12.8446 -12.8151 -12.7672 -12.3771
   -12.3189 -11.9706 -11.9642 -11.8725 -11.8688 -11.2898 -11.2731 -10.9786
   -10.8176 -10.3450 -10.3277 -10.0757  -9.8222  -9.1877  -9.1767  -9.0341
    -9.0020  -7.8347  -7.7018  -7.6372  -7.4798  -7.4296  -7.4171  -6.3454
    -6.2819  -5.9027  -5.4373  -5.4349  -5.3970  -5.2488  -5.0726  -5.0236
    -4.9299  -4.9287  -4.9273  -4.9208  -4.8549  -4.8336  -4.8041  -4.7668
    -4.7349  -4.6556  -4.6324  -4.5977  -4.5687  -4.4737  -4.4349  -4.3664
    -4.1540  -4.1262  -4.1216  -4.0761  -4.0744  -3.8565  -3.8094  -3.7375
    -3.6591  -3.6409  -3.6334  -3.5451  -3.5445  -3.5439  -3.5425  -3.4855
    -3.4685  -3.4422  -3.4321  -3.3131  -3.0176  -2.9892  -2.9153  -2.8969
    -2.8896  -2.8641  -2.8626  -2.7905  -2.7191  -2.7091  -2.5495  -2.5462
    -2.5364  -2.4314  -2.4188  -2.4160  -2.4145  -2.1262  -2.0037  -2.0032
    -2.0025  -2.0021  -2.0009  -1.9994  -1.9718  -1.9489  -1.8709  -1.8691
    -1.8554  -1.8254  -1.7753  -1.7753  -1.7746  -1.7723  -1.7489  -1.7268
    -1.7261  -1.7255  -1.7239  -1.6243  -1.6192  -1.6111  -1.6107  -1.5592
    -1.5584  -1.5514  -1.5497  -1.5474  -1.5466  -1.5312  -1.5299  -1.5186
    -1.4830  -1.4827  -1.4768  -1.4760  -1.4673  -1.4658  -1.4622  -1.4598
    -1.4567  -1.4473  -1.4155  -1.4152  -1.4134  -1.4109  -1.3931  -1.3920
    -1.3916  -1.3903  -1.3281  -1.3279  -1.3092  -1.3075  -1.3053  -1.3050
    -1.2798  -1.2783  -1.2778  -1.2769  -1.2741  -1.2724  -1.2713  -1.2538
    -1.2324  -1.2317  -1.2301  -1.2297  -1.2100  -1.2093  -1.1798  -1.1795
    -1.1727  -1.1343  -1.1337  -1.1061  -1.1057  -1.1026  -1.1023  -1.0845
    -1.0757  -1.0753  -1.0743  -1.0733  -1.0720  -1.0688  -1.0673  -1.0570
    -1.0566  -1.0526  -1.0517  -1.0498  -1.0286  -1.0278  -0.9668  -0.9661
    -0.9639  -0.9632  -0.9193  -0.9189  -0.8358  -0.8354  -0.8343  -0.8341
    -0.8108  -0.8071  -0.8044  -0.7980  -0.7974  -0.7966  -0.7961  -0.7889
    -0.7853  -0.7720  -0.7590  -0.7556  -0.7552  -0.7532  -0.7449  -0.7437
    -0.7243  -0.7233  -0.7213  -0.7082  -0.6357  -0.6353  -0.6290  -0.6077
    -0.6014  -0.6004  -0.5968  -0.5810  -0.5807  -0.5701  -0.5352  -0.5345
    -0.5314  -0.5301  -0.5298  -0.5278  -0.5270  -0.5185  -0.5066  -0.4923
    -0.4916  -0.4903  -0.4897  -0.4782  -0.4543  -0.4537  -0.4530  -0.4526
    -0.4194  -0.4192  -0.4191  -0.4186  -0.4082  -0.4077  -0.3748  -0.3747
    -0.3726  -0.3721  -0.3636  -0.3601  -0.3557  -0.3485  -0.3331  -0.3269
    -0.3196  -0.2789  -0.2605  -0.2588  -0.2585  -0.2578  -0.2533  -0.2527
    -0.2506  -0.2497  -0.2141  -0.2133  -0.2096  -0.2077  -0.1770  -0.1768
    -0.1739  -0.1484  -0.1477  -0.1462  -0.1461  -0.1453  -0.1452  -0.1441
    -0.1433  -0.1429  -0.1424  -0.1410  -0.1407  -0.0730  -0.0698  -0.0632
    -0.0618  -0.0588  -0.0578  -0.0556  -0.0535  -0.0526  -0.0511  -0.0487
    -0.0465  -0.0438  -0.0426  -0.0395  -0.0381  -0.0377  -0.0366  -0.0271
    -0.0212  -0.0211  -0.0057  -0.0054  -0.0042  -0.0040  -0.0037  -0.0035
     0.0041   0.0042   0.0044   0.0049   0.0178   0.0181   0.0220   0.0303
     0.0307   0.0311   0.0318   0.0449   0.0592   0.0612   0.0823   0.1408
     0.1492   0.1602   0.1610   0.1638   0.1640   0.1950   0.1955   0.1962
     0.1972   0.2074   0.2103   0.2133   0.2146   0.2193   0.2198   0.2207
     0.2213   0.2258   0.2262   0.2288   0.2296   0.2310   0.2350   0.2465
     0.2482   0.2489   0.2553   0.2609   0.2637   0.2642   0.2654   0.2744
     0.2747   0.2810   0.2811   0.3115   0.3228   0.3607   0.3655   0.3689
     0.3694   0.3809   0.3825   0.3952   0.3968   0.4021   0.4030   0.4048
     0.4049   0.4078   0.4079   0.4102   0.4108   0.4116   0.4144   0.4150
     0.4154   0.4211   0.4213   0.4237   0.4242   0.4419   0.4466   0.4605
     0.4605   0.4677   0.4722   0.4782   0.4908   0.4947   0.4955   0.4968
     0.4995   0.5062   0.5068   0.5070   0.5102   0.5108   0.5116   0.5229
     0.5243   0.5298   0.5304   0.5432   0.5452   0.5457   0.5473   0.5767
     0.5810   0.5821   0.5828   0.5859   0.5886   0.5972   0.6031   0.6140
     0.6345   0.6360   0.6400   0.6406   0.6423   0.6442   0.6453   0.6461
     0.6851   0.7136   0.7142   0.7179   0.7182   0.7190   0.7192   0.7247
     0.7250   0.7274   0.7293   0.7302   0.7321   0.7403   0.7420   0.7599
     0.7613   0.7642   0.7646   0.7658   0.7800   0.7809   0.7817   0.7823
     0.7828   0.7845   0.7853   0.8197   0.8249   0.8255   0.8260   0.8410
     0.8612   0.8838   0.8896   0.8903   0.8910   0.8945   0.9181   0.9218
     0.9220   0.9234   0.9285   0.9400   0.9413   0.9493   0.9535   0.9555
     0.9645   0.9697   0.9718   0.9879   0.9887   0.9925   0.9941   0.9943
     0.9959   0.9978   0.9993   1.0025   1.0041   1.0106   1.0117   1.0124
     1.0128   1.0131   1.0139   1.0158   1.0169   1.0462   1.0535   1.0537
     1.0563   1.0585   1.0715   1.0748   1.0871   1.0893   1.0906   1.0931
     1.0933   1.0996   1.1066   1.1093   1.1180   1.1182   1.1190   1.1198
     1.1282   1.1291   1.1305   1.1336   1.1372   1.1376   1.1424   1.1528
     1.1647   1.1756   1.1765   1.1852   1.1908   1.1921   1.1925   1.1928
     1.1938   1.1939   1.1956   1.2011   1.2046   1.2063   1.2066   1.2073
     1.2081   1.2091   1.2100   1.2179   1.2182   1.2183   1.2192   1.2209
     1.2222   1.2256   1.2258   1.2402   1.2417   1.2479   1.2648   1.2649
     1.2673   1.2682   1.2688   1.2707   1.2720   1.2786   1.2867   1.2907
     1.2918   1.2921   1.3051   1.3054   1.3130   1.3138   1.3264   1.3264
     1.3268   1.3287   1.3433   1.3457   1.3486   1.3511   1.3523   1.3540
     1.3550   1.3552   1.3557   1.3608   1.3756   1.3756   1.3784   1.3891
     1.3903   1.3905   1.3913   1.3915   1.3985   1.4042   1.4125   1.4501
     1.4565   1.4589   1.4832   1.4836   1.4869   1.4891   1.5327   1.7155
     1.7397   1.9035   1.9186   1.9262   1.9319   2.0929   2.1206   2.1413
     2.1518   2.1589   2.1606   2.1700   2.1704   2.4033   2.5155   2.5196
     2.5226   2.5623   2.7090   2.7145   2.7155   2.7386   3.0609   3.0611
     3.0654   3.0656   3.3547   3.3589   3.6529   3.6556   3.6568   3.6573
     3.8033   3.8040   3.8099   3.8132   3.9467   3.9473   3.9518   3.9549
     4.0979   4.1062   4.3129   4.4342   4.4676   4.6136   4.6611   4.6629
     4.6710   4.6742   4.7023   4.7034   4.7556   4.7778   4.8935   4.8938
     4.9267   4.9297   4.9331   4.9362   4.9573   4.9585   4.9865   4.9916
     5.0349   5.0671   5.0723   5.2949   5.4269   5.4343   5.4398   5.5139
     5.6091   5.6245   5.7582   5.8677   5.8693   5.8890   5.8916   5.9142
     5.9465   5.9469   5.9575   6.0257   6.3477   6.3513   6.3630   6.3727
     6.3862   6.3885   6.4090   6.9440   6.9878   6.9896   7.0089   7.0200
     7.0204   7.3013   7.4820   7.4826   7.4853   7.4867   7.4884   7.4920
     7.5427   7.6344   7.6942   7.7157   7.7751   7.7778   7.7839   7.8124
     7.9440   7.9493   7.9611   8.0028   8.0592   8.0620   8.0699   8.1227
     8.3638   8.4063   8.7136   8.7193   8.7242   8.7257   8.8304   8.8822
     8.8978   8.9309   8.9620   8.9643   8.9719   8.9772   8.9855   9.0999
     9.1356   9.1418   9.1646   9.1855   9.3395   9.3628   9.4195   9.4199
     9.4256   9.4334   9.4394   9.4804   9.4816   9.4856   9.4885   9.5546
     9.7815   9.8068   9.9177

          k =-0.5000-0.2165 0.0000 (256328 PWs)   bands (ev):

   -18.9217 -15.9964 -15.9025 -15.8919 -15.6688 -15.2495 -15.2233 -15.1766
   -14.8743 -13.8589 -13.7728 -13.7378 -13.6934 -12.3784 -12.3298 -12.0891
   -12.0862 -11.8921 -11.7859 -11.7258 -11.6588 -11.5982 -11.5858 -11.4941
   -11.4840 -10.0379 -10.0179  -9.8303  -9.7987  -9.2066  -8.9649  -8.8482
    -8.8334  -8.3012  -8.2823  -8.0910  -8.0672  -6.6068  -6.3840  -6.2009
    -6.0143  -5.9010  -5.6548  -5.4366  -5.4159  -5.3704  -5.3078  -5.3075
    -5.3057  -5.3047  -5.2422  -5.1101  -5.1026  -4.7143  -4.6417  -4.4786
    -4.4748  -4.4480  -4.4289  -4.3302  -4.3242  -4.3236  -4.3219  -4.3130
    -4.2751  -4.2477  -4.1552  -4.0123  -3.9688  -3.9635  -3.9135  -3.8435
    -3.8044  -3.7522  -3.7465  -3.7389  -3.6767  -3.6758  -3.5904  -3.5745
    -3.5721  -3.3772  -3.1720  -3.1711  -3.1549  -2.8149  -2.7459  -2.7083
    -2.7035  -2.7029  -2.6995  -2.6856  -2.6389  -2.6377  -2.6327  -2.5723
    -2.4615  -2.4067  -2.2307  -2.2229  -2.2223  -2.2191  -2.2064  -2.1738
    -2.1464  -2.1324  -2.1315  -2.1218  -2.1079  -2.0882  -1.9294  -1.9283
    -1.9252  -1.9236  -1.8553  -1.8496  -1.8474  -1.7409  -1.6347  -1.6188
    -1.6177  -1.6175  -1.6170  -1.6167  -1.6125  -1.5785  -1.5778  -1.5757
    -1.5703  -1.5571  -1.5562  -1.5549  -1.5547  -1.5109  -1.5099  -1.5096
    -1.5085  -1.5080  -1.5078  -1.5019  -1.5006  -1.4819  -1.4818  -1.4815
    -1.4814  -1.4512  -1.4356  -1.4308  -1.4307  -1.4230  -1.3834  -1.3534
    -1.3516  -1.3511  -1.3280  -1.3148  -1.3143  -1.3139  -1.3138  -1.2982
    -1.2972  -1.2963  -1.2889  -1.2447  -1.2445  -1.2438  -1.2432  -1.2394
    -1.2392  -1.2390  -1.2378  -1.2114  -1.2056  -1.2039  -1.1848  -1.1845
    -1.1772  -1.1764  -1.1674  -1.1671  -1.1623  -1.1616  -1.1606  -1.1604
    -1.1601  -1.1598  -1.1588  -1.1316  -1.1133  -1.0952  -1.0093  -1.0084
    -1.0069  -1.0065  -0.9768  -0.9764  -0.9761  -0.9760  -0.8958  -0.8954
    -0.8943  -0.8938  -0.8880  -0.8877  -0.8869  -0.8867  -0.8863  -0.8853
    -0.8826  -0.8690  -0.8239  -0.8232  -0.8229  -0.8215  -0.8151  -0.8135
    -0.8128  -0.8120  -0.7954  -0.7938  -0.7893  -0.7872  -0.7081  -0.7022
    -0.6987  -0.6972  -0.6932  -0.6927  -0.6926  -0.6873  -0.6237  -0.6232
    -0.6223  -0.6208  -0.5733  -0.5728  -0.5722  -0.5716  -0.5528  -0.5524
    -0.5519  -0.5518  -0.5338  -0.5267  -0.5240  -0.5225  -0.5140  -0.5136
    -0.5121  -0.5114  -0.4804  -0.4783  -0.4759  -0.4753  -0.3998  -0.3995
    -0.3952  -0.3949  -0.3811  -0.3807  -0.3802  -0.3800  -0.3652  -0.3642
    -0.3636  -0.3636  -0.2813  -0.2811  -0.2798  -0.2789  -0.2777  -0.2768
    -0.2766  -0.2757  -0.2754  -0.2736  -0.2730  -0.2717  -0.2350  -0.2349
    -0.2348  -0.2346  -0.2239  -0.2238  -0.2235  -0.2234  -0.2188  -0.2185
    -0.2181  -0.2168  -0.1730  -0.1505  -0.1502  -0.1497  -0.1486  -0.1261
    -0.1239  -0.1227  -0.1222  -0.0809  -0.0742  -0.0704  -0.0656  -0.0623
    -0.0572  -0.0440  -0.0431  -0.0428  -0.0413  -0.0389  -0.0362  -0.0356
    -0.0346  -0.0339  -0.0310  -0.0300  -0.0294  -0.0241  -0.0241  -0.0236
    -0.0216  -0.0167  -0.0162  -0.0148  -0.0136  -0.0131  -0.0001   0.0001
     0.0002   0.0020   0.0277   0.0278   0.0285   0.0287   0.0368   0.0377
     0.0381   0.0403   0.0869   0.0870   0.0878   0.0880   0.1138   0.1194
     0.1200   0.1209   0.1383   0.1929   0.1939   0.1982   0.1988   0.2000
     0.2042   0.2053   0.2115   0.2143   0.2168   0.2199   0.2212   0.2229
     0.2232   0.2298   0.2331   0.2344   0.2384   0.2428   0.2430   0.2449
     0.2459   0.2468   0.2473   0.2529   0.2545   0.2591   0.2649   0.2794
     0.2816   0.3248   0.3256   0.3285   0.3303   0.3316   0.3331   0.3332
     0.3369   0.3471   0.3473   0.3477   0.3483   0.3765   0.3790   0.3854
     0.3855   0.3865   0.3878   0.3928   0.3929   0.4264   0.4284   0.4297
     0.4306   0.4338   0.4397   0.4419   0.4437   0.4439   0.4457   0.4472
     0.4475   0.4516   0.4517   0.4521   0.4548   0.4654   0.4655   0.4675
     0.4692   0.4703   0.4819   0.4848   0.4856   0.5395   0.5479   0.5530
     0.5569   0.5577   0.5589   0.5592   0.5608   0.5609   0.5679   0.5692
     0.5698   0.5706   0.5768   0.5842   0.5922   0.6048   0.6055   0.6065
     0.6074   0.6076   0.6084   0.6085   0.6103   0.6446   0.6570   0.6598
     0.6611   0.6829   0.6879   0.6884   0.6903   0.6904   0.6977   0.7114
     0.7155   0.7236   0.7249   0.7254   0.7265   0.7501   0.7501   0.7527
     0.7533   0.8006   0.8017   0.8021   0.8029   0.8310   0.8338   0.8344
     0.8351   0.8401   0.8823   0.8854   0.8865   0.8890   0.9032   0.9032
     0.9059   0.9086   0.9127   0.9137   0.9171   0.9206   0.9207   0.9214
     0.9218   0.9223   0.9224   0.9252   0.9254   0.9269   0.9295   0.9325
     0.9529   0.9537   0.9555   0.9581   0.9589   0.9593   0.9616   0.9620
     0.9642   0.9666   0.9762   0.9769   0.9785   0.9960   0.9968   1.0024
     1.0029   1.0036   1.0066   1.0117   1.0129   1.0187   1.0227   1.0231
     1.0242   1.0544   1.0653   1.0672   1.0703   1.0716   1.0729   1.0738
     1.0792   1.0960   1.0981   1.0989   1.0990   1.1031   1.1163   1.1165
     1.1222   1.1257   1.1305   1.1388   1.1395   1.1446   1.1467   1.1470
     1.1474   1.1559   1.1561   1.1568   1.1580   1.1622   1.1634   1.1643
     1.1652   1.1952   1.2277   1.2284   1.2288   1.2292   1.2306   1.2307
     1.2318   1.2319   1.2358   1.2376   1.2424   1.2454   1.2500   1.2508
     1.2537   1.2549   1.2588   1.2604   1.2616   1.2619   1.2649   1.2674
     1.2689   1.2712   1.2714   1.2730   1.2735   1.2742   1.2835   1.2865
     1.2885   1.2918   1.2928   1.2931   1.2947   1.3261   1.3267   1.3268
     1.3272   1.3393   1.3415   1.3416   1.3433   1.3474   1.3547   1.3555
     1.3601   1.3711   1.3786   1.3787   1.3796   1.4020   1.4329   1.4354
     1.4392   1.4493   1.4498   1.4505   1.4508   1.4762   1.4777   1.4800
     1.4827   1.4882   1.4901   1.4918   1.4924   1.4939   1.4947   1.4970
     1.4983   1.6848   1.7029   1.7087   1.7145   1.7608   1.7701   2.2007
     2.2347   2.2353   2.2486   2.3497   2.4365   2.4367   2.4423   2.4949
     2.6822   2.6839   2.6847   2.7242   2.9899   2.9904   2.9942   3.0028
     3.3289   3.3299   3.3307   3.3325   3.5215   3.5217   3.5270   3.5302
     3.8039   3.8048   3.8065   3.8072   4.1002   4.1038   4.1073   4.1077
     4.2366   4.2426   4.2528   4.2640   4.4491   4.4504   4.4506   4.4578
     4.4706   4.4849   4.4877   4.5002   4.7787   4.7895   4.7896   4.8518
     4.9139   4.9706   4.9777   5.0529   5.0566   5.0617   5.0647   5.1352
     5.1915   5.2180   5.2326   5.2512   5.2555   5.2638   5.2686   5.3617
     5.5593   5.6270   5.6289   5.6296   5.6300   5.6564   5.6586   5.7727
     5.8042   5.8068   5.8439   6.5369   6.6442   6.6479   6.6787   6.6803
     7.0063   7.0079   7.0120   7.0194   7.0451   7.0481   7.0497   7.0856
     7.2057   7.2078   7.2135   7.2181   7.2510   7.2523   7.2530   7.2656
     7.5304   7.5359   7.5446   7.5504   7.8091   7.8128   7.8762   7.8839
     7.8862   7.9168   7.9393   8.1037   8.1171   8.1191   8.1384   8.4156
     8.4313   8.5951   8.6077   8.7709   8.7781   8.7784   8.7812   8.8011
     8.8117   8.8123   8.8156   8.8185   8.8493   8.8501   8.8544   8.8730
     9.0873   9.0878   9.1158   9.1291   9.2211   9.3704   9.4302   9.4352
     9.4624   9.4741   9.4919   9.4942   9.5053   9.5334   9.5525   9.6490
     9.6898   9.8593   9.9956

     the Fermi energy is     3.1990 ev

!    total energy              =  -12738.74219473 Ry
     Harris-Foulkes estimate   =  -12738.74219464 Ry
     estimated scf accuracy    <          5.5E-09 Ry

     The total energy is the sum of the following terms:

     one-electron contribution = -109333.08153645 Ry
     hartree contribution      =   56025.94163058 Ry
     xc contribution           =   -4454.64677770 Ry
     ewald contribution        =   45029.42012978 Ry
     Dispersion Correction     =      -3.00718000 Ry
     smearing contrib. (-TS)   =      -3.36846094 Ry

     total magnetization       =     0.00 Bohr mag/cell
     absolute magnetization    =     0.00 Bohr mag/cell

     convergence has been achieved in  48 iterations

     Writing output data file gc.save
 
     init_run     :    198.89s CPU    212.61s WALL (       1 calls)
     electrons    :  24643.78s CPU  26331.98s WALL (       1 calls)

     Called by init_run:
     wfcinit      :    195.39s CPU    208.66s WALL (       1 calls)
     potinit      :      0.52s CPU      0.58s WALL (       1 calls)

     Called by electrons:
     c_bands      :  22649.39s CPU  24159.73s WALL (      48 calls)
     sum_band     :   1805.14s CPU   1953.62s WALL (      48 calls)
     v_of_rho     :      6.93s CPU      8.27s WALL (      49 calls)
     newd         :     15.51s CPU     22.18s WALL (      49 calls)
     mix_rho      :    166.60s CPU    187.92s WALL (      48 calls)

     Called by c_bands:
     init_us_2    :     80.61s CPU     81.58s WALL (    1164 calls)
     cegterg      :  22291.02s CPU  23788.75s WALL (     586 calls)

     Called by sum_band:
     sum_band:bec :     11.79s CPU     13.15s WALL (     576 calls)
     addusdens    :     19.96s CPU     26.46s WALL (      48 calls)

     Called by *egterg:
     h_psi        :   8617.12s CPU   9308.50s WALL (    3403 calls)
     s_psi        :   2077.97s CPU   2100.75s WALL (    3403 calls)
     g_psi        :     21.50s CPU     21.55s WALL (    2805 calls)
     cdiaghg      :   5765.69s CPU   5987.23s WALL (    3381 calls)

     Called by h_psi:
     add_vuspsi   :   2087.91s CPU   2114.28s WALL (    3403 calls)

     General routines
     calbec       :   2997.16s CPU   3018.49s WALL (    3979 calls)
     fft          :      7.04s CPU      8.23s WALL (    1221 calls)
     ffts         :     95.26s CPU    107.81s WALL (   24785 calls)
     fftw         :   4965.37s CPU   5547.52s WALL ( 2740896 calls)
     davcio       :      0.50s CPU     12.17s WALL (      12 calls)
 
     Parallel routines
     fft_scatter  :   3202.38s CPU   3475.82s WALL ( 2766902 calls)
 
     PWSCF        :     6h54m CPU        7h22m WALL

 
   This run was terminated on:  17:20:40   9Apr2017            

=------------------------------------------------------------------------------=
   JOB DONE.
=------------------------------------------------------------------------------=
