
     Program PWSCF v.5.4.0 starts on 10Jan2017 at  8: 9:40 

     This program is part of the open-source Quantum ESPRESSO suite
     for quantum simulation of materials; please cite
         "P. Giannozzi et al., J. Phys.:Condens. Matter 21 395502 (2009);
          URL http://www.quantum-espresso.org", 
     in publications or presentations arising from this work. More details at
     http://www.quantum-espresso.org/quote

     Parallel version (MPI & OpenMP), running on      64 processor cores
     Number of MPI processes:                64
     Threads/MPI process:                     1
     R & G space division:  proc/nbgrp/npool/nimage =      64
     Waiting for input...
     Reading input from standard input

     Current dimensions of program PWSCF are:
     Max number of different atomic species (ntypx) = 10
     Max number of k-points (npk) =  40000
     Max angular momentum in pseudopotentials (lmaxx) =  3
     WARNING: atomic wfc #  2 for atom type 3 has zero norm
     WARNING: atomic wfc #  4 for atom type 3 has zero norm
     WARNING: atomic wfc #  5 for atom type 3 has zero norm

     -------------------------------------
     Parameters for Dispersion Correction:
     -------------------------------------
       atom      VdW radius       C_6     

        Cu         2.952        374.666
        C          2.744         60.710
        O          2.536         24.284

     Subspace diagonalization in iterative solution of the eigenvalue problem:
     one sub-group per band group will be used
     scalapack distributed-memory algorithm (size of sub-group:  5*  5 procs)

 
     Parallelization info
     --------------------
     sticks:   dense  smooth     PW     G-vecs:    dense   smooth      PW
     Min         178     178     47                32032    32032    4341
     Max         179     179     48                32043    32043    4347
     Sum       11433   11433   3039              2050409  2050409  278033
 


     bravais-lattice index     =            0
     lattice parameter (alat)  =      13.9425  a.u.
     unit-cell volume          =   21209.0878 (a.u.)^3
     number of atoms/cell      =          149
     number of atomic types    =            3
     number of electrons       =      1298.00
     number of Kohn-Sham states=          779
     kinetic-energy cutoff     =      80.0000  Ry
     charge density cutoff     =     320.0000  Ry
     convergence threshold     =      1.0E-08
     mixing beta               =       0.7000
     number of iterations used =            8  local-TF  mixing
     Exchange-correlation      =  SLA  PW   PBX  PBC ( 1  4  3  4 0 0)
     nstep                     =           50


     celldm(1)=  13.942539  celldm(2)=   0.000000  celldm(3)=   0.000000
     celldm(4)=   0.000000  celldm(5)=   0.000000  celldm(6)=   0.000000

     crystal axes: (cart. coord. in units of alat)
               a(1) = (   1.000000   0.000000   0.000000 )  
               a(2) = (   0.000000   2.309401   0.000000 )  
               a(3) = (   0.000000   0.000000   3.388418 )  

     reciprocal axes: (cart. coord. in units 2 pi/alat)
               b(1) = (  1.000000  0.000000  0.000000 )  
               b(2) = (  0.000000  0.433013  0.000000 )  
               b(3) = (  0.000000  0.000000  0.295123 )  


     PseudoPot. # 1 for Cu read from file:
     /home/549/hxw549/Short/pseudopotentials/Cu.pbe-n-van_ak.UPF
     MD5 check sum: 601f7c30f7467666bec936e0661ce3e1
     Pseudo is Ultrasoft + core correction, Zval = 11.0
     Generated by new atomic code, or converted to UPF format
     Using radial grid of  867 points,  6 beta functions with: 
                l(1) =   0
                l(2) =   0
                l(3) =   1
                l(4) =   1
                l(5) =   2
                l(6) =   2
     Q(r) pseudized with  8 coefficients,  rinner =    1.400   1.400   1.400
                                                       1.400   1.400

     PseudoPot. # 2 for C  read from file:
     /home/549/hxw549/Short/pseudopotentials/C.pbe-mt_gipaw.UPF
     MD5 check sum: 5ac2f21f2c440b14befe521540822c15
     Pseudo is Norm-conserving, Zval =  4.0
     Generated by new atomic code, or converted to UPF format
     Using radial grid of 1073 points,  1 beta functions with: 
                l(1) =   0

     PseudoPot. # 3 for O  read from file:
     /home/549/hxw549/Short/pseudopotentials/O.pbe-van_gipaw.UPF
     MD5 check sum: 5ce2a047509d4f331db576c963e74b29
     Pseudo is Ultrasoft, Zval =  6.0
     Generated by new atomic code, or converted to UPF format
     Using radial grid of 1095 points,  4 beta functions with: 
                l(1) =   0
                l(2) =   0
                l(3) =   1
                l(4) =   1
     Q(r) pseudized with 0 coefficients 


     atomic species   valence    mass     pseudopotential
        Cu            11.00    63.54600     Cu( 1.00)
        C              4.00    12.01070     C ( 1.00)
        O              6.00    15.99940     O ( 1.00)

     No symmetry found



   Cartesian axes

     site n.     atom                  positions (alat units)
         1           Cu  tau(   1) = (  -0.0000061   0.0000859   0.9974453  )
         2           Cu  tau(   2) = (   0.2499834   0.2309435   0.9974857  )
         3           Cu  tau(   3) = (   0.4999820   0.0000292   0.9973921  )
         4           Cu  tau(   4) = (   0.7499943   0.2309608   0.9975192  )
         5           Cu  tau(   5) = (  -0.0000148   0.4618129   0.9975194  )
         6           Cu  tau(   6) = (   0.2499854   0.6927730   0.9973716  )
         7           Cu  tau(   7) = (   0.4999975   0.4618632   0.9975075  )
         8           Cu  tau(   8) = (   0.7500019   0.6927697   0.9973799  )
         9           Cu  tau(   9) = (  -0.0000106   0.9237787   0.9972545  )
        10           Cu  tau(  10) = (   0.2500158   1.1547493   0.9973328  )
        11           Cu  tau(  11) = (   0.4999952   0.9237374   0.9972820  )
        12           Cu  tau(  12) = (   0.7499663   1.1547437   0.9973571  )
        13           Cu  tau(  13) = (  -0.0000104   1.3856717   0.9974709  )
        14           Cu  tau(  14) = (   0.2499853   1.6165564   0.9975482  )
        15           Cu  tau(  15) = (   0.4999900   1.3856800   0.9975628  )
        16           Cu  tau(  16) = (   0.7499916   1.6165628   0.9975545  )
        17           Cu  tau(  17) = (  -0.0000073   1.8474464   0.9974902  )
        18           Cu  tau(  18) = (   0.2499750   2.0784722   0.9974066  )
        19           Cu  tau(  19) = (   0.4999832   1.8474812   0.9974253  )
        20           Cu  tau(  20) = (   0.7500006   2.0784589   0.9973454  )
        21           Cu  tau(  21) = (   0.0000109   0.2310340   1.2461899  )
        22           Cu  tau(  22) = (   0.2499611   0.0001434   1.2460132  )
        23           Cu  tau(  23) = (   0.4999655   0.2309886   1.2459791  )
        24           Cu  tau(  24) = (   0.7500092   0.0000164   1.2458673  )
        25           Cu  tau(  25) = (   0.0000112   0.6929613   1.2458008  )
        26           Cu  tau(  26) = (   0.2499727   0.4619415   1.2459274  )
        27           Cu  tau(  27) = (   0.5000148   0.6929143   1.2458515  )
        28           Cu  tau(  28) = (   0.7500244   0.4619772   1.2460084  )
        29           Cu  tau(  29) = (   0.0000256   1.1545435   1.2458302  )
        30           Cu  tau(  30) = (   0.2500054   0.9237705   1.2457457  )
        31           Cu  tau(  31) = (   0.4999823   1.1544964   1.2459093  )
        32           Cu  tau(  32) = (   0.7500144   0.9237499   1.2457813  )
        33           Cu  tau(  33) = (   0.0000043   1.6164167   1.2460943  )
        34           Cu  tau(  34) = (   0.2499800   1.3854236   1.2460378  )
        35           Cu  tau(  35) = (   0.4999700   1.6165683   1.2460311  )
        36           Cu  tau(  36) = (   0.7500068   1.3854772   1.2459916  )
        37           Cu  tau(  37) = (   0.0000062   2.0785055   1.2457744  )
        38           Cu  tau(  38) = (   0.2499628   1.8474789   1.2459507  )
        39           Cu  tau(  39) = (   0.4999638   2.0784842   1.2457312  )
        40           Cu  tau(  40) = (   0.7500076   1.8475446   1.2458854  )
        41           Cu  tau(  41) = (   0.0000421  -0.0000984   1.4956486  )
        42           Cu  tau(  42) = (   0.2499623   0.2315383   1.4961046  )
        43           Cu  tau(  43) = (   0.4999233  -0.0000235   1.4954027  )
        44           Cu  tau(  44) = (   0.7500237   0.2310909   1.4955939  )
        45           Cu  tau(  45) = (   0.0001374   0.4625534   1.4958692  )
        46           Cu  tau(  46) = (   0.2500592   0.6931357   1.4956891  )
        47           Cu  tau(  47) = (   0.4999375   0.4622726   1.4956622  )
        48           Cu  tau(  48) = (   0.7501621   0.6931585   1.4957151  )
        49           Cu  tau(  49) = (   0.0001828   0.9236847   1.4959747  )
        50           Cu  tau(  50) = (   0.2499626   1.1539495   1.4960842  )
        51           Cu  tau(  51) = (   0.5000381   0.9235334   1.4959102  )
        52           Cu  tau(  52) = (   0.7502011   1.1541901   1.4957430  )
        53           Cu  tau(  53) = (   0.0000953   1.3849016   1.4959015  )
        54           Cu  tau(  54) = (   0.2498984   1.6162198   1.4957240  )
        55           Cu  tau(  55) = (   0.4999417   1.3851159   1.4955146  )
        56           Cu  tau(  56) = (   0.7500739   1.6163865   1.4955053  )
        57           Cu  tau(  57) = (   0.0000045   1.8475864   1.4954591  )
        58           Cu  tau(  58) = (   0.2499675   2.0785101   1.4955159  )
        59           Cu  tau(  59) = (   0.4999572   1.8477277   1.4954640  )
        60           Cu  tau(  60) = (   0.7499945   2.0785278   1.4955203  )
        61           Cu  tau(  61) = (   0.0002526   0.2313820   1.7443139  )
        62           Cu  tau(  62) = (   0.2500737  -0.0001503   1.7450533  )
        63           Cu  tau(  63) = (   0.4998469   0.2308748   1.7445869  )
        64           Cu  tau(  64) = (   0.7499076  -0.0000485   1.7449958  )
        65           Cu  tau(  65) = (   0.0007880   0.6933814   1.7462931  )
        66           Cu  tau(  66) = (   0.2505091   0.4637436   1.7464953  )
        67           Cu  tau(  67) = (   0.5001093   0.6932142   1.7459778  )
        68           Cu  tau(  68) = (   0.7499111   0.4624311   1.7447734  )
        69           Cu  tau(  69) = (   0.0006026   1.1535406   1.7467850  )
        70           Cu  tau(  70) = (   0.2504681   0.9227611   1.7472317  )
        71           Cu  tau(  71) = (   0.5001426   1.1538995   1.7452058  )
        72           Cu  tau(  72) = (   0.7505891   0.9235710   1.7460410  )
        73           Cu  tau(  73) = (   0.0000939   1.6164061   1.7446895  )
        74           Cu  tau(  74) = (   0.2497645   1.3844234   1.7455021  )
        75           Cu  tau(  75) = (   0.4999242   1.6163742   1.7438986  )
        76           Cu  tau(  76) = (   0.7504900   1.3848341   1.7447937  )
        77           Cu  tau(  77) = (  -0.0000473   2.0782602   1.7454104  )
        78           Cu  tau(  78) = (   0.2498110   1.8476558   1.7448167  )
        79           Cu  tau(  79) = (   0.5000051   2.0786793   1.7453087  )
        80           Cu  tau(  80) = (   0.7501459   1.8475994   1.7447935  )
        81           Cu  tau(  81) = (   0.0000976   0.0007723   1.9906318  )
        82           Cu  tau(  82) = (   0.2501989   0.2313265   1.9903681  )
        83           Cu  tau(  83) = (   0.4999932   0.0000684   1.9922485  )
        84           Cu  tau(  84) = (   0.7502428   0.2309055   1.9904384  )
        85           Cu  tau(  85) = (   0.0001321   0.4622343   1.9898579  )
        86           Cu  tau(  86) = (   0.2538981   0.6929866   1.9986273  )
        87           Cu  tau(  87) = (   0.5010490   0.4602715   1.9915572  )
        88           Cu  tau(  88) = (   0.7488732   0.6926230   1.9918521  )
        89           Cu  tau(  89) = (   0.0018147   0.9218361   1.9937327  )
        90           Cu  tau(  90) = (   0.2511742   1.1538759   1.9943600  )
        91           Cu  tau(  91) = (   0.5011685   0.9247265   1.9937814  )
        92           Cu  tau(  92) = (   0.7507104   1.1545977   1.9924256  )
        93           Cu  tau(  93) = (   0.0005167   1.3857501   1.9918262  )
        94           Cu  tau(  94) = (   0.2497976   1.6164030   1.9902238  )
        95           Cu  tau(  95) = (   0.5002128   1.3859419   1.9895526  )
        96           Cu  tau(  96) = (   0.7503957   1.6162378   1.9900106  )
        97           Cu  tau(  97) = (  -0.0000512   1.8469837   1.9922161  )
        98           Cu  tau(  98) = (   0.2497710   2.0782644   1.9915109  )
        99           Cu  tau(  99) = (   0.5000489   1.8467959   1.9902846  )
       100           Cu  tau( 100) = (   0.7502177   2.0783528   1.9915112  )
       101           C   tau( 101) = (  -0.0003414   0.0959260   2.3891635  )
       102           C   tau( 102) = (  -0.0005311   0.2880372   2.3873265  )
       103           C   tau( 103) = (   0.1664900   0.0000150   2.3880789  )
       104           C   tau( 104) = (   0.1658950   0.3836141   2.3825874  )
       105           C   tau( 105) = (   0.3329823   0.0959316   2.3848192  )
       106           C   tau( 106) = (   0.3328908   0.2882354   2.3817515  )
       107           C   tau( 107) = (   0.4998429  -0.0001390   2.3848829  )
       108           C   tau( 108) = (   0.4998623   0.3845275   2.3796837  )
       109           C   tau( 109) = (   0.6666737   0.0961327   2.3861504  )
       110           C   tau( 110) = (   0.6667355   0.2883844   2.3828119  )
       111           C   tau( 111) = (   0.8331060  -0.0000590   2.3889444  )
       112           C   tau( 112) = (   0.8332675   0.3844924   2.3841002  )
       113           C   tau( 113) = (  -0.0008062   0.6731012   2.3809860  )
       114           C   tau( 114) = (  -0.0004346   0.8662185   2.3749002  )
       115           C   tau( 115) = (   0.1659344   0.5759929   2.3802930  )
       116           C   tau( 116) = (   0.1629216   0.9639019   2.3836376  )
       117           C   tau( 117) = (   0.3320481   0.6697401   2.3818828  )
       118           C   tau( 118) = (   0.3296302   0.8640589   2.4189803  )
       119           C   tau( 119) = (   0.4992644   0.5768075   2.3815121  )
       120           C   tau( 120) = (   0.5027458   0.9640845   2.4216337  )
       121           O   tau( 121) = (   0.4148802   0.9105182   2.2739217  )
       122           C   tau( 122) = (   0.6668673   0.6738861   2.3814228  )
       123           C   tau( 123) = (   0.6694731   0.8650813   2.3841404  )
       124           C   tau( 124) = (   0.8334719   0.5771319   2.3811733  )
       125           C   tau( 125) = (   0.8326020   0.9624951   2.3760151  )
       126           C   tau( 126) = (  -0.0005408   1.2515536   2.3783785  )
       127           C   tau( 127) = (  -0.0002025   1.4441657   2.3791885  )
       128           C   tau( 128) = (   0.1659611   1.1548761   2.3827122  )
       129           C   tau( 129) = (   0.1666509   1.5402873   2.3829992  )
       130           C   tau( 130) = (   0.3337850   1.2519397   2.3879034  )
       131           C   tau( 131) = (   0.3332515   1.4442312   2.3858299  )
       132           C   tau( 132) = (   0.5005739   1.1593011   2.3911037  )
       133           C   tau( 133) = (   0.4998278   1.5404340   2.3872195  )
       134           C   tau( 134) = (   0.6662401   1.2526435   2.3826683  )
       135           C   tau( 135) = (   0.6665454   1.4450373   2.3835040  )
       136           C   tau( 136) = (   0.8333031   1.1555540   2.3784932  )
       137           C   tau( 137) = (   0.8331891   1.5406696   2.3825269  )
       138           C   tau( 138) = (  -0.0000297   1.8288667   2.3851051  )
       139           C   tau( 139) = (  -0.0000613   2.0211271   2.3876375  )
       140           C   tau( 140) = (   0.1667729   1.7325293   2.3857606  )
       141           C   tau( 141) = (   0.1665083   2.1171200   2.3876392  )
       142           C   tau( 142) = (   0.3332856   1.8286704   2.3882715  )
       143           C   tau( 143) = (   0.3333299   2.0209605   2.3877559  )
       144           C   tau( 144) = (   0.4998642   1.7326998   2.3881539  )
       145           C   tau( 145) = (   0.4998585   2.1169691   2.3878980  )
       146           C   tau( 146) = (   0.6664680   1.8286764   2.3882226  )
       147           C   tau( 147) = (   0.6664575   2.0209616   2.3879923  )
       148           C   tau( 148) = (   0.8331465   1.7328249   2.3858388  )
       149           C   tau( 149) = (   0.8332060   2.1170919   2.3878550  )

     number of k points=     6  gaussian smearing, width (Ry)=  0.1000
                       cart. coord. in units 2pi/alat
        k(    1) = (   0.0000000   0.0000000   0.0000000), wk =   0.2500000
        k(    2) = (   0.0000000  -0.2165064   0.0000000), wk =   0.2500000
        k(    3) = (   0.2500000   0.0000000   0.0000000), wk =   0.5000000
        k(    4) = (   0.2500000  -0.2165064   0.0000000), wk =   0.5000000
        k(    5) = (  -0.5000000   0.0000000   0.0000000), wk =   0.2500000
        k(    6) = (  -0.5000000  -0.2165064   0.0000000), wk =   0.2500000

     Dense  grid:  2050409 G-vectors     FFT dimensions: (  80, 192, 270)

     Largest allocated arrays     est. size (Mb)     dimensions
        Kohn-Sham Wavefunctions        47.59 Mb     (    4004,  779)
        NL pseudopotentials           113.39 Mb     (    4004, 1856)
        Each V/rho on FFT grid          1.17 Mb     (   76800)
        Each G-vector array             0.24 Mb     (   32034)
        G-vector shells                 0.12 Mb     (   15554)
     Largest temporary arrays     est. size (Mb)     dimensions
        Auxiliary wavefunctions       190.38 Mb     (    4004, 3116)
        Each subspace H/S matrix        5.92 Mb     (     623,  623)
        Each <psi_i|beta_j> matrix     22.06 Mb     (    1856,  779)
        Arrays for rho mixing           9.38 Mb     (   76800,    8)

     Initial potential from superposition of free atoms
     Check: negative starting charge=   -0.001848

     starting charge 1272.81751, renormalised to 1298.00000

     negative rho (up, down):  1.885E-03 0.000E+00
     Starting wfc are 1288 randomized atomic wfcs

     total cpu time spent up to now is       94.9 secs

     Self-consistent Calculation

     iteration #  1     ecut=    80.00 Ry     beta=0.70
     Davidson diagonalization with overlap
     c_bands:  3 eigenvalues not converged
     ethr =  1.00E-04,  avg # of iterations = 21.0

     negative rho (up, down):  2.899E+01 0.000E+00

     total cpu time spent up to now is     1751.8 secs

     total energy              =   -9298.70698282 Ry
     Harris-Foulkes estimate   =  -17100.35598013 Ry
     estimated scf accuracy    <  177546.67571220 Ry

     iteration #  2     ecut=    80.00 Ry     beta=0.70
     Davidson diagonalization with overlap
     ethr =  1.00E-02,  avg # of iterations = 11.7

     negative rho (up, down):  3.063E+01 0.000E+00

     total cpu time spent up to now is     2640.7 secs

     total energy              =  -12402.91051170 Ry
     Harris-Foulkes estimate   =  -13631.61210904 Ry
     estimated scf accuracy    <   16293.86382845 Ry

     iteration #  3     ecut=    80.00 Ry     beta=0.70
     Davidson diagonalization with overlap
     ethr =  1.00E-02,  avg # of iterations =  7.0

     negative rho (up, down):  3.280E+01 0.000E+00

     total cpu time spent up to now is     3228.1 secs

     total energy              =  -12541.16930005 Ry
     Harris-Foulkes estimate   =  -13354.85019907 Ry
     estimated scf accuracy    <    6096.24055277 Ry

     iteration #  4     ecut=    80.00 Ry     beta=0.70
     Davidson diagonalization with overlap
     ethr =  1.00E-02,  avg # of iterations =  5.3

     negative rho (up, down):  2.983E+01 0.000E+00

     total cpu time spent up to now is     3722.6 secs

     total energy              =  -12879.47172053 Ry
     Harris-Foulkes estimate   =  -13186.00922324 Ry
     estimated scf accuracy    <    6685.01592856 Ry

     iteration #  5     ecut=    80.00 Ry     beta=0.70
     Davidson diagonalization with overlap
     ethr =  1.00E-02,  avg # of iterations =  5.7

     negative rho (up, down):  2.073E+01 0.000E+00

     total cpu time spent up to now is     4125.8 secs

     total energy              =  -12893.35813420 Ry
     Harris-Foulkes estimate   =  -13075.03754623 Ry
     estimated scf accuracy    <    1007.43290477 Ry

     iteration #  6     ecut=    80.00 Ry     beta=0.70
     Davidson diagonalization with overlap
     ethr =  1.00E-02,  avg # of iterations =  3.0

     negative rho (up, down):  1.218E+01 0.000E+00

     total cpu time spent up to now is     4346.1 secs

     total energy              =  -12875.89597604 Ry
     Harris-Foulkes estimate   =  -12954.59024679 Ry
     estimated scf accuracy    <     757.19603633 Ry

     iteration #  7     ecut=    80.00 Ry     beta=0.70
     Davidson diagonalization with overlap
     ethr =  1.00E-02,  avg # of iterations =  2.0

     negative rho (up, down):  9.129E+00 0.000E+00

     total cpu time spent up to now is     4510.9 secs

     total energy              =  -12853.17686471 Ry
     Harris-Foulkes estimate   =  -12886.01458752 Ry
     estimated scf accuracy    <     720.56686320 Ry

     iteration #  8     ecut=    80.00 Ry     beta=0.70
     Davidson diagonalization with overlap
     ethr =  1.00E-02,  avg # of iterations =  1.5

     negative rho (up, down):  8.123E+00 0.000E+00

     total cpu time spent up to now is     4666.0 secs

     total energy              =  -12842.86723911 Ry
     Harris-Foulkes estimate   =  -12857.22607641 Ry
     estimated scf accuracy    <     392.64483658 Ry

     iteration #  9     ecut=    80.00 Ry     beta=0.70
     Davidson diagonalization with overlap
     ethr =  1.00E-02,  avg # of iterations =  1.3

     negative rho (up, down):  2.357E+00 0.000E+00

     total cpu time spent up to now is     4817.6 secs

     total energy              =  -12780.31845779 Ry
     Harris-Foulkes estimate   =  -12846.54321788 Ry
     estimated scf accuracy    <     367.13288754 Ry

     iteration # 10     ecut=    80.00 Ry     beta=0.70
     Davidson diagonalization with overlap
     ethr =  1.00E-02,  avg # of iterations =  3.7

     negative rho (up, down):  1.096E+00 0.000E+00

     total cpu time spent up to now is     4998.2 secs

     total energy              =  -12756.22759361 Ry
     Harris-Foulkes estimate   =  -12787.19908130 Ry
     estimated scf accuracy    <     249.17183286 Ry

     iteration # 11     ecut=    80.00 Ry     beta=0.70
     Davidson diagonalization with overlap
     ethr =  1.00E-02,  avg # of iterations =  2.0

     negative rho (up, down):  3.700E+00 0.000E+00

     total cpu time spent up to now is     5161.0 secs

     total energy              =  -12749.09838227 Ry
     Harris-Foulkes estimate   =  -12772.46973360 Ry
     estimated scf accuracy    <      84.86229037 Ry

     iteration # 12     ecut=    80.00 Ry     beta=0.70
     Davidson diagonalization with overlap
     ethr =  6.54E-03,  avg # of iterations =  2.8

     negative rho (up, down):  1.105E+00 0.000E+00

     total cpu time spent up to now is     5334.7 secs

     total energy              =  -12748.33291574 Ry
     Harris-Foulkes estimate   =  -12759.20271009 Ry
     estimated scf accuracy    <     213.87616769 Ry

     iteration # 13     ecut=    80.00 Ry     beta=0.70
     Davidson diagonalization with overlap
     ethr =  6.54E-03,  avg # of iterations =  1.7

     negative rho (up, down):  5.363E+00 0.000E+00

     total cpu time spent up to now is     5491.1 secs

     total energy              =  -12744.04453159 Ry
     Harris-Foulkes estimate   =  -12756.58458398 Ry
     estimated scf accuracy    <      52.22933379 Ry

     iteration # 14     ecut=    80.00 Ry     beta=0.70
     Davidson diagonalization with overlap
     ethr =  4.02E-03,  avg # of iterations =  1.8

     negative rho (up, down):  6.952E+00 0.000E+00

     total cpu time spent up to now is     5648.9 secs

     total energy              =  -12737.32223775 Ry
     Harris-Foulkes estimate   =  -12749.32495192 Ry
     estimated scf accuracy    <     121.42087302 Ry

     iteration # 15     ecut=    80.00 Ry     beta=0.70
     Davidson diagonalization with overlap
     ethr =  4.02E-03,  avg # of iterations =  3.8

     negative rho (up, down):  6.991E+00 0.000E+00

     total cpu time spent up to now is     5832.6 secs

     total energy              =  -12738.70294617 Ry
     Harris-Foulkes estimate   =  -12740.86581132 Ry
     estimated scf accuracy    <      32.10365756 Ry

     iteration # 16     ecut=    80.00 Ry     beta=0.70
     Davidson diagonalization with overlap
     ethr =  2.47E-03,  avg # of iterations =  4.5

     negative rho (up, down):  6.119E+00 0.000E+00

     total cpu time spent up to now is     6023.4 secs

     total energy              =  -12738.31564489 Ry
     Harris-Foulkes estimate   =  -12739.66106829 Ry
     estimated scf accuracy    <      22.79000393 Ry

     iteration # 17     ecut=    80.00 Ry     beta=0.70
     Davidson diagonalization with overlap
     ethr =  1.76E-03,  avg # of iterations =  2.7

     negative rho (up, down):  3.752E+00 0.000E+00

     total cpu time spent up to now is     6191.7 secs

     total energy              =  -12736.82767391 Ry
     Harris-Foulkes estimate   =  -12738.86656938 Ry
     estimated scf accuracy    <      14.14422293 Ry

     iteration # 18     ecut=    80.00 Ry     beta=0.70
     Davidson diagonalization with overlap
     ethr =  1.09E-03,  avg # of iterations =  3.2

     negative rho (up, down):  2.940E+00 0.000E+00

     total cpu time spent up to now is     6366.3 secs

     total energy              =  -12735.71832877 Ry
     Harris-Foulkes estimate   =  -12737.31612782 Ry
     estimated scf accuracy    <      10.35716183 Ry

     iteration # 19     ecut=    80.00 Ry     beta=0.70
     Davidson diagonalization with overlap
     ethr =  7.98E-04,  avg # of iterations =  5.7

     negative rho (up, down):  1.709E+00 0.000E+00

     total cpu time spent up to now is     6569.4 secs

     total energy              =  -12734.70536136 Ry
     Harris-Foulkes estimate   =  -12735.97028612 Ry
     estimated scf accuracy    <       8.44776169 Ry

     iteration # 20     ecut=    80.00 Ry     beta=0.70
     Davidson diagonalization with overlap
     ethr =  6.51E-04,  avg # of iterations =  3.2

     negative rho (up, down):  1.093E+00 0.000E+00

     total cpu time spent up to now is     6744.6 secs

     total energy              =  -12732.91681590 Ry
     Harris-Foulkes estimate   =  -12734.79268299 Ry
     estimated scf accuracy    <       8.30343701 Ry

     iteration # 21     ecut=    80.00 Ry     beta=0.70
     Davidson diagonalization with overlap
     ethr =  6.40E-04,  avg # of iterations =  1.0

     negative rho (up, down):  8.930E-01 0.000E+00

     total cpu time spent up to now is     6894.1 secs

     total energy              =  -12731.74172602 Ry
     Harris-Foulkes estimate   =  -12733.07366497 Ry
     estimated scf accuracy    <       7.72356104 Ry

     iteration # 22     ecut=    80.00 Ry     beta=0.70
     Davidson diagonalization with overlap
     ethr =  5.95E-04,  avg # of iterations =  3.2

     negative rho (up, down):  6.538E-01 0.000E+00

     total cpu time spent up to now is     7068.5 secs

     total energy              =  -12730.96110560 Ry
     Harris-Foulkes estimate   =  -12731.94155708 Ry
     estimated scf accuracy    <       6.03585512 Ry

     iteration # 23     ecut=    80.00 Ry     beta=0.70
     Davidson diagonalization with overlap
     ethr =  4.65E-04,  avg # of iterations =  8.2

     negative rho (up, down):  3.420E-02 0.000E+00

     total cpu time spent up to now is     7303.8 secs

     total energy              =  -12730.87836853 Ry
     Harris-Foulkes estimate   =  -12731.19285125 Ry
     estimated scf accuracy    <       4.06728045 Ry

     iteration # 24     ecut=    80.00 Ry     beta=0.70
     Davidson diagonalization with overlap
     ethr =  3.13E-04,  avg # of iterations =  2.3

     negative rho (up, down):  2.110E-01 0.000E+00

     total cpu time spent up to now is     7470.4 secs

     total energy              =  -12730.45014499 Ry
     Harris-Foulkes estimate   =  -12730.95963397 Ry
     estimated scf accuracy    <       2.72883236 Ry

     iteration # 25     ecut=    80.00 Ry     beta=0.70
     Davidson diagonalization with overlap
     ethr =  2.10E-04,  avg # of iterations =  9.2

     negative rho (up, down):  6.540E-01 0.000E+00

     total cpu time spent up to now is     7724.2 secs

     total energy              =  -12730.16643238 Ry
     Harris-Foulkes estimate   =  -12730.55899737 Ry
     estimated scf accuracy    <       1.75445021 Ry

     iteration # 26     ecut=    80.00 Ry     beta=0.70
     Davidson diagonalization with overlap
     ethr =  1.35E-04,  avg # of iterations =  8.7

     negative rho (up, down):  4.890E-01 0.000E+00

     total cpu time spent up to now is     8000.3 secs

     total energy              =  -12730.25526560 Ry
     Harris-Foulkes estimate   =  -12730.32885465 Ry
     estimated scf accuracy    <       0.92472487 Ry

     iteration # 27     ecut=    80.00 Ry     beta=0.70
     Davidson diagonalization with overlap
     ethr =  7.12E-05,  avg # of iterations =  7.7

     negative rho (up, down):  3.175E-01 0.000E+00

     total cpu time spent up to now is     8238.6 secs

     total energy              =  -12730.26914044 Ry
     Harris-Foulkes estimate   =  -12730.28726254 Ry
     estimated scf accuracy    <       0.25093074 Ry

     iteration # 28     ecut=    80.00 Ry     beta=0.70
     Davidson diagonalization with overlap
     ethr =  1.93E-05,  avg # of iterations =  4.7

     negative rho (up, down):  1.732E-01 0.000E+00

     total cpu time spent up to now is     8437.9 secs

     total energy              =  -12730.26999577 Ry
     Harris-Foulkes estimate   =  -12730.27856970 Ry
     estimated scf accuracy    <       0.08925647 Ry

     iteration # 29     ecut=    80.00 Ry     beta=0.70
     Davidson diagonalization with overlap
     ethr =  6.88E-06,  avg # of iterations = 10.5

     negative rho (up, down):  1.971E-01 0.000E+00

     total cpu time spent up to now is     8721.7 secs

     total energy              =  -12730.27186998 Ry
     Harris-Foulkes estimate   =  -12730.27503282 Ry
     estimated scf accuracy    <       0.02598521 Ry

     iteration # 30     ecut=    80.00 Ry     beta=0.70
     Davidson diagonalization with overlap
     c_bands:  1 eigenvalues not converged
     ethr =  2.00E-06,  avg # of iterations = 12.8

     negative rho (up, down):  1.157E-01 0.000E+00

     total cpu time spent up to now is     9040.4 secs

     total energy              =  -12730.27201903 Ry
     Harris-Foulkes estimate   =  -12730.27461354 Ry
     estimated scf accuracy    <       0.01058570 Ry

     iteration # 31     ecut=    80.00 Ry     beta=0.70
     Davidson diagonalization with overlap
     c_bands:  1 eigenvalues not converged
     ethr =  8.16E-07,  avg # of iterations = 13.3

     negative rho (up, down):  7.199E-02 0.000E+00

     total cpu time spent up to now is     9366.6 secs

     total energy              =  -12730.27149191 Ry
     Harris-Foulkes estimate   =  -12730.27266754 Ry
     estimated scf accuracy    <       0.00302416 Ry

     iteration # 32     ecut=    80.00 Ry     beta=0.70
     Davidson diagonalization with overlap
     ethr =  2.33E-07,  avg # of iterations =  8.5

     negative rho (up, down):  3.002E-02 0.000E+00

     total cpu time spent up to now is     9625.8 secs

     total energy              =  -12730.27078428 Ry
     Harris-Foulkes estimate   =  -12730.27180184 Ry
     estimated scf accuracy    <       0.00179997 Ry

     iteration # 33     ecut=    80.00 Ry     beta=0.70
     Davidson diagonalization with overlap
     c_bands:  1 eigenvalues not converged
     ethr =  1.39E-07,  avg # of iterations = 15.0

     negative rho (up, down):  1.305E-02 0.000E+00

     total cpu time spent up to now is     9975.2 secs

     total energy              =  -12730.27047504 Ry
     Harris-Foulkes estimate   =  -12730.27091780 Ry
     estimated scf accuracy    <       0.00047499 Ry

     iteration # 34     ecut=    80.00 Ry     beta=0.70
     Davidson diagonalization with overlap
     c_bands:  1 eigenvalues not converged
     c_bands:  1 eigenvalues not converged
     ethr =  3.66E-08,  avg # of iterations = 14.5

     negative rho (up, down):  5.722E-03 0.000E+00

     total cpu time spent up to now is    10316.9 secs

     total energy              =  -12730.27041352 Ry
     Harris-Foulkes estimate   =  -12730.27055194 Ry
     estimated scf accuracy    <       0.00020765 Ry

     iteration # 35     ecut=    80.00 Ry     beta=0.70
     Davidson diagonalization with overlap
     ethr =  1.60E-08,  avg # of iterations = 10.0

     negative rho (up, down):  2.918E-03 0.000E+00

     total cpu time spent up to now is    10591.1 secs

     total energy              =  -12730.27039918 Ry
     Harris-Foulkes estimate   =  -12730.27043386 Ry
     estimated scf accuracy    <       0.00003624 Ry

     iteration # 36     ecut=    80.00 Ry     beta=0.70
     Davidson diagonalization with overlap
     ethr =  2.79E-09,  avg # of iterations = 10.0

     negative rho (up, down):  2.094E-03 0.000E+00

     total cpu time spent up to now is    10863.3 secs

     total energy              =  -12730.27039705 Ry
     Harris-Foulkes estimate   =  -12730.27040153 Ry
     estimated scf accuracy    <       0.00001951 Ry

     iteration # 37     ecut=    80.00 Ry     beta=0.70
     Davidson diagonalization with overlap
     ethr =  1.50E-09,  avg # of iterations =  2.0

     negative rho (up, down):  1.835E-03 0.000E+00

     total cpu time spent up to now is    11029.8 secs

     total energy              =  -12730.27039714 Ry
     Harris-Foulkes estimate   =  -12730.27039866 Ry
     estimated scf accuracy    <       0.00000876 Ry

     iteration # 38     ecut=    80.00 Ry     beta=0.70
     Davidson diagonalization with overlap
     ethr =  6.75E-10,  avg # of iterations =  1.5

     negative rho (up, down):  1.953E-03 0.000E+00

     total cpu time spent up to now is    11191.2 secs

     total energy              =  -12730.27039759 Ry
     Harris-Foulkes estimate   =  -12730.27039788 Ry
     estimated scf accuracy    <       0.00000221 Ry

     iteration # 39     ecut=    80.00 Ry     beta=0.70
     Davidson diagonalization with overlap
     ethr =  1.70E-10,  avg # of iterations =  2.0

     negative rho (up, down):  1.901E-03 0.000E+00

     total cpu time spent up to now is    11360.7 secs

     total energy              =  -12730.27039794 Ry
     Harris-Foulkes estimate   =  -12730.27039781 Ry
     estimated scf accuracy    <       0.00000050 Ry

     iteration # 40     ecut=    80.00 Ry     beta=0.70
     Davidson diagonalization with overlap
     ethr =  3.83E-11,  avg # of iterations =  3.0

     negative rho (up, down):  1.915E-03 0.000E+00

     total cpu time spent up to now is    11565.5 secs

     total energy              =  -12730.27039795 Ry
     Harris-Foulkes estimate   =  -12730.27039802 Ry
     estimated scf accuracy    <       0.00000023 Ry

     iteration # 41     ecut=    80.00 Ry     beta=0.70
     Davidson diagonalization with overlap
     ethr =  1.78E-11,  avg # of iterations =  3.0

     negative rho (up, down):  1.895E-03 0.000E+00

     total cpu time spent up to now is    11753.1 secs

     total energy              =  -12730.27039793 Ry
     Harris-Foulkes estimate   =  -12730.27039797 Ry
     estimated scf accuracy    <       0.00000004 Ry

     iteration # 42     ecut=    80.00 Ry     beta=0.70
     Davidson diagonalization with overlap
     ethr =  2.98E-12,  avg # of iterations =  3.0

     negative rho (up, down):  1.903E-03 0.000E+00

     total cpu time spent up to now is    11998.7 secs

     total energy              =  -12730.27039792 Ry
     Harris-Foulkes estimate   =  -12730.27039794 Ry
     estimated scf accuracy    <       0.00000004 Ry

     iteration # 43     ecut=    80.00 Ry     beta=0.70
     Davidson diagonalization with overlap
     ethr =  2.98E-12,  avg # of iterations =  2.3

     negative rho (up, down):  1.912E-03 0.000E+00

     total cpu time spent up to now is    12161.7 secs

     End of self-consistent calculation

          k = 0.0000 0.0000 0.0000 (256287 PWs)   bands (ev):

   -23.7186 -15.9827 -15.7124 -15.4625 -14.6755 -14.4833 -14.3773 -13.9822
   -13.9020 -13.7649 -13.7400 -13.3444 -12.9789 -12.8309 -12.7669 -12.7096
   -12.6819 -11.8259 -11.2827 -11.0956 -11.0018 -10.8500 -10.2595 -10.0369
    -9.5638  -9.1682  -9.1557  -9.1347  -8.6168  -8.5353  -8.2530  -8.2326
    -7.7124  -7.6076  -7.5265  -7.2705  -7.2123  -7.1716  -7.1418  -7.1404
    -6.1501  -6.0483  -5.9005  -5.6461  -5.6283  -5.5628  -5.5110  -5.4744
    -5.4450  -5.1179  -5.1083  -4.7126  -4.6957  -4.6290  -4.3258  -4.2520
    -4.2429  -4.1314  -4.1073  -3.8650  -3.8120  -3.7258  -3.6177  -3.6109
    -3.4878  -3.4869  -3.1884  -3.1675  -3.1469  -3.0435  -3.0355  -3.0164
    -3.0083  -2.9691  -2.9124  -2.8265  -2.7679  -2.6417  -2.6401  -2.6367
    -2.6344  -2.6311  -2.5994  -2.5272  -2.4605  -2.4462  -2.3943  -2.3751
    -2.3368  -2.3352  -2.2749  -2.2528  -2.1659  -2.0526  -2.0194  -1.9835
    -1.9743  -1.8882  -1.8640  -1.8235  -1.8207  -1.7836  -1.7805  -1.7801
    -1.7800  -1.7790  -1.7271  -1.7113  -1.6513  -1.6493  -1.6482  -1.6474
    -1.6470  -1.5812  -1.4821  -1.4689  -1.4036  -1.3941  -1.3708  -1.3664
    -1.3610  -1.3529  -1.3178  -1.2984  -1.2856  -1.2845  -1.2821  -1.2317
    -1.2280  -1.2100  -1.1918  -1.1884  -1.1875  -1.1736  -1.1628  -1.1545
    -1.1420  -1.1409  -1.1123  -1.1007  -1.0879  -1.0618  -1.0466  -1.0428
    -1.0155  -1.0106  -0.9789  -0.9547  -0.9250  -0.9239  -0.8921  -0.8897
    -0.8853  -0.8758  -0.8378  -0.8370  -0.8176  -0.8159  -0.7931  -0.7908
    -0.7682  -0.7554  -0.7438  -0.6774  -0.6768  -0.6709  -0.6684  -0.6545
    -0.6522  -0.6518  -0.6499  -0.6468  -0.6439  -0.6429  -0.6348  -0.6299
    -0.6257  -0.6172  -0.5788  -0.5679  -0.5657  -0.5534  -0.5526  -0.5460
    -0.5448  -0.5388  -0.5264  -0.4897  -0.4864  -0.4856  -0.4844  -0.4826
    -0.4817  -0.4808  -0.4797  -0.4787  -0.4764  -0.4756  -0.4742  -0.4739
    -0.4731  -0.4678  -0.4676  -0.4589  -0.4581  -0.4152  -0.4138  -0.3177
    -0.3157  -0.3109  -0.3092  -0.3074  -0.2936  -0.2879  -0.2684  -0.2683
    -0.2498  -0.2478  -0.2363  -0.2314  -0.2304  -0.2289  -0.2169  -0.1910
    -0.1908  -0.1891  -0.1876  -0.1820  -0.1803  -0.1719  -0.1700  -0.1212
    -0.1185  -0.0651  -0.0644  -0.0567  -0.0552  -0.0544  -0.0535  -0.0465
    -0.0384  -0.0375  -0.0331  -0.0310  -0.0305  -0.0283  -0.0268  -0.0266
    -0.0172  -0.0119  -0.0114  -0.0061  -0.0045   0.0222   0.0231   0.0588
     0.0725   0.0739   0.0814   0.0817   0.0878   0.1083   0.1085   0.1090
     0.1096   0.1154   0.1215   0.1301   0.1307   0.1312   0.1441   0.1517
     0.1530   0.1536   0.1559   0.1570   0.1579   0.1597   0.1616   0.1642
     0.1738   0.1814   0.1817   0.1830   0.1858   0.2000   0.2471   0.2503
     0.2533   0.2547   0.2552   0.2831   0.2957   0.3000   0.3041   0.3045
     0.3071   0.3110   0.3116   0.3128   0.3130   0.3248   0.3324   0.3539
     0.3587   0.3628   0.3654   0.3705   0.3721   0.3758   0.3892   0.3932
     0.3950   0.3978   0.4042   0.4050   0.4129   0.4191   0.4195   0.4203
     0.4214   0.4229   0.4277   0.4355   0.4361   0.4366   0.4371   0.4483
     0.4589   0.4699   0.4757   0.4799   0.5062   0.5077   0.5141   0.5311
     0.5430   0.5636   0.5650   0.5769   0.6043   0.6101   0.6119   0.6142
     0.6157   0.6187   0.6305   0.6381   0.6395   0.6449   0.6472   0.6501
     0.6525   0.6550   0.6808   0.7012   0.7115   0.7124   0.7163   0.7202
     0.7231   0.7305   0.7501   0.7520   0.7546   0.7553   0.7564   0.7780
     0.7887   0.7926   0.7998   0.8049   0.8107   0.8117   0.8188   0.8294
     0.8439   0.8499   0.8589   0.8684   0.8704   0.8717   0.8754   0.8827
     0.8855   0.8960   0.9002   0.9051   0.9061   0.9080   0.9085   0.9104
     0.9127   0.9157   0.9187   0.9225   0.9247   0.9262   0.9294   0.9332
     0.9370   0.9412   0.9692   0.9762   0.9762   0.9822   0.9900   1.0188
     1.0200   1.0209   1.0233   1.0237   1.0255   1.0272   1.0276   1.0319
     1.0385   1.0449   1.0504   1.0512   1.0516   1.0556   1.0593   1.0603
     1.0698   1.0708   1.0787   1.0904   1.0918   1.0938   1.0984   1.1009
     1.1065   1.1154   1.1182   1.1183   1.1184   1.1230   1.1247   1.1279
     1.1329   1.1363   1.1397   1.1782   1.1784   1.1868   1.1901   1.1921
     1.1954   1.1957   1.1985   1.2264   1.2277   1.2401   1.2453   1.2492
     1.2495   1.2583   1.2629   1.2640   1.2716   1.2723   1.2747   1.2756
     1.2801   1.2940   1.3038   1.3112   1.3120   1.3136   1.3142   1.3160
     1.3187   1.3324   1.3403   1.3491   1.3545   1.3591   1.3610   1.3708
     1.3761   1.3811   1.3817   1.3846   1.3856   1.3871   1.3940   1.3967
     1.3976   1.4001   1.4011   1.4020   1.4135   1.4146   1.4227   1.4313
     1.4348   1.4379   1.4405   1.4468   1.4515   1.4693   1.4762   1.4793
     1.4796   1.4807   1.4821   1.4832   1.4873   1.4875   1.4885   1.4889
     1.4918   1.4987   1.5066   1.5069   1.5214   1.5297   1.5402   1.5479
     1.5541   1.5643   1.5721   1.5736   1.5741   1.5766   1.5773   1.5821
     1.5873   1.5950   1.6023   1.6091   1.6111   1.6127   1.6138   1.6153
     1.6159   1.6222   1.6283   1.6374   1.6439   1.6449   1.6472   1.6480
     1.6500   1.6510   1.6513   1.6592   1.6646   1.6675   1.6681   1.6726
     1.6773   1.6821   1.6828   1.6839   1.6853   1.6910   1.6930   1.6965
     1.6994   1.7131   1.7149   1.7244   1.7261   1.7271   1.7293   1.7334
     1.7398   1.7561   1.7571   1.7610   1.7629   1.7689   1.7796   1.7840
     1.7873   1.7898   1.7924   1.7946   1.7957   1.8022   1.8055   1.8061
     1.8066   1.8079   1.8103   1.8110   1.8173   1.8220   1.8273   1.8373
     1.8378   1.8380   1.8395   1.8413   1.8491   1.8500   1.8539   1.8653
     1.8684   1.8840   1.8927   1.9215   1.9283   1.9302   1.9334   1.9496
     1.9506   1.9545   1.9583   1.9632   1.9687   1.9803   1.9989   2.0024
     2.0031   2.0043   2.0151   2.0153   2.0171   2.0177   2.0489   2.2688
     2.3273   2.4761   2.4833   2.5195   2.5482   2.5646   2.5783   2.5792
     2.5800   2.5885   2.5945   2.5968   2.6049   2.7620   2.7718   2.8018
     2.8319   2.8364   2.8373   2.8458   2.8493   2.9654   3.0859   3.0884
     3.0918   3.1224   3.3720   3.4662   3.5388   3.8112   3.8834   3.9126
     4.1822   4.1879   4.2111   4.2189   4.2202   4.2250   4.3066   4.3243
     4.3348   4.3556   4.3631   4.3748   4.3769   4.3790   4.3798   4.4207
     4.5734   4.5974   4.6148   4.6196   4.7317   4.9286   5.0691   5.1368
     5.2552   5.3369   5.6361   5.6711   5.7486   5.8105   5.8279   6.0501
     6.0740   6.0916   6.1498   6.2818   6.3020   6.4481   6.6609   6.7204
     6.7745   6.7806   6.7950   6.8289   6.8408   6.9028   6.9617   7.0121
     7.0504   7.0715   7.1327   7.1345   7.1708   7.2058   7.2929   7.3217
     7.3980   7.4203   7.4288   7.4535   7.4817   7.5388   7.7194   7.7254
     7.8055   7.8639   7.8733   7.9504   7.9852   8.0445   8.0556   8.0628
     8.0956   8.3133   8.4505   8.4992   8.5112   8.5153   8.5587   8.5828
     8.6689   8.6923   8.7060   8.7079   8.7572   8.7808   8.7886   8.8015
     8.8645   8.9110   8.9357   8.9435   9.0080   9.0110   9.0227   9.0750
     9.1937   9.1969   9.1990   9.2137   9.2942   9.3082   9.3246   9.3506
     9.4225   9.4413   9.4453   9.4694   9.4923   9.5752   9.6400   9.7102
     9.7225   9.7437   9.9362   9.9470   9.9737  10.0309  10.0702  10.0765
    10.1991  10.2265  10.3612

          k = 0.0000-0.2165 0.0000 (256176 PWs)   bands (ev):

   -23.7186 -15.9645 -15.7882 -15.2774 -15.0251 -14.3907 -14.0112 -13.9990
   -13.9129 -13.8612 -13.5628 -13.4752 -13.3395 -13.2957 -12.6467 -12.1566
   -12.0085 -11.9180 -11.7800 -11.7175 -10.9268 -10.3929 -10.1023 -10.0118
    -9.7311  -9.2230  -8.9351  -8.9031  -8.7501  -8.6048  -8.5992  -8.0689
    -8.0318  -7.8208  -7.7690  -7.1263  -7.0354  -6.8242  -6.5943  -6.5635
    -6.5292  -6.4547  -6.4431  -5.8194  -5.7754  -5.5162  -5.5055  -5.2566
    -5.2435  -4.8573  -4.7733  -4.6297  -4.5332  -4.5148  -4.4685  -4.4584
    -4.4086  -4.3004  -4.2198  -4.1422  -4.0915  -4.0135  -3.6819  -3.6366
    -3.4814  -3.2319  -3.1128  -3.0496  -2.9610  -2.9347  -2.9340  -2.9206
    -2.9182  -2.8892  -2.7603  -2.7033  -2.6865  -2.6644  -2.6596  -2.6585
    -2.5564  -2.5412  -2.4780  -2.4678  -2.4338  -2.4104  -2.3633  -2.2758
    -2.2417  -2.2325  -2.2150  -2.2088  -2.2075  -2.2069  -2.1932  -2.1646
    -2.1513  -2.0729  -1.9691  -1.9108  -1.9018  -1.8785  -1.8600  -1.8036
    -1.7854  -1.7759  -1.7703  -1.7514  -1.7442  -1.6552  -1.6141  -1.6139
    -1.5883  -1.5877  -1.5490  -1.4974  -1.4837  -1.4646  -1.4281  -1.3970
    -1.3898  -1.3771  -1.3764  -1.3695  -1.3692  -1.3506  -1.3462  -1.2959
    -1.2735  -1.2707  -1.2704  -1.2403  -1.2029  -1.1032  -1.1004  -1.0943
    -1.0940  -1.0827  -1.0160  -1.0011  -0.9984  -0.9950  -0.9842  -0.9436
    -0.9419  -0.9102  -0.9064  -0.9035  -0.9016  -0.8999  -0.8969  -0.8959
    -0.8889  -0.8631  -0.8578  -0.8542  -0.8522  -0.8510  -0.8407  -0.8394
    -0.8086  -0.7923  -0.7755  -0.7678  -0.7570  -0.7156  -0.7150  -0.6771
    -0.6762  -0.6737  -0.6732  -0.6598  -0.6362  -0.6329  -0.6117  -0.6111
    -0.6106  -0.6058  -0.6057  -0.6051  -0.5551  -0.5545  -0.5473  -0.5458
    -0.5425  -0.5396  -0.5362  -0.5256  -0.5251  -0.5221  -0.4931  -0.4623
    -0.4582  -0.4551  -0.4469  -0.4452  -0.4416  -0.4298  -0.4240  -0.4222
    -0.4133  -0.4078  -0.3855  -0.3823  -0.3809  -0.3775  -0.3404  -0.2847
    -0.2822  -0.2815  -0.2769  -0.2747  -0.2592  -0.2583  -0.2330  -0.2323
    -0.2314  -0.2306  -0.2271  -0.2270  -0.2059  -0.2027  -0.1711  -0.1693
    -0.1691  -0.1670  -0.1657  -0.1644  -0.1630  -0.1606  -0.1331  -0.1312
    -0.1252  -0.1117  -0.1117  -0.1083  -0.1024  -0.0772  -0.0753  -0.0740
    -0.0726  -0.0643  -0.0619  -0.0611  -0.0602  -0.0318   0.0123   0.0133
     0.0158   0.0182   0.0189   0.0301   0.0463   0.0498   0.0640   0.0703
     0.0715   0.0753   0.0762   0.0791   0.0828   0.1020   0.1034   0.1038
     0.1045   0.1119   0.1147   0.1229   0.1234   0.1249   0.1261   0.1284
     0.1305   0.1334   0.1395   0.1471   0.1666   0.1667   0.1689   0.1690
     0.1738   0.2199   0.2281   0.2301   0.2320   0.2340   0.2342   0.2368
     0.2412   0.2429   0.2491   0.2632   0.2671   0.2781   0.2807   0.2836
     0.2854   0.2927   0.2941   0.2968   0.2977   0.2983   0.3015   0.3191
     0.3453   0.3510   0.3540   0.3554   0.3568   0.3722   0.3746   0.3772
     0.3791   0.3837   0.3882   0.3989   0.4010   0.4021   0.4066   0.4079
     0.4144   0.4293   0.4315   0.4478   0.4480   0.4484   0.4497   0.4657
     0.4679   0.4843   0.4846   0.4894   0.4933   0.4997   0.5037   0.5056
     0.5065   0.5511   0.5514   0.5549   0.5589   0.5631   0.5698   0.5710
     0.5762   0.5780   0.5989   0.6011   0.6335   0.6345   0.6376   0.6407
     0.6689   0.6716   0.6784   0.7462   0.7519   0.7569   0.7585   0.7608
     0.7685   0.7786   0.7797   0.7817   0.7855   0.7954   0.8066   0.8161
     0.8220   0.8236   0.8257   0.8262   0.8279   0.8310   0.8327   0.8435
     0.8451   0.8479   0.8492   0.8504   0.8533   0.8542   0.8562   0.8810
     0.8873   0.8885   0.8922   0.8976   0.8986   0.8990   0.9062   0.9063
     0.9116   0.9234   0.9262   0.9281   0.9291   0.9299   0.9303   0.9319
     0.9322   0.9507   0.9523   0.9533   0.9541   0.9545   0.9564   0.9585
     0.9596   0.9724   0.9738   0.9980   1.0037   1.0187   1.0194   1.0291
     1.0299   1.0373   1.0403   1.0411   1.0444   1.0473   1.0480   1.0489
     1.0530   1.0531   1.0574   1.0598   1.0911   1.0941   1.0969   1.0978
     1.1004   1.1022   1.1134   1.1146   1.1151   1.1253   1.1280   1.1400
     1.1435   1.1462   1.1474   1.1490   1.1549   1.1606   1.2053   1.2061
     1.2216   1.2566   1.2575   1.2612   1.2655   1.2674   1.2754   1.2766
     1.2804   1.2821   1.2881   1.2887   1.2897   1.2913   1.2972   1.2990
     1.3055   1.3067   1.3101   1.3119   1.3133   1.3156   1.3207   1.3269
     1.3363   1.3365   1.3371   1.3389   1.3404   1.3407   1.3419   1.3444
     1.3487   1.3500   1.3543   1.3590   1.3592   1.3635   1.3642   1.3645
     1.3687   1.3829   1.3845   1.3884   1.3964   1.4001   1.4028   1.4063
     1.4100   1.4105   1.4110   1.4114   1.4125   1.4150   1.4305   1.4575
     1.4634   1.4907   1.4998   1.5003   1.5015   1.5133   1.5139   1.5206
     1.5250   1.5384   1.5413   1.5454   1.5540   1.5564   1.5600   1.5624
     1.5642   1.5672   1.5695   1.5698   1.5708   1.5714   1.5726   1.5745
     1.5749   1.5783   1.5823   1.5839   1.5865   1.5941   1.6003   1.6017
     1.6048   1.6092   1.6109   1.6155   1.6286   1.6368   1.6396   1.6414
     1.6441   1.6487   1.6493   1.6497   1.6543   1.6692   1.6697   1.6737
     1.6773   1.6807   1.6825   1.6868   1.6882   1.6890   1.6901   1.7009
     1.7045   1.7050   1.7095   1.7208   1.7219   1.7268   1.7320   1.7415
     1.7484   1.7508   1.7529   1.7556   1.7587   1.7647   1.7664   1.7672
     1.7770   1.7841   1.7853   1.7961   1.7987   1.8000   1.8007   1.8168
     1.8184   1.8188   1.8195   1.8224   1.8225   1.8238   1.8244   1.8495
     1.8502   1.8538   1.8591   1.8601   1.8701   1.8728   1.8808   1.8899
     1.8910   1.8923   1.8927   1.9011   1.9051   1.9135   1.9166   1.9462
     1.9573   1.9579   1.9591   1.9974   2.0589   2.0658   2.0798   2.1016
     2.1214   2.1265   2.1294   2.1508   2.1564   2.1591   2.1668   2.1763
     2.1842   2.1908   2.1929   2.2244   2.2247   2.2475   2.4680   2.6106
     2.7799   2.7857   2.7866   2.8066   2.8618   2.8674   2.8958   2.9296
     2.9319   2.9394   2.9453   2.9503   2.9740   3.0770   3.0808   3.1230
     3.1373   3.1467   3.1808   3.2936   3.2952   3.5321   3.5321   3.5480
     3.5638   3.7377   3.7392   3.8742   4.0403   4.0562   4.3019   4.3512
     4.4306   4.4483   4.4661   4.5110   4.6711   4.6852   4.6906   4.7196
     4.7549   4.8601   4.8765   5.0274   5.0742   5.1077   5.2636   5.3958
     5.4665   5.4717   5.5617   5.6564   5.7211   5.7278   5.7283   5.7580
     5.7901   5.8848   6.0319   6.0799   6.1361   6.2316   6.4588   6.7259
     6.7473   6.7701   6.7756   6.7877   6.8597   6.8981   6.9243   7.0296
     7.0345   7.1387   7.1975   7.2065   7.3756   7.4097   7.4198   7.4339
     7.4437   7.4471   7.4606   7.4854   7.4908   7.4960   7.5029   7.5730
     7.6722   7.7072   7.7313   7.8140   7.8712   7.8960   8.0309   8.1045
     8.1241   8.1337   8.1777   8.4396   8.4863   8.5025   8.5051   8.6668
     8.7142   8.7239   8.7471   8.7556   8.7721   8.8565   8.8794   8.9213
     8.9333   9.0559   9.0727   9.0753   9.0827   9.1122   9.1259   9.1389
     9.1630   9.1751   9.1959   9.3026   9.3207   9.3839   9.3929   9.5039
     9.5321   9.5713   9.5947   9.7420   9.7473   9.7503   9.7553   9.8085
     9.8178   9.8181   9.8755   9.9117   9.9434  10.0045  10.0234  10.1173
    10.1647  10.1704  10.1993

          k = 0.2500 0.0000 0.0000 (256240 PWs)   bands (ev):

   -23.7184 -15.8696 -15.5902 -15.4365 -14.9009 -14.6534 -14.6077 -14.5139
   -14.0808 -13.6338 -13.5101 -12.9683 -12.8133 -12.7405 -12.6691 -12.2912
   -11.9227 -11.8061 -11.6904 -11.2565 -10.7929 -10.5055 -10.3387 -10.1504
    -9.8905  -9.7507  -9.5765  -9.3717  -9.1493  -8.9149  -8.7721  -8.3833
    -7.6645  -7.5992  -7.3756  -7.1732  -7.1642  -7.0696  -6.7138  -6.6382
    -6.0328  -5.9867  -5.7053  -5.5792  -5.5436  -5.4661  -5.0743  -4.9611
    -4.9447  -4.9340  -4.7808  -4.5542  -4.4793  -4.3317  -4.1349  -4.1042
    -4.0972  -4.0856  -4.0142  -3.9916  -3.9398  -3.7311  -3.6565  -3.6317
    -3.6138  -3.5375  -3.4786  -3.4717  -3.4490  -3.3480  -3.2617  -3.2502
    -3.2127  -3.1805  -3.1458  -3.0561  -3.0466  -2.9713  -2.9361  -2.8836
    -2.8491  -2.7555  -2.6770  -2.6422  -2.5775  -2.5169  -2.4368  -2.4271
    -2.4250  -2.3239  -2.2563  -2.2351  -2.1988  -2.1043  -2.0273  -1.9827
    -1.9631  -1.8913  -1.8485  -1.7361  -1.7277  -1.7187  -1.7108  -1.7035
    -1.6488  -1.6269  -1.6172  -1.5268  -1.5215  -1.4619  -1.4487  -1.4295
    -1.4287  -1.4214  -1.4204  -1.4031  -1.4003  -1.3744  -1.3687  -1.3486
    -1.3439  -1.3268  -1.3009  -1.2774  -1.2685  -1.2298  -1.2179  -1.2099
    -1.2088  -1.2076  -1.2070  -1.2043  -1.1567  -1.1460  -1.1306  -1.1293
    -1.1195  -1.1180  -1.0562  -1.0002  -0.9686  -0.9619  -0.9572  -0.9393
    -0.9007  -0.8973  -0.8813  -0.8702  -0.8700  -0.8641  -0.8614  -0.8472
    -0.8338  -0.8269  -0.8120  -0.8096  -0.8069  -0.7980  -0.7915  -0.7673
    -0.7624  -0.7611  -0.7591  -0.7551  -0.7413  -0.7388  -0.7379  -0.7173
    -0.7088  -0.6909  -0.6812  -0.6785  -0.6762  -0.6596  -0.6484  -0.6431
    -0.6401  -0.6384  -0.6352  -0.6290  -0.6237  -0.6180  -0.6104  -0.6094
    -0.6087  -0.6059  -0.6031  -0.6025  -0.5954  -0.5911  -0.5763  -0.5750
    -0.5708  -0.5621  -0.5303  -0.5289  -0.5273  -0.4807  -0.4799  -0.4434
    -0.4427  -0.4312  -0.4221  -0.4182  -0.3996  -0.3975  -0.3907  -0.3835
    -0.3813  -0.3790  -0.3765  -0.3703  -0.3675  -0.3504  -0.2392  -0.2339
    -0.2295  -0.2279  -0.2004  -0.1956  -0.1953  -0.1871  -0.1795  -0.1766
    -0.1761  -0.1749  -0.1730  -0.1561  -0.1546  -0.1538  -0.1455  -0.1303
    -0.1207  -0.1148  -0.1134  -0.1104  -0.1098  -0.1035  -0.0878  -0.0875
    -0.0838  -0.0545  -0.0314  -0.0267  -0.0260  -0.0235  -0.0183  -0.0159
    -0.0081  -0.0074   0.0107   0.0147   0.0163   0.0347   0.0385   0.0404
     0.0458   0.0501   0.0771   0.0773   0.0813   0.0824   0.0893   0.0906
     0.0949   0.1022   0.1134   0.1176   0.1232   0.1355   0.1393   0.1453
     0.1531   0.1698   0.1726   0.1744   0.1754   0.1829   0.1904   0.1912
     0.1916   0.1944   0.2195   0.2205   0.2212   0.2325   0.2345   0.2575
     0.2588   0.2615   0.2757   0.3048   0.3061   0.3090   0.3112   0.3160
     0.3238   0.3342   0.3485   0.3504   0.3522   0.3598   0.3612   0.3668
     0.3722   0.3741   0.3766   0.3771   0.3790   0.3799   0.3819   0.3848
     0.4009   0.4041   0.4056   0.4084   0.4115   0.4156   0.4284   0.4307
     0.4464   0.4489   0.4590   0.4684   0.4842   0.4853   0.4881   0.4888
     0.4920   0.5041   0.5083   0.5097   0.5135   0.5144   0.5163   0.5268
     0.5488   0.5507   0.6202   0.6221   0.6268   0.6291   0.6375   0.6381
     0.6421   0.6457   0.6472   0.6490   0.6547   0.6562   0.6571   0.6612
     0.6628   0.6685   0.6699   0.6781   0.6796   0.6803   0.6885   0.6927
     0.6991   0.7003   0.7066   0.7076   0.7081   0.7252   0.7298   0.7336
     0.7394   0.7640   0.7751   0.7777   0.7911   0.7928   0.8106   0.8134
     0.8143   0.8163   0.8233   0.8257   0.8369   0.8474   0.8480   0.8511
     0.8563   0.8590   0.8598   0.8646   0.8682   0.8706   0.8737   0.8926
     0.8959   0.9019   0.9104   0.9157   0.9175   0.9194   0.9229   0.9252
     0.9267   0.9378   0.9490   0.9515   0.9547   0.9562   0.9621   0.9647
     0.9678   0.9706   0.9789   0.9806   0.9838   0.9879   0.9900   1.0000
     1.0100   1.0112   1.0272   1.0304   1.0348   1.0359   1.0379   1.0424
     1.0478   1.0543   1.0660   1.0777   1.0908   1.0948   1.1121   1.1135
     1.1174   1.1182   1.1235   1.1346   1.1375   1.1432   1.1452   1.1465
     1.1503   1.1550   1.1593   1.1672   1.1743   1.1785   1.1876   1.1938
     1.1974   1.2100   1.2190   1.2244   1.2276   1.2285   1.2310   1.2511
     1.2528   1.2600   1.2629   1.2642   1.2647   1.2659   1.2711   1.2766
     1.2796   1.2840   1.2887   1.3116   1.3182   1.3209   1.3263   1.3272
     1.3351   1.3406   1.3438   1.3580   1.3607   1.3613   1.3658   1.3676
     1.3713   1.3741   1.3749   1.3880   1.3887   1.3903   1.3918   1.3929
     1.3942   1.3963   1.3987   1.4008   1.4037   1.4048   1.4099   1.4154
     1.4220   1.4276   1.4308   1.4370   1.4385   1.4395   1.4462   1.4476
     1.4517   1.4625   1.4641   1.4701   1.4777   1.4792   1.4809   1.4827
     1.4930   1.5031   1.5051   1.5077   1.5105   1.5141   1.5185   1.5276
     1.5278   1.5288   1.5331   1.5419   1.5524   1.5557   1.5630   1.5661
     1.5765   1.5876   1.5996   1.6067   1.6107   1.6159   1.6172   1.6217
     1.6239   1.6256   1.6288   1.6319   1.6347   1.6379   1.6463   1.6498
     1.6514   1.6547   1.6672   1.6681   1.6715   1.6725   1.6732   1.6770
     1.6828   1.6843   1.6854   1.6869   1.6894   1.6926   1.6942   1.6968
     1.7021   1.7034   1.7139   1.7175   1.7224   1.7247   1.7271   1.7278
     1.7318   1.7428   1.7498   1.7517   1.7531   1.7627   1.7724   1.7732
     1.7824   1.7876   1.7915   1.7942   1.7954   1.7964   1.7982   1.8001
     1.8031   1.8061   1.8069   1.8116   1.8124   1.8149   1.8275   1.8335
     1.8357   1.8379   1.8394   1.8415   1.8448   1.8467   1.8550   1.8554
     1.8644   1.8659   1.8765   1.8784   1.8811   1.8860   1.8881   1.8895
     1.9121   1.9179   1.9266   1.9318   1.9532   1.9813   1.9948   1.9954
     2.0010   2.0197   2.0406   2.0861   2.1275   2.1315   2.1324   2.1398
     2.1514   2.1798   2.2081   2.3283   2.4011   2.4261   2.4342   2.4462
     2.4539   2.4744   2.5388   2.5921   2.6179   2.6752   2.9299   2.9313
     2.9326   2.9454   3.3458   3.3465   3.3831   3.5607   3.5620   3.5881
     3.5883   3.6356   3.6450   3.8114   3.8252   3.8872   3.9391   3.9784
     3.9989   4.0230   4.0641   4.0739   4.0848   4.1190   4.1456   4.2338
     4.2591   4.3298   4.3631   4.4364   4.5277   4.6147   4.6314   4.6532
     4.7461   4.9287   5.1482   5.1676   5.1954   5.2241   5.4265   5.5309
     5.5850   5.5896   5.5988   5.7178   5.7965   5.8225   5.8390   5.8716
     5.9268   5.9386   5.9715   6.0242   6.0521   6.0782   6.1107   6.1390
     6.1675   6.2922   6.3238   6.3765   6.3831   6.4117   6.4331   6.8387
     7.0385   7.0537   7.0629   7.0850   7.1206   7.1479   7.1819   7.2338
     7.3524   7.3809   7.3947   7.3965   7.4005   7.4377   7.4874   7.5915
     7.6160   7.6536   7.7050   7.8199   7.8282   7.9014   7.9177   7.9697
     7.9923   8.0323   8.0763   8.1181   8.1611   8.2076   8.3514   8.3727
     8.3808   8.4168   8.4361   8.5681   8.6107   8.6620   8.6718   8.6774
     8.6878   8.6949   8.7349   8.7967   8.8187   8.8672   8.9637   9.0037
     9.0083   9.2365   9.2561   9.3491   9.4291   9.4439   9.4557   9.4831
     9.4915   9.5098   9.5267   9.5446   9.5523   9.5608   9.5654   9.5923
     9.6134   9.6556   9.7455   9.7976   9.8319   9.8476   9.9568  10.0606
    10.0821  10.0832  10.1112

          k = 0.2500-0.2165 0.0000 (256316 PWs)   bands (ev):

   -23.7184 -15.8407 -15.7067 -15.1652 -15.0943 -14.8534 -14.6019 -14.1956
   -14.0868 -13.7403 -13.4699 -13.0629 -12.9272 -12.7754 -12.5254 -12.2783
   -12.0173 -11.6812 -11.3840 -11.1824 -10.9591 -10.7494 -10.5839 -10.3011
   -10.0352  -9.4997  -9.3011  -9.0849  -8.9325  -8.7468  -8.6784  -8.3495
    -8.2721  -8.0863  -8.0468  -7.1160  -6.7404  -6.5531  -6.2837  -6.2336
    -6.1181  -6.1043  -5.9554  -5.7274  -5.6758  -5.3380  -5.3291  -5.1937
    -4.8661  -4.8437  -4.6076  -4.4777  -4.4254  -4.3427  -4.3066  -4.2793
    -4.2024  -4.0749  -3.9809  -3.9776  -3.9615  -3.8840  -3.7910  -3.7615
    -3.6943  -3.5790  -3.4238  -3.4074  -3.3180  -3.2345  -3.2033  -3.1580
    -3.1152  -3.0915  -3.0881  -2.9991  -2.9449  -2.8855  -2.8084  -2.7772
    -2.7661  -2.7037  -2.6373  -2.5878  -2.5603  -2.5445  -2.5406  -2.5136
    -2.4777  -2.3419  -2.3062  -2.2952  -2.2292  -2.1451  -1.9942  -1.9448
    -1.9425  -1.8751  -1.8132  -1.7986  -1.7971  -1.7932  -1.7375  -1.6685
    -1.6531  -1.6377  -1.6345  -1.6029  -1.6001  -1.5564  -1.4851  -1.4701
    -1.4497  -1.4410  -1.4406  -1.3863  -1.3846  -1.3812  -1.3552  -1.3463
    -1.3379  -1.3344  -1.3279  -1.3083  -1.3071  -1.3065  -1.3040  -1.3000
    -1.2943  -1.2916  -1.2105  -1.2074  -1.1785  -1.0982  -1.0961  -1.0629
    -0.9964  -0.9917  -0.9578  -0.9567  -0.9426  -0.9099  -0.9045  -0.9020
    -0.8900  -0.8894  -0.8785  -0.8764  -0.8682  -0.8641  -0.8553  -0.8539
    -0.8445  -0.8407  -0.8383  -0.8352  -0.8308  -0.8157  -0.8135  -0.8110
    -0.8087  -0.7915  -0.7598  -0.7596  -0.7555  -0.7509  -0.7492  -0.7403
    -0.7393  -0.7122  -0.7079  -0.6791  -0.6687  -0.6672  -0.6655  -0.6548
    -0.6541  -0.6421  -0.6230  -0.6222  -0.6065  -0.6027  -0.5916  -0.5887
    -0.5859  -0.5841  -0.5822  -0.5770  -0.5706  -0.5521  -0.5517  -0.5414
    -0.5291  -0.5201  -0.4987  -0.4941  -0.4919  -0.4898  -0.4871  -0.4723
    -0.4086  -0.4060  -0.4021  -0.4001  -0.3989  -0.3980  -0.3541  -0.3505
    -0.3410  -0.3406  -0.3386  -0.3325  -0.3315  -0.3227  -0.3221  -0.2821
    -0.2819  -0.2436  -0.2427  -0.2300  -0.2143  -0.1947  -0.1933  -0.1907
    -0.1900  -0.1649  -0.1612  -0.1514  -0.1493  -0.1404  -0.1343  -0.1298
    -0.1279  -0.1171  -0.1133  -0.1031  -0.0943  -0.0846  -0.0732  -0.0712
    -0.0671  -0.0607  -0.0459  -0.0373  -0.0360  -0.0224  -0.0215  -0.0119
    -0.0086   0.0029   0.0033   0.0079   0.0085   0.0116   0.0144   0.0195
     0.0206   0.0371   0.0388   0.0506   0.0546   0.0582   0.0735   0.0820
     0.0958   0.1033   0.1059   0.1137   0.1295   0.1321   0.1336   0.1454
     0.1507   0.1548   0.1589   0.1600   0.1739   0.1933   0.2114   0.2180
     0.2195   0.2521   0.2541   0.2573   0.2633   0.2638   0.2666   0.2722
     0.2842   0.2850   0.3017   0.3028   0.3075   0.3131   0.3188   0.3222
     0.3235   0.3278   0.3301   0.3315   0.3466   0.3577   0.3587   0.3651
     0.3670   0.3689   0.3699   0.3703   0.3717   0.3735   0.3779   0.3815
     0.3932   0.4005   0.4021   0.4031   0.4038   0.4231   0.4348   0.4376
     0.4440   0.4464   0.4502   0.4547   0.4709   0.4719   0.4887   0.5007
     0.5026   0.5084   0.5122   0.5143   0.5212   0.5221   0.5283   0.5291
     0.5400   0.5444   0.5488   0.5543   0.5738   0.5802   0.6314   0.6379
     0.6484   0.6531   0.6542   0.6553   0.6567   0.6576   0.6601   0.6626
     0.6644   0.6670   0.6782   0.6866   0.6883   0.6909   0.6936   0.6940
     0.7010   0.7067   0.7082   0.7128   0.7367   0.7379   0.7465   0.7495
     0.7514   0.7656   0.7691   0.7726   0.7775   0.7899   0.8105   0.8154
     0.8211   0.8241   0.8285   0.8321   0.8366   0.8415   0.8428   0.8482
     0.8487   0.8502   0.8544   0.8571   0.8665   0.8789   0.8838   0.8868
     0.8926   0.8981   0.9026   0.9108   0.9376   0.9397   0.9405   0.9419
     0.9700   0.9710   0.9725   0.9759   0.9787   0.9801   0.9835   0.9854
     0.9915   0.9953   0.9973   1.0018   1.0043   1.0184   1.0203   1.0224
     1.0272   1.0319   1.0376   1.0379   1.0406   1.0412   1.0502   1.0510
     1.0573   1.0602   1.0613   1.0706   1.0734   1.0762   1.0815   1.0841
     1.0851   1.0872   1.0888   1.0904   1.0921   1.0959   1.1243   1.1270
     1.1360   1.1376   1.1408   1.1534   1.1737   1.1778   1.1854   1.1948
     1.1957   1.1973   1.1981   1.1997   1.2029   1.2233   1.2238   1.2253
     1.2259   1.2265   1.2279   1.2339   1.2362   1.2482   1.2557   1.2566
     1.2646   1.2685   1.2746   1.2789   1.2946   1.2973   1.2981   1.3185
     1.3243   1.3268   1.3330   1.3351   1.3362   1.3378   1.3430   1.3456
     1.3477   1.3513   1.3622   1.3723   1.3735   1.3861   1.3895   1.3925
     1.3993   1.4068   1.4134   1.4304   1.4314   1.4508   1.4511   1.4554
     1.4578   1.4594   1.4600   1.4612   1.4624   1.4634   1.4643   1.4677
     1.4766   1.4773   1.4841   1.4894   1.4917   1.4973   1.5028   1.5090
     1.5178   1.5326   1.5351   1.5386   1.5420   1.5442   1.5459   1.5481
     1.5499   1.5564   1.5584   1.5610   1.5623   1.5650   1.5671   1.5722
     1.5736   1.5751   1.5786   1.5852   1.5914   1.5924   1.5941   1.5948
     1.5974   1.6022   1.6069   1.6134   1.6170   1.6246   1.6333   1.6401
     1.6427   1.6498   1.6506   1.6611   1.6659   1.6676   1.6721   1.6759
     1.6818   1.6834   1.6913   1.6972   1.7015   1.7027   1.7037   1.7085
     1.7117   1.7152   1.7190   1.7226   1.7243   1.7285   1.7316   1.7475
     1.7505   1.7523   1.7527   1.7537   1.7542   1.7562   1.7585   1.7640
     1.7653   1.7736   1.7740   1.7797   1.7814   1.7867   1.7920   1.7950
     1.8055   1.8065   1.8080   1.8087   1.8094   1.8141   1.8147   1.8163
     1.8194   1.8247   1.8251   1.8324   1.8431   1.8490   1.8492   1.8587
     1.8611   1.8730   1.8744   1.8839   1.8922   1.8967   1.8989   1.9203
     1.9218   1.9282   1.9296   1.9499   1.9529   1.9683   1.9963   2.0324
     2.0416   2.0619   2.0731   2.1195   2.1278   2.1345   2.1380   2.1530
     2.1548   2.1558   2.1672   2.1751   2.2036   2.2776   2.4875   2.4958
     2.5168   2.5260   2.6026   2.6550   2.6848   2.9532   2.9546   3.1474
     3.1503   3.1561   3.1578   3.1652   3.1683   3.1935   3.2239   3.3486
     3.3512   3.4379   3.4624   3.8303   3.9012   3.9150   3.9694   3.9887
     4.0011   4.1263   4.2034   4.2090   4.2149   4.2471   4.3588   4.3761
     4.4322   4.4446   4.5318   4.5338   4.7410   4.7419   4.7669   4.8987
     4.9148   4.9323   5.0182   5.0359   5.0579   5.1038   5.2639   5.2856
     5.3542   5.3800   5.4664   5.5113   5.6115   5.6597   5.6740   5.7942
     5.8021   5.8103   5.8207   5.8629   5.9964   6.1159   6.1319   6.1800
     6.2369   6.2957   6.3210   6.3432   6.4838   6.9246   6.9519   6.9603
     6.9830   7.0653   7.1004   7.1367   7.2023   7.2469   7.3459   7.3645
     7.4354   7.4400   7.4448   7.4776   7.5310   7.5533   7.5793   7.5953
     7.6613   7.6773   7.6927   7.6978   7.7059   7.7486   7.7812   7.7880
     7.8358   8.0086   8.0303   8.1375   8.1640   8.2745   8.3001   8.3167
     8.4079   8.5332   8.5547   8.5609   8.6000   8.6225   8.6481   8.7070
     8.7276   8.8933   8.9479   8.9583   8.9851   9.0087   9.0137   9.0484
     9.0599   9.0736   9.0976   9.1917   9.2486   9.3013   9.3283   9.3388
     9.3468   9.3738   9.4730   9.4970   9.5368   9.5479   9.5742   9.5967
     9.6185   9.6278   9.6529   9.6865   9.6976   9.7092   9.7211   9.7815
     9.7944   9.9556  10.0299

          k =-0.5000 0.0000 0.0000 (256496 PWs)   bands (ev):

   -23.7183 -15.6323 -15.4630 -15.2839 -15.2364 -15.1925 -14.7593 -14.2515
   -14.1695 -14.1020 -13.4971 -12.6768 -12.4274 -12.3271 -12.1429 -12.1305
   -11.6238 -11.5963 -11.4332 -11.4229 -11.0470 -10.9110 -10.6840 -10.3891
   -10.0416  -9.9668  -9.7785  -9.6200  -9.3793  -8.8472  -8.7755  -8.6194
    -8.5442  -7.5100  -7.4667  -7.2281  -7.0377  -6.9826  -6.9771  -5.8385
    -5.8112  -5.5804  -5.4958  -4.9419  -4.9338  -4.8102  -4.6960  -4.6078
    -4.4425  -4.4368  -4.4360  -4.4344  -4.4228  -4.4040  -4.3538  -4.3200
    -4.2971  -4.2189  -4.1667  -4.1649  -4.0398  -4.0209  -3.9889  -3.8956
    -3.7159  -3.6711  -3.6556  -3.6221  -3.5247  -3.4036  -3.3957  -3.2806
    -3.2136  -3.1962  -3.0987  -3.0705  -3.0521  -3.0501  -3.0424  -3.0371
    -3.0125  -3.0027  -2.9732  -2.9414  -2.6725  -2.5401  -2.4554  -2.4469
    -2.4284  -2.3970  -2.3893  -2.2706  -2.2579  -2.2300  -2.1819  -2.1615
    -2.0781  -1.9450  -1.9360  -1.9324  -1.9158  -1.7790  -1.5113  -1.5080
    -1.5073  -1.5062  -1.5057  -1.5020  -1.4855  -1.4171  -1.4136  -1.3837
    -1.3806  -1.3483  -1.2801  -1.2794  -1.2791  -1.2764  -1.2560  -1.2310
    -1.2286  -1.2281  -1.2274  -1.1887  -1.1684  -1.1321  -1.1184  -1.1169
    -1.0915  -1.0863  -1.0737  -1.0571  -1.0545  -1.0526  -1.0437  -1.0335
    -1.0317  -0.9851  -0.9838  -0.9815  -0.9805  -0.9715  -0.9708  -0.9698
    -0.9688  -0.9637  -0.9318  -0.9207  -0.9196  -0.9188  -0.8971  -0.8959
    -0.8952  -0.8943  -0.8867  -0.8327  -0.8309  -0.8262  -0.8111  -0.8091
    -0.8087  -0.8077  -0.7851  -0.7831  -0.7819  -0.7797  -0.7752  -0.7640
    -0.7370  -0.7349  -0.7340  -0.7333  -0.7283  -0.7127  -0.7106  -0.6867
    -0.6823  -0.6812  -0.6741  -0.6388  -0.6370  -0.6138  -0.6075  -0.6071
    -0.6062  -0.6051  -0.5824  -0.5802  -0.5787  -0.5751  -0.5719  -0.5709
    -0.5592  -0.5571  -0.5565  -0.5564  -0.5433  -0.5346  -0.5295  -0.4844
    -0.4692  -0.4680  -0.4661  -0.4643  -0.4231  -0.4213  -0.3395  -0.3390
    -0.3373  -0.3361  -0.3187  -0.3029  -0.3013  -0.3007  -0.3000  -0.2990
    -0.2941  -0.2907  -0.2682  -0.2609  -0.2589  -0.2576  -0.2542  -0.2479
    -0.2410  -0.2315  -0.2295  -0.2254  -0.2062  -0.1848  -0.1449  -0.1401
    -0.1148  -0.1028  -0.0968  -0.0866  -0.0839  -0.0799  -0.0647  -0.0521
    -0.0390  -0.0377  -0.0351  -0.0338  -0.0333  -0.0303  -0.0218   0.0016
     0.0020   0.0027   0.0028   0.0136   0.0388   0.0407   0.0422   0.0432
     0.0451   0.0760   0.0766   0.0772   0.0779   0.0885   0.0899   0.1008
     0.1221   0.1223   0.1227   0.1237   0.1302   0.1338   0.1442   0.1603
     0.1674   0.1739   0.2142   0.2352   0.2363   0.2370   0.2379   0.2416
     0.2423   0.2448   0.2462   0.2806   0.2828   0.2836   0.2881   0.3107
     0.3200   0.3445   0.3458   0.3466   0.3472   0.3486   0.3493   0.3499
     0.3505   0.3517   0.3517   0.3522   0.3551   0.4052   0.4127   0.4134
     0.4294   0.4312   0.4355   0.4412   0.4424   0.4426   0.4454   0.4459
     0.4473   0.4508   0.4515   0.4552   0.4566   0.4594   0.4642   0.4663
     0.4731   0.4736   0.4741   0.4869   0.4871   0.4873   0.4875   0.4877
     0.4933   0.4995   0.4998   0.5004   0.5010   0.5119   0.5140   0.5232
     0.5243   0.5246   0.5251   0.5344   0.5375   0.5543   0.5563   0.6087
     0.6140   0.6520   0.6532   0.6582   0.6600   0.6895   0.6922   0.6926
     0.6942   0.6979   0.7041   0.7064   0.7079   0.7145   0.7156   0.7169
     0.7179   0.7181   0.7217   0.7240   0.7248   0.7249   0.7270   0.7292
     0.7315   0.7394   0.7408   0.7420   0.7469   0.7606   0.7616   0.7638
     0.7688   0.7718   0.7740   0.7887   0.7954   0.8324   0.8597   0.8602
     0.8649   0.8666   0.8715   0.8853   0.8900   0.8924   0.8944   0.8953
     0.8990   0.9004   0.9011   0.9025   0.9031   0.9034   0.9042   0.9069
     0.9107   0.9126   0.9139   0.9171   0.9199   0.9268   0.9318   0.9411
     0.9515   0.9557   0.9567   0.9683   0.9747   0.9810   0.9848   0.9896
     0.9951   0.9987   1.0013   1.0019   1.0030   1.0048   1.0063   1.0151
     1.0160   1.0199   1.0224   1.0310   1.0358   1.0373   1.0385   1.0731
     1.0767   1.0786   1.0795   1.0804   1.0830   1.0921   1.0948   1.1064
     1.1149   1.1223   1.1308   1.1347   1.1363   1.1368   1.1383   1.1412
     1.1638   1.1921   1.2003   1.2078   1.2090   1.2095   1.2105   1.2114
     1.2154   1.2188   1.2218   1.2223   1.2247   1.2255   1.2344   1.2400
     1.2455   1.2567   1.2576   1.2580   1.2595   1.2747   1.2755   1.2774
     1.2792   1.2795   1.2802   1.2860   1.3112   1.3151   1.3158   1.3163
     1.3296   1.3462   1.3839   1.3846   1.3852   1.3896   1.3982   1.4123
     1.4154   1.4175   1.4202   1.4230   1.4332   1.4382   1.4412   1.4479
     1.4489   1.4536   1.4603   1.4631   1.4799   1.4854   1.4866   1.4869
     1.4883   1.4907   1.4931   1.4934   1.4959   1.5033   1.5041   1.5054
     1.5063   1.5076   1.5084   1.5089   1.5100   1.5411   1.5441   1.5465
     1.5471   1.5488   1.5587   1.5648   1.5765   1.5783   1.5829   1.5834
     1.5848   1.5908   1.5993   1.6004   1.6040   1.6120   1.6129   1.6134
     1.6160   1.6193   1.6211   1.6237   1.6241   1.6297   1.6308   1.6372
     1.6453   1.6591   1.6695   1.6731   1.6805   1.6840   1.6857   1.6870
     1.6874   1.6878   1.6895   1.6910   1.6935   1.6970   1.7008   1.7010
     1.7023   1.7031   1.7033   1.7046   1.7075   1.7086   1.7103   1.7126
     1.7146   1.7183   1.7201   1.7280   1.7363   1.7435   1.7522   1.7532
     1.7550   1.7585   1.7597   1.7627   1.7643   1.7713   1.7827   1.7863
     1.7873   1.7895   1.7929   1.8007   1.8040   1.8061   1.8090   1.8178
     1.8189   1.8191   1.8231   1.8348   1.8386   1.8404   1.8428   1.8480
     1.8488   1.8496   1.8511   1.8529   1.8660   1.8688   1.8702   1.8796
     1.8830   1.8841   1.8844   1.8853   1.8941   1.8953   1.8973   1.9045
     1.9457   1.9465   1.9579   1.9765   1.9783   1.9816   1.9822   2.0143
     2.3841   2.3943   2.3990   2.4169   2.4238   2.6023   2.6147   2.6200
     2.6459   2.6563   2.6569   2.6613   2.6673   2.9716   2.9780   2.9825
     3.0475   3.1891   3.1993   3.2001   3.2035   3.5509   3.5554   3.5560
     3.5581   3.8209   3.8357   3.9415   4.1092   4.1161   4.1201   4.1905
     4.2834   4.2871   4.2893   4.3359   4.4349   4.4400   4.4442   4.4519
     4.5212   4.5992   4.7539   5.0235   5.0691   5.0788   5.0948   5.1090
     5.1314   5.1834   5.1930   5.2151   5.2485   5.2618   5.3886   5.3902
     5.4081   5.4137   5.4145   5.4225   5.4319   5.4465   5.4598   5.4766
     5.5132   5.5385   5.7713   5.8227   5.8922   5.9066   5.9587   6.0275
     6.0714   6.1007   6.3377   6.3510   6.3522   6.3612   6.3718   6.3862
     6.3883   6.4622   6.5047   6.6858   6.7541   6.7711   6.7835   6.8034
     6.8532   6.9730   7.1850   7.4342   7.4474   7.4616   7.4770   7.4879
     7.5154   7.8911   7.9296   7.9493   7.9509   7.9532   7.9537   7.9668
     7.9915   8.0300   8.0384   8.1758   8.1836   8.2187   8.2343   8.2418
     8.2495   8.3620   8.3911   8.4222   8.4294   8.4478   8.4566   8.4741
     8.4868   8.5261   8.5342   8.5412   8.6703   8.6827   8.6892   9.1202
     9.1665   9.1767   9.1810   9.1975   9.2105   9.2131   9.2146   9.3090
     9.3507   9.4138   9.4179   9.4490   9.4733   9.4958   9.5354   9.6263
     9.6317   9.7482   9.7996   9.8697   9.8737   9.8792   9.8798   9.8860
     9.9418   9.9446   9.9510

          k =-0.5000-0.2165 0.0000 (256328 PWs)   bands (ev):

   -23.7183 -15.5894 -15.4749 -15.4623 -15.1998 -14.8476 -14.8022 -14.7350
   -14.1725 -13.4972 -13.3659 -13.2967 -12.8066 -12.3368 -11.6598 -11.6539
   -11.5834 -11.4329 -11.3114 -11.2214 -11.1906 -11.1694 -11.0579 -11.0446
   -10.2227  -9.6896  -9.4608  -9.3819  -9.3263  -8.9072  -8.5309  -8.4113
    -8.3943  -7.9622  -7.9521  -7.6662  -7.6135  -6.2310  -6.2138  -5.6846
    -5.5943  -5.4335  -5.3642  -5.1447  -4.9992  -4.9171  -4.8792  -4.8137
    -4.8130  -4.8118  -4.7988  -4.6850  -4.6701  -4.4607  -4.2595  -4.0372
    -3.9987  -3.9808  -3.9063  -3.8594  -3.8395  -3.8318  -3.8299  -3.8292
    -3.7931  -3.7864  -3.6543  -3.5338  -3.5181  -3.5118  -3.4824  -3.4040
    -3.3603  -3.3083  -3.3054  -3.2567  -3.2372  -3.2242  -3.1839  -3.1085
    -2.9200  -2.8699  -2.8564  -2.7552  -2.6979  -2.4285  -2.2681  -2.2211
    -2.2086  -2.2077  -2.1974  -2.1917  -2.1631  -2.1581  -2.1576  -2.1410
    -2.0314  -1.9673  -1.8637  -1.7727  -1.7394  -1.7302  -1.7272  -1.7013
    -1.6728  -1.6550  -1.6528  -1.6469  -1.6388  -1.6216  -1.5494  -1.5167
    -1.4323  -1.4310  -1.4294  -1.4263  -1.3762  -1.2708  -1.2211  -1.1855
    -1.1373  -1.1214  -1.1210  -1.1201  -1.1197  -1.0905  -1.0856  -1.0851
    -1.0722  -1.0639  -1.0628  -1.0624  -1.0582  -1.0419  -1.0126  -1.0124
    -1.0120  -1.0104  -1.0100  -1.0096  -1.0060  -1.0035  -0.9869  -0.9864
    -0.9857  -0.9851  -0.9404  -0.9365  -0.9357  -0.9288  -0.8823  -0.8631
    -0.8615  -0.8581  -0.8337  -0.8181  -0.8176  -0.8171  -0.8163  -0.8008
    -0.7984  -0.7971  -0.7918  -0.7707  -0.7592  -0.7497  -0.7492  -0.7489
    -0.7458  -0.7440  -0.7438  -0.7423  -0.7401  -0.7206  -0.7188  -0.6997
    -0.6852  -0.6847  -0.6828  -0.6798  -0.6688  -0.6679  -0.6667  -0.6662
    -0.6652  -0.6644  -0.6629  -0.6624  -0.6613  -0.6568  -0.5179  -0.5123
    -0.5108  -0.5096  -0.4949  -0.4799  -0.4792  -0.4786  -0.4740  -0.4055
    -0.3988  -0.3983  -0.3979  -0.3963  -0.3955  -0.3922  -0.3914  -0.3895
    -0.3875  -0.3845  -0.3390  -0.3282  -0.3273  -0.3257  -0.3221  -0.3191
    -0.3170  -0.3143  -0.3047  -0.2979  -0.2951  -0.2917  -0.2910  -0.2155
    -0.2024  -0.2019  -0.1981  -0.1976  -0.1959  -0.1893  -0.1722  -0.1275
    -0.1270  -0.1258  -0.1247  -0.0780  -0.0765  -0.0757  -0.0752  -0.0602
    -0.0565  -0.0558  -0.0545  -0.0375  -0.0314  -0.0270  -0.0202  -0.0177
    -0.0177  -0.0170  -0.0148   0.0025   0.0142   0.0239   0.0355   0.0987
     0.0992   0.0998   0.1018   0.1148   0.1152   0.1158   0.1162   0.1287
     0.1303   0.1318   0.1327   0.2074   0.2122   0.2130   0.2153   0.2164
     0.2173   0.2192   0.2197   0.2208   0.2228   0.2233   0.2259   0.2591
     0.2593   0.2593   0.2599   0.2690   0.2716   0.2722   0.2729   0.2735
     0.2748   0.2773   0.2779   0.3069   0.3419   0.3444   0.3454   0.3490
     0.3697   0.3703   0.3729   0.3762   0.4068   0.4118   0.4218   0.4279
     0.4292   0.4317   0.4456   0.4503   0.4505   0.4518   0.4526   0.4551
     0.4575   0.4587   0.4617   0.4640   0.4675   0.4698   0.4712   0.4719
     0.4728   0.4734   0.4767   0.4769   0.4770   0.4774   0.4796   0.4943
     0.4951   0.4971   0.4982   0.5200   0.5211   0.5222   0.5224   0.5238
     0.5315   0.5326   0.5351   0.5430   0.5826   0.5828   0.5838   0.5849
     0.6148   0.6150   0.6173   0.6187   0.6445   0.6755   0.6817   0.6835
     0.6947   0.6989   0.6992   0.7005   0.7013   0.7058   0.7147   0.7173
     0.7185   0.7200   0.7204   0.7324   0.7333   0.7346   0.7374   0.7376
     0.7391   0.7392   0.7411   0.7424   0.7443   0.7452   0.7469   0.7515
     0.7569   0.8057   0.8156   0.8180   0.8212   0.8260   0.8271   0.8288
     0.8321   0.8347   0.8359   0.8362   0.8388   0.8719   0.8735   0.8769
     0.8802   0.8812   0.8817   0.8830   0.8860   0.8994   0.9060   0.9214
     0.9237   0.9262   0.9273   0.9284   0.9366   0.9390   0.9401   0.9406
     0.9428   0.9469   0.9473   0.9491   0.9505   0.9567   0.9602   0.9623
     0.9644   0.9661   0.9722   0.9768   0.9793   1.0260   1.0282   1.0374
     1.0444   1.0478   1.0510   1.0524   1.0554   1.0559   1.0570   1.0574
     1.0603   1.0626   1.0640   1.0678   1.0768   1.0970   1.0977   1.0982
     1.0990   1.0991   1.1003   1.1018   1.1032   1.1282   1.1444   1.1486
     1.1543   1.1622   1.1669   1.1818   1.1832   1.1844   1.1861   1.1900
     1.1974   1.2152   1.2175   1.2180   1.2182   1.2427   1.2434   1.2454
     1.2588   1.2962   1.2965   1.2972   1.2981   1.3006   1.3274   1.3285
     1.3305   1.3428   1.3565   1.3669   1.3812   1.3838   1.3890   1.3920
     1.3965   1.3979   1.4035   1.4098   1.4113   1.4116   1.4134   1.4147
     1.4153   1.4155   1.4157   1.4185   1.4189   1.4198   1.4271   1.4307
     1.4341   1.4427   1.4445   1.4472   1.4482   1.4493   1.4500   1.4509
     1.4539   1.4576   1.4612   1.4656   1.4719   1.4804   1.4860   1.4913
     1.4930   1.4941   1.4957   1.4985   1.5017   1.5065   1.5114   1.5127
     1.5145   1.5181   1.5590   1.5604   1.5608   1.5621   1.5627   1.5636
     1.5698   1.5904   1.5916   1.5919   1.5928   1.5952   1.6062   1.6095
     1.6105   1.6120   1.6224   1.6260   1.6339   1.6358   1.6394   1.6409
     1.6421   1.6465   1.6506   1.6516   1.6521   1.6574   1.6582   1.6590
     1.6597   1.6875   1.7122   1.7191   1.7209   1.7227   1.7241   1.7249
     1.7257   1.7262   1.7264   1.7266   1.7331   1.7369   1.7390   1.7432
     1.7446   1.7463   1.7489   1.7522   1.7537   1.7541   1.7560   1.7594
     1.7602   1.7611   1.7643   1.7656   1.7689   1.7702   1.7723   1.7768
     1.7779   1.7847   1.7857   1.7877   1.7947   1.8185   1.8191   1.8198
     1.8200   1.8263   1.8324   1.8339   1.8358   1.8423   1.8450   1.8475
     1.8505   1.8614   1.8693   1.8709   1.8726   1.8793   1.9046   1.9168
     1.9255   1.9416   1.9436   1.9440   1.9452   1.9582   1.9702   1.9713
     1.9747   1.9749   1.9772   1.9783   1.9804   1.9849   1.9864   1.9869
     1.9930   2.0227   2.1993   2.2035   2.2038   2.2077   2.4426   2.7005
     2.7016   2.7047   2.7717   2.9267   2.9286   2.9300   2.9366   3.1539
     3.1581   3.1625   3.1637   3.4392   3.4472   3.4533   3.4924   3.8053
     3.8221   3.8224   3.8234   3.9409   4.0045   4.0092   4.0097   4.0820
     4.2979   4.2991   4.3010   4.3083   4.5910   4.5950   4.5961   4.6005
     4.6638   4.6647   4.6729   4.7747   4.9075   4.9184   4.9238   4.9495
     4.9555   4.9952   5.0231   5.0612   5.2325   5.2351   5.3495   5.3877
     5.4034   5.4501   5.5047   5.5316   5.5430   5.5512   5.5600   5.6104
[...]
     atom   80 type  1   force =     0.00010243    0.00000357   -0.00002773
     atom   81 type  1   force =     0.00007280   -0.00023275    0.00003162
     atom   82 type  1   force =     0.00029852   -0.00053793    0.00035419
     atom   83 type  1   force =     0.00012568   -0.00013865   -0.00012914
     atom   84 type  1   force =     0.00021443   -0.00035606   -0.00005828
     atom   85 type  1   force =     0.00317988   -0.00162494    0.00012709
     atom   86 type  1   force =     0.01109212    0.01613937    0.01065326
     atom   87 type  1   force =    -0.00042742    0.00031493   -0.00028039
     atom   88 type  1   force =     0.00408217   -0.00566534    0.00056628
     atom   89 type  1   force =    -0.00308275    0.00018487   -0.00080464
     atom   90 type  1   force =     0.01410003   -0.01941137    0.01316121
     atom   91 type  1   force =    -0.02060451   -0.00317816    0.05957796
     atom   92 type  1   force =     0.00441890    0.00535330    0.00047305
     atom   93 type  1   force =     0.00426541    0.00017747    0.00112228
     atom   94 type  1   force =     0.00018364    0.00031098    0.00022598
     atom   95 type  1   force =     0.00036099    0.00115076   -0.00008499
     atom   96 type  1   force =     0.00095319    0.00022507    0.00058274
     atom   97 type  1   force =     0.00012720    0.00022354   -0.00006479
     atom   98 type  1   force =     0.00021828   -0.00005460   -0.00008523
     atom   99 type  1   force =     0.00025574    0.00002408   -0.00005083
     atom  100 type  1   force =    -0.00001198   -0.00001663   -0.00010252
     atom  101 type  2   force =    -0.00068943    0.00888463   -0.00306830
     atom  102 type  2   force =    -0.00398087    0.00075175    0.00169096
     atom  103 type  2   force =    -0.00087815    0.00355726   -0.00143338
     atom  104 type  2   force =    -0.00646820   -0.01299362    0.00578326
     atom  105 type  2   force =    -0.00182128    0.00676859   -0.00340155
     atom  106 type  2   force =     0.00218602    0.00273671    0.00429229
     atom  107 type  2   force =    -0.00159070    0.00268933   -0.00095254
     atom  108 type  2   force =     0.00067815   -0.00719753    0.01190704
     atom  109 type  2   force =    -0.00034000    0.00394899   -0.00241220
     atom  110 type  2   force =     0.00699608    0.00341775   -0.00027120
     atom  111 type  2   force =     0.00257309    0.00542375   -0.00284683
     atom  112 type  2   force =     0.00349744    0.00663468   -0.00068065
     atom  113 type  2   force =    -0.01519886   -0.00615482    0.02305750
     atom  114 type  2   force =     0.01134419   -0.00582262    0.00273261
     atom  115 type  2   force =    -0.00555743    0.00433184   -0.01298400
     atom  116 type  2   force =    -0.00787425    0.00189870    0.00868810
     atom  117 type  2   force =    -0.00972031   -0.01062807   -0.00321626
     atom  118 type  2   force =     0.01675189    0.01587265    0.00258227
     atom  119 type  2   force =    -0.00045819   -0.00177890   -0.00626464
     atom  120 type  2   force =    -0.00254277   -0.00748688    0.06037958
     atom  121 type  3   force =    -0.04275833    0.01186960   -0.06528302
     atom  122 type  2   force =     0.01282238    0.00135045   -0.01590416
     atom  123 type  2   force =     0.00525908   -0.00028361   -0.01238494
     atom  124 type  2   force =     0.00816017    0.00215738    0.01619878
     atom  125 type  2   force =    -0.01566975    0.00826083   -0.01219142
     atom  126 type  2   force =    -0.01166939    0.00186554    0.01599381
     atom  127 type  2   force =    -0.00468981   -0.00442856   -0.00098771
     atom  128 type  2   force =    -0.01391120   -0.00329542   -0.00649132
     atom  129 type  2   force =    -0.00589640   -0.00429064    0.00085012
     atom  130 type  2   force =     0.00034018    0.00131102   -0.00904585
     atom  131 type  2   force =    -0.00082657    0.00507204    0.01270554
     atom  132 type  2   force =     0.00369868    0.00379956   -0.01456251
     atom  133 type  2   force =    -0.00266929   -0.00420530    0.00509367
     atom  134 type  2   force =     0.00715761   -0.00218283   -0.01986282
     atom  135 type  2   force =     0.00581870    0.00911917    0.00593749
     atom  136 type  2   force =     0.01155597    0.00708943    0.01998703
     atom  137 type  2   force =     0.00216813   -0.00203046    0.00279703
     atom  138 type  2   force =    -0.00242922   -0.00524741   -0.00282773
     atom  139 type  2   force =    -0.00056354   -0.00354309    0.00010977
     atom  140 type  2   force =    -0.00012755   -0.00430285   -0.00203640
     atom  141 type  2   force =    -0.00120139    0.00114062    0.00115086
     atom  142 type  2   force =     0.00042921   -0.00361852   -0.00097908
     atom  143 type  2   force =    -0.00001960   -0.00202426    0.00103592
     atom  144 type  2   force =     0.00135494   -0.00685721   -0.00339429
     atom  145 type  2   force =    -0.00047880    0.00127334    0.00100357
     atom  146 type  2   force =     0.00062890   -0.00373543   -0.00148516
     atom  147 type  2   force =     0.00063719   -0.00164907    0.00112780
     atom  148 type  2   force =     0.00009098   -0.00889212   -0.00228031
     atom  149 type  2   force =     0.00037874    0.00360420    0.00029407

     Total force =     0.158632     Total SCF correction =     0.000290

     number of scf cycles    =   9
     number of bfgs steps    =   8

     energy   old            =  -12730.5942901260 Ry
     energy   new            =  -12730.6175529494 Ry

     CASE: energy  _new < energy  _old

     new trust radius        =       0.5163058305 bohr
     new conv_thr            =       0.0000000100 Ry


ATOMIC_POSITIONS (angstrom)
Cu      -0.000022695   0.001497510   7.362005051
Cu       1.844483793   1.704189147   7.361087382
Cu       3.688885404   0.001132565   7.361597414
Cu       5.533460528   1.704488629   7.361751336
Cu      -0.000067777   3.407441556   7.360762894
Cu       1.844785082   5.111631992   7.360057233
Cu       3.689068499   3.407832731   7.360988176
Cu       5.533484705   5.111448660   7.360115715
Cu       0.000066852   6.815571951   7.358857495
Cu       1.845006855   8.519180786   7.360208524
Cu       3.688895142   6.815322472   7.359922778
Cu       5.533202375   8.519256306   7.360265671
Cu      -0.000039513  10.222905329   7.360998237
Cu       1.844483939  11.926210769   7.362093824
Cu       3.689002569  10.222865298   7.362042015
Cu       5.533437835  11.926438322   7.362160281
Cu       0.000065637  13.629865148   7.362221216
Cu       1.844202164  15.335527536   7.361830830
Cu       3.688785460  13.630118096   7.361823401
Cu       5.533665263  15.335119638   7.360811257
Cu       0.000178109   1.705890947   9.196553577
Cu       1.844305099   0.002166669   9.195075835
Cu       3.688845044   1.705531083   9.195008384
Cu       5.533645755   0.000844205   9.193544057
Cu       0.000731967   5.112514821   9.191219575
Cu       1.844167702   3.407791180   9.192512113
Cu       3.689925730   5.111566534   9.193223214
Cu       5.534314798   3.408455259   9.193533861
Cu       0.000647400   8.517850421   9.191478005
Cu       1.843273251   6.815111465   9.193726268
Cu       3.689881443   8.518017999   9.194212418
Cu       5.534344891   6.815126154   9.192868534
Cu       0.000157576  11.924279162   9.196364368
Cu       1.844307278  10.221714666   9.193950506
Cu       3.688815880  11.925375638   9.195876806
Cu       5.534103980  10.221651527   9.194033621
Cu       0.000183300  15.335485769   9.193123151
Cu       1.844308306  13.629683429   9.194528729
Cu       3.688660546  15.335373074   9.192171945
Cu       5.533610355  13.630421622   9.193758526
Cu       0.000652709  -0.000499041  11.035324483
Cu       1.844599534   1.707912453  11.038138934
Cu       3.688484603  -0.001000878  11.032679122
Cu       5.534055807   1.704703111  11.034160743
Cu       0.001138663   3.412096997  11.037908027
Cu       1.843250855   5.110014589  11.025555233
Cu       3.690369389   3.403937568  11.027516048
Cu       5.540708699   5.109507992  11.027196089
Cu      -0.001028403   6.815901828  11.033223755
Cu       1.842361356   8.518095770  11.028008478
Cu       3.688632468   6.813879991  11.027583877
Cu       5.541714760   8.519669014  11.028827344
Cu       0.001355898  10.216229740  11.040412807
Cu       1.844094229  11.922090133  11.038033448
Cu       3.690070647  10.224122229  11.029116554
Cu       5.534405445  11.924156437  11.035128373
Cu       0.000078678  13.631004524  11.034009761
Cu       1.844353388  15.335271534  11.034482958
Cu       3.688924676  13.632944025  11.033022122
Cu       5.533610907  15.335507452  11.034051217
Cu       0.002670054   1.704448002  12.868139528
Cu       1.845712080  -0.001570374  12.875119932
Cu       3.689876807   1.697373928  12.866683686
Cu       5.533659038  -0.001522877  12.873441217
Cu       0.011400140   5.115538843  12.873713346
Cu       1.851539949   3.410676499  12.874471400
Cu       3.687712955   5.043130903  12.798127828
Cu       5.535128407   3.403710559  12.866819755
Cu       0.017220817   8.509884537  12.893241413
Cu       1.826351296   6.814797915  12.843599813
Cu       3.685871291   8.582823268  12.798178569
Cu       5.612450902   6.814805150  12.788931467
Cu       0.002075294  11.925317264  12.872054516
Cu       1.846132395  10.208804771  12.885326922
Cu       3.690273596  11.929314951  12.861798981
Cu       5.540882042  10.217396288  12.873551534
Cu       0.000153744  15.333442242  12.876700806
Cu       1.843671012  13.631747273  12.872954528
Cu       3.689406403  15.336130896  12.876780830
Cu       5.535371337  13.631932258  12.872578042
Cu       0.002241298   0.002590288  14.685760651
Cu       1.847049973   1.702352081  14.684710987
Cu       3.690366312   0.000482880  14.697979979
Cu       5.539912686   1.700556311  14.680810268
Cu       0.009583740   3.396213327  14.681694818
Cu       1.844647339   5.099833278  14.706754794
Cu       3.698555426   3.374622404  14.693539090
Cu       5.583667396   5.045459210  14.686388223
Cu      -0.036946953   6.799002508  14.702651414
Cu       1.864754991   8.494601690  14.773818064
Cu       4.005140680   6.803281437  14.221276453
Cu       5.589960377   8.569886601  14.711574761
Cu       0.016132366  10.230271639  14.701555911
Cu       1.845188858  11.928945316  14.682839689
Cu       3.698779490  10.250879965  14.677586779
Cu       5.542858636  11.924856886  14.680631512
Cu       0.000638126  13.629696392  14.696749078
Cu       1.845306464  15.332966253  14.693069677
Cu       3.691563476  13.624263578  14.683967124
Cu       5.534503850  15.334384957  14.692511924
C       -0.004242925   0.708807919  17.599763052
C       -0.004213859   2.133117132  17.568175975
C        1.225918288  -0.004240799  17.618647741
C        1.223566375   2.850916218  17.614287180
C        2.451968167   0.707475851  17.587214560
C        2.448067407   2.131108882  17.569632404
C        3.683574750  -0.005790992  17.594733938
C        3.673104687   2.847457628  17.581845269
C        4.911089464   0.705522608  17.587532443
C        4.903658099   2.127579845  17.552131750
C        6.143004098  -0.003178927  17.617893130
C        6.136118428   2.838419784  17.550455589
C       -0.002029524   4.976132403  17.621493778
C       -0.014618181   6.390917134  17.747652288
C        1.226226792   4.267527223  17.725082466
C        1.215281158   7.096549119  17.813303305
C        2.450534408   4.972523052  17.830868427
C        2.433944684   6.382264137  17.874242973
C        3.677380013   4.257922378  17.766377346
C        3.660155391   7.094984522  17.674569783
O        2.814008527   6.986038628  15.582587868
C        4.902721821   4.966463956  17.747023239
C        4.890252739   6.390293258  17.708928206
C        6.134745561   4.266067227  17.572231196
C        6.129336917   7.088944018  17.727514158
C        0.002438355   9.213785628  17.557581660
C        0.004416181  10.642983551  17.516534478
C        1.226496352   8.518431468  17.765733428
C        1.236171896  11.361012104  17.561692077
C        2.453399646   9.232695303  17.801660749
C        2.463582683  10.645502766  17.641673050
C        3.674382628   8.510198839  17.775121562
C        3.689479359  11.358283438  17.614149247
C        4.904084028   9.214197206  17.717211122
C        4.912906855  10.635758881  17.630342763
C        6.134152727   8.503384113  17.601951109
C        6.143035467  11.351787105  17.540528514
C       -0.000820660  13.493502891  17.586311421
C       -0.001469948  14.911573292  17.622711148
C        1.232967380  12.784160941  17.585695771
C        1.227227254  15.618451889  17.623176671
C        2.459399133  13.494335393  17.620838971
C        2.458401608  14.910683343  17.622483893
C        3.689000911  12.782213130  17.612768467
C        3.686338216  15.616984062  17.623402903
C        4.916900656  13.492638518  17.619155884
C        4.915421648  14.909221079  17.625221780
C        6.145204533  12.778447670  17.576119447
C        6.145024882  15.617618338  17.625712244



     Writing output data file gc.save
     Check: negative starting charge=   -0.001816
     NEW-OLD atomic charge density approx. for the potential
     Check: negative starting charge=   -0.001809

     negative rho (up, down):  1.896E-03 0.000E+00

     total cpu time spent up to now is    37490.8 secs

     Self-consistent Calculation

     iteration #  1     ecut=    80.00 Ry     beta=0.70
     Davidson diagonalization with overlap
     c_bands:  2 eigenvalues not converged
     c_bands:  1 eigenvalues not converged
     c_bands:  2 eigenvalues not converged
     ethr =  1.00E-06,  avg # of iterations = 15.8

     negative rho (up, down):  4.433E-03 0.000E+00

     total cpu time spent up to now is    38175.5 secs

     total energy              =  -12730.63190763 Ry
     Harris-Foulkes estimate   =  -12730.66627476 Ry
     estimated scf accuracy    <       0.24615914 Ry

     iteration #  2     ecut=    80.00 Ry     beta=0.70
     Davidson diagonalization with overlap
     ethr =  1.90E-05,  avg # of iterations =  2.7

     negative rho (up, down):  6.383E-03 0.000E+00

     total cpu time spent up to now is    38365.1 secs

     total energy              =  -12730.63411647 Ry
     Harris-Foulkes estimate   =  -12730.64967397 Ry
     estimated scf accuracy    <       0.06778241 Ry

     iteration #  3     ecut=    80.00 Ry     beta=0.70
     Davidson diagonalization with overlap
     ethr =  5.22E-06,  avg # of iterations =  7.2

     negative rho (up, down):  1.065E-02 0.000E+00

     total cpu time spent up to now is    38602.3 secs

     total energy              =  -12730.63753277 Ry
     Harris-Foulkes estimate   =  -12730.64418830 Ry
     estimated scf accuracy    <       0.06353584 Ry

     iteration #  4     ecut=    80.00 Ry     beta=0.70
     Davidson diagonalization with overlap
     ethr =  4.89E-06,  avg # of iterations =  3.8

     negative rho (up, down):  1.151E-02 0.000E+00

     total cpu time spent up to now is    38795.0 secs

     total energy              =  -12730.64023976 Ry
     Harris-Foulkes estimate   =  -12730.64081692 Ry
     estimated scf accuracy    <       0.00684161 Ry

     iteration #  5     ecut=    80.00 Ry     beta=0.70
     Davidson diagonalization with overlap
     ethr =  5.27E-07,  avg # of iterations =  3.5

     negative rho (up, down):  1.136E-02 0.000E+00

     total cpu time spent up to now is    38991.3 secs

     total energy              =  -12730.64036607 Ry
     Harris-Foulkes estimate   =  -12730.64058704 Ry
     estimated scf accuracy    <       0.00383674 Ry

     iteration #  6     ecut=    80.00 Ry     beta=0.70
     Davidson diagonalization with overlap
     ethr =  2.96E-07,  avg # of iterations =  1.5

     negative rho (up, down):  1.029E-02 0.000E+00

     total cpu time spent up to now is    39152.6 secs

     total energy              =  -12730.64018385 Ry
     Harris-Foulkes estimate   =  -12730.64050479 Ry
     estimated scf accuracy    <       0.00213809 Ry

     iteration #  7     ecut=    80.00 Ry     beta=0.70
     Davidson diagonalization with overlap
     ethr =  1.65E-07,  avg # of iterations =  5.2

     negative rho (up, down):  7.602E-03 0.000E+00

     total cpu time spent up to now is    39362.5 secs

     total energy              =  -12730.64024093 Ry
     Harris-Foulkes estimate   =  -12730.64031636 Ry
     estimated scf accuracy    <       0.00022052 Ry

     iteration #  8     ecut=    80.00 Ry     beta=0.70
     Davidson diagonalization with overlap
     c_bands:  1 eigenvalues not converged
     ethr =  1.70E-08,  avg # of iterations =  8.7

     negative rho (up, down):  5.480E-03 0.000E+00

     total cpu time spent up to now is    39625.3 secs

     total energy              =  -12730.64021443 Ry
     Harris-Foulkes estimate   =  -12730.64025509 Ry
     estimated scf accuracy    <       0.00005583 Ry

     iteration #  9     ecut=    80.00 Ry     beta=0.70
     Davidson diagonalization with overlap
     ethr =  4.30E-09,  avg # of iterations =  5.7

     negative rho (up, down):  3.847E-03 0.000E+00

     total cpu time spent up to now is    39837.7 secs

     total energy              =  -12730.64019726 Ry
     Harris-Foulkes estimate   =  -12730.64021950 Ry
     estimated scf accuracy    <       0.00002249 Ry

     iteration # 10     ecut=    80.00 Ry     beta=0.70
     Davidson diagonalization with overlap
     ethr =  1.73E-09,  avg # of iterations =  5.7

     negative rho (up, down):  2.608E-03 0.000E+00

     total cpu time spent up to now is    40053.9 secs

     total energy              =  -12730.64019190 Ry
     Harris-Foulkes estimate   =  -12730.64019913 Ry
     estimated scf accuracy    <       0.00000739 Ry

     iteration # 11     ecut=    80.00 Ry     beta=0.70
     Davidson diagonalization with overlap
     ethr =  5.70E-10,  avg # of iterations =  5.7

     negative rho (up, down):  2.273E-03 0.000E+00

     total cpu time spent up to now is    40270.5 secs

     total energy              =  -12730.64019181 Ry
     Harris-Foulkes estimate   =  -12730.64019247 Ry
     estimated scf accuracy    <       0.00000428 Ry

     iteration # 12     ecut=    80.00 Ry     beta=0.70
     Davidson diagonalization with overlap
     ethr =  3.30E-10,  avg # of iterations =  2.0

     negative rho (up, down):  1.986E-03 0.000E+00

     total cpu time spent up to now is    40445.1 secs

     total energy              =  -12730.64019220 Ry
     Harris-Foulkes estimate   =  -12730.64019214 Ry
     estimated scf accuracy    <       0.00000287 Ry

     iteration # 13     ecut=    80.00 Ry     beta=0.70
     Davidson diagonalization with overlap
     ethr =  2.21E-10,  avg # of iterations =  2.0

     negative rho (up, down):  1.856E-03 0.000E+00

     total cpu time spent up to now is    40615.5 secs

     total energy              =  -12730.64019257 Ry
     Harris-Foulkes estimate   =  -12730.64019240 Ry
     estimated scf accuracy    <       0.00000075 Ry

     iteration # 14     ecut=    80.00 Ry     beta=0.70
     Davidson diagonalization with overlap
     ethr =  5.80E-11,  avg # of iterations =  2.2

     negative rho (up, down):  1.873E-03 0.000E+00

     total cpu time spent up to now is    40788.4 secs

     total energy              =  -12730.64019268 Ry
     Harris-Foulkes estimate   =  -12730.64019263 Ry
     estimated scf accuracy    <       0.00000012 Ry

     iteration # 15     ecut=    80.00 Ry     beta=0.70
     Davidson diagonalization with overlap
     ethr =  9.40E-12,  avg # of iterations =  3.0

     negative rho (up, down):  1.876E-03 0.000E+00

     total cpu time spent up to now is    40992.9 secs

     total energy              =  -12730.64019276 Ry
     Harris-Foulkes estimate   =  -12730.64019270 Ry
     estimated scf accuracy    <       0.00000006 Ry

     iteration # 16     ecut=    80.00 Ry     beta=0.70
     Davidson diagonalization with overlap
