mpirun: INFO: switching to OpenMPI runtime version 1.10.2

     Program PWSCF v.5.4.0 starts on 22Sep2017 at  3:30:42 

     This program is part of the open-source Quantum ESPRESSO suite
     for quantum simulation of materials; please cite
         "P. Giannozzi et al., J. Phys.:Condens. Matter 21 395502 (2009);
          URL http://www.quantum-espresso.org", 
     in publications or presentations arising from this work. More details at
     http://www.quantum-espresso.org/quote

     Parallel version (MPI & OpenMP), running on      28 processor cores
     Number of MPI processes:                28
     Threads/MPI process:                     1
     R & G space division:  proc/nbgrp/npool/nimage =      28
     Waiting for input...
     Reading input from standard input
Warning: card &IONS ignored
Warning: card / ignored

     Current dimensions of program PWSCF are:
     Max number of different atomic species (ntypx) = 10
     Max number of k-points (npk) =  40000
     Max angular momentum in pseudopotentials (lmaxx) =  3
     WARNING: atomic wfc #  2 for atom type 4 has zero norm
     WARNING: atomic wfc #  4 for atom type 4 has zero norm
     WARNING: atomic wfc #  5 for atom type 4 has zero norm

     -------------------------------------
     Parameters for Dispersion Correction:
     -------------------------------------
       atom      VdW radius       C_6     

        Cu         2.952        374.666
        C_h        2.744         60.710
        C          2.744         60.710
        O          2.536         24.284
        H          1.892          4.857

     Subspace diagonalization in iterative solution of the eigenvalue problem:
     one sub-group per band group will be used
     scalapack distributed-memory algorithm (size of sub-group:  3*  3 procs)

 
     Parallelization info
     --------------------
     sticks:   dense  smooth     PW     G-vecs:    dense   smooth      PW
     Min         408     408    108                73226    73226    9928
     Max         410     410    109                73231    73231    9931
     Sum       11433   11433   3039              2050409  2050409  278033
 


     bravais-lattice index     =            0
     lattice parameter (alat)  =      13.9425  a.u.
     unit-cell volume          =   21209.0878 (a.u.)^3
     number of atoms/cell      =          139
     number of atomic types    =            5
     number of electrons       =      1242.00
     number of Kohn-Sham states=          745
     kinetic-energy cutoff     =      80.0000  Ry
     charge density cutoff     =     320.0000  Ry
     convergence threshold     =      1.0E-08
     mixing beta               =       0.7000
     number of iterations used =            8  local-TF  mixing
     Exchange-correlation      =  SLA  PW   PBE  PBE ( 1  4  3  4 0 0)

     celldm(1)=  13.942539  celldm(2)=   0.000000  celldm(3)=   0.000000
     celldm(4)=   0.000000  celldm(5)=   0.000000  celldm(6)=   0.000000

     crystal axes: (cart. coord. in units of alat)
               a(1) = (   1.000000   0.000000   0.000000 )  
               a(2) = (   0.000000   2.309401   0.000000 )  
               a(3) = (   0.000000   0.000000   3.388418 )  

     reciprocal axes: (cart. coord. in units 2 pi/alat)
               b(1) = (  1.000000  0.000000  0.000000 )  
               b(2) = (  0.000000  0.433013  0.000000 )  
               b(3) = (  0.000000  0.000000  0.295123 )  


     PseudoPot. # 1 for Cu read from file:
     /home/549/hxw549/Short/pseudopotentials/Cu.pbe-n-van_ak.UPF
     MD5 check sum: 601f7c30f7467666bec936e0661ce3e1
     Pseudo is Ultrasoft + core correction, Zval = 11.0
     Generated by new atomic code, or converted to UPF format
     Using radial grid of  867 points,  6 beta functions with: 
                l(1) =   0
                l(2) =   0
                l(3) =   1
                l(4) =   1
                l(5) =   2
                l(6) =   2
     Q(r) pseudized with  8 coefficients,  rinner =    1.400   1.400   1.400
                                                       1.400   1.400

     PseudoPot. # 2 for C  read from file:
     /home/549/hxw549/Short/pseudopotentials/C.star1s-pbe-mt_gipaw.UPF
     MD5 check sum: ef0cb3dee31bd9e4ba2a832a2c716264
     Pseudo is Norm-conserving, Zval =  5.0
     Generated by new atomic code, or converted to UPF format
     Using radial grid of 1073 points,  1 beta functions with: 
                l(1) =   0

     PseudoPot. # 3 for C  read from file:
     /home/549/hxw549/Short/pseudopotentials/C.pbe-mt_gipaw.UPF
     MD5 check sum: 5ac2f21f2c440b14befe521540822c15
     Pseudo is Norm-conserving, Zval =  4.0
     Generated by new atomic code, or converted to UPF format
     Using radial grid of 1073 points,  1 beta functions with: 
                l(1) =   0

     PseudoPot. # 4 for O  read from file:
     /home/549/hxw549/Short/pseudopotentials/O.pbe-van_gipaw.UPF
     MD5 check sum: 5ce2a047509d4f331db576c963e74b29
     Pseudo is Ultrasoft, Zval =  6.0
     Generated by new atomic code, or converted to UPF format
     Using radial grid of 1095 points,  4 beta functions with: 
                l(1) =   0
                l(2) =   0
                l(3) =   1
                l(4) =   1
     Q(r) pseudized with 0 coefficients 


     PseudoPot. # 5 for H  read from file:
     /home/549/hxw549/Short/pseudopotentials/H.pbe-van_ak.UPF
     MD5 check sum: 077eb6d537518a38cb46c6de387227b7
     Pseudo is Ultrasoft, Zval =  1.0
     Generated by new atomic code, or converted to UPF format
     Using radial grid of  615 points,  1 beta functions with: 
                l(1) =   0
     Q(r) pseudized with  8 coefficients,  rinner =    0.800

     atomic species   valence    mass     pseudopotential
        Cu            11.00    63.54600     Cu( 1.00)
        C_h            5.00    12.01070     C ( 1.00)
        C              4.00    12.01070     C ( 1.00)
        O              6.00    15.99940     O ( 1.00)
        H              1.00     1.00783     H ( 1.00)

     No symmetry found



   Cartesian axes

     site n.     atom                  positions (alat units)
         1           Cu  tau(   1) = (  -0.0010640  -0.0023908   1.0046138  )
         2           Cu  tau(   2) = (   0.2492312   0.2287438   1.0043535  )
         3           Cu  tau(   3) = (   0.4997213  -0.0020557   1.0044178  )
         4           Cu  tau(   4) = (   0.7494458   0.2297361   1.0044330  )
         5           Cu  tau(   5) = (  -0.0003137   0.4611849   1.0049174  )
         6           Cu  tau(   6) = (   0.2493451   0.6933339   1.0051902  )
         7           Cu  tau(   7) = (   0.4989850   0.4609350   1.0047007  )
         8           Cu  tau(   8) = (   0.7493025   0.6926311   1.0049004  )
         9           Cu  tau(   9) = (  -0.0009524   0.9253608   1.0047609  )
        10           Cu  tau(  10) = (   0.2493354   1.1572557   1.0045765  )
        11           Cu  tau(  11) = (   0.4995584   0.9253176   1.0049044  )
        12           Cu  tau(  12) = (   0.7492457   1.1577467   1.0049301  )
        13           Cu  tau(  13) = (  -0.0007607   1.3884523   1.0051980  )
        14           Cu  tau(  14) = (   0.2492853   1.6181647   1.0059253  )
        15           Cu  tau(  15) = (   0.4993115   1.3886309   1.0054232  )
        16           Cu  tau(  16) = (   0.7492725   1.6184104   1.0057216  )
        17           Cu  tau(  17) = (  -0.0005173   1.8474410   1.0056666  )
        18           Cu  tau(  18) = (   0.2493732   2.0771941   1.0049712  )
        19           Cu  tau(  19) = (   0.4991007   1.8472417   1.0058485  )
        20           Cu  tau(  20) = (   0.7492518   2.0762819   1.0054449  )
        21           Cu  tau(  21) = (  -0.0009628   0.2289347   1.2519010  )
        22           Cu  tau(  22) = (   0.2489710  -0.0022349   1.2533118  )
        23           Cu  tau(  23) = (   0.4989967   0.2289318   1.2519859  )
        24           Cu  tau(  24) = (   0.7490469  -0.0016894   1.2526627  )
        25           Cu  tau(  25) = (  -0.0009870   0.6931250   1.2520313  )
        26           Cu  tau(  26) = (   0.2490671   0.4602952   1.2521070  )
        27           Cu  tau(  27) = (   0.4990229   0.6927300   1.2520111  )
        28           Cu  tau(  28) = (   0.7489647   0.4607580   1.2524746  )
        29           Cu  tau(  29) = (  -0.0010398   1.1572051   1.2525916  )
        30           Cu  tau(  30) = (   0.2490028   0.9259700   1.2519533  )
        31           Cu  tau(  31) = (   0.4990907   1.1572486   1.2527904  )
        32           Cu  tau(  32) = (   0.7490506   0.9253261   1.2514892  )
        33           Cu  tau(  33) = (  -0.0010799   1.6180392   1.2552412  )
        34           Cu  tau(  34) = (   0.2490387   1.3874055   1.2537251  )
        35           Cu  tau(  35) = (   0.4990463   1.6181047   1.2558878  )
        36           Cu  tau(  36) = (   0.7489693   1.3879951   1.2542289  )
        37           Cu  tau(  37) = (  -0.0009952   2.0772742   1.2548392  )
        38           Cu  tau(  38) = (   0.2490000   1.8482620   1.2554079  )
        39           Cu  tau(  39) = (   0.4989851   2.0775805   1.2544442  )
        40           Cu  tau(  40) = (   0.7489314   1.8476310   1.2563228  )
        41           Cu  tau(  41) = (  -0.0012033  -0.0009002   1.5028346  )
        42           Cu  tau(  42) = (   0.2488076   0.2280811   1.5019068  )
        43           Cu  tau(  43) = (   0.4983360  -0.0012160   1.5030626  )
        44           Cu  tau(  44) = (   0.7482862   0.2282454   1.5017748  )
        45           Cu  tau(  45) = (  -0.0015433   0.4596013   1.4997607  )
        46           Cu  tau(  46) = (   0.2486489   0.6933466   1.4985181  )
        47           Cu  tau(  47) = (   0.4986141   0.4593638   1.5006040  )
        48           Cu  tau(  48) = (   0.7484418   0.6939650   1.4999225  )
        49           Cu  tau(  49) = (  -0.0015404   0.9257492   1.5004063  )
        50           Cu  tau(  50) = (   0.2484450   1.1571046   1.5030467  )
        51           Cu  tau(  51) = (   0.4986878   0.9253575   1.5000131  )
        52           Cu  tau(  52) = (   0.7486901   1.1560980   1.5017044  )
        53           Cu  tau(  53) = (  -0.0011572   1.3870323   1.5040793  )
        54           Cu  tau(  54) = (   0.2484867   1.6171270   1.5041129  )
        55           Cu  tau(  55) = (   0.4984038   1.3866792   1.5045243  )
        56           Cu  tau(  56) = (   0.7485057   1.6168076   1.5059139  )
        57           Cu  tau(  57) = (  -0.0010914   1.8476653   1.5064678  )
        58           Cu  tau(  58) = (   0.2484724   2.0779001   1.5067307  )
        59           Cu  tau(  59) = (   0.4979889   1.8491510   1.5064335  )
        60           Cu  tau(  60) = (   0.7485533   2.0792749   1.5047190  )
        61           Cu  tau(  61) = (  -0.0019222   0.2289416   1.7514670  )
        62           Cu  tau(  62) = (   0.2486960  -0.0003758   1.7563792  )
        63           Cu  tau(  63) = (   0.4980501   0.2266587   1.7544323  )
        64           Cu  tau(  64) = (   0.7476580  -0.0005336   1.7552543  )
        65           Cu  tau(  65) = (  -0.0024978   0.6919427   1.7449505  )
        66           Cu  tau(  66) = (   0.2489494   0.4620369   1.7451989  )
        67           Cu  tau(  67) = (   0.4986401   0.6929206   1.7462139  )
        68           Cu  tau(  68) = (   0.7471573   0.4612677   1.7462891  )
        69           Cu  tau(  69) = (  -0.0022490   1.1551077   1.7522669  )
        70           Cu  tau(  70) = (   0.2479337   0.9232175   1.7482809  )
        71           Cu  tau(  71) = (   0.4979930   1.1537702   1.7510653  )
        72           Cu  tau(  72) = (   0.7481522   0.9264039   1.7517944  )
        73           Cu  tau(  73) = (  -0.0013438   1.6160444   1.7569223  )
        74           Cu  tau(  74) = (   0.2473888   1.3887366   1.7563479  )
        75           Cu  tau(  75) = (   0.4967195   1.6179955   1.7540683  )
        76           Cu  tau(  76) = (   0.7489944   1.3843056   1.7536950  )
        77           Cu  tau(  77) = (  -0.0014346   2.0803638   1.7543298  )
        78           Cu  tau(  78) = (   0.2477692   1.8439700   1.7574531  )
        79           Cu  tau(  79) = (   0.4973971   2.0816154   1.7572255  )
        80           Cu  tau(  80) = (   0.7477757   1.8484657   1.7520294  )
        81           Cu  tau(  81) = (  -0.0006906   0.0016644   2.0048429  )
        82           Cu  tau(  82) = (   0.2476176   0.2382039   1.9922077  )
        83           Cu  tau(  83) = (   0.4958204  -0.0008510   2.0180479  )
        84           Cu  tau(  84) = (   0.7476787   0.2351869   1.9930299  )
        85           Cu  tau(  85) = (  -0.0033193   0.4642546   1.9916281  )
        86           Cu  tau(  86) = (   0.2481683   0.6899900   1.9920284  )
        87           Cu  tau(  87) = (   0.4986928   0.4639115   1.9938652  )
        88           Cu  tau(  88) = (   0.7471334   0.6917038   1.9924937  )
        89           Cu  tau(  89) = (  -0.0016118   0.9180049   1.9910334  )
        90           Cu  tau(  90) = (   0.2473558   1.1518387   1.9952740  )
        91           Cu  tau(  91) = (   0.4965321   0.9197123   1.9936536  )
        92           Cu  tau(  92) = (   0.7455861   1.1534598   2.0079317  )
        93           Cu  tau(  93) = (  -0.0047623   1.3820067   2.0006047  )
        94           Cu  tau(  94) = (   0.2456251   1.6195374   2.0182367  )
        95           Cu  tau(  95) = (   0.4997626   1.3852378   1.9910704  )
        96           Cu  tau(  96) = (   0.7467821   1.6174470   2.0002908  )
        97           Cu  tau(  97) = (  -0.0069666   1.8498164   2.0011514  )
        98           Cu  tau(  98) = (   0.2462826   2.0740046   2.0003043  )
        99           Cu  tau(  99) = (   0.5007068   1.8487305   2.0023364  )
       100           Cu  tau( 100) = (   0.7483286   2.0781054   2.0000404  )
       101           C   tau( 101) = (   0.0029054   0.0872648   2.3682851  )
       102           C   tau( 102) = (   0.0029640   0.2822904   2.3806890  )
       103           C   tau( 103) = (   0.1695057  -0.0063212   2.3579075  )
       104           C   tau( 104) = (   0.1695706   0.3786582   2.3836558  )
       105           C   tau( 105) = (   0.3353655   0.0874796   2.3551009  )
       106           C   tau( 106) = (   0.3357967   0.2820207   2.3707387  )
       107           C   tau( 107) = (   0.5029335  -0.0056998   2.3294250  )
       108           C   tau( 108) = (   0.5027383   0.3790160   2.3743544  )
       109           C   tau( 109) = (   0.6704159   0.0878548   2.3547576  )
       110           C   tau( 110) = (   0.6699918   0.2824373   2.3703235  )
       111           C   tau( 111) = (   0.8361923  -0.0061260   2.3575369  )
       112           C   tau( 112) = (   0.8366011   0.3789160   2.3834557  )
       113           C   tau( 113) = (   0.0039914   0.6692637   2.3901638  )
       114           C   tau( 114) = (   0.0047886   0.8628183   2.3799876  )
       115           C   tau( 115) = (   0.1700523   0.5725106   2.3894660  )
       116           C   tau( 116) = (   0.1708227   0.9620580   2.3728989  )
       117           C   tau( 117) = (   0.3364157   0.6704142   2.3869740  )
       118           C   tau( 118) = (   0.3366336   0.8645112   2.3824567  )
       119           C   tau( 119) = (   0.5028532   0.5725996   2.3841996  )
       120           C   tau( 120) = (   0.5032938   0.9615900   2.3764364  )
       121           C   tau( 121) = (   0.6696582   0.6692635   2.3853739  )
       122           C   tau( 122) = (   0.6697515   0.8627502   2.3802298  )
       123           C   tau( 123) = (   0.8368768   0.5727868   2.3885314  )
       124           C   tau( 124) = (   0.8372862   0.9564921   2.3724215  )
       125           C   tau( 125) = (   0.0012861   1.2460736   2.3404574  )
       126           C   tau( 126) = (   0.1696514   1.1576429   2.3549811  )
       127           C_h tau( 127) = (   0.3379386   1.2570092   2.3615588  )
       128           C   tau( 128) = (   0.5046058   1.1563742   2.3655392  )
       129           C   tau( 129) = (   0.6721374   1.2425272   2.3358865  )
       130           C   tau( 130) = (   0.8374497   1.1482468   2.3484453  )
       131           H   tau( 131) = (   0.1694449  -0.1543018   2.3509582  )
       132           H   tau( 132) = (   0.5033915  -0.1534829   2.3385532  )
       133           H   tau( 133) = (   0.8366981  -0.1541085   2.3501637  )
       134           H   tau( 134) = (  -0.0054473   1.3935197   2.3405423  )
       135           H   tau( 135) = (   0.6793985   1.3888379   2.3243999  )
       136           C   tau( 136) = (   0.3363181   1.4541569   2.3637881  )
       137           O   tau( 137) = (   0.2171155   1.5576896   2.3728618  )
       138           O   tau( 138) = (   0.4734734   1.5386774   2.3744155  )
       139           H   tau( 139) = (   0.4604717   1.6689179   2.3734279  )

     number of k points=     6  gaussian smearing, width (Ry)=  0.1000
                       cart. coord. in units 2pi/alat
        k(    1) = (   0.0000000   0.0000000   0.0000000), wk =   0.2500000
        k(    2) = (   0.0000000  -0.2165064   0.0000000), wk =   0.2500000
        k(    3) = (   0.2500000   0.0000000   0.0000000), wk =   0.5000000
        k(    4) = (   0.2500000  -0.2165064   0.0000000), wk =   0.5000000
        k(    5) = (  -0.5000000   0.0000000   0.0000000), wk =   0.2500000
        k(    6) = (  -0.5000000  -0.2165064   0.0000000), wk =   0.2500000

     Dense  grid:  2050409 G-vectors     FFT dimensions: (  80, 192, 270)

     Largest allocated arrays     est. size (Mb)     dimensions
        Kohn-Sham Wavefunctions       104.25 Mb     (    9171,  745)
        NL pseudopotentials           259.31 Mb     (    9171, 1853)
        Each V/rho on FFT grid          2.34 Mb     (  153600)
        Each G-vector array             0.56 Mb     (   73230)
        G-vector shells                 0.27 Mb     (   35784)
     Largest temporary arrays     est. size (Mb)     dimensions
        Auxiliary wavefunctions       417.02 Mb     (    9171, 2980)
        Each subspace H/S matrix       15.05 Mb     (     993,  993)
        Each <psi_i|beta_j> matrix     21.06 Mb     (    1853,  745)
        Arrays for rho mixing          18.75 Mb     (  153600,    8)

     Initial potential from superposition of free atoms
     Check: negative starting charge=   -0.002151

     starting charge 1225.31748, renormalised to 1242.00000

     negative rho (up, down):  2.180E-03 0.000E+00
     Starting wfc are 1162 randomized atomic wfcs

     total cpu time spent up to now is      186.2 secs

     Self-consistent Calculation

     iteration #  1     ecut=    80.00 Ry     beta=0.70
     Davidson diagonalization with overlap
     c_bands:  1 eigenvalues not converged
     ethr =  1.00E-04,  avg # of iterations = 20.0

     negative rho (up, down):  2.687E+01 0.000E+00

     total cpu time spent up to now is     3198.5 secs

     total energy              =   -8572.65550557 Ry
     Harris-Foulkes estimate   =  -15092.33177115 Ry
     estimated scf accuracy    <  145588.02258511 Ry

     iteration #  2     ecut=    80.00 Ry     beta=0.70
     Davidson diagonalization with overlap
     ethr =  1.00E-02,  avg # of iterations = 12.7

     negative rho (up, down):  1.965E+01 0.000E+00

     total cpu time spent up to now is     4841.6 secs

     total energy              =  -12662.38346317 Ry
     Harris-Foulkes estimate   =  -13212.08379897 Ry
     estimated scf accuracy    <    1661.59686301 Ry

     iteration #  3     ecut=    80.00 Ry     beta=0.70
     Davidson diagonalization with overlap
     ethr =  1.00E-02,  avg # of iterations =  4.7

     negative rho (up, down):  1.709E+01 0.000E+00

     total cpu time spent up to now is     5467.4 secs

     total energy              =  -12726.44160232 Ry
     Harris-Foulkes estimate   =  -12786.57132389 Ry
     estimated scf accuracy    <    1281.33059889 Ry

     iteration #  4     ecut=    80.00 Ry     beta=0.70
     Davidson diagonalization with overlap
     ethr =  1.00E-02,  avg # of iterations =  4.2

     negative rho (up, down):  1.458E+01 0.000E+00

     total cpu time spent up to now is     5855.4 secs

     total energy              =  -12698.41405910 Ry
     Harris-Foulkes estimate   =  -12750.05042937 Ry
     estimated scf accuracy    <     826.90042115 Ry

     iteration #  5     ecut=    80.00 Ry     beta=0.70
     Davidson diagonalization with overlap
     ethr =  1.00E-02,  avg # of iterations =  4.0

     negative rho (up, down):  9.356E+00 0.000E+00

     total cpu time spent up to now is     6264.5 secs

     total energy              =  -12672.97865334 Ry
     Harris-Foulkes estimate   =  -12738.20418678 Ry
     estimated scf accuracy    <     698.39382703 Ry

     iteration #  6     ecut=    80.00 Ry     beta=0.70
     Davidson diagonalization with overlap
     ethr =  1.00E-02,  avg # of iterations =  5.0

     negative rho (up, down):  7.562E+00 0.000E+00

     total cpu time spent up to now is     6712.4 secs

     total energy              =  -12680.58408545 Ry
     Harris-Foulkes estimate   =  -12730.69498696 Ry
     estimated scf accuracy    <     553.72875127 Ry

     iteration #  7     ecut=    80.00 Ry     beta=0.70
     Davidson diagonalization with overlap
     ethr =  1.00E-02,  avg # of iterations =  2.8

     negative rho (up, down):  6.698E+00 0.000E+00

     total cpu time spent up to now is     7061.4 secs

     total energy              =  -12680.41932005 Ry
     Harris-Foulkes estimate   =  -12703.17113608 Ry
     estimated scf accuracy    <     397.49312306 Ry

     iteration #  8     ecut=    80.00 Ry     beta=0.70
     Davidson diagonalization with overlap
     ethr =  1.00E-02,  avg # of iterations =  2.0

     negative rho (up, down):  5.523E+00 0.000E+00

     total cpu time spent up to now is     7386.4 secs

     total energy              =  -12665.44148995 Ry
     Harris-Foulkes estimate   =  -12683.15056690 Ry
     estimated scf accuracy    <     277.25466159 Ry

     iteration #  9     ecut=    80.00 Ry     beta=0.70
     Davidson diagonalization with overlap
     ethr =  1.00E-02,  avg # of iterations =  1.0

     negative rho (up, down):  1.353E+00 0.000E+00

     total cpu time spent up to now is     7694.7 secs

     total energy              =  -12621.74476886 Ry
     Harris-Foulkes estimate   =  -12666.97670017 Ry
     estimated scf accuracy    <     193.25285125 Ry

     iteration # 10     ecut=    80.00 Ry     beta=0.70
     Davidson diagonalization with overlap
     ethr =  1.00E-02,  avg # of iterations =  2.0

     negative rho (up, down):  1.945E+00 0.000E+00

     total cpu time spent up to now is     8025.6 secs

     total energy              =  -12664.14945988 Ry
     Harris-Foulkes estimate   =  -12638.98194938 Ry
     estimated scf accuracy    <     716.25703291 Ry

     iteration # 11     ecut=    80.00 Ry     beta=0.70
     Davidson diagonalization with overlap
     ethr =  1.00E-02,  avg # of iterations =  4.0

     negative rho (up, down):  1.908E+00 0.000E+00

     total cpu time spent up to now is     8421.1 secs

     total energy              =  -12683.21789648 Ry
     Harris-Foulkes estimate   =  -12688.53342368 Ry
     estimated scf accuracy    <    2490.59759345 Ry

     iteration # 12     ecut=    80.00 Ry     beta=0.70
     Davidson diagonalization with overlap
     ethr =  1.00E-02,  avg # of iterations =  1.0

     negative rho (up, down):  1.451E+00 0.000E+00

     total cpu time spent up to now is     8729.4 secs

     total energy              =  -12682.79178264 Ry
     Harris-Foulkes estimate   =  -12684.47555027 Ry
     estimated scf accuracy    <    2315.10664445 Ry

     iteration # 13     ecut=    80.00 Ry     beta=0.70
     Davidson diagonalization with overlap
     ethr =  1.00E-02,  avg # of iterations =  1.3

     negative rho (up, down):  1.657E+00 0.000E+00

     total cpu time spent up to now is     9044.7 secs

     total energy              =  -12701.75145057 Ry
     Harris-Foulkes estimate   =  -12685.89946986 Ry
     estimated scf accuracy    <    1685.90885493 Ry

     iteration # 14     ecut=    80.00 Ry     beta=0.70
     Davidson diagonalization with overlap
     ethr =  1.00E-02,  avg # of iterations =  1.0

     negative rho (up, down):  1.385E+00 0.000E+00

     total cpu time spent up to now is     9356.2 secs

     total energy              =  -12632.73197098 Ry
     Harris-Foulkes estimate   =  -12702.28174664 Ry
     estimated scf accuracy    <    1984.10871944 Ry

     iteration # 15     ecut=    80.00 Ry     beta=0.70
     Davidson diagonalization with overlap
     ethr =  1.00E-02,  avg # of iterations =  3.2

     negative rho (up, down):  6.907E-01 0.000E+00

     total cpu time spent up to now is     9743.9 secs

     total energy              =  -12588.37568534 Ry
     Harris-Foulkes estimate   =  -12641.63627301 Ry
     estimated scf accuracy    <     827.76656587 Ry

     iteration # 16     ecut=    80.00 Ry     beta=0.70
     Davidson diagonalization with overlap
     ethr =  1.00E-02,  avg # of iterations =  3.0

     negative rho (up, down):  1.446E+00 0.000E+00

     total cpu time spent up to now is    10103.9 secs

     total energy              =  -12610.23178716 Ry
     Harris-Foulkes estimate   =  -12626.14296681 Ry
     estimated scf accuracy    <     398.84364804 Ry

     iteration # 17     ecut=    80.00 Ry     beta=0.70
     Davidson diagonalization with overlap
     ethr =  1.00E-02,  avg # of iterations =  2.0

     negative rho (up, down):  4.741E+00 0.000E+00

     total cpu time spent up to now is    10435.0 secs

     total energy              =  -12609.98437033 Ry
     Harris-Foulkes estimate   =  -12615.71526376 Ry
     estimated scf accuracy    <     235.93604323 Ry

     iteration # 18     ecut=    80.00 Ry     beta=0.70
     Davidson diagonalization with overlap
     ethr =  1.00E-02,  avg # of iterations =  1.0

     negative rho (up, down):  3.886E+00 0.000E+00

     total cpu time spent up to now is    10741.7 secs

     total energy              =  -12604.24312429 Ry
     Harris-Foulkes estimate   =  -12616.11639681 Ry
     estimated scf accuracy    <     142.16325944 Ry

     iteration # 19     ecut=    80.00 Ry     beta=0.70
     Davidson diagonalization with overlap
     ethr =  1.00E-02,  avg # of iterations =  1.0

     negative rho (up, down):  4.907E+00 0.000E+00

     total cpu time spent up to now is    11049.9 secs

     total energy              =  -12602.01912873 Ry
     Harris-Foulkes estimate   =  -12610.10339087 Ry
     estimated scf accuracy    <     152.95516206 Ry

     iteration # 20     ecut=    80.00 Ry     beta=0.70
     Davidson diagonalization with overlap
     ethr =  1.00E-02,  avg # of iterations =  1.0

     negative rho (up, down):  4.010E+00 0.000E+00

     total cpu time spent up to now is    11359.7 secs

     total energy              =  -12598.19756337 Ry
     Harris-Foulkes estimate   =  -12605.78192241 Ry
     estimated scf accuracy    <      86.23946844 Ry

     iteration # 21     ecut=    80.00 Ry     beta=0.70
     Davidson diagonalization with overlap
     ethr =  6.94E-03,  avg # of iterations =  1.0

     negative rho (up, down):  3.987E+00 0.000E+00

     total cpu time spent up to now is    11668.7 secs

     total energy              =  -12596.58790556 Ry
     Harris-Foulkes estimate   =  -12600.16947107 Ry
     estimated scf accuracy    <     101.91518595 Ry

     iteration # 22     ecut=    80.00 Ry     beta=0.70
     Davidson diagonalization with overlap
     ethr =  6.94E-03,  avg # of iterations =  1.0

     negative rho (up, down):  4.292E+00 0.000E+00

     total cpu time spent up to now is    11975.5 secs

     total energy              =  -12592.94453617 Ry
     Harris-Foulkes estimate   =  -12597.90613829 Ry
     estimated scf accuracy    <      56.96367981 Ry

     iteration # 23     ecut=    80.00 Ry     beta=0.70
     Davidson diagonalization with overlap
     ethr =  4.59E-03,  avg # of iterations =  1.8

     negative rho (up, down):  3.066E+00 0.000E+00

     total cpu time spent up to now is    12300.5 secs

     total energy              =  -12588.84066747 Ry
     Harris-Foulkes estimate   =  -12593.67204523 Ry
     estimated scf accuracy    <      36.01073540 Ry

     iteration # 24     ecut=    80.00 Ry     beta=0.70
     Davidson diagonalization with overlap
     ethr =  2.90E-03,  avg # of iterations =  2.0

     negative rho (up, down):  5.538E+00 0.000E+00

     total cpu time spent up to now is    12630.9 secs

     total energy              =  -12587.10734709 Ry
     Harris-Foulkes estimate   =  -12589.99773233 Ry
     estimated scf accuracy    <      43.71070795 Ry

     iteration # 25     ecut=    80.00 Ry     beta=0.70
     Davidson diagonalization with overlap
     ethr =  2.90E-03,  avg # of iterations =  5.0

     negative rho (up, down):  4.902E+00 0.000E+00

     total cpu time spent up to now is    13142.3 secs

     total energy              =  -12591.53266565 Ry
     Harris-Foulkes estimate   =  -12594.16778935 Ry
     estimated scf accuracy    <     158.17483809 Ry

     iteration # 26     ecut=    80.00 Ry     beta=0.70
     Davidson diagonalization with overlap
     ethr =  2.90E-03,  avg # of iterations =  1.0

     negative rho (up, down):  3.966E+00 0.000E+00

     total cpu time spent up to now is    13450.8 secs

     total energy              =  -12581.29084907 Ry
     Harris-Foulkes estimate   =  -12592.15305285 Ry
     estimated scf accuracy    <     119.58580229 Ry

     iteration # 27     ecut=    80.00 Ry     beta=0.70
     Davidson diagonalization with overlap
     ethr =  2.90E-03,  avg # of iterations =  5.8

     negative rho (up, down):  3.950E+00 0.000E+00

     total cpu time spent up to now is    13870.2 secs

     total energy              =  -12587.79102085 Ry
     Harris-Foulkes estimate   =  -12589.23735136 Ry
     estimated scf accuracy    <      14.83112836 Ry

     iteration # 28     ecut=    80.00 Ry     beta=0.70
     Davidson diagonalization with overlap
     ethr =  1.19E-03,  avg # of iterations =  3.7

     negative rho (up, down):  3.938E+00 0.000E+00

     total cpu time spent up to now is    14233.5 secs

     total energy              =  -12587.74335902 Ry
     Harris-Foulkes estimate   =  -12588.56308642 Ry
     estimated scf accuracy    <      36.74216906 Ry

     iteration # 29     ecut=    80.00 Ry     beta=0.70
     Davidson diagonalization with overlap
     ethr =  1.19E-03,  avg # of iterations =  1.2

     negative rho (up, down):  3.660E+00 0.000E+00

     total cpu time spent up to now is    14546.4 secs

     total energy              =  -12587.31563336 Ry
     Harris-Foulkes estimate   =  -12588.20029953 Ry
     estimated scf accuracy    <      26.24545223 Ry

     iteration # 30     ecut=    80.00 Ry     beta=0.70
     Davidson diagonalization with overlap
     ethr =  1.19E-03,  avg # of iterations =  1.2

     negative rho (up, down):  2.677E+00 0.000E+00

     total cpu time spent up to now is    14860.5 secs

     total energy              =  -12585.47059193 Ry
     Harris-Foulkes estimate   =  -12587.68670503 Ry
     estimated scf accuracy    <      21.95073194 Ry

     iteration # 31     ecut=    80.00 Ry     beta=0.70
     Davidson diagonalization with overlap
     ethr =  1.19E-03,  avg # of iterations =  5.8

     negative rho (up, down):  2.784E+00 0.000E+00

     total cpu time spent up to now is    15265.6 secs

     total energy              =  -12585.50915051 Ry
     Harris-Foulkes estimate   =  -12586.71145650 Ry
     estimated scf accuracy    <      10.56141526 Ry

     iteration # 32     ecut=    80.00 Ry     beta=0.70
     Davidson diagonalization with overlap
     ethr =  8.50E-04,  avg # of iterations =  3.2

     negative rho (up, down):  2.015E+00 0.000E+00

     total cpu time spent up to now is    15618.8 secs

     total energy              =  -12584.83917678 Ry
     Harris-Foulkes estimate   =  -12586.66015387 Ry
     estimated scf accuracy    <      32.96343749 Ry

     iteration # 33     ecut=    80.00 Ry     beta=0.70
     Davidson diagonalization with overlap
     ethr =  8.50E-04,  avg # of iterations =  3.0

     negative rho (up, down):  1.419E+00 0.000E+00

     total cpu time spent up to now is    15963.9 secs

     total energy              =  -12584.97026734 Ry
     Harris-Foulkes estimate   =  -12585.43413313 Ry
     estimated scf accuracy    <       5.51256419 Ry

     iteration # 34     ecut=    80.00 Ry     beta=0.70
     Davidson diagonalization with overlap
     ethr =  4.44E-04,  avg # of iterations = 10.7

     negative rho (up, down):  7.228E-01 0.000E+00

     total cpu time spent up to now is    16463.2 secs

     total energy              =  -12584.57804558 Ry
     Harris-Foulkes estimate   =  -12585.04483510 Ry
     estimated scf accuracy    <       4.45034159 Ry

     iteration # 35     ecut=    80.00 Ry     beta=0.70
     Davidson diagonalization with overlap
     ethr =  3.58E-04,  avg # of iterations = 10.8

     negative rho (up, down):  1.722E-01 0.000E+00

     total cpu time spent up to now is    16957.7 secs

     total energy              =  -12584.12900748 Ry
     Harris-Foulkes estimate   =  -12584.76618307 Ry
     estimated scf accuracy    <       2.95352402 Ry

     iteration # 36     ecut=    80.00 Ry     beta=0.70
     Davidson diagonalization with overlap
     ethr =  2.38E-04,  avg # of iterations =  9.8

     negative rho (up, down):  1.568E-01 0.000E+00

     total cpu time spent up to now is    17439.8 secs

     total energy              =  -12583.97131846 Ry
     Harris-Foulkes estimate   =  -12584.28873089 Ry
     estimated scf accuracy    <       3.05818196 Ry

     iteration # 37     ecut=    80.00 Ry     beta=0.70
     Davidson diagonalization with overlap
     ethr =  2.38E-04,  avg # of iterations =  6.2

     negative rho (up, down):  1.862E-01 0.000E+00

     total cpu time spent up to now is    17846.9 secs

     total energy              =  -12583.95676750 Ry
     Harris-Foulkes estimate   =  -12584.03088606 Ry
     estimated scf accuracy    <       2.03944541 Ry

     iteration # 38     ecut=    80.00 Ry     beta=0.70
     Davidson diagonalization with overlap
     ethr =  1.64E-04,  avg # of iterations =  4.2

     total cpu time spent up to now is    18215.1 secs

     total energy              =  -12583.78028460 Ry
     Harris-Foulkes estimate   =  -12583.98127502 Ry
     estimated scf accuracy    <       1.77638431 Ry

     iteration # 39     ecut=    80.00 Ry     beta=0.70
     Davidson diagonalization with overlap
     ethr =  1.43E-04,  avg # of iterations =  6.2

     negative rho (up, down):  6.381E-08 0.000E+00

     total cpu time spent up to now is    18625.7 secs

     total energy              =  -12583.72395178 Ry
     Harris-Foulkes estimate   =  -12583.90825697 Ry
     estimated scf accuracy    <       1.23833630 Ry

     iteration # 40     ecut=    80.00 Ry     beta=0.70
     Davidson diagonalization with overlap
     ethr =  9.97E-05,  avg # of iterations =  3.3

     negative rho (up, down):  9.918E-02 0.000E+00

     total cpu time spent up to now is    18980.4 secs

     total energy              =  -12583.64041817 Ry
     Harris-Foulkes estimate   =  -12583.77138894 Ry
     estimated scf accuracy    <       0.64467165 Ry

     iteration # 41     ecut=    80.00 Ry     beta=0.70
     Davidson diagonalization with overlap
     ethr =  5.19E-05,  avg # of iterations =  8.0

     negative rho (up, down):  2.440E-02 0.000E+00

     total cpu time spent up to now is    19450.8 secs

     total energy              =  -12583.62797269 Ry
     Harris-Foulkes estimate   =  -12583.66497780 Ry
     estimated scf accuracy    <       0.26282420 Ry

     iteration # 42     ecut=    80.00 Ry     beta=0.70
     Davidson diagonalization with overlap
     ethr =  2.12E-05,  avg # of iterations =  7.0

     negative rho (up, down):  1.898E-01 0.000E+00

     total cpu time spent up to now is    19874.6 secs

     total energy              =  -12583.58764459 Ry
     Harris-Foulkes estimate   =  -12583.64580025 Ry
     estimated scf accuracy    <       0.21858280 Ry

     iteration # 43     ecut=    80.00 Ry     beta=0.70
     Davidson diagonalization with overlap
     ethr =  1.76E-05,  avg # of iterations =  7.7

     negative rho (up, down):  8.422E-02 0.000E+00

     total cpu time spent up to now is    20387.1 secs

     total energy              =  -12583.59267447 Ry
     Harris-Foulkes estimate   =  -12583.61161799 Ry
     estimated scf accuracy    <       0.12547133 Ry

     iteration # 44     ecut=    80.00 Ry     beta=0.70
     Davidson diagonalization with overlap
     ethr =  1.01E-05,  avg # of iterations = 11.8

     negative rho (up, down):  8.924E-02 0.000E+00

     total cpu time spent up to now is    20937.5 secs

     total energy              =  -12583.59917819 Ry
     Harris-Foulkes estimate   =  -12583.60832254 Ry
     estimated scf accuracy    <       0.05041827 Ry

     iteration # 45     ecut=    80.00 Ry     beta=0.70
     Davidson diagonalization with overlap
     ethr =  4.06E-06,  avg # of iterations =  8.3

     negative rho (up, down):  5.304E-02 0.000E+00

     total cpu time spent up to now is    21446.7 secs

     total energy              =  -12583.60190801 Ry
     Harris-Foulkes estimate   =  -12583.60359830 Ry
     estimated scf accuracy    <       0.01055972 Ry

     iteration # 46     ecut=    80.00 Ry     beta=0.70
     Davidson diagonalization with overlap
     ethr =  8.50E-07,  avg # of iterations =  9.5

     negative rho (up, down):  2.446E-02 0.000E+00

     total cpu time spent up to now is    21962.7 secs

     total energy              =  -12583.60206573 Ry
     Harris-Foulkes estimate   =  -12583.60276744 Ry
     estimated scf accuracy    <       0.00437659 Ry

     iteration # 47     ecut=    80.00 Ry     beta=0.70
     Davidson diagonalization with overlap
     ethr =  3.52E-07,  avg # of iterations =  6.7

     negative rho (up, down):  1.159E-02 0.000E+00

     total cpu time spent up to now is    22415.3 secs

     total energy              =  -12583.60220311 Ry
     Harris-Foulkes estimate   =  -12583.60238500 Ry
     estimated scf accuracy    <       0.00151260 Ry

     iteration # 48     ecut=    80.00 Ry     beta=0.70
     Davidson diagonalization with overlap
     ethr =  1.22E-07,  avg # of iterations =  9.2

     negative rho (up, down):  7.323E-03 0.000E+00

     total cpu time spent up to now is    22912.4 secs

     total energy              =  -12583.60219391 Ry
     Harris-Foulkes estimate   =  -12583.60231443 Ry
     estimated scf accuracy    <       0.00057738 Ry

     iteration # 49     ecut=    80.00 Ry     beta=0.70
     Davidson diagonalization with overlap
     ethr =  4.65E-08,  avg # of iterations =  6.7

     negative rho (up, down):  4.587E-03 0.000E+00

     total cpu time spent up to now is    23367.8 secs

     total energy              =  -12583.60231508 Ry
     Harris-Foulkes estimate   =  -12583.60228570 Ry
     estimated scf accuracy    <       0.00048666 Ry

     iteration # 50     ecut=    80.00 Ry     beta=0.70
     Davidson diagonalization with overlap
     ethr =  3.92E-08,  avg # of iterations = 12.2

     negative rho (up, down):  2.149E-03 0.000E+00

     total cpu time spent up to now is    23916.8 secs

     total energy              =  -12583.60241537 Ry
     Harris-Foulkes estimate   =  -12583.60234587 Ry
     estimated scf accuracy    <       0.00022242 Ry

     iteration # 51     ecut=    80.00 Ry     beta=0.70
     Davidson diagonalization with overlap
     c_bands:  1 eigenvalues not converged
     ethr =  1.79E-08,  avg # of iterations = 10.2

     negative rho (up, down):  2.511E-03 0.000E+00

     total cpu time spent up to now is    24444.6 secs

     total energy              =  -12583.60247641 Ry
     Harris-Foulkes estimate   =  -12583.60243098 Ry
     estimated scf accuracy    <       0.00005292 Ry

     iteration # 52     ecut=    80.00 Ry     beta=0.70
     Davidson diagonalization with overlap
     ethr =  4.26E-09,  avg # of iterations = 10.5

     negative rho (up, down):  2.423E-03 0.000E+00

     total cpu time spent up to now is    24974.1 secs

     total energy              =  -12583.60248304 Ry
     Harris-Foulkes estimate   =  -12583.60248165 Ry
     estimated scf accuracy    <       0.00002056 Ry

     iteration # 53     ecut=    80.00 Ry     beta=0.70
     Davidson diagonalization with overlap
     ethr =  1.66E-09,  avg # of iterations =  2.5

     negative rho (up, down):  2.460E-03 0.000E+00

     total cpu time spent up to now is    25327.5 secs

     total energy              =  -12583.60248578 Ry
     Harris-Foulkes estimate   =  -12583.60248437 Ry
     estimated scf accuracy    <       0.00000463 Ry

     iteration # 54     ecut=    80.00 Ry     beta=0.70
     Davidson diagonalization with overlap
     ethr =  3.73E-10,  avg # of iterations =  3.0

     negative rho (up, down):  2.409E-03 0.000E+00

     total cpu time spent up to now is    25708.3 secs

     total energy              =  -12583.60248603 Ry
     Harris-Foulkes estimate   =  -12583.60248621 Ry
     estimated scf accuracy    <       0.00000147 Ry

     iteration # 55     ecut=    80.00 Ry     beta=0.70
     Davidson diagonalization with overlap
     ethr =  1.19E-10,  avg # of iterations =  2.2

     negative rho (up, down):  2.405E-03 0.000E+00

     total cpu time spent up to now is    26080.3 secs

     total energy              =  -12583.60248630 Ry
     Harris-Foulkes estimate   =  -12583.60248636 Ry
     estimated scf accuracy    <       0.00000113 Ry

     iteration # 56     ecut=    80.00 Ry     beta=0.70
     Davidson diagonalization with overlap
     ethr =  9.13E-11,  avg # of iterations =  2.3

     negative rho (up, down):  2.387E-03 0.000E+00

     total cpu time spent up to now is    26430.9 secs

     total energy              =  -12583.60248648 Ry
     Harris-Foulkes estimate   =  -12583.60248641 Ry
     estimated scf accuracy    <       0.00000014 Ry

     iteration # 57     ecut=    80.00 Ry     beta=0.70
     Davidson diagonalization with overlap
     ethr =  1.13E-11,  avg # of iterations =  3.0

     negative rho (up, down):  2.366E-03 0.000E+00

     total cpu time spent up to now is    26808.6 secs

     total energy              =  -12583.60248651 Ry
     Harris-Foulkes estimate   =  -12583.60248649 Ry
     estimated scf accuracy    <       0.00000006 Ry

     iteration # 58     ecut=    80.00 Ry     beta=0.70
     Davidson diagonalization with overlap
     ethr =  4.61E-12,  avg # of iterations =  2.7

     negative rho (up, down):  2.380E-03 0.000E+00

     total cpu time spent up to now is    27176.0 secs

     total energy              =  -12583.60248649 Ry
     Harris-Foulkes estimate   =  -12583.60248652 Ry
     estimated scf accuracy    <       0.00000002 Ry

     iteration # 59     ecut=    80.00 Ry     beta=0.70
     Davidson diagonalization with overlap
     ethr =  1.72E-12,  avg # of iterations =  2.8

     negative rho (up, down):  2.376E-03 0.000E+00

     total cpu time spent up to now is    27518.5 secs

     End of self-consistent calculation

          k = 0.0000 0.0000 0.0000 (256287 PWs)   bands (ev):

   -23.9096 -19.2357 -17.1162 -16.4401 -15.7078 -14.8769 -14.7393 -14.5180
   -14.2204 -14.0487 -13.5263 -13.3455 -12.8430 -12.2565 -12.1557 -11.6108
   -10.7780 -10.6532  -9.8927  -9.5682  -9.4714  -9.0652  -8.8465  -8.6843
    -8.1394  -7.9503  -7.6931  -7.5856  -7.1186  -6.9579  -6.8279  -6.6566
    -6.4824  -6.3028  -6.0859  -5.9744  -5.9617  -5.7459  -5.7274  -5.4999
    -5.4220  -5.2188  -5.0999  -5.0114  -4.7801  -4.6153  -4.5295  -4.4798
    -4.4327  -4.3247  -4.0461  -3.9052  -3.8938  -3.8871  -3.7484  -3.6792
    -3.5618  -3.5122  -3.5082  -3.5059  -3.4989  -3.4944  -3.4928  -3.4827
    -3.4109  -3.2921  -3.2551  -3.2084  -3.1830  -3.1278  -3.1071  -3.0554
    -3.0235  -2.9380  -2.8457  -2.8238  -2.8196  -2.7516  -2.6976  -2.6877
    -2.6825  -2.6453  -2.6443  -2.6400  -2.6397  -2.6060  -2.5428  -2.5160
    -2.5140  -2.5055  -2.5045  -2.4368  -2.4110  -2.3761  -2.3316  -2.2680
    -2.2409  -2.2294  -2.2222  -2.2181  -2.1901  -2.1676  -2.1549  -2.1447
    -2.1392  -2.1095  -2.0942  -2.0722  -2.0645  -2.0547  -2.0536  -2.0430
    -2.0198  -2.0065  -2.0037  -1.9937  -1.9754  -1.9402  -1.9367  -1.9196
    -1.9015  -1.8804  -1.8693  -1.8433  -1.8106  -1.7887  -1.7824  -1.7588
    -1.7488  -1.7401  -1.7068  -1.7023  -1.7006  -1.6838  -1.6785  -1.6591
    -1.6529  -1.6287  -1.6058  -1.5677  -1.5440  -1.5421  -1.5347  -1.5254
    -1.5227  -1.5191  -1.5169  -1.5142  -1.5131  -1.5123  -1.5041  -1.4949
    -1.4936  -1.4881  -1.4812  -1.4450  -1.4425  -1.4312  -1.4274  -1.4153
    -1.4109  -1.4071  -1.4036  -1.3789  -1.3545  -1.3504  -1.3490  -1.3477
    -1.3458  -1.3426  -1.3419  -1.3400  -1.3385  -1.3383  -1.3355  -1.3319
    -1.3304  -1.3279  -1.3244  -1.3114  -1.3016  -1.2731  -1.2385  -1.1875
    -1.1788  -1.1748  -1.1733  -1.1666  -1.1484  -1.1345  -1.1318  -1.1179
    -1.1048  -1.0992  -1.0943  -1.0893  -1.0870  -1.0787  -1.0558  -1.0546
    -1.0514  -1.0491  -1.0467  -1.0450  -1.0373  -1.0303  -0.9883  -0.9810
    -0.9773  -0.9341  -0.9329  -0.9248  -0.9206  -0.9195  -0.9150  -0.9139
    -0.9070  -0.9007  -0.8951  -0.8946  -0.8929  -0.8926  -0.8907  -0.8874
    -0.8829  -0.8762  -0.8758  -0.8712  -0.8690  -0.8498  -0.8403  -0.8390
    -0.8030  -0.7946  -0.7835  -0.7830  -0.7799  -0.7649  -0.7587  -0.7580
    -0.7512  -0.7506  -0.7465  -0.7412  -0.7373  -0.7346  -0.7322  -0.7164
    -0.7147  -0.7132  -0.7102  -0.7076  -0.7059  -0.7033  -0.7017  -0.6997
    -0.6972  -0.6846  -0.6806  -0.6760  -0.6738  -0.6630  -0.6402  -0.6347
    -0.6199  -0.6109  -0.6050  -0.6041  -0.5926  -0.5784  -0.5728  -0.5681
    -0.5569  -0.5550  -0.5540  -0.5533  -0.5507  -0.5489  -0.5363  -0.5199
    -0.5072  -0.5029  -0.5027  -0.4954  -0.4935  -0.4867  -0.4749  -0.4692
    -0.4641  -0.4605  -0.4579  -0.4540  -0.4507  -0.4477  -0.4434  -0.4429
    -0.4342  -0.4305  -0.4290  -0.4277  -0.4255  -0.4231  -0.4081  -0.4054
    -0.3933  -0.3884  -0.3852  -0.3595  -0.3529  -0.3333  -0.3242  -0.3210
    -0.2963  -0.2941  -0.2710  -0.2608  -0.2593  -0.2574  -0.2534  -0.2471
    -0.2433  -0.2369  -0.2305  -0.2256  -0.2162  -0.2109  -0.2079  -0.2015
    -0.1907  -0.1609  -0.1583  -0.1531  -0.1477  -0.1468  -0.1431  -0.1347
    -0.1218  -0.1180  -0.1140  -0.1123  -0.1046  -0.0987  -0.0748  -0.0712
    -0.0689  -0.0637  -0.0523  -0.0507  -0.0476  -0.0371  -0.0164  -0.0118
    -0.0046  -0.0030   0.0021   0.0107   0.0127   0.0142   0.0191   0.0206
     0.0306   0.0353   0.0377   0.0385   0.0411   0.0453   0.0484   0.0516
     0.0533   0.0558   0.0585   0.0624   0.0657   0.0743   0.0798   0.0830
     0.1058   0.1085   0.1136   0.1154   0.1159   0.1269   0.1359   0.1492
     0.1538   0.1563   0.1613   0.1629   0.1633   0.1646   0.1669   0.1795
     0.1824   0.1854   0.1954   0.1970   0.1977   0.1994   0.2023   0.2087
     0.2117   0.2197   0.2284   0.2340   0.2369   0.2398   0.2475   0.2489
     0.2570   0.2592   0.2594   0.2630   0.2663   0.2697   0.2709   0.2778
     0.3117   0.3139   0.3204   0.3235   0.3252   0.3292   0.3320   0.3397
     0.3469   0.3628   0.3661   0.3699   0.3773   0.3868   0.3879   0.3949
     0.3991   0.4039   0.4058   0.4078   0.4115   0.4161   0.4213   0.4272
     0.4342   0.4366   0.4424   0.4437   0.4482   0.4536   0.4625   0.4645
     0.4691   0.4823   0.4877   0.4883   0.4954   0.5059   0.5086   0.5114
     0.5177   0.5193   0.5208   0.5224   0.5273   0.5287   0.5343   0.5397
     0.5408   0.5467   0.5484   0.5546   0.5582   0.5634   0.5716   0.5736
     0.5811   0.5840   0.5900   0.5909   0.6003   0.6076   0.6097   0.6125
     0.6204   0.6213   0.6262   0.6277   0.6298   0.6305   0.6350   0.6403
     0.6457   0.6482   0.6521   0.6651   0.6733   0.6825   0.6911   0.7011
     0.7105   0.7123   0.7151   0.7180   0.7191   0.7231   0.7251   0.7308
     0.7338   0.7425   0.7437   0.7447   0.7472   0.7536   0.7574   0.7623
     0.7643   0.7673   0.7714   0.7753   0.7808   0.7845   0.7861   0.7883
     0.7912   0.7941   0.7995   0.8013   0.8067   0.8087   0.8141   0.8170
     0.8202   0.8218   0.8232   0.8254   0.8269   0.8286   0.8317   0.8449
     0.8546   0.8600   0.8609   0.8648   0.8691   0.8699   0.8752   0.8915
     0.8953   0.8982   0.9007   0.9139   0.9169   0.9183   0.9207   0.9230
     0.9255   0.9298   0.9332   0.9373   0.9404   0.9429   0.9449   0.9474
     0.9522   0.9533   0.9583   0.9608   0.9630   0.9716   0.9762   0.9774
     0.9797   0.9852   0.9876   0.9916   0.9947   1.0015   1.0138   1.0287
     1.0334   1.0666   1.0681   1.0697   1.0727   1.0794   1.0908   1.0913
     1.0943   1.1119   1.1173   1.1340   1.1371   1.1412   1.1511   1.1522
     1.1544   1.1580   1.1748   1.3396   1.3936   1.4667   1.5566   1.5970
     1.6190   1.6710   1.7026   1.7146   1.7171   1.7218   1.7254   1.7387
     1.7491   1.7623   1.8020   1.8997   1.9607   1.9719   1.9795   1.9894
     2.0013   2.0205   2.0326   2.2180   2.2291   2.2469   2.3044   2.6633
     2.7595   2.9874   3.0628   3.1237   3.2857   3.3215   3.3444   3.3642
     3.3748   3.3983   3.4312   3.4438   3.4768   3.4997   3.5064   3.5125
     3.5285   3.5469   3.5880   3.6665   3.7332   3.7384   3.7903   3.8946
     3.9982   4.1298   4.2979   4.4355   4.5967   4.7690   4.8033   4.9300
     5.0788   5.1782   5.2075   5.3168   5.3691   5.4019   5.4554   5.5764
     5.6795   5.7915   5.7989   5.9224   5.9376   5.9847   6.0032   6.0184
     6.1395   6.2023   6.2107   6.2496   6.2703   6.3083   6.3468   6.4193
     6.4952   6.5534   6.5959   6.6298   6.6889   6.8542   6.8661   6.9562
     6.9977   7.1228   7.1489   7.1922   7.2193   7.2624   7.2842   7.2948
     7.4277   7.5409   7.5723   7.6587   7.6767   7.7134   7.8226   7.8423
     7.8496   7.8672   7.8990   7.9431   7.9727   8.0554   8.0707   8.0998
     8.1214   8.1983   8.2323   8.2621   8.2745   8.3170   8.3329   8.3465
     8.3618   8.3745   8.3952   8.4247   8.4606   8.4987   8.5692   8.5959
     8.7030   8.7475   8.7631   8.7927   8.8511   8.8809   8.9322   9.0682
     9.1035   9.1590   9.2050   9.2353   9.3097   9.3426   9.3805   9.4634
     9.5199

          k = 0.0000-0.2165 0.0000 (256176 PWs)   bands (ev):

   -23.9096 -19.2357 -17.1162 -16.4400 -15.7078 -14.8768 -14.7393 -14.5180
   -14.2203 -14.0487 -13.5264 -13.3456 -12.8432 -12.2562 -12.1556 -11.6108
   -10.7782 -10.6523  -9.8948  -9.5681  -9.4714  -9.0646  -8.8459  -8.6833
    -8.1388  -7.9504  -7.6930  -7.5865  -7.1189  -6.9580  -6.8288  -6.6518
    -6.3782  -6.3403  -6.3035  -6.0813  -5.7462  -5.7277  -5.4696  -5.4212
    -5.3500  -5.3162  -5.2572  -5.1929  -4.9374  -4.6981  -4.6131  -4.3464
    -4.3198  -4.1632  -4.0399  -3.8192  -3.8022  -3.7859  -3.7782  -3.7654
    -3.7428  -3.5897  -3.5793  -3.5237  -3.5120  -3.5058  -3.4915  -3.4741
    -3.2833  -3.2112  -3.1499  -3.0970  -3.0794  -3.0687  -3.0662  -3.0616
    -3.0547  -3.0279  -2.9698  -2.9437  -2.8786  -2.7424  -2.7407  -2.7196
    -2.7153  -2.6589  -2.6415  -2.6380  -2.6234  -2.6167  -2.5799  -2.5001
    -2.4762  -2.4755  -2.4514  -2.4506  -2.4181  -2.4013  -2.3362  -2.2973
    -2.2591  -2.2570  -2.2400  -2.2349  -2.2315  -2.2296  -2.2150  -2.2047
    -2.1791  -2.1728  -2.1413  -2.1307  -2.1281  -2.1085  -1.9753  -1.9588
    -1.9554  -1.9424  -1.9414  -1.9224  -1.8751  -1.8619  -1.8597  -1.8115
    -1.8033  -1.7983  -1.7879  -1.7755  -1.7686  -1.7675  -1.7651  -1.7627
    -1.7541  -1.7527  -1.7286  -1.7229  -1.7129  -1.7099  -1.7037  -1.6995
    -1.6860  -1.6730  -1.6530  -1.6413  -1.6227  -1.6155  -1.5802  -1.5777
    -1.5507  -1.5440  -1.5406  -1.5387  -1.5365  -1.5109  -1.4998  -1.4849
    -1.4777  -1.4766  -1.4743  -1.4650  -1.4634  -1.4621  -1.4255  -1.4139
    -1.4113  -1.4098  -1.4087  -1.4033  -1.3965  -1.3958  -1.3784  -1.3766
    -1.3461  -1.3247  -1.3183  -1.3159  -1.3117  -1.3042  -1.2994  -1.2909
    -1.2839  -1.2781  -1.2659  -1.2594  -1.2488  -1.2426  -1.2411  -1.2309
    -1.2163  -1.1545  -1.1537  -1.1377  -1.1352  -1.1240  -1.1228  -1.1027
    -1.1002  -1.0948  -1.0929  -1.0913  -1.0908  -1.0706  -1.0649  -1.0460
    -1.0443  -1.0376  -1.0335  -1.0276  -1.0261  -1.0257  -1.0206  -1.0141
    -0.9975  -0.9852  -0.9749  -0.9749  -0.9601  -0.9502  -0.9428  -0.9415
    -0.9387  -0.9349  -0.9339  -0.9154  -0.9111  -0.9055  -0.8943  -0.8697
    -0.8584  -0.8576  -0.8429  -0.8398  -0.8379  -0.8238  -0.8143  -0.7975
    -0.7938  -0.7903  -0.7834  -0.7822  -0.7800  -0.7708  -0.7684  -0.7670
    -0.7534  -0.7518  -0.7451  -0.7397  -0.7377  -0.7344  -0.7342  -0.7312
    -0.7256  -0.7227  -0.7205  -0.7097  -0.7002  -0.6960  -0.6927  -0.6917
    -0.6704  -0.6404  -0.6370  -0.6344  -0.6314  -0.6281  -0.6257  -0.6209
    -0.6152  -0.6057  -0.6001  -0.5957  -0.5865  -0.5847  -0.5784  -0.5761
    -0.5735  -0.5717  -0.5705  -0.5649  -0.5610  -0.5567  -0.5418  -0.5214
    -0.5137  -0.5120  -0.5102  -0.5084  -0.4889  -0.4862  -0.4839  -0.4821
    -0.4726  -0.4705  -0.4645  -0.4629  -0.4593  -0.4519  -0.4431  -0.4303
    -0.4296  -0.4178  -0.4170  -0.4160  -0.4111  -0.3969  -0.3964  -0.3874
    -0.3803  -0.3750  -0.3727  -0.3661  -0.3586  -0.3549  -0.3481  -0.3292
    -0.3175  -0.3120  -0.3079  -0.3030  -0.2991  -0.2897  -0.2884  -0.2807
    -0.2676  -0.2625  -0.2365  -0.2310  -0.2271  -0.2237  -0.2050  -0.2010
    -0.1766  -0.1549  -0.1425  -0.1192  -0.1144  -0.1125  -0.1075  -0.1054
    -0.1011  -0.0845  -0.0745  -0.0739  -0.0628  -0.0576  -0.0565  -0.0486
    -0.0454  -0.0430  -0.0389  -0.0363  -0.0342  -0.0250  -0.0229  -0.0199
    -0.0139  -0.0120  -0.0111  -0.0077   0.0050   0.0146   0.0188   0.0271
     0.0281   0.0346   0.0365   0.0421   0.0457   0.0467   0.0470   0.0551
     0.0579   0.0612   0.0634   0.0661   0.0691   0.0714   0.0795   0.0823
     0.0864   0.0892   0.0918   0.0955   0.0959   0.0991   0.1044   0.1088
     0.1237   0.1381   0.1481   0.1545   0.1630   0.1663   0.1672   0.1690
     0.1726   0.1751   0.1814   0.1878   0.1886   0.1918   0.1926   0.1937
     0.1999   0.2063   0.2258   0.2292   0.2364   0.2385   0.2405   0.2431
     0.2513   0.2553   0.2628   0.2729   0.2734   0.2794   0.2823   0.2848
     0.2914   0.2941   0.3019   0.3170   0.3426   0.3447   0.3595   0.3793
     0.3883   0.3951   0.3977   0.3985   0.4034   0.4039   0.4099   0.4123
     0.4147   0.4185   0.4225   0.4260   0.4295   0.4332   0.4342   0.4377
     0.4438   0.4449   0.4515   0.4573   0.4610   0.4618   0.4656   0.4677
     0.4712   0.4752   0.4764   0.4776   0.4782   0.4813   0.4857   0.4894
     0.4965   0.4995   0.5006   0.5014   0.5025   0.5089   0.5124   0.5202
     0.5216   0.5288   0.5345   0.5362   0.5385   0.5411   0.5422   0.5464
     0.5484   0.5485   0.5532   0.5552   0.5630   0.5890   0.5954   0.5994
     0.6337   0.6412   0.6444   0.6468   0.6486   0.6594   0.6611   0.6700
     0.6769   0.6778   0.6837   0.6858   0.6895   0.6911   0.6945   0.6973
     0.7017   0.7071   0.7082   0.7104   0.7110   0.7150   0.7159   0.7173
     0.7195   0.7236   0.7290   0.7348   0.7366   0.7408   0.7426   0.7452
     0.7475   0.7512   0.7585   0.7720   0.7759   0.7777   0.7795   0.7804
     0.7853   0.7877   0.7915   0.7999   0.8051   0.8070   0.8096   0.8125
     0.8148   0.8160   0.8215   0.8249   0.8282   0.8322   0.8402   0.8456
     0.8487   0.8577   0.8622   0.8627   0.8709   0.8840   0.8866   0.8923
     0.8944   0.8959   0.8963   0.8993   0.9016   0.9046   0.9086   0.9222
     0.9232   0.9257   0.9358   0.9369   0.9391   0.9512   0.9554   0.9563
     0.9591   0.9604   0.9611   0.9625   0.9642   0.9888   0.9902   0.9915
     0.9988   1.0014   1.0038   1.0143   1.0211   1.0272   1.0293   1.0328
     1.0338   1.0409   1.0440   1.0461   1.0594   1.0870   1.1063   1.1080
     1.1235   1.1732   1.2044   1.2163   1.2460   1.2546   1.2589   1.2693
     1.2726   1.2877   1.2965   1.3040   1.3117   1.3212   1.3277   1.3318
     1.3382   1.3578   1.3693   1.4736   1.7106   1.9048   1.9201   1.9473
     1.9649   1.9887   2.0051   2.0639   2.0860   2.0900   2.0949   2.1197
     2.1862   2.2152   2.2171   2.2290   2.2606   2.3058   2.3397   2.4315
     2.4325   2.6447   2.6764   2.6801   2.6805   2.7918   2.9074   3.0328
     3.1414   3.1890   3.2087   3.5234   3.6057   3.6300   3.6598   3.8318
     3.8522   3.8582   3.8738   3.8800   3.9727   4.0442   4.1343   4.2640
     4.3727   4.4247   4.5525   4.5784   4.6179   4.7015   4.7768   4.8614
     4.8664   4.8765   4.9129   4.9615   5.0893   5.1801   5.4923   5.6833
     5.7165   5.8003   5.8287   5.9322   5.9893   6.0535   6.0766   6.1161
     6.1337   6.1673   6.2033   6.2765   6.3206   6.4074   6.4846   6.5160
     6.5530   6.5859   6.6076   6.6426   6.6578   6.6636   6.6766   6.7314
     6.7897   6.9106   6.9310   6.9660   7.0293   7.1291   7.1657   7.2365
     7.3037   7.3572   7.5864   7.6414   7.6589   7.7602   7.8588   7.8786
     7.8947   7.9695   7.9823   8.0286   8.1128   8.1760   8.1881   8.2132
     8.2230   8.2348   8.2550   8.2801   8.2904   8.3692   8.3889   8.4081
     8.4330   8.5281   8.5374   8.5720   8.6874   8.7353   8.8298   8.8552
     8.8634   8.8792   8.8932   8.9299   8.9442   8.9769   8.9941   9.0050
     9.0383   9.1635   9.1772   9.2118   9.2823   9.2944   9.3048   9.3824
     9.4014

          k = 0.2500 0.0000 0.0000 (256240 PWs)   bands (ev):

   -23.9095 -19.2360 -17.0596 -16.3459 -15.7391 -15.4265 -15.0189 -14.5034
   -13.9964 -13.6654 -13.3064 -13.1088 -12.6291 -12.3062 -11.8916 -11.3891
   -11.2122 -10.8033 -10.3680  -9.9014  -9.6871  -9.4895  -9.1821  -8.6433
    -8.4333  -7.7101  -7.4649  -7.2246  -7.0599  -6.7049  -6.6512  -6.5413
    -6.3149  -6.1010  -5.8297  -5.8016  -5.7887  -5.4890  -5.3429  -5.3025
    -5.2031  -4.9669  -4.9522  -4.8611  -4.6924  -4.6341  -4.6172  -4.4930
    -4.4853  -4.3923  -4.3340  -4.3271  -4.2899  -4.1582  -4.1086  -4.0857
    -3.9411  -3.8393  -3.7493  -3.7165  -3.6849  -3.6128  -3.5309  -3.5086
    -3.4750  -3.4043  -3.3399  -3.2902  -3.2832  -3.2464  -3.1942  -3.1174
    -3.0716  -3.0222  -2.8906  -2.8445  -2.8028  -2.7074  -2.6448  -2.5930
    -2.5901  -2.5730  -2.5703  -2.5078  -2.4160  -2.4000  -2.3650  -2.3271
    -2.3184  -2.3003  -2.2935  -2.2902  -2.2834  -2.2811  -2.2655  -2.2587
    -2.2420  -2.2137  -2.2044  -2.1644  -2.1396  -2.1310  -2.1218  -2.0973
    -2.0741  -2.0706  -2.0692  -2.0682  -2.0627  -2.0429  -2.0352  -2.0152
    -1.9958  -1.9914  -1.9844  -1.9819  -1.9292  -1.8608  -1.8460  -1.8255
    -1.8176  -1.8024  -1.7684  -1.7480  -1.7414  -1.7379  -1.7345  -1.7294
    -1.7231  -1.7000  -1.6848  -1.6794  -1.6759  -1.6709  -1.6663  -1.6544
    -1.6357  -1.6296  -1.6245  -1.6215  -1.6116  -1.6050  -1.6002  -1.5929
    -1.5731  -1.5658  -1.5553  -1.5410  -1.5373  -1.5273  -1.5155  -1.5053
    -1.5029  -1.4991  -1.4977  -1.4927  -1.4883  -1.4818  -1.4770  -1.4737
    -1.4716  -1.4674  -1.4664  -1.4653  -1.4587  -1.4506  -1.4397  -1.4281
    -1.4180  -1.3935  -1.3891  -1.3838  -1.3460  -1.3426  -1.3264  -1.3062
    -1.3024  -1.2908  -1.2866  -1.2749  -1.2628  -1.2617  -1.2525  -1.2470
    -1.2427  -1.2393  -1.2313  -1.2242  -1.2201  -1.2124  -1.1512  -1.1142
    -1.0991  -1.0900  -1.0855  -1.0730  -1.0625  -1.0592  -1.0560  -1.0454
    -1.0426  -1.0400  -1.0371  -1.0317  -1.0244  -1.0226  -1.0155  -1.0113
    -0.9820  -0.9789  -0.9776  -0.9746  -0.9722  -0.9642  -0.9525  -0.9509
    -0.9496  -0.9427  -0.9263  -0.8930  -0.8922  -0.8881  -0.8825  -0.8800
    -0.8781  -0.8718  -0.8684  -0.8488  -0.8446  -0.8309  -0.8263  -0.8229
    -0.8185  -0.7976  -0.7863  -0.7859  -0.7828  -0.7816  -0.7719  -0.7689
    -0.7606  -0.7559  -0.7513  -0.7384  -0.7365  -0.7317  -0.7233  -0.7136
    -0.7047  -0.6915  -0.6890  -0.6846  -0.6799  -0.6779  -0.6714  -0.6710
    -0.6677  -0.6429  -0.6415  -0.6333  -0.6275  -0.6231  -0.6073  -0.6044
    -0.6018  -0.5885  -0.5736  -0.5615  -0.5572  -0.5553  -0.5538  -0.5416
    -0.5303  -0.5243  -0.5094  -0.5074  -0.5047  -0.5028  -0.5008  -0.4926
    -0.4885  -0.4874  -0.4856  -0.4828  -0.4812  -0.4792  -0.4767  -0.4689
    -0.4590  -0.4544  -0.4529  -0.4509  -0.4447  -0.4348  -0.4292  -0.4221
    -0.4160  -0.4092  -0.4052  -0.3835  -0.3799  -0.3760  -0.3742  -0.3690
    -0.3596  -0.3568  -0.3520  -0.3464  -0.3441  -0.3395  -0.3262  -0.3050
    -0.2978  -0.2576  -0.2433  -0.2409  -0.2368  -0.2336  -0.2280  -0.2251
    -0.2219  -0.2158  -0.2136  -0.2098  -0.2078  -0.2043  -0.2012  -0.1988
    -0.1973  -0.1941  -0.1853  -0.1818  -0.1762  -0.1734  -0.1632  -0.1609
    -0.1554  -0.1532  -0.1516  -0.1439  -0.1364  -0.1308  -0.1228  -0.1072
    -0.0855  -0.0796  -0.0734  -0.0720  -0.0637  -0.0567  -0.0499  -0.0450
    -0.0409  -0.0283  -0.0184  -0.0172  -0.0133  -0.0104  -0.0083  -0.0053
    -0.0040   0.0039   0.0067   0.0091   0.0182   0.0210   0.0241   0.0285
     0.0337   0.0411   0.0504   0.0560   0.0573   0.0607   0.0653   0.0710
     0.0825   0.0848   0.0887   0.0933   0.0989   0.1006   0.1042   0.1094
     0.1141   0.1173   0.1206   0.1247   0.1324   0.1443   0.1475   0.1497
     0.1585   0.1616   0.1686   0.1744   0.1768   0.1821   0.1914   0.2033
     0.2072   0.2196   0.2326   0.2331   0.2466   0.2480   0.2512   0.2550
     0.2620   0.2716   0.2748   0.2765   0.2831   0.2872   0.2898   0.2905
     0.2946   0.2997   0.3129   0.3218   0.3254   0.3322   0.3366   0.3425
     0.3454   0.3567   0.3627   0.3668   0.3723   0.3830   0.3877   0.3899
     0.3979   0.3994   0.4005   0.4026   0.4046   0.4091   0.4130   0.4182
     0.4259   0.4363   0.4496   0.4532   0.4626   0.4696   0.4751   0.4798
     0.4865   0.4897   0.4960   0.4978   0.4997   0.5026   0.5091   0.5105
     0.5141   0.5159   0.5208   0.5248   0.5274   0.5287   0.5299   0.5311
     0.5364   0.5389   0.5433   0.5449   0.5482   0.5520   0.5587   0.5633
     0.5674   0.5748   0.5790   0.5800   0.5823   0.5879   0.5917   0.5999
     0.6033   0.6093   0.6120   0.6172   0.6211   0.6221   0.6229   0.6295
     0.6344   0.6373   0.6424   0.6483   0.6500   0.6582   0.6604   0.6645
     0.6702   0.6873   0.6935   0.6965   0.7005   0.7038   0.7120   0.7197
     0.7230   0.7374   0.7408   0.7450   0.7522   0.7551   0.7619   0.7644
     0.7682   0.7694   0.7707   0.7783   0.7848   0.7862   0.7911   0.7952
     0.7977   0.8019   0.8051   0.8063   0.8082   0.8108   0.8136   0.8161
     0.8213   0.8237   0.8278   0.8298   0.8359   0.8394   0.8427   0.8447
     0.8585   0.8614   0.8626   0.8688   0.8701   0.8734   0.8803   0.8828
     0.8887   0.8914   0.8955   0.9018   0.9045   0.9098   0.9129   0.9249
     0.9276   0.9296   0.9311   0.9336   0.9356   0.9378   0.9389   0.9445
     0.9464   0.9482   0.9506   0.9524   0.9630   0.9703   0.9734   0.9756
     0.9800   0.9829   0.9868   0.9922   0.9940   0.9976   1.0010   1.0032
     1.0112   1.0185   1.0248   1.0259   1.0289   1.0427   1.0577   1.0637
     1.0692   1.0912   1.1054   1.1296   1.1334   1.1348   1.1405   1.1757
     1.2151   1.2495   1.2685   1.2715   1.2824   1.3021   1.3222   1.3473
     1.4942   1.5385   1.5460   1.5803   1.5943   1.6125   1.6757   1.7176
     1.7622   1.8442   2.0500   2.0679   2.0714   2.0887   2.3655   2.4814
     2.4903   2.5532   2.6928   2.7098   2.7276   2.7287   2.7618   2.8559
     2.9364   2.9901   3.0574   3.1199   3.1586   3.1780   3.2025   3.2161
     3.2324   3.2701   3.3283   3.3427   3.3872   3.4307   3.5147   3.6245
     3.7113   3.7836   3.8030   3.8502   3.9861   4.2817   4.2951   4.3431
     4.4355   4.5592   4.6116   4.7276   4.7515   4.7624   4.8535   4.9145
     4.9720   5.0057   5.0308   5.0365   5.0850   5.1219   5.2327   5.2560
     5.3021   5.3572   5.4081   5.4883   5.5126   5.5271   5.5359   5.6109
     5.6680   6.0441   6.1161   6.1917   6.2233   6.2628   6.2748   6.2925
     6.4531   6.5104   6.5321   6.5499   6.5645   6.5824   6.5986   6.6462
     6.7089   6.8610   6.9057   6.9678   7.0330   7.0868   7.1177   7.1589
     7.2323   7.2886   7.3337   7.4335   7.4890   7.5341   7.5765   7.5861
     7.6140   7.6768   7.7494   7.8075   7.8306   7.8574   7.8945   7.9559
     8.0126   8.0233   8.0965   8.1419   8.1629   8.3400   8.4391   8.4603
     8.4918   8.5179   8.5374   8.5495   8.6458   8.6618   8.6782   8.7075
     8.7302   8.7706   8.8092   8.8429   8.8861   8.9060   8.9489   8.9568
     8.9735   9.0406   9.0642   9.1925   9.2311   9.2435   9.3239   9.3681
     9.3794

          k = 0.2500-0.2165 0.0000 (256316 PWs)   bands (ev):

   -23.9095 -19.2360 -17.0596 -16.3459 -15.7392 -15.4266 -15.0189 -14.5034
   -13.9963 -13.6654 -13.3064 -13.1087 -12.6295 -12.3063 -11.8914 -11.3888
   -11.2117 -10.8033 -10.3680  -9.9026  -9.6879  -9.4895  -9.1820  -8.6417
    -8.4328  -7.7099  -7.4651  -7.2250  -7.0601  -6.7056  -6.6506  -6.5419
    -6.2016  -6.1721  -6.0979  -5.8254  -5.4885  -5.3125  -5.3046  -5.2075
    -5.1825  -5.1518  -5.0867  -4.8478  -4.8230  -4.7985  -4.6920  -4.6288
    -4.5431  -4.3321  -4.1973  -4.1583  -4.1054  -4.0847  -4.0281  -3.9669
    -3.9458  -3.9299  -3.8638  -3.7677  -3.6957  -3.6121  -3.5596  -3.5133
    -3.4507  -3.4177  -3.3957  -3.3876  -3.3274  -3.2418  -3.1957  -3.1066
    -3.0193  -2.8148  -2.7976  -2.7659  -2.6989  -2.6789  -2.6653  -2.6595
    -2.6581  -2.6396  -2.5757  -2.5005  -2.4970  -2.4795  -2.4456  -2.3757
    -2.3476  -2.3176  -2.3052  -2.3022  -2.2863  -2.2403  -2.2239  -2.2133
    -2.2073  -2.1991  -2.1934  -2.1920  -2.1800  -2.1732  -2.1677  -2.1628
    -2.1573  -2.1551  -2.1519  -2.1047  -2.0760  -2.0656  -2.0005  -1.9649
    -1.9566  -1.8950  -1.8664  -1.8255  -1.8215  -1.8157  -1.7805  -1.7715
    -1.7692  -1.7657  -1.7552  -1.7530  -1.7402  -1.7371  -1.7341  -1.7236
    -1.7192  -1.7170  -1.7129  -1.7085  -1.7036  -1.6943  -1.6865  -1.6803
    -1.6745  -1.6702  -1.6642  -1.6358  -1.6242  -1.6158  -1.6120  -1.6069
    -1.6041  -1.6014  -1.5924  -1.5659  -1.5460  -1.5351  -1.5319  -1.5270
    -1.5257  -1.5145  -1.5100  -1.5007  -1.4887  -1.4866  -1.4833  -1.4562
    -1.4535  -1.4476  -1.4462  -1.4447  -1.4413  -1.4342  -1.4244  -1.4175
    -1.4049  -1.3965  -1.3792  -1.3674  -1.3540  -1.3518  -1.3492  -1.3060
    -1.2793  -1.2740  -1.2700  -1.2594  -1.2548  -1.2537  -1.2213  -1.2180
    -1.2127  -1.2052  -1.2041  -1.1979  -1.1963  -1.1923  -1.1752  -1.1518
    -1.1405  -1.1328  -1.1143  -1.1038  -1.0991  -1.0643  -1.0621  -1.0575
    -1.0543  -1.0524  -1.0479  -1.0284  -1.0228  -1.0205  -1.0014  -0.9995
    -0.9940  -0.9895  -0.9804  -0.9777  -0.9677  -0.9503  -0.9437  -0.9285
    -0.9244  -0.9185  -0.9067  -0.9018  -0.9013  -0.8852  -0.8824  -0.8779
    -0.8687  -0.8621  -0.8605  -0.8548  -0.8525  -0.8491  -0.8456  -0.8411
    -0.8337  -0.8302  -0.8180  -0.8102  -0.8079  -0.7895  -0.7864  -0.7721
    -0.7662  -0.7529  -0.7489  -0.7394  -0.7357  -0.7323  -0.7263  -0.7166
    -0.7124  -0.7081  -0.7029  -0.6976  -0.6821  -0.6760  -0.6464  -0.6425
    -0.6127  -0.6081  -0.6031  -0.6005  -0.5976  -0.5965  -0.5931  -0.5811
    -0.5768  -0.5643  -0.5620  -0.5589  -0.5556  -0.5455  -0.5397  -0.5342
    -0.5321  -0.5274  -0.5244  -0.5185  -0.5145  -0.5081  -0.5030  -0.4995
    -0.4966  -0.4931  -0.4894  -0.4868  -0.4848  -0.4837  -0.4811  -0.4748
    -0.4676  -0.4639  -0.4627  -0.4575  -0.4522  -0.4313  -0.4269  -0.4211
    -0.4176  -0.4114  -0.4056  -0.3937  -0.3890  -0.3652  -0.3609  -0.3589
    -0.3556  -0.3470  -0.3435  -0.3389  -0.3374  -0.3278  -0.3231  -0.3199
    -0.3190  -0.3082  -0.2931  -0.2896  -0.2712  -0.2352  -0.2243  -0.2229
    -0.2194  -0.2175  -0.2131  -0.2099  -0.2050  -0.2011  -0.1935  -0.1923
    -0.1895  -0.1812  -0.1793  -0.1730  -0.1694  -0.1642  -0.1603  -0.1559
    -0.1528  -0.1471  -0.1345  -0.1288  -0.1225  -0.1174  -0.1130  -0.1105
    -0.1019  -0.1005  -0.0919  -0.0844  -0.0684  -0.0625  -0.0474  -0.0457
    -0.0418  -0.0393  -0.0361  -0.0253  -0.0215  -0.0177  -0.0137  -0.0125
    -0.0077  -0.0057  -0.0014   0.0123   0.0186   0.0230   0.0306   0.0381
     0.0436   0.0677   0.0703   0.0733   0.0767   0.0845   0.0942   0.1003
     0.1041   0.1073   0.1113   0.1146   0.1223   0.1248   0.1281   0.1296
     0.1365   0.1496   0.1520   0.1537   0.1569   0.1620   0.1639   0.1698
     0.1761   0.1782   0.1798   0.1814   0.1898   0.1921   0.1969   0.1989
     0.2033   0.2055   0.2100   0.2137   0.2153   0.2168   0.2195   0.2212
     0.2259   0.2318   0.2341   0.2512   0.2605   0.2677   0.2720   0.2768
     0.2905   0.2936   0.3034   0.3201   0.3281   0.3310   0.3317   0.3346
     0.3358   0.3380   0.3444   0.3494   0.3603   0.3624   0.3633   0.3640
     0.3651   0.3673   0.3788   0.3823   0.3895   0.3959   0.4016   0.4067
     0.4092   0.4156   0.4268   0.4328   0.4355   0.4384   0.4391   0.4475
     0.4612   0.4636   0.4740   0.4750   0.4760   0.4800   0.4841   0.4916
     0.5063   0.5104   0.5175   0.5209   0.5249   0.5312   0.5411   0.5489
     0.5553   0.5582   0.5685   0.5797   0.5863   0.5940   0.5945   0.5972
     0.5982   0.5991   0.6006   0.6018   0.6036   0.6106   0.6116   0.6146
     0.6172   0.6209   0.6277   0.6318   0.6361   0.6398   0.6533   0.6641
     0.6671   0.6687   0.6741   0.6767   0.6799   0.6839   0.6856   0.6892
     0.6932   0.6959   0.6994   0.7018   0.7054   0.7082   0.7113   0.7159
     0.7181   0.7218   0.7247   0.7293   0.7304   0.7325   0.7350   0.7369
     0.7440   0.7539   0.7579   0.7615   0.7764   0.7779   0.7796   0.7861
     0.7889   0.7962   0.7999   0.8038   0.8075   0.8166   0.8180   0.8232
     0.8286   0.8332   0.8370   0.8384   0.8402   0.8425   0.8486   0.8534
     0.8580   0.8606   0.8628   0.8668   0.8716   0.8765   0.8814   0.8861
     0.8891   0.8900   0.8923   0.8943   0.8995   0.9023   0.9037   0.9049
     0.9094   0.9140   0.9179   0.9205   0.9264   0.9333   0.9406   0.9450
     0.9464   0.9479   0.9487   0.9503   0.9516   0.9569   0.9609   0.9619
     0.9655   0.9702   0.9859   0.9877   0.9924   1.0018   1.0065   1.0111
     1.0153   1.0243   1.0301   1.0364   1.0393   1.0592   1.0599   1.0640
     1.0675   1.0689   1.0979   1.1128   1.1623   1.1713   1.1814   1.2062
     1.2516   1.2600   1.2670   1.2734   1.2865   1.2964   1.3041   1.3498
     1.4075   1.4236   1.5914   1.6300   1.6429   1.6637   1.6793   1.7844
     1.8164   2.0845   2.0938   2.2492   2.2531   2.2751   2.3008   2.3056
     2.3162   2.3389   2.3596   2.4230   2.4890   2.5388   2.5835   2.6570
     3.0334   3.0848   3.1135   3.1395   3.1902   3.2850   3.2979   3.3512
     3.3567   3.3873   3.4846   3.4972   3.5679   3.5877   3.6606   3.6706
     3.7689   3.8854   3.8922   3.9689   3.9951   4.0523   4.1814   4.1929
     4.2451   4.4012   4.4702   4.5387   4.6796   4.7068   4.7601   4.8035
     4.8643   4.9085   4.9414   4.9551   4.9987   5.0453   5.1857   5.2678
     5.2781   5.3810   5.4029   5.4310   5.5059   5.6456   5.8792   6.0013
     6.0618   6.1080   6.1649   6.1920   6.2434   6.3212   6.3695   6.4311
     6.4591   6.5374   6.5647   6.6325   6.6423   6.6880   6.7120   6.7401
     6.7667   6.8079   6.8555   6.8856   6.9209   6.9555   6.9762   7.0014
     7.0912   7.2069   7.2836   7.3603   7.3876   7.4539   7.5185   7.5896
     7.6853   7.7008   7.7130   7.8230   7.9022   8.0310   8.0476   8.0872
     8.1066   8.1409   8.1605   8.2047   8.2441   8.2653   8.2824   8.3606
     8.3890   8.4429   8.4848   8.5269   8.5906   8.6171   8.6636   8.7000
     8.7173   8.7508   8.7667   8.7805   8.7958   8.8088   8.8610   8.9008
     8.9244   8.9512   9.0023   9.0265   9.1445   9.1700   9.1814   9.2211
     9.3477

          k =-0.5000 0.0000 0.0000 (256496 PWs)   bands (ev):

   -23.9095 -19.2363 -16.9911 -16.1632 -15.9685 -15.6100 -15.1733 -14.6858
   -14.0294 -13.4479 -12.7160 -12.5454 -12.3340 -12.0700 -11.9659 -11.8701
   -11.5290 -11.0801 -10.7589 -10.0298  -9.7484  -9.5416  -9.3802  -8.7172
    -8.5921  -8.4039  -7.6240  -7.0527  -6.6416  -6.4256  -5.9776  -5.7984
    -5.7882  -5.7429  -5.6685  -5.4298  -5.4006  -5.3187  -5.2938  -5.2923
    -5.2826  -5.2804  -5.0959  -4.8786  -4.8653  -4.7680  -4.7451  -4.5748
    -4.4818  -4.4472  -4.4105  -4.3984  -4.3844  -4.2033  -4.1793  -4.1387
    -4.0691  -4.0082  -3.9197  -3.9128  -3.9076  -3.8877  -3.8531  -3.8208
    -3.6865  -3.5999  -3.4125  -3.2909  -3.2078  -3.1449  -3.1368  -3.1159
    -3.1009  -3.0371  -2.9967  -2.8872  -2.8066  -2.8001  -2.7721  -2.7542
    -2.7194  -2.6063  -2.3803  -2.3744  -2.3709  -2.3699  -2.3662  -2.3656
    -2.3433  -2.3128  -2.2662  -2.2359  -2.1873  -2.1486  -2.1429  -2.1425
    -2.1375  -2.0994  -2.0946  -2.0934  -2.0896  -2.0885  -2.0181  -1.9891
    -1.9820  -1.9795  -1.9771  -1.9503  -1.9129  -1.9108  -1.9039  -1.9027
    -1.8959  -1.8678  -1.8594  -1.8531  -1.8472  -1.8440  -1.8412  -1.8384
    -1.8320  -1.8309  -1.8064  -1.7898  -1.7863  -1.7836  -1.7755  -1.7639
    -1.7608  -1.7563  -1.7550  -1.7359  -1.6958  -1.6949  -1.6800  -1.6749
    -1.6726  -1.6704  -1.6537  -1.6493  -1.6392  -1.6332  -1.6274  -1.6251
    -1.6044  -1.6011  -1.5986  -1.5942  -1.5925  -1.5875  -1.5773  -1.5732
    -1.5565  -1.5476  -1.5444  -1.5272  -1.5031  -1.4980  -1.4765  -1.4738
    -1.4702  -1.4693  -1.4630  -1.4451  -1.4394  -1.4365  -1.4295  -1.4275
    -1.4257  -1.4203  -1.4169  -1.4109  -1.4063  -1.3975  -1.3937  -1.3617
    -1.3348  -1.3313  -1.3291  -1.3265  -1.3236  -1.2870  -1.2830  -1.2055
    -1.2027  -1.2017  -1.2000  -1.1701  -1.1668  -1.1657  -1.1641  -1.1576
    -1.1571  -1.1431  -1.1346  -1.1266  -1.1224  -1.1150  -1.1108  -1.0996
    -1.0978  -1.0935  -1.0903  -1.0723  -1.0673  -1.0579  -1.0477  -0.9814
    -0.9700  -0.9604  -0.9506  -0.9466  -0.9432  -0.9313  -0.9262  -0.9177
    -0.9150  -0.9045  -0.8986  -0.8904  -0.8879  -0.8634  -0.8620  -0.8600
    -0.8579  -0.8551  -0.8436  -0.8259  -0.8237  -0.8210  -0.8185  -0.8156
    -0.8056  -0.7912  -0.7895  -0.7852  -0.7828  -0.7761  -0.7748  -0.7719
    -0.7636  -0.7432  -0.7401  -0.7388  -0.7386  -0.7152  -0.7096  -0.6976
    -0.6969  -0.6404  -0.6324  -0.6299  -0.6265  -0.6230  -0.6191  -0.6178
    -0.6158  -0.5930  -0.5902  -0.5818  -0.5761  -0.5675  -0.5510  -0.5503
    -0.5433  -0.5228  -0.5188  -0.5179  -0.5163  -0.5146  -0.5112  -0.5099
    -0.5085  -0.5078  -0.5045  -0.5027  -0.4965  -0.4588  -0.4501  -0.4423
    -0.4372  -0.4282  -0.4267  -0.4248  -0.4213  -0.4198  -0.4171  -0.4161
    -0.4120  -0.4079  -0.4071  -0.4052  -0.3979  -0.3934  -0.3916  -0.3843
    -0.3820  -0.3759  -0.3733  -0.3723  -0.3712  -0.3682  -0.3677  -0.3666
    -0.3641  -0.3632  -0.3603  -0.3575  -0.3492  -0.3473  -0.3389  -0.3369
    -0.3365  -0.3347  -0.3295  -0.3262  -0.3103  -0.3074  -0.2897  -0.2314
    -0.2196  -0.2144  -0.2093  -0.2074  -0.1826  -0.1776  -0.1749  -0.1736
    -0.1673  -0.1652  -0.1611  -0.1591  -0.1563  -0.1551  -0.1540  -0.1482
    -0.1471  -0.1375  -0.1365  -0.1338  -0.1325  -0.1295  -0.1257  -0.1203
    -0.1168  -0.1167  -0.1125  -0.1053  -0.1029  -0.0985  -0.0912  -0.0907
    -0.0858  -0.0829  -0.0676  -0.0341  -0.0289  -0.0171  -0.0016  -0.0008
     0.0016   0.0091   0.0183   0.0199   0.0240   0.0303   0.0317   0.0344
     0.0349   0.0380   0.0392   0.0397   0.0428   0.0470   0.0534   0.0547
     0.0570   0.0589   0.0621   0.0644   0.0716   0.0828   0.0874   0.0915
     0.0981   0.1032   0.1063   0.1203   0.1271   0.1333   0.1399   0.1415
     0.1419   0.1445   0.1487   0.1502   0.1548   0.1573   0.1587   0.1659
     0.1723   0.1735   0.1753   0.1779   0.1868   0.1941   0.2020   0.2103
     0.2158   0.2167   0.2181   0.2205   0.2329   0.2366   0.2424   0.2586
     0.2589   0.2716   0.2731   0.2828   0.2912   0.3021   0.3135   0.3148
     0.3295   0.3408   0.3462   0.3493   0.3504   0.3514   0.3528   0.3538
     0.3584   0.3597   0.3624   0.3657   0.3767   0.3774   0.3902   0.3935
     0.3966   0.3984   0.4052   0.4069   0.4117   0.4153   0.4158   0.4187
     0.4210   0.4311   0.4385   0.4567   0.4637   0.4667   0.4750   0.5030
     0.5174   0.5196   0.5244   0.5252   0.5289   0.5371   0.5462   0.5492
     0.5542   0.5587   0.5699   0.5762   0.5849   0.5877   0.5905   0.5950
     0.6062   0.6153   0.6184   0.6218   0.6230   0.6237   0.6274   0.6290
     0.6309   0.6340   0.6356   0.6381   0.6429   0.6455   0.6461   0.6479
     0.6486   0.6511   0.6545   0.6587   0.6698   0.6750   0.6855   0.6864
     0.6872   0.6924   0.7015   0.7063   0.7162   0.7186   0.7205   0.7235
     0.7303   0.7399   0.7452   0.7465   0.7484   0.7517   0.7532   0.7538
     0.7555   0.7574   0.7635   0.7708   0.7762   0.7846   0.7977   0.8035
     0.8049   0.8097   0.8197   0.8233   0.8235   0.8246   0.8260   0.8268
     0.8298   0.8328   0.8358   0.8376   0.8388   0.8395   0.8409   0.8415
     0.8432   0.8450   0.8459   0.8470   0.8487   0.8521   0.8540   0.8557
     0.8659   0.8712   0.8732   0.8741   0.8792   0.8850   0.8893   0.8994
     0.9027   0.9082   0.9195   0.9227   0.9237   0.9244   0.9251   0.9306
     0.9374   0.9411   0.9456   0.9482   0.9553   0.9575   0.9578   0.9603
     0.9697   0.9761   0.9795   0.9808   0.9836   0.9840   0.9849   0.9893
     0.9964   0.9992   1.0041   1.0148   1.0168   1.0224   1.0231   1.0239
     1.0242   1.0292   1.0362   1.0397   1.0752   1.0796   1.0842   1.0973
     1.1149   1.1166   1.1196   1.1216   1.2568   1.5360   1.5375   1.5464
     1.5574   1.7060   1.7447   1.7844   1.7918   1.7957   1.7994   1.8140
     1.8344   2.0938   2.1094   2.1351   2.2031   2.3343   2.3371   2.3473
     2.3502   2.3735   2.6894   2.6896   2.7018   2.7231   2.9825   3.0231
     3.1894   3.2105   3.2694   3.2901   3.4070   3.4117   3.4446   3.4480
     3.5681   3.5710   3.5899   3.6253   3.7343   3.7557   4.0358   4.1205
     4.1679   4.1981   4.2519   4.2927   4.3249   4.3372   4.3630   4.4045
     4.4350   4.4829   4.5033   4.5160   4.5298   4.5419   4.5556   4.5798
     4.5961   4.6084   4.6716   4.7327   4.8618   4.8759   4.9833   4.9932
     5.0460   5.1124   5.1262   5.1738   5.3303   5.4705   5.4878   5.5009
     5.5159   5.5640   5.5823   5.6403   5.7454   5.8127   5.8684   6.1016
     6.1131   6.1761   6.3463   6.5649   6.5918   6.6068   6.6617   6.7160
     6.7441   6.9996   7.0333   7.0715   7.1142   7.1311   7.1332   7.1465
     7.1978   7.2124   7.3111   7.3294   7.3580   7.3709   7.4210   7.4402
     7.4873   7.5138   7.5234   7.5396   7.5861   7.6431   7.6749   7.7756
     7.7882   7.9875   8.0296   8.0518   8.1834   8.2770   8.2879   8.3251
     8.3313   8.3642   8.5216   8.5272   8.5356   8.5438   8.5821   8.5934
     8.6703   8.7701   8.7830   8.8138   8.8649   8.9362   8.9505   8.9835
     9.0269   9.0284   9.0428   9.0663   9.0936   9.1217   9.1922   9.2368
     9.4030

          k =-0.5000-0.2165 0.0000 (256328 PWs)   bands (ev):

   -23.9095 -19.2363 -16.9911 -16.1632 -15.9684 -15.6100 -15.1734 -14.6858
   -14.0291 -13.4479 -12.7165 -12.5454 -12.3340 -12.0700 -11.9659 -11.8702
   -11.5281 -11.0800 -10.7588 -10.0296  -9.7492  -9.5431  -9.3805  -8.7169
    -8.5908  -8.4029  -7.6236  -7.0530  -6.6422  -6.4265  -5.9765  -5.7520
    -5.6823  -5.6789  -5.6690  -5.6501  -5.6420  -5.4298  -5.3999  -5.3077
    -5.0960  -4.8727  -4.8300  -4.7690  -4.7436  -4.7130  -4.7068  -4.6797
    -4.6743  -4.6272  -4.6013  -4.4529  -4.4193  -4.3875  -4.3039  -4.1761
    -4.1549  -4.0626  -4.0362  -3.8509  -3.7993  -3.7820  -3.6939  -3.6648
    -3.6295  -3.5800  -3.3232  -3.1925  -3.1238  -3.0715  -3.0681  -3.0677
    -3.0469  -3.0436  -3.0262  -3.0096  -2.9662  -2.9158  -2.7494  -2.6199
    -2.5896  -2.5760  -2.5618  -2.5578  -2.5336  -2.5111  -2.4807  -2.4463
    -2.3033  -2.2980  -2.2905  -2.2827  -2.2214  -2.1843  -2.1289  -2.0769
    -2.0729  -2.0607  -2.0131  -1.9917  -1.9878  -1.9837  -1.9820  -1.9646
    -1.9498  -1.9375  -1.9322  -1.9290  -1.9196  -1.9192  -1.8874  -1.8856
    -1.8806  -1.8771  -1.8737  -1.8716  -1.8675  -1.8606  -1.8575  -1.8518
    -1.8498  -1.8496  -1.8467  -1.8053  -1.8031  -1.7979  -1.7938  -1.7700
    -1.7350  -1.7337  -1.7228  -1.7175  -1.6848  -1.6835  -1.6811  -1.6791
    -1.6700  -1.6645  -1.6570  -1.6451  -1.6358  -1.6300  -1.6186  -1.6146
    -1.6121  -1.6095  -1.6073  -1.6043  -1.6034  -1.6025  -1.5812  -1.5689
    -1.5558  -1.5544  -1.5444  -1.5430  -1.5394  -1.5373  -1.5343  -1.5339
    -1.5290  -1.5265  -1.5243  -1.5197  -1.5125  -1.4986  -1.4246  -1.3829
    -1.3794  -1.3679  -1.3588  -1.3451  -1.3438  -1.3434  -1.3409  -1.2857
    -1.2773  -1.2674  -1.2662  -1.2585  -1.2572  -1.2558  -1.2505  -1.2495
    -1.2486  -1.2458  -1.2243  -1.1961  -1.1936  -1.1915  -1.1883  -1.1858
    -1.1811  -1.1706  -1.1689  -1.1632  -1.1573  -1.1507  -1.1407  -1.0961
    -1.0848  -1.0698  -1.0660  -1.0513  -1.0459  -1.0310  -1.0229  -0.9973
    -0.9923  -0.9888  -0.9826  -0.9430  -0.9412  -0.9406  -0.9389  -0.9250
    -0.9243  -0.9165  -0.9116  -0.9058  -0.8977  -0.8883  -0.8866  -0.8822
    -0.8814  -0.8784  -0.8762  -0.8475  -0.8368  -0.8213  -0.8179  -0.7738
    -0.7720  -0.7610  -0.7596  -0.7500  -0.7487  -0.7445  -0.7432  -0.7365
    -0.7328  -0.7309  -0.7278  -0.6896  -0.6646  -0.6580  -0.6535  -0.6510
    -0.6479  -0.6451  -0.6435  -0.6425  -0.6407  -0.6372  -0.6327  -0.6070
    -0.6046  -0.6028  -0.6019  -0.5965  -0.5927  -0.5908  -0.5893  -0.5874
    -0.5849  -0.5843  -0.5820  -0.5632  -0.5383  -0.5265  -0.5200  -0.5188
    -0.5099  -0.5038  -0.4981  -0.4928  -0.4795  -0.4570  -0.4480  -0.4410
    -0.4345  -0.4285  -0.4172  -0.4139  -0.4113  -0.4107  -0.4081  -0.4058
    -0.4044  -0.4006  -0.3980  -0.3963  -0.3951  -0.3935  -0.3916  -0.3873
    -0.3856  -0.3843  -0.3822  -0.3794  -0.3765  -0.3726  -0.3671  -0.3650
    -0.3622  -0.3618  -0.3446  -0.3443  -0.3426  -0.3411  -0.3335  -0.3272
    -0.3268  -0.3187  -0.3161  -0.3103  -0.2862  -0.2811  -0.2790  -0.2760
    -0.2728  -0.2505  -0.2481  -0.2437  -0.2417  -0.2229  -0.1800  -0.1737
    -0.1707  -0.1692  -0.1648  -0.1583  -0.1529  -0.1506  -0.1469  -0.1421
    -0.1401  -0.1361  -0.1303  -0.1282  -0.1252  -0.1231  -0.1197  -0.1181
    -0.1155  -0.1138  -0.1117  -0.1070  -0.1048  -0.0730  -0.0690  -0.0590
    -0.0463  -0.0427  -0.0401  -0.0370  -0.0324  -0.0221  -0.0218  -0.0207
    -0.0202  -0.0075  -0.0008   0.0021   0.0056   0.0097   0.0133   0.0165
     0.0198   0.0264   0.0291   0.0360   0.0448   0.0528   0.0539   0.0587
     0.0597   0.0677   0.0715   0.0722   0.0749   0.0768   0.0798   0.0822
     0.0830   0.0856   0.0907   0.0938   0.1036   0.1041   0.1129   0.1152
     0.1236   0.1297   0.1416   0.1518   0.1541   0.1695   0.1720   0.1785
     0.1859   0.1901   0.1932   0.1944   0.1961   0.1977   0.2035   0.2042
     0.2169   0.2239   0.2314   0.2349   0.2367   0.2372   0.2384   0.2397
     0.2425   0.2498   0.2555   0.2773   0.2843   0.2903   0.2947   0.3025
     0.3168   0.3209   0.3218   0.3245   0.3311   0.3494   0.3512   0.3534
     0.3581   0.3605   0.3753   0.3846   0.3889   0.3953   0.4113   0.4304
     0.4323   0.4335   0.4360   0.4534   0.4596   0.4626   0.4677   0.4727
     0.4850   0.4924   0.5031   0.5084   0.5091   0.5179   0.5226   0.5254
     0.5333   0.5377   0.5429   0.5462   0.5480   0.5510   0.5517   0.5522
     0.5539   0.5552   0.5558   0.5578   0.5591   0.5635   0.5660   0.5700
     0.5718   0.5757   0.5802   0.5868   0.5884   0.5943   0.5978   0.6025
     0.6086   0.6135   0.6181   0.6199   0.6229   0.6263   0.6371   0.6392
     0.6411   0.6457   0.6500   0.6513   0.6542   0.6565   0.6778   0.6823
     0.6863   0.6941   0.6965   0.6994   0.7016   0.7036   0.7090   0.7174
     0.7235   0.7285   0.7291   0.7316   0.7382   0.7546   0.7571   0.7676
     0.7688   0.7721   0.7739   0.7754   0.7792   0.7809   0.7872   0.7895
     0.7917   0.7922   0.7950   0.7965   0.7979   0.7984   0.8202   0.8271
     0.8329   0.8445   0.8492   0.8534   0.8555   0.8580   0.8597   0.8597
     0.8631   0.8643   0.8656   0.8671   0.8739   0.8771   0.8835   0.8858
     0.8869   0.8927   0.8934   0.8964   0.8983   0.8993   0.8996   0.9029
     0.9049   0.9082   0.9085   0.9097   0.9123   0.9152   0.9207   0.9243
     0.9251   0.9302   0.9482   0.9500   0.9548   0.9636   0.9655   0.9706
     0.9722   0.9787   0.9833   0.9867   0.9889   0.9916   0.9952   1.0003
     1.0085   1.0146   1.0293   1.0382   1.0426   1.0642   1.0774   1.0787
     1.0806   1.0835   1.0864   1.1040   1.1071   1.1120   1.1153   1.1210
     1.1228   1.1264   1.1277   1.1316   1.1423   1.1804   1.3077   1.3400
     1.3477   1.3508   1.3737   1.8300   1.8565   1.9003   1.9092   2.0014
     2.0680   2.0710   2.0792   2.2739   2.2865   2.2985   2.3218   2.3580
     2.5888   2.6041   2.6532   2.6918   2.9524   2.9583   2.9614   2.9629
     3.1375   3.1530   3.1665   3.2067   3.4335   3.4384   3.4424   3.4479
     3.6763   3.6922   3.7263   3.7353   3.7433   3.7949   3.9036   3.9205
     3.9460   4.0218   4.0297   4.0503   4.1028   4.1251   4.1927   4.2040
     4.2772   4.3524   4.4533   4.5662   4.6417   4.6507   4.6610   4.6896
     4.7151   4.7311   4.7533   4.7844   4.8185   4.8771   4.9129   4.9210
     5.0002   5.0969   5.2253   5.2375   5.2448   5.2520   5.3729   5.4216
     5.4473   5.5346   5.6253   6.1198   6.2072   6.3082   6.3287   6.3372
     6.3739   6.4613   6.5657   6.6135   6.6160   6.6490   6.6565   6.6659
     6.7023   6.7328   6.7624   6.8617   6.8780   6.8842   6.8879   6.8910
     6.9290   7.0281   7.1039   7.1207   7.1881   7.3229   7.4463   7.5066
     7.5729   7.6075   7.6690   7.7399   7.7537   7.7634   7.7737   7.9096
     7.9829   8.2010   8.2665   8.3410   8.3533   8.3732   8.3862   8.3906
     8.4233   8.4288   8.4687   8.4722   8.4769   8.4886   8.5113   8.5383
     8.6395   8.6469   8.6644   8.6705   8.6829   8.6965   8.7830   8.8724
     8.8829   8.9612   8.9703   9.0625   9.0864   9.1469   9.1816   9.3246
     9.3864

     the Fermi energy is     2.8318 ev

!    total energy              =  -12583.60248648 Ry
     Harris-Foulkes estimate   =  -12583.60248649 Ry
     estimated scf accuracy    <          8.4E-09 Ry

     The total energy is the sum of the following terms:

     one-electron contribution = -110503.70498771 Ry
     hartree contribution      =   56574.60312003 Ry
     xc contribution           =   -4406.29111054 Ry
     ewald contribution        =   45757.89906746 Ry
     Dispersion Correction     =      -2.82897803 Ry
     smearing contrib. (-TS)   =      -3.27959769 Ry

     convergence has been achieved in  59 iterations

     Writing output data file gc.save
 
     init_run     :    169.84s CPU    184.32s WALL (       1 calls)
     electrons    :  25519.68s CPU  27332.57s WALL (       1 calls)

     Called by init_run:
     wfcinit      :    166.92s CPU    179.42s WALL (       1 calls)
     potinit      :      0.96s CPU      1.09s WALL (       1 calls)

     Called by electrons:
     c_bands      :  22747.57s CPU  24332.49s WALL (      59 calls)
     sum_band     :   2222.48s CPU   2364.72s WALL (      59 calls)
     v_of_rho     :      7.60s CPU      9.37s WALL (      60 calls)
     newd         :     20.66s CPU     39.75s WALL (      60 calls)
     mix_rho      :    521.26s CPU    586.66s WALL (      59 calls)

     Called by c_bands:
     init_us_2    :    108.53s CPU    110.22s WALL (     714 calls)
     cegterg      :  22303.86s CPU  23869.96s WALL (     354 calls)

     Called by sum_band:
     sum_band:bec :      6.30s CPU      7.04s WALL (     354 calls)
     addusdens    :     30.40s CPU     47.37s WALL (      59 calls)

     Called by *egterg:
     h_psi        :   9059.23s CPU   9775.86s WALL (    2099 calls)
     s_psi        :   2208.48s CPU   2222.25s WALL (    2099 calls)
     g_psi        :     23.00s CPU     23.03s WALL (    1739 calls)
     cdiaghg      :   5604.28s CPU   5907.67s WALL (    2093 calls)

     Called by h_psi:
     add_vuspsi   :   2211.44s CPU   2228.02s WALL (    2099 calls)

     General routines
     calbec       :   3126.71s CPU   3150.86s WALL (    2453 calls)
     fft          :      6.10s CPU      7.55s WALL (     779 calls)
     ffts         :    226.77s CPU    273.78s WALL (   32848 calls)
     fftw         :   4676.00s CPU   5396.49s WALL ( 1511398 calls)
     davcio       :      0.31s CPU      6.95s WALL (       6 calls)
 
     Parallel routines
     fft_scatter  :   2480.88s CPU   2811.22s WALL ( 1545025 calls)
 
     PWSCF        :     7h 8m CPU        7h38m WALL

 
   This run was terminated on:  11: 9:40  22Sep2017            

=------------------------------------------------------------------------------=
   JOB DONE.
=------------------------------------------------------------------------------=
