
     Program PWSCF v.5.4.0 starts on 27Apr2017 at 16:21:54 

     This program is part of the open-source Quantum ESPRESSO suite
     for quantum simulation of materials; please cite
         "P. Giannozzi et al., J. Phys.:Condens. Matter 21 395502 (2009);
          URL http://www.quantum-espresso.org", 
     in publications or presentations arising from this work. More details at
     http://www.quantum-espresso.org/quote

     Parallel version (MPI & OpenMP), running on      56 processor cores
     Number of MPI processes:                56
     Threads/MPI process:                     1
     R & G space division:  proc/nbgrp/npool/nimage =      56
     Waiting for input...
     Reading input from standard input
Warning: card &IONS ignored
Warning: card / ignored

     Current dimensions of program PWSCF are:
     Max number of different atomic species (ntypx) = 10
     Max number of k-points (npk) =  40000
     Max angular momentum in pseudopotentials (lmaxx) =  3

     -------------------------------------
     Parameters for Dispersion Correction:
     -------------------------------------
       atom      VdW radius       C_6     

        Cu         2.952        374.666
        C_h        2.744         60.710
        C          2.744         60.710

     Subspace diagonalization in iterative solution of the eigenvalue problem:
     one sub-group per band group will be used
     scalapack distributed-memory algorithm (size of sub-group:  5*  5 procs)

 
     Parallelization info
     --------------------
     sticks:   dense  smooth     PW     G-vecs:    dense   smooth      PW
     Min         204     204     54                36612    36612    4962
     Max         205     205     55                36617    36617    4968
     Sum       11433   11433   3039              2050409  2050409  278033
 


     bravais-lattice index     =            0
     lattice parameter (alat)  =      13.9425  a.u.
     unit-cell volume          =   21209.0878 (a.u.)^3
     number of atoms/cell      =          148
     number of atomic types    =            3
     number of electrons       =      1292.00
     number of Kohn-Sham states=          775
     kinetic-energy cutoff     =      80.0000  Ry
     charge density cutoff     =     320.0000  Ry
     convergence threshold     =      1.0E-08
     mixing beta               =       0.7000
     number of iterations used =            8  local-TF  mixing
     Exchange-correlation      =  SLA  PW   PBX  PBC ( 1  4  3  4 0 0)

     celldm(1)=  13.942539  celldm(2)=   0.000000  celldm(3)=   0.000000
     celldm(4)=   0.000000  celldm(5)=   0.000000  celldm(6)=   0.000000

     crystal axes: (cart. coord. in units of alat)
               a(1) = (   1.000000   0.000000   0.000000 )  
               a(2) = (   0.000000   2.309401   0.000000 )  
               a(3) = (   0.000000   0.000000   3.388418 )  

     reciprocal axes: (cart. coord. in units 2 pi/alat)
               b(1) = (  1.000000  0.000000  0.000000 )  
               b(2) = (  0.000000  0.433013  0.000000 )  
               b(3) = (  0.000000  0.000000  0.295123 )  


     PseudoPot. # 1 for Cu read from file:
     /home/549/hxw549/Short/pseudopotentials/Cu.pbe-n-van_ak.UPF
     MD5 check sum: 601f7c30f7467666bec936e0661ce3e1
     Pseudo is Ultrasoft + core correction, Zval = 11.0
     Generated by new atomic code, or converted to UPF format
     Using radial grid of  867 points,  6 beta functions with: 
                l(1) =   0
                l(2) =   0
                l(3) =   1
                l(4) =   1
                l(5) =   2
                l(6) =   2
     Q(r) pseudized with  8 coefficients,  rinner =    1.400   1.400   1.400
                                                       1.400   1.400

     PseudoPot. # 2 for C  read from file:
     /home/549/hxw549/Short/pseudopotentials/C.star1s-pbe-mt_gipaw.UPF
     MD5 check sum: ef0cb3dee31bd9e4ba2a832a2c716264
     Pseudo is Norm-conserving, Zval =  5.0
     Generated by new atomic code, or converted to UPF format
     Using radial grid of 1073 points,  1 beta functions with: 
                l(1) =   0

     PseudoPot. # 3 for C  read from file:
     /home/549/hxw549/Short/pseudopotentials/C.pbe-mt_gipaw.UPF
     MD5 check sum: 5ac2f21f2c440b14befe521540822c15
     Pseudo is Norm-conserving, Zval =  4.0
     Generated by new atomic code, or converted to UPF format
     Using radial grid of 1073 points,  1 beta functions with: 
                l(1) =   0

     atomic species   valence    mass     pseudopotential
        Cu            11.00    63.54600     Cu( 1.00)
        C_h            5.00    12.01070     C ( 1.00)
        C              4.00    12.01070     C ( 1.00)

      2 Sym. Ops. (no inversion) found


                                    s                        frac. trans.

      isym =  1     identity                                     

 cryst.   s( 1) = (     1          0          0      )
                  (     0          1          0      )
                  (     0          0          1      )

 cart.    s( 1) = (  1.0000000  0.0000000  0.0000000 )
                  (  0.0000000  1.0000000  0.0000000 )
                  (  0.0000000  0.0000000  1.0000000 )


      isym =  2     inv. 180 deg rotation - cart. axis [1,0,0]   

 cryst.   s( 2) = (    -1          0          0      )
                  (     0          1          0      )
                  (     0          0          1      )

 cart.    s( 2) = ( -1.0000000  0.0000000  0.0000000 )
                  (  0.0000000  1.0000000  0.0000000 )
                  (  0.0000000  0.0000000  1.0000000 )


   Cartesian axes

     site n.     atom                  positions (alat units)
         1           Cu  tau(   1) = (   0.0000000   0.0000567   0.9971194  )
         2           Cu  tau(   2) = (   0.2499927   0.2309760   0.9972946  )
         3           Cu  tau(   3) = (   0.5000000   0.0000313   0.9971490  )
         4           Cu  tau(   4) = (   0.7500073   0.2309760   0.9972946  )
         5           Cu  tau(   5) = (   0.0000000   0.4618437   0.9973425  )
         6           Cu  tau(   6) = (   0.2499840   0.6927701   0.9971914  )
         7           Cu  tau(   7) = (   0.5000000   0.4618722   0.9973119  )
         8           Cu  tau(   8) = (   0.7500160   0.6927701   0.9971914  )
         9           Cu  tau(   9) = (   0.0000000   0.9237521   0.9970621  )
        10           Cu  tau(  10) = (   0.2500157   1.1547420   0.9971373  )
        11           Cu  tau(  11) = (   0.5000000   0.9237453   0.9970727  )
        12           Cu  tau(  12) = (   0.7499843   1.1547420   0.9971373  )
        13           Cu  tau(  13) = (   0.0000000   1.3856555   0.9972830  )
        14           Cu  tau(  14) = (   0.2500029   1.6165618   0.9973242  )
        15           Cu  tau(  15) = (   0.5000000   1.3857014   0.9973005  )
        16           Cu  tau(  16) = (   0.7499971   1.6165618   0.9973242  )
        17           Cu  tau(  17) = (   0.0000000   1.8474941   0.9971969  )
        18           Cu  tau(  18) = (   0.2500043   2.0784518   0.9970745  )
        19           Cu  tau(  19) = (   0.5000000   1.8474499   0.9971773  )
        20           Cu  tau(  20) = (   0.7499957   2.0784518   0.9970745  )
        21           Cu  tau(  21) = (   0.0000000   0.2308065   1.2457643  )
        22           Cu  tau(  22) = (   0.2499892  -0.0001010   1.2455764  )
        23           Cu  tau(  23) = (   0.5000000   0.2308938   1.2456746  )
        24           Cu  tau(  24) = (   0.7500108  -0.0001010   1.2455764  )
        25           Cu  tau(  25) = (   0.0000000   0.6929786   1.2456406  )
        26           Cu  tau(  26) = (   0.2499874   0.4619293   1.2457459  )
        27           Cu  tau(  27) = (   0.5000000   0.6929012   1.2456074  )
        28           Cu  tau(  28) = (   0.7500126   0.4619293   1.2457459  )
        29           Cu  tau(  29) = (   0.0000000   1.1546142   1.2455676  )
        30           Cu  tau(  30) = (   0.2499981   0.9237849   1.2455149  )
        31           Cu  tau(  31) = (   0.5000000   1.1545763   1.2455800  )
        32           Cu  tau(  32) = (   0.7500019   0.9237849   1.2455149  )
        33           Cu  tau(  33) = (   0.0000000   1.6166029   1.2456910  )
        34           Cu  tau(  34) = (   0.2500161   1.3855492   1.2457134  )
        35           Cu  tau(  35) = (   0.5000000   1.6166555   1.2458019  )
        36           Cu  tau(  36) = (   0.7499839   1.3855492   1.2457134  )
        37           Cu  tau(  37) = (   0.0000000   2.0784993   1.2455162  )
        38           Cu  tau(  38) = (   0.2500161   1.8476387   1.2456210  )
        39           Cu  tau(  39) = (   0.5000000   2.0784755   1.2455152  )
        40           Cu  tau(  40) = (   0.7499839   1.8476387   1.2456210  )
        41           Cu  tau(  41) = (   0.0000000  -0.0003182   1.4954305  )
        42           Cu  tau(  42) = (   0.2500224   0.2307186   1.4951678  )
        43           Cu  tau(  43) = (   0.5000000  -0.0002059   1.4952775  )
        44           Cu  tau(  44) = (   0.7499776   0.2307186   1.4951678  )
        45           Cu  tau(  45) = (   0.0000000   0.4620254   1.4950571  )
        46           Cu  tau(  46) = (   0.2500339   0.6931225   1.4952807  )
        47           Cu  tau(  47) = (   0.5000000   0.4619896   1.4952144  )
        48           Cu  tau(  48) = (   0.7499661   0.6931225   1.4952807  )
        49           Cu  tau(  49) = (   0.0000000   0.9238798   1.4954544  )
        50           Cu  tau(  50) = (   0.2499708   1.1544329   1.4953374  )
        51           Cu  tau(  51) = (   0.5000000   0.9237633   1.4954072  )
        52           Cu  tau(  52) = (   0.7500292   1.1544329   1.4953374  )
        53           Cu  tau(  53) = (   0.0000000   1.3854453   1.4952066  )
        54           Cu  tau(  54) = (   0.2499861   1.6167017   1.4951298  )
        55           Cu  tau(  55) = (   0.5000000   1.3853760   1.4951346  )
        56           Cu  tau(  56) = (   0.7500139   1.6167017   1.4951298  )
        57           Cu  tau(  57) = (   0.0000000   1.8477718   1.4952308  )
        58           Cu  tau(  58) = (   0.2499930   2.0785254   1.4954090  )
        59           Cu  tau(  59) = (   0.5000000   1.8478762   1.4953503  )
        60           Cu  tau(  60) = (   0.7500070   2.0785254   1.4954090  )
        61           Cu  tau(  61) = (   0.0000000   0.2310733   1.7440777  )
        62           Cu  tau(  62) = (   0.2501089  -0.0001294   1.7450479  )
        63           Cu  tau(  63) = (   0.5000000   0.2306045   1.7445985  )
        64           Cu  tau(  64) = (   0.7498911  -0.0001294   1.7450479  )
        65           Cu  tau(  65) = (   0.0000000   0.6927994   1.7446059  )
        66           Cu  tau(  66) = (   0.2502918   0.4619532   1.7441197  )
        67           Cu  tau(  67) = (   0.5000000   0.6931011   1.7451318  )
        68           Cu  tau(  68) = (   0.7497082   0.4619532   1.7441197  )
        69           Cu  tau(  69) = (   0.0000000   1.1545789   1.7453503  )
        70           Cu  tau(  70) = (   0.2500220   0.9237908   1.7453835  )
        71           Cu  tau(  71) = (   0.5000000   1.1545999   1.7449118  )
        72           Cu  tau(  72) = (   0.7499780   0.9237908   1.7453835  )
        73           Cu  tau(  73) = (   0.0000000   1.6167791   1.7444075  )
        74           Cu  tau(  74) = (   0.2497438   1.3855115   1.7442733  )
        75           Cu  tau(  75) = (   0.5000000   1.6164906   1.7439233  )
        76           Cu  tau(  76) = (   0.7502562   1.3855115   1.7442733  )
        77           Cu  tau(  77) = (   0.0000000   2.0782721   1.7455014  )
        78           Cu  tau(  78) = (   0.2498426   1.8476765   1.7447807  )
        79           Cu  tau(  79) = (   0.5000000   2.0787016   1.7454002  )
        80           Cu  tau(  80) = (   0.7501574   1.8476765   1.7447807  )
        81           Cu  tau(  81) = (   0.0000000   0.0010732   1.9906710  )
        82           Cu  tau(  82) = (   0.2503054   0.2314650   1.9904877  )
        83           Cu  tau(  83) = (   0.5000000   0.0001335   1.9924670  )
        84           Cu  tau(  84) = (   0.7496946   0.2314650   1.9904877  )
        85           Cu  tau(  85) = (   0.0000000   0.4618379   1.9901778  )
        86           Cu  tau(  86) = (   0.2508441   0.6921348   1.9910282  )
        87           Cu  tau(  87) = (   0.5000000   0.4613052   1.9913358  )
        88           Cu  tau(  88) = (   0.7491559   0.6921348   1.9910282  )
        89           Cu  tau(  89) = (   0.0000000   0.9224699   1.9915918  )
        90           Cu  tau(  90) = (   0.2491275   1.1552920   1.9912642  )
        91           Cu  tau(  91) = (   0.5000000   0.9247757   1.9920574  )
        92           Cu  tau(  92) = (   0.7508725   1.1552920   1.9912642  )
        93           Cu  tau(  93) = (   0.0000000   1.3865904   1.9916296  )
        94           Cu  tau(  94) = (   0.2499532   1.6162906   1.9903050  )
        95           Cu  tau(  95) = (   0.5000000   1.3858063   1.9901800  )
        96           Cu  tau(  96) = (   0.7500468   1.6162906   1.9903050  )
        97           Cu  tau(  97) = (   0.0000000   1.8468318   1.9923212  )
        98           Cu  tau(  98) = (   0.2497561   2.0783183   1.9915134  )
        99           Cu  tau(  99) = (   0.5000000   1.8467805   1.9903847  )
       100           Cu  tau( 100) = (   0.7502439   2.0783183   1.9915134  )
       101           C   tau( 101) = (   0.0000000   0.0962962   2.3888871  )
       102           C   tau( 102) = (   0.0000000   0.2886925   2.3900713  )
       103           C   tau( 103) = (   0.1666323   0.0000435   2.3878440  )
       104           C   tau( 104) = (   0.1664900   0.3848966   2.3886743  )
       105           C   tau( 105) = (   0.3331238   0.0962174   2.3860158  )
       106           C   tau( 106) = (   0.3331280   0.2886629   2.3856823  )
       107           C   tau( 107) = (   0.5000000  -0.0000818   2.3845687  )
       108           C   tau( 108) = (   0.5000000   0.3849277   2.3842391  )
       109           C   tau( 109) = (   0.6668762   0.0962174   2.3860158  )
       110           C   tau( 110) = (   0.6668720   0.2886629   2.3856823  )
       111           C   tau( 111) = (   0.8333677   0.0000435   2.3878440  )
       112           C   tau( 112) = (   0.8335100   0.3848966   2.3886743  )
       113           C   tau( 113) = (   0.0000000   0.6735163   2.3892509  )
       114           C   tau( 114) = (   0.0000000   0.8659398   2.3870960  )
       115           C   tau( 115) = (   0.1664759   0.5773226   2.3882842  )
       116           C   tau( 116) = (   0.1667428   0.9622141   2.3870264  )
       117           C   tau( 117) = (   0.3332094   0.6735984   2.3858047  )
       118           C   tau( 118) = (   0.3332031   0.8660537   2.3866148  )
       119           C   tau( 119) = (   0.5000000   0.5773685   2.3848465  )
       120           C   tau( 120) = (   0.5000000   0.9623380   2.3860825  )
       121           C   tau( 121) = (   0.6667906   0.6735984   2.3858047  )
       122           C   tau( 122) = (   0.6667969   0.8660537   2.3866148  )
       123           C   tau( 123) = (   0.8335241   0.5773226   2.3882842  )
       124           C   tau( 124) = (   0.8332572   0.9622141   2.3870264  )
       125           C   tau( 125) = (   0.0000000   1.2508867   2.3852683  )
       126           C   tau( 126) = (   0.0000000   1.4433300   2.3840871  )
       127           C   tau( 127) = (   0.1667360   1.1546708   2.3859697  )
       128           C   tau( 128) = (   0.1668939   1.5396104   2.3857176  )
       129           C   tau( 129) = (   0.3335095   1.2509657   2.3878953  )
       130           C   tau( 130) = (   0.3334866   1.4433958   2.3886602  )
       131           C   tau( 131) = (   0.5000000   1.1547731   2.3885512  )
       132           C   tau( 132) = (   0.5000000   1.5396099   2.3901428  )
       133           C   tau( 133) = (   0.6664905   1.2509657   2.3878953  )
       134           C   tau( 134) = (   0.6665134   1.4433958   2.3886602  )
       135           C   tau( 135) = (   0.8332640   1.1546708   2.3859697  )
       136           C   tau( 136) = (   0.8331061   1.5396104   2.3857176  )
       137           C   tau( 137) = (   0.0000000   1.8283510   2.3842019  )
       138           C   tau( 138) = (   0.0000000   2.0207949   2.3863399  )
       139           C   tau( 139) = (   0.1668959   1.7320513   2.3858703  )
       140           C   tau( 140) = (   0.1666186   2.1169980   2.3865340  )
       141           C   tau( 141) = (   0.3334155   1.8282368   2.3882160  )
       142           C   tau( 142) = (   0.3334352   2.0206763   2.3869561  )
       143           C   tau( 143) = (   0.5000000   1.7319961   2.3895398  )
       144           C   tau( 144) = (   0.5000000   2.1168754   2.3870198  )
       145           C   tau( 145) = (   0.6665845   1.8282368   2.3882160  )
       146           C   tau( 146) = (   0.6665648   2.0206763   2.3869561  )
       147           C   tau( 147) = (   0.8331041   1.7320513   2.3858703  )
       148           C   tau( 148) = (   0.8333814   2.1169980   2.3865340  )

   Crystallographic axes

     site n.     atom                  positions (cryst. coord.)
         1           Cu  tau(   1) = (  0.0000000  0.0000246  0.2942728  )
         2           Cu  tau(   2) = (  0.2499927  0.1000156  0.2943245  )
         3           Cu  tau(   3) = (  0.5000000  0.0000135  0.2942816  )
         4           Cu  tau(   4) = (  0.7500073  0.1000156  0.2943245  )
         5           Cu  tau(   5) = (  0.0000000  0.1999842  0.2943387  )
         6           Cu  tau(   6) = (  0.2499840  0.2999782  0.2942941  )
         7           Cu  tau(   7) = (  0.5000000  0.1999965  0.2943296  )
         8           Cu  tau(   8) = (  0.7500160  0.2999782  0.2942941  )
         9           Cu  tau(   9) = (  0.0000000  0.3999964  0.2942559  )
        10           Cu  tau(  10) = (  0.2500157  0.5000180  0.2942781  )
        11           Cu  tau(  11) = (  0.5000000  0.3999935  0.2942590  )
        12           Cu  tau(  12) = (  0.7499843  0.5000180  0.2942781  )
        13           Cu  tau(  13) = (  0.0000000  0.6000064  0.2943211  )
        14           Cu  tau(  14) = (  0.2500029  0.6999918  0.2943333  )
        15           Cu  tau(  15) = (  0.5000000  0.6000263  0.2943263  )
        16           Cu  tau(  16) = (  0.7499971  0.6999918  0.2943333  )
        17           Cu  tau(  17) = (  0.0000000  0.7999884  0.2942957  )
        18           Cu  tau(  18) = (  0.2500043  0.8999960  0.2942596  )
        19           Cu  tau(  19) = (  0.5000000  0.7999693  0.2942899  )
        20           Cu  tau(  20) = (  0.7499957  0.8999960  0.2942596  )
        21           Cu  tau(  21) = (  0.0000000  0.0999421  0.3676537  )
        22           Cu  tau(  22) = (  0.2499892 -0.0000437  0.3675982  )
        23           Cu  tau(  23) = (  0.5000000  0.0999800  0.3676272  )
        24           Cu  tau(  24) = (  0.7500108 -0.0000437  0.3675982  )
        25           Cu  tau(  25) = (  0.0000000  0.3000685  0.3676172  )
        26           Cu  tau(  26) = (  0.2499874  0.2000213  0.3676482  )
        27           Cu  tau(  27) = (  0.5000000  0.3000350  0.3676073  )
        28           Cu  tau(  28) = (  0.7500126  0.2000213  0.3676482  )
        29           Cu  tau(  29) = (  0.0000000  0.4999626  0.3675956  )
        30           Cu  tau(  30) = (  0.2499981  0.4000106  0.3675800  )
        31           Cu  tau(  31) = (  0.5000000  0.4999462  0.3675992  )
        32           Cu  tau(  32) = (  0.7500019  0.4000106  0.3675800  )
        33           Cu  tau(  33) = (  0.0000000  0.7000096  0.3676320  )
        34           Cu  tau(  34) = (  0.2500161  0.5999604  0.3676386  )
        35           Cu  tau(  35) = (  0.5000000  0.7000324  0.3676647  )
        36           Cu  tau(  36) = (  0.7499839  0.5999604  0.3676386  )
        37           Cu  tau(  37) = (  0.0000000  0.9000166  0.3675804  )
        38           Cu  tau(  38) = (  0.2500161  0.8000510  0.3676114  )
        39           Cu  tau(  39) = (  0.5000000  0.9000063  0.3675801  )
        40           Cu  tau(  40) = (  0.7499839  0.8000510  0.3676114  )
        41           Cu  tau(  41) = (  0.0000000 -0.0001378  0.4413359  )
        42           Cu  tau(  42) = (  0.2500224  0.0999041  0.4412583  )
        43           Cu  tau(  43) = (  0.5000000 -0.0000892  0.4412907  )
        44           Cu  tau(  44) = (  0.7499776  0.0999041  0.4412583  )
        45           Cu  tau(  45) = (  0.0000000  0.2000629  0.4412257  )
        46           Cu  tau(  46) = (  0.2500339  0.3001308  0.4412917  )
        47           Cu  tau(  47) = (  0.5000000  0.2000473  0.4412721  )
        48           Cu  tau(  48) = (  0.7499661  0.3001308  0.4412917  )
        49           Cu  tau(  49) = (  0.0000000  0.4000517  0.4413429  )
        50           Cu  tau(  50) = (  0.2499708  0.4998841  0.4413084  )
        51           Cu  tau(  51) = (  0.5000000  0.4000012  0.4413290  )
        52           Cu  tau(  52) = (  0.7500292  0.4998841  0.4413084  )
        53           Cu  tau(  53) = (  0.0000000  0.5999154  0.4412698  )
        54           Cu  tau(  54) = (  0.2499861  0.7000524  0.4412471  )
        55           Cu  tau(  55) = (  0.5000000  0.5998854  0.4412486  )
        56           Cu  tau(  56) = (  0.7500139  0.7000524  0.4412471  )
        57           Cu  tau(  57) = (  0.0000000  0.8001087  0.4412769  )
        58           Cu  tau(  58) = (  0.2499930  0.9000279  0.4413295  )
        59           Cu  tau(  59) = (  0.5000000  0.8001539  0.4413122  )
        60           Cu  tau(  60) = (  0.7500070  0.9000279  0.4413295  )
        61           Cu  tau(  61) = (  0.0000000  0.1000577  0.5147174  )
        62           Cu  tau(  62) = (  0.2501089 -0.0000560  0.5150037  )
        63           Cu  tau(  63) = (  0.5000000  0.0998547  0.5148711  )
        64           Cu  tau(  64) = (  0.7498911 -0.0000560  0.5150037  )
        65           Cu  tau(  65) = (  0.0000000  0.2999910  0.5148733  )
        66           Cu  tau(  66) = (  0.2502918  0.2000316  0.5147298  )
        67           Cu  tau(  67) = (  0.5000000  0.3001216  0.5150285  )
        68           Cu  tau(  68) = (  0.7497082  0.2000316  0.5147298  )
        69           Cu  tau(  69) = (  0.0000000  0.4999473  0.5150930  )
        70           Cu  tau(  70) = (  0.2500220  0.4000131  0.5151027  )
        71           Cu  tau(  71) = (  0.5000000  0.4999564  0.5149635  )
        72           Cu  tau(  72) = (  0.7499780  0.4000131  0.5151027  )
        73           Cu  tau(  73) = (  0.0000000  0.7000859  0.5148147  )
        74           Cu  tau(  74) = (  0.2497438  0.5999441  0.5147751  )
        75           Cu  tau(  75) = (  0.5000000  0.6999610  0.5146718  )
        76           Cu  tau(  76) = (  0.7502562  0.5999441  0.5147751  )
        77           Cu  tau(  77) = (  0.0000000  0.8999182  0.5151375  )
        78           Cu  tau(  78) = (  0.2498426  0.8000674  0.5149249  )
        79           Cu  tau(  79) = (  0.5000000  0.9001042  0.5151077  )
        80           Cu  tau(  80) = (  0.7501574  0.8000674  0.5149249  )
        81           Cu  tau(  81) = (  0.0000000  0.0004647  0.5874927  )
        82           Cu  tau(  82) = (  0.2503054  0.1002273  0.5874386  )
        83           Cu  tau(  83) = (  0.5000000  0.0000578  0.5880227  )
        84           Cu  tau(  84) = (  0.7496946  0.1002273  0.5874386  )
        85           Cu  tau(  85) = (  0.0000000  0.1999817  0.5873472  )
        86           Cu  tau(  86) = (  0.2508441  0.2997032  0.5875981  )
        87           Cu  tau(  87) = (  0.5000000  0.1997510  0.5876889  )
        88           Cu  tau(  88) = (  0.7491559  0.2997032  0.5875981  )
        89           Cu  tau(  89) = (  0.0000000  0.3994412  0.5877645  )
        90           Cu  tau(  90) = (  0.2491275  0.5002561  0.5876678  )
        91           Cu  tau(  91) = (  0.5000000  0.4004396  0.5879019  )
        92           Cu  tau(  92) = (  0.7508725  0.5002561  0.5876678  )
        93           Cu  tau(  93) = (  0.0000000  0.6004112  0.5877756  )
        94           Cu  tau(  94) = (  0.2499532  0.6998744  0.5873847  )
        95           Cu  tau(  95) = (  0.5000000  0.6000717  0.5873478  )
        96           Cu  tau(  96) = (  0.7500468  0.6998744  0.5873847  )
        97           Cu  tau(  97) = (  0.0000000  0.7997016  0.5879797  )
        98           Cu  tau(  98) = (  0.2497561  0.8999382  0.5877413  )
        99           Cu  tau(  99) = (  0.5000000  0.7996794  0.5874082  )
       100           Cu  tau( 100) = (  0.7502439  0.8999382  0.5877413  )
       101           C   tau( 101) = (  0.0000000  0.0416975  0.7050154  )
       102           C   tau( 102) = (  0.0000000  0.1250075  0.7053649  )
       103           C   tau( 103) = (  0.1666323  0.0000188  0.7047076  )
       104           C   tau( 104) = (  0.1664900  0.1666651  0.7049526  )
       105           C   tau( 105) = (  0.3331238  0.0416634  0.7041680  )
       106           C   tau( 106) = (  0.3331280  0.1249947  0.7040696  )
       107           C   tau( 107) = (  0.5000000 -0.0000354  0.7037410  )
       108           C   tau( 108) = (  0.5000000  0.1666786  0.7036437  )
       109           C   tau( 109) = (  0.6668762  0.0416634  0.7041680  )
       110           C   tau( 110) = (  0.6668720  0.1249947  0.7040696  )
       111           C   tau( 111) = (  0.8333677  0.0000188  0.7047076  )
       112           C   tau( 112) = (  0.8335100  0.1666651  0.7049526  )
       113           C   tau( 113) = (  0.0000000  0.2916411  0.7051228  )
       114           C   tau( 114) = (  0.0000000  0.3749629  0.7044868  )
       115           C   tau( 115) = (  0.1664759  0.2499880  0.7048375  )
       116           C   tau( 116) = (  0.1667428  0.4166509  0.7044663  )
       117           C   tau( 117) = (  0.3332094  0.2916767  0.7041058  )
       118           C   tau( 118) = (  0.3332031  0.3750123  0.7043448  )
       119           C   tau( 119) = (  0.5000000  0.2500079  0.7038229  )
       120           C   tau( 120) = (  0.5000000  0.4167046  0.7041877  )
       121           C   tau( 121) = (  0.6667906  0.2916767  0.7041058  )
       122           C   tau( 122) = (  0.6667969  0.3750123  0.7043448  )
       123           C   tau( 123) = (  0.8335241  0.2499880  0.7048375  )
       124           C   tau( 124) = (  0.8332572  0.4166509  0.7044663  )
       125           C   tau( 125) = (  0.0000000  0.5416498  0.7039474  )
       126           C   tau( 126) = (  0.0000000  0.6249802  0.7035988  )
       127           C   tau( 127) = (  0.1667360  0.4999871  0.7041544  )
       128           C   tau( 128) = (  0.1668939  0.6666708  0.7040800  )
       129           C   tau( 129) = (  0.3335095  0.5416841  0.7047227  )
       130           C   tau( 130) = (  0.3334866  0.6250087  0.7049485  )
       131           C   tau( 131) = (  0.5000000  0.5000314  0.7049163  )
       132           C   tau( 132) = (  0.5000000  0.6666706  0.7053860  )
       133           C   tau( 133) = (  0.6664905  0.5416841  0.7047227  )
       134           C   tau( 134) = (  0.6665134  0.6250087  0.7049485  )
       135           C   tau( 135) = (  0.8332640  0.4999871  0.7041544  )
       136           C   tau( 136) = (  0.8331061  0.6666708  0.7040800  )
       137           C   tau( 137) = (  0.0000000  0.7916992  0.7036327  )
       138           C   tau( 138) = (  0.0000000  0.8750298  0.7042637  )
       139           C   tau( 139) = (  0.1668959  0.7500002  0.7041251  )
       140           C   tau( 140) = (  0.1666186  0.9166870  0.7043210  )
       141           C   tau( 141) = (  0.3334155  0.7916498  0.7048174  )
       142           C   tau( 142) = (  0.3334352  0.8749785  0.7044455  )
       143           C   tau( 143) = (  0.5000000  0.7499763  0.7052081  )
       144           C   tau( 144) = (  0.5000000  0.9166339  0.7044644  )
       145           C   tau( 145) = (  0.6665845  0.7916498  0.7048174  )
       146           C   tau( 146) = (  0.6665648  0.8749785  0.7044455  )
       147           C   tau( 147) = (  0.8331041  0.7500002  0.7041251  )
       148           C   tau( 148) = (  0.8333814  0.9166870  0.7043210  )

     number of k points=     6  gaussian smearing, width (Ry)=  0.1000
                       cart. coord. in units 2pi/alat
        k(    1) = (   0.0000000   0.0000000   0.0000000), wk =   0.2500000
        k(    2) = (   0.0000000  -0.2165064   0.0000000), wk =   0.2500000
        k(    3) = (   0.2500000   0.0000000   0.0000000), wk =   0.5000000
        k(    4) = (   0.2500000  -0.2165064   0.0000000), wk =   0.5000000
        k(    5) = (  -0.5000000   0.0000000   0.0000000), wk =   0.2500000
        k(    6) = (  -0.5000000  -0.2165064   0.0000000), wk =   0.2500000

                       cryst. coord.
        k(    1) = (   0.0000000   0.0000000   0.0000000), wk =   0.2500000
        k(    2) = (   0.0000000  -0.5000000   0.0000000), wk =   0.2500000
        k(    3) = (   0.2500000   0.0000000   0.0000000), wk =   0.5000000
        k(    4) = (   0.2500000  -0.5000000   0.0000000), wk =   0.5000000
        k(    5) = (  -0.5000000   0.0000000   0.0000000), wk =   0.2500000
        k(    6) = (  -0.5000000  -0.5000000   0.0000000), wk =   0.2500000

     Dense  grid:  2050409 G-vectors     FFT dimensions: (  80, 192, 270)

     Largest allocated arrays     est. size (Mb)     dimensions
        Kohn-Sham Wavefunctions        54.44 Mb     (    4604,  775)
        NL pseudopotentials           129.82 Mb     (    4604, 1848)
        Each V/rho on FFT grid          1.17 Mb     (   76800)
        Each G-vector array             0.28 Mb     (   36616)
        G-vector shells                 0.14 Mb     (   17932)
     Largest temporary arrays     est. size (Mb)     dimensions
        Auxiliary wavefunctions       217.78 Mb     (    4604, 3100)
        Each subspace H/S matrix        5.87 Mb     (     620,  620)
        Each <psi_i|beta_j> matrix     21.85 Mb     (    1848,  775)
        Arrays for rho mixing           9.38 Mb     (   76800,    8)

     Initial potential from superposition of free atoms
     Check: negative starting charge=   -0.001840

     starting charge 1266.81751, renormalised to 1292.00000

     negative rho (up, down):  1.877E-03 0.000E+00
     Starting wfc are 1284 randomized atomic wfcs

     total cpu time spent up to now is      109.8 secs

     Self-consistent Calculation

     iteration #  1     ecut=    80.00 Ry     beta=0.70
     Davidson diagonalization with overlap
     c_bands:  3 eigenvalues not converged
     ethr =  1.00E-04,  avg # of iterations = 22.0

     negative rho (up, down):  2.921E+01 0.000E+00

     total cpu time spent up to now is     1931.7 secs

     total energy              =   -9219.44257358 Ry
     Harris-Foulkes estimate   =  -17108.76666247 Ry
     estimated scf accuracy    <  178894.10559606 Ry

     iteration #  2     ecut=    80.00 Ry     beta=0.70
     Davidson diagonalization with overlap
     ethr =  1.00E-02,  avg # of iterations = 13.8

     negative rho (up, down):  3.103E+01 0.000E+00

     total cpu time spent up to now is     2883.0 secs

     total energy              =  -12340.79465011 Ry
     Harris-Foulkes estimate   =  -13617.68089599 Ry
     estimated scf accuracy    <   17208.65334622 Ry

     iteration #  3     ecut=    80.00 Ry     beta=0.70
     Davidson diagonalization with overlap
     ethr =  1.00E-02,  avg # of iterations =  7.2

     negative rho (up, down):  3.293E+01 0.000E+00

     total cpu time spent up to now is     3495.3 secs

     total energy              =  -12506.79335028 Ry
     Harris-Foulkes estimate   =  -13338.51520109 Ry
     estimated scf accuracy    <    6001.34240542 Ry

     iteration #  4     ecut=    80.00 Ry     beta=0.70
     Davidson diagonalization with overlap
     ethr =  1.00E-02,  avg # of iterations =  5.5

     negative rho (up, down):  2.963E+01 0.000E+00

     total cpu time spent up to now is     4034.1 secs

     total energy              =  -12839.70521097 Ry
     Harris-Foulkes estimate   =  -13152.86550649 Ry
     estimated scf accuracy    <    6399.63904773 Ry

     iteration #  5     ecut=    80.00 Ry     beta=0.70
     Davidson diagonalization with overlap
     ethr =  1.00E-02,  avg # of iterations =  5.5

     negative rho (up, down):  2.055E+01 0.000E+00

     total cpu time spent up to now is     4433.4 secs

     total energy              =  -12863.03504257 Ry
     Harris-Foulkes estimate   =  -13043.30741929 Ry
     estimated scf accuracy    <    1023.50273340 Ry

     iteration #  6     ecut=    80.00 Ry     beta=0.70
     Davidson diagonalization with overlap
     ethr =  1.00E-02,  avg # of iterations =  3.0

     negative rho (up, down):  1.208E+01 0.000E+00

     total cpu time spent up to now is     4675.1 secs

     total energy              =  -12841.61241763 Ry
     Harris-Foulkes estimate   =  -12920.04659740 Ry
     estimated scf accuracy    <     660.39134578 Ry

     iteration #  7     ecut=    80.00 Ry     beta=0.70
     Davidson diagonalization with overlap
     ethr =  1.00E-02,  avg # of iterations =  2.0

     negative rho (up, down):  9.042E+00 0.000E+00

     total cpu time spent up to now is     4858.8 secs

     total energy              =  -12818.39478045 Ry
     Harris-Foulkes estimate   =  -12854.14043851 Ry
     estimated scf accuracy    <     839.70696045 Ry

     iteration #  8     ecut=    80.00 Ry     beta=0.70
     Davidson diagonalization with overlap
     ethr =  1.00E-02,  avg # of iterations =  1.8

     negative rho (up, down):  3.067E+00 0.000E+00

     total cpu time spent up to now is     5035.6 secs

     total energy              =  -12758.34086873 Ry
     Harris-Foulkes estimate   =  -12823.37100394 Ry
     estimated scf accuracy    <     321.89651397 Ry

     iteration #  9     ecut=    80.00 Ry     beta=0.70
     Davidson diagonalization with overlap
     ethr =  1.00E-02,  avg # of iterations =  3.5

     negative rho (up, down):  1.984E+00 0.000E+00

     total cpu time spent up to now is     5252.1 secs

     total energy              =  -12758.21230249 Ry
     Harris-Foulkes estimate   =  -12785.16800132 Ry
     estimated scf accuracy    <    1065.31152138 Ry

     iteration # 10     ecut=    80.00 Ry     beta=0.70
     Davidson diagonalization with overlap
     ethr =  1.00E-02,  avg # of iterations =  1.3

     negative rho (up, down):  9.932E-01 0.000E+00

     total cpu time spent up to now is     5423.4 secs

     total energy              =  -12703.29037431 Ry
     Harris-Foulkes estimate   =  -12766.22664308 Ry
     estimated scf accuracy    <     735.40321129 Ry

     iteration # 11     ecut=    80.00 Ry     beta=0.70
     Davidson diagonalization with overlap
     ethr =  1.00E-02,  avg # of iterations =  3.2

     negative rho (up, down):  1.275E+00 0.000E+00

     total cpu time spent up to now is     5620.2 secs

     total energy              =  -12702.84368102 Ry
     Harris-Foulkes estimate   =  -12736.14541878 Ry
     estimated scf accuracy    <     128.98540803 Ry

     iteration # 12     ecut=    80.00 Ry     beta=0.70
     Davidson diagonalization with overlap
     ethr =  9.98E-03,  avg # of iterations =  3.0

     negative rho (up, down):  2.731E+00 0.000E+00

     total cpu time spent up to now is     5843.3 secs

     total energy              =  -12669.75634225 Ry
     Harris-Foulkes estimate   =  -12764.69394657 Ry
     estimated scf accuracy    <     751.23165349 Ry

     iteration # 13     ecut=    80.00 Ry     beta=0.70
     Davidson diagonalization with overlap
     ethr =  9.98E-03,  avg # of iterations =  2.8

     negative rho (up, down):  4.115E+00 0.000E+00

     total cpu time spent up to now is     6076.1 secs

     total energy              =  -12710.69836164 Ry
     Harris-Foulkes estimate   =  -12723.15607024 Ry
     estimated scf accuracy    <     141.43661868 Ry

     iteration # 14     ecut=    80.00 Ry     beta=0.70
     Davidson diagonalization with overlap
     ethr =  9.98E-03,  avg # of iterations =  1.0

     negative rho (up, down):  3.370E+00 0.000E+00

     total cpu time spent up to now is     6244.0 secs

     total energy              =  -12708.91838590 Ry
     Harris-Foulkes estimate   =  -12714.22647581 Ry
     estimated scf accuracy    <      62.02046283 Ry

     iteration # 15     ecut=    80.00 Ry     beta=0.70
     Davidson diagonalization with overlap
     ethr =  4.80E-03,  avg # of iterations =  1.0

     negative rho (up, down):  6.289E+00 0.000E+00

     total cpu time spent up to now is     6410.9 secs

     total energy              =  -12707.46136578 Ry
     Harris-Foulkes estimate   =  -12710.65812499 Ry
     estimated scf accuracy    <      38.34113685 Ry

     iteration # 16     ecut=    80.00 Ry     beta=0.70
     Davidson diagonalization with overlap
     ethr =  2.97E-03,  avg # of iterations =  2.2

     negative rho (up, down):  4.018E+00 0.000E+00

     total cpu time spent up to now is     6591.8 secs

     total energy              =  -12705.71151606 Ry
     Harris-Foulkes estimate   =  -12708.16743512 Ry
     estimated scf accuracy    <      26.23855211 Ry

     iteration # 17     ecut=    80.00 Ry     beta=0.70
     Davidson diagonalization with overlap
     ethr =  2.03E-03,  avg # of iterations =  4.8

     negative rho (up, down):  2.901E+00 0.000E+00

     total cpu time spent up to now is     6805.6 secs

     total energy              =  -12704.05461880 Ry
     Harris-Foulkes estimate   =  -12706.06650592 Ry
     estimated scf accuracy    <      10.64735480 Ry

     iteration # 18     ecut=    80.00 Ry     beta=0.70
     Davidson diagonalization with overlap
     ethr =  8.24E-04,  avg # of iterations =  5.0

     negative rho (up, down):  2.639E+00 0.000E+00

     total cpu time spent up to now is     7025.7 secs

     total energy              =  -12704.17600749 Ry
     Harris-Foulkes estimate   =  -12704.37219673 Ry
     estimated scf accuracy    <      11.42471457 Ry

     iteration # 19     ecut=    80.00 Ry     beta=0.70
     Davidson diagonalization with overlap
     ethr =  8.24E-04,  avg # of iterations =  2.3

     negative rho (up, down):  2.459E+00 0.000E+00

     total cpu time spent up to now is     7207.9 secs

     total energy              =  -12704.02322287 Ry
     Harris-Foulkes estimate   =  -12704.43701102 Ry
     estimated scf accuracy    <       8.43380974 Ry

     iteration # 20     ecut=    80.00 Ry     beta=0.70
     Davidson diagonalization with overlap
     ethr =  6.53E-04,  avg # of iterations =  1.0

     negative rho (up, down):  7.738E-01 0.000E+00

     total cpu time spent up to now is     7376.6 secs

     total energy              =  -12701.26994154 Ry
     Harris-Foulkes estimate   =  -12704.13916251 Ry
     estimated scf accuracy    <       7.54390221 Ry

     iteration # 21     ecut=    80.00 Ry     beta=0.70
     Davidson diagonalization with overlap
     ethr =  5.84E-04,  avg # of iterations =  3.7

     negative rho (up, down):  6.183E-01 0.000E+00

     total cpu time spent up to now is     7577.8 secs

     total energy              =  -12700.24079923 Ry
     Harris-Foulkes estimate   =  -12701.56750330 Ry
     estimated scf accuracy    <      17.81520978 Ry

     iteration # 22     ecut=    80.00 Ry     beta=0.70
     Davidson diagonalization with overlap
     ethr =  5.84E-04,  avg # of iterations =  5.5

     negative rho (up, down):  9.560E-01 0.000E+00

     total cpu time spent up to now is     7800.0 secs

     total energy              =  -12699.06103212 Ry
     Harris-Foulkes estimate   =  -12700.50574152 Ry
     estimated scf accuracy    <       8.76806963 Ry

     iteration # 23     ecut=    80.00 Ry     beta=0.70
     Davidson diagonalization with overlap
     ethr =  5.84E-04,  avg # of iterations =  6.3

     negative rho (up, down):  1.044E+00 0.000E+00

     total cpu time spent up to now is     8040.0 secs

     total energy              =  -12699.05233810 Ry
     Harris-Foulkes estimate   =  -12699.39837761 Ry
     estimated scf accuracy    <       1.21603898 Ry

     iteration # 24     ecut=    80.00 Ry     beta=0.70
     Davidson diagonalization with overlap
     ethr =  9.41E-05,  avg # of iterations =  8.5

     negative rho (up, down):  1.072E+00 0.000E+00

     total cpu time spent up to now is     8317.7 secs

     total energy              =  -12699.02112765 Ry
     Harris-Foulkes estimate   =  -12699.12251121 Ry
     estimated scf accuracy    <       0.64053267 Ry

     iteration # 25     ecut=    80.00 Ry     beta=0.70
     Davidson diagonalization with overlap
     ethr =  4.96E-05,  avg # of iterations =  7.5

     negative rho (up, down):  8.042E-01 0.000E+00

     total cpu time spent up to now is     8570.4 secs

     total energy              =  -12698.95330055 Ry
     Harris-Foulkes estimate   =  -12699.07207483 Ry
     estimated scf accuracy    <       0.61886749 Ry

     iteration # 26     ecut=    80.00 Ry     beta=0.70
     Davidson diagonalization with overlap
     ethr =  4.79E-05,  avg # of iterations =  5.3

     negative rho (up, down):  3.794E-01 0.000E+00

     total cpu time spent up to now is     8795.6 secs

     total energy              =  -12698.89697062 Ry
     Harris-Foulkes estimate   =  -12698.97276777 Ry
     estimated scf accuracy    <       0.36671720 Ry

     iteration # 27     ecut=    80.00 Ry     beta=0.70
     Davidson diagonalization with overlap
     ethr =  2.84E-05,  avg # of iterations =  6.7

     negative rho (up, down):  3.036E-01 0.000E+00

     total cpu time spent up to now is     9038.6 secs

     total energy              =  -12698.89048859 Ry
     Harris-Foulkes estimate   =  -12698.91441695 Ry
     estimated scf accuracy    <       0.21033017 Ry

     iteration # 28     ecut=    80.00 Ry     beta=0.70
     Davidson diagonalization with overlap
     ethr =  1.63E-05,  avg # of iterations =  6.7

     negative rho (up, down):  2.226E-01 0.000E+00

     total cpu time spent up to now is     9281.5 secs

     total energy              =  -12698.89296675 Ry
     Harris-Foulkes estimate   =  -12698.90497457 Ry
     estimated scf accuracy    <       0.03716766 Ry

     iteration # 29     ecut=    80.00 Ry     beta=0.70
     Davidson diagonalization with overlap
     ethr =  2.88E-06,  avg # of iterations = 11.8

     negative rho (up, down):  1.310E-01 0.000E+00

     total cpu time spent up to now is     9627.6 secs

     total energy              =  -12698.89176410 Ry
     Harris-Foulkes estimate   =  -12698.89945529 Ry
     estimated scf accuracy    <       0.03645561 Ry

     iteration # 30     ecut=    80.00 Ry     beta=0.70
     Davidson diagonalization with overlap
     c_bands:  1 eigenvalues not converged
     ethr =  2.82E-06,  avg # of iterations =  9.3

     negative rho (up, down):  5.086E-02 0.000E+00

     total cpu time spent up to now is     9911.7 secs

     total energy              =  -12698.89120472 Ry
     Harris-Foulkes estimate   =  -12698.89432751 Ry
     estimated scf accuracy    <       0.00549403 Ry

     iteration # 31     ecut=    80.00 Ry     beta=0.70
     Davidson diagonalization with overlap
     ethr =  4.25E-07,  avg # of iterations = 12.0

     negative rho (up, down):  2.120E-02 0.000E+00

     total cpu time spent up to now is    10233.9 secs

     total energy              =  -12698.89105140 Ry
     Harris-Foulkes estimate   =  -12698.89172865 Ry
     estimated scf accuracy    <       0.00123266 Ry

     iteration # 32     ecut=    80.00 Ry     beta=0.70
     Davidson diagonalization with overlap
     ethr =  9.54E-08,  avg # of iterations =  7.7

     negative rho (up, down):  5.159E-03 0.000E+00

     total cpu time spent up to now is    10497.3 secs

     total energy              =  -12698.89094857 Ry
     Harris-Foulkes estimate   =  -12698.89117392 Ry
     estimated scf accuracy    <       0.00028682 Ry

     iteration # 33     ecut=    80.00 Ry     beta=0.70
     Davidson diagonalization with overlap
     c_bands:  2 eigenvalues not converged
     c_bands:  1 eigenvalues not converged
     c_bands:  5 eigenvalues not converged
     ethr =  2.22E-08,  avg # of iterations = 12.8

     negative rho (up, down):  2.669E-03 0.000E+00

     total cpu time spent up to now is    10841.8 secs

     total energy              =  -12698.89108511 Ry
     Harris-Foulkes estimate   =  -12698.89099017 Ry
     estimated scf accuracy    <       0.00013543 Ry

     iteration # 34     ecut=    80.00 Ry     beta=0.70
     Davidson diagonalization with overlap
     ethr =  1.05E-08,  avg # of iterations =  8.2

     negative rho (up, down):  1.906E-03 0.000E+00

     total cpu time spent up to now is    11110.6 secs

     total energy              =  -12698.89116806 Ry
     Harris-Foulkes estimate   =  -12698.89110068 Ry
     estimated scf accuracy    <       0.00002794 Ry

     iteration # 35     ecut=    80.00 Ry     beta=0.70
     Davidson diagonalization with overlap
     ethr =  2.16E-09,  avg # of iterations =  5.0

     negative rho (up, down):  2.133E-03 0.000E+00

     total cpu time spent up to now is    11357.7 secs

     total energy              =  -12698.89117090 Ry
     Harris-Foulkes estimate   =  -12698.89117229 Ry
     estimated scf accuracy    <       0.00000848 Ry

     iteration # 36     ecut=    80.00 Ry     beta=0.70
     Davidson diagonalization with overlap
     ethr =  6.57E-10,  avg # of iterations =  2.7

     negative rho (up, down):  2.174E-03 0.000E+00

     total cpu time spent up to now is    11556.1 secs

     total energy              =  -12698.89117069 Ry
     Harris-Foulkes estimate   =  -12698.89117175 Ry
     estimated scf accuracy    <       0.00000416 Ry

     iteration # 37     ecut=    80.00 Ry     beta=0.70
     Davidson diagonalization with overlap
     ethr =  3.22E-10,  avg # of iterations =  2.2

     negative rho (up, down):  2.155E-03 0.000E+00

     total cpu time spent up to now is    11743.2 secs

     total energy              =  -12698.89117042 Ry
     Harris-Foulkes estimate   =  -12698.89117101 Ry
     estimated scf accuracy    <       0.00000244 Ry

     iteration # 38     ecut=    80.00 Ry     beta=0.70
     Davidson diagonalization with overlap
     ethr =  1.89E-10,  avg # of iterations =  3.0

     negative rho (up, down):  2.253E-03 0.000E+00

     total cpu time spent up to now is    11943.4 secs

     total energy              =  -12698.89117094 Ry
     Harris-Foulkes estimate   =  -12698.89117070 Ry
     estimated scf accuracy    <       0.00000100 Ry

     iteration # 39     ecut=    80.00 Ry     beta=0.70
     Davidson diagonalization with overlap
     ethr =  7.74E-11,  avg # of iterations =  2.7

     negative rho (up, down):  2.059E-03 0.000E+00

     total cpu time spent up to now is    12139.3 secs

     total energy              =  -12698.89117122 Ry
     Harris-Foulkes estimate   =  -12698.89117107 Ry
     estimated scf accuracy    <       0.00000043 Ry

     iteration # 40     ecut=    80.00 Ry     beta=0.70
     Davidson diagonalization with overlap
     ethr =  3.30E-11,  avg # of iterations =  2.0

     negative rho (up, down):  1.982E-03 0.000E+00

     total cpu time spent up to now is    12324.6 secs

     total energy              =  -12698.89117143 Ry
     Harris-Foulkes estimate   =  -12698.89117125 Ry
     estimated scf accuracy    <       0.00000010 Ry

     iteration # 41     ecut=    80.00 Ry     beta=0.70
     Davidson diagonalization with overlap
     ethr =  7.84E-12,  avg # of iterations =  2.7

     negative rho (up, down):  1.917E-03 0.000E+00

     total cpu time spent up to now is    12526.6 secs

     total energy              =  -12698.89117153 Ry
     Harris-Foulkes estimate   =  -12698.89117144 Ry
     estimated scf accuracy    <       0.00000003 Ry

     iteration # 42     ecut=    80.00 Ry     beta=0.70
     Davidson diagonalization with overlap
     ethr =  2.31E-12,  avg # of iterations =  3.0

     negative rho (up, down):  1.917E-03 0.000E+00

     total cpu time spent up to now is    12768.0 secs

     total energy              =  -12698.89117154 Ry
     Harris-Foulkes estimate   =  -12698.89117153 Ry
     estimated scf accuracy    <       0.00000002 Ry

     iteration # 43     ecut=    80.00 Ry     beta=0.70
     Davidson diagonalization with overlap
     ethr =  1.30E-12,  avg # of iterations =  2.7

     negative rho (up, down):  1.912E-03 0.000E+00

     total cpu time spent up to now is    12954.3 secs

     End of self-consistent calculation

          k = 0.0000 0.0000 0.0000 (256287 PWs)   bands (ev):

   -16.0863 -15.7143 -15.7137 -14.6076 -14.6076 -14.1232 -14.1211 -13.7607
   -13.7604 -13.7588 -13.7582 -12.8077 -12.8062 -12.6913 -12.6912 -12.6892
   -12.6892 -10.9974 -10.9959 -10.9956 -10.9939 -10.7871  -9.7936  -9.1105
    -9.1092  -9.1081  -9.1067  -8.2323  -8.2316  -8.2288  -8.2287  -7.2417
    -7.2391  -7.1664  -7.1662  -7.1634  -7.1634  -7.1514  -7.1511  -5.7052
    -5.6098  -5.6085  -5.6059  -5.6043  -5.4469  -5.4458  -5.4453  -5.4444
    -5.1720  -5.1698  -4.7862  -4.3102  -4.2991  -4.2948  -4.2892  -4.2883
    -3.9671  -3.9671  -3.8240  -3.8232  -3.6742  -3.6742  -3.1545  -3.1544
    -3.1539  -3.1539  -3.0934  -3.0925  -3.0060  -2.9935  -2.9920  -2.9308
    -2.9308  -2.8716  -2.6943  -2.6935  -2.6924  -2.6915  -2.6419  -2.6417
    -2.5227  -2.5227  -2.4308  -2.4280  -2.3718  -2.3716  -2.3372  -2.3361
    -2.3359  -2.3348  -2.0576  -2.0575  -2.0573  -2.0572  -2.0173  -2.0168
    -1.8773  -1.8772  -1.8369  -1.8369  -1.8366  -1.8366  -1.7516  -1.7514
    -1.7504  -1.7504  -1.7048  -1.7048  -1.7048  -1.7047  -1.6457  -1.6301
    -1.6300  -1.5249  -1.4596  -1.4213  -1.4213  -1.4212  -1.4211  -1.3769
    -1.3768  -1.3541  -1.3414  -1.3395  -1.2866  -1.2805  -1.2508  -1.2506
    -1.2471  -1.2452  -1.2175  -1.2172  -1.2166  -1.2165  -1.1980  -1.1965
    -1.1251  -1.1246  -1.0984  -1.0567  -1.0566  -1.0554  -1.0554  -1.0347
    -0.9804  -0.9794  -0.9792  -0.9464  -0.9445  -0.9323  -0.8933  -0.8930
    -0.8734  -0.8713  -0.8490  -0.8460  -0.8267  -0.8226  -0.7856  -0.7856
    -0.7845  -0.7843  -0.7297  -0.7275  -0.7154  -0.7076  -0.7075  -0.7071
    -0.7071  -0.7041  -0.7027  -0.6976  -0.6976  -0.6794  -0.6561  -0.6542
    -0.6334  -0.6140  -0.6136  -0.6051  -0.6005  -0.5993  -0.5985  -0.5400
    -0.5396  -0.5379  -0.5377  -0.5367  -0.5367  -0.5361  -0.5358  -0.5348
    -0.5300  -0.5299  -0.5299  -0.5278  -0.5239  -0.5238  -0.5135  -0.5134
    -0.4904  -0.4903  -0.4900  -0.4900  -0.4670  -0.3712  -0.3711  -0.3647
    -0.3642  -0.3418  -0.3405  -0.3230  -0.3229  -0.3167  -0.3152  -0.3014
    -0.3013  -0.2862  -0.2857  -0.2849  -0.2844  -0.2688  -0.2460  -0.2455
    -0.2435  -0.2430  -0.2353  -0.2345  -0.2234  -0.2231  -0.1734  -0.1733
    -0.1194  -0.1191  -0.1094  -0.1078  -0.1076  -0.1062  -0.0920  -0.0920
    -0.0861  -0.0861  -0.0857  -0.0857  -0.0816  -0.0815  -0.0663  -0.0663
    -0.0566  -0.0565  -0.0564  -0.0564  -0.0323  -0.0317   0.0187   0.0204
     0.0212   0.0273   0.0275   0.0545   0.0545   0.0546   0.0546   0.0716
     0.0716   0.0725   0.0757   0.0757   0.0971   0.0977   0.0985   0.0991
     0.1047   0.1047   0.1048   0.1048   0.1074   0.1105   0.1278   0.1286
     0.1292   0.1299   0.1306   0.1502   0.1984   0.1985   0.2006   0.2008
     0.2037   0.2504   0.2505   0.2507   0.2507   0.2561   0.2569   0.2570
     0.2574   0.2574   0.2711   0.2720   0.3090   0.3100   0.3110   0.3114
     0.3203   0.3398   0.3398   0.3402   0.3403   0.3457   0.3492   0.3646
     0.3651   0.3666   0.3670   0.3677   0.3686   0.3799   0.3805   0.3824
     0.3826   0.3899   0.3933   0.3957   0.3960   0.3964   0.3968   0.4193
     0.4204   0.4542   0.4543   0.4806   0.4811   0.4812   0.4813   0.5071
     0.5108   0.5576   0.5576   0.5580   0.5582   0.5591   0.5626   0.5882
     0.5891   0.5924   0.5931   0.5934   0.5941   0.6045   0.6046   0.6458
     0.6541   0.6589   0.6589   0.6672   0.6682   0.6687   0.6689   0.6969
     0.7020   0.7029   0.7030   0.7033   0.7320   0.7400   0.7403   0.7404
     0.7404   0.7559   0.7571   0.7577   0.7588   0.7960   0.7964   0.8132
     0.8157   0.8159   0.8161   0.8161   0.8283   0.8478   0.8502   0.8523
     0.8538   0.8547   0.8549   0.8552   0.8574   0.8588   0.8666   0.8667
     0.8716   0.8726   0.8731   0.8741   0.8823   0.8824   0.9153   0.9233
     0.9235   0.9355   0.9358   0.9680   0.9684   0.9685   0.9688   0.9716
     0.9717   0.9717   0.9719   0.9861   0.9865   0.9917   0.9978   0.9986
     0.9988   1.0003   1.0062   1.0069   1.0074   1.0151   1.0159   1.0385
     1.0390   1.0390   1.0394   1.0498   1.0502   1.0622   1.0651   1.0651
     1.0658   1.0694   1.0708   1.0744   1.0771   1.0871   1.0997   1.1045
     1.1059   1.1131   1.1252   1.1252   1.1355   1.1366   1.1437   1.1438
     1.1441   1.1443   1.1753   1.1759   1.1902   1.1911   1.1958   1.1959
     1.2103   1.2104   1.2180   1.2185   1.2199   1.2214   1.2284   1.2420
     1.2567   1.2579   1.2589   1.2614   1.2621   1.2630   1.2804   1.2857
     1.2972   1.3056   1.3057   1.3164   1.3276   1.3278   1.3296   1.3298
     1.3323   1.3325   1.3328   1.3419   1.3442   1.3456   1.3474   1.3485
     1.3485   1.3490   1.3505   1.3606   1.3607   1.3835   1.3837   1.3843
     1.3843   1.3917   1.3925   1.4242   1.4248   1.4276   1.4286   1.4292
     1.4299   1.4312   1.4316   1.4357   1.4358   1.4360   1.4362   1.4400
     1.4410   1.4537   1.4538   1.4732   1.4921   1.4997   1.5008   1.5212
     1.5218   1.5221   1.5236   1.5238   1.5248   1.5338   1.5443   1.5450
     1.5573   1.5574   1.5577   1.5596   1.5601   1.5608   1.5648   1.5659
     1.5661   1.5748   1.5932   1.5944   1.5959   1.5963   1.5972   1.5972
     1.5983   1.5984   1.6143   1.6147   1.6156   1.6228   1.6299   1.6300
     1.6310   1.6311   1.6333   1.6413   1.6427   1.6439   1.6617   1.6743
     1.6748   1.6748   1.6756   1.6762   1.6775   1.6795   1.6839   1.6967
     1.7040   1.7067   1.7077   1.7126   1.7207   1.7358   1.7358   1.7424
     1.7424   1.7515   1.7516   1.7530   1.7536   1.7541   1.7542   1.7547
     1.7549   1.7564   1.7577   1.7637   1.7640   1.7695   1.7864   1.7865
     1.7874   1.7875   1.7929   1.7979   1.7980   1.8294   1.8297   1.8311
     1.8324   1.8391   1.8767   1.8774   1.8786   1.8786   1.8975   1.8975
     1.9000   1.9088   1.9115   1.9262   1.9489   1.9499   1.9506   1.9518
     1.9521   1.9627   1.9629   1.9633   2.2216   2.2741   2.4233   2.4233
     2.4605   2.4617   2.5244   2.5245   2.5251   2.5252   2.5426   2.5429
     2.5432   2.5434   2.7169   2.7170   2.7801   2.7803   2.7811   2.7811
     2.7967   2.7970   3.0350   3.0351   3.0352   3.0353   3.3648   3.3871
     3.3887   3.3901   3.4411   3.8294   3.8295   4.1308   4.1309   4.1641
     4.1641   4.1658   4.1658   4.2196   4.2636   4.2692   4.2826   4.3183
     4.3199   4.3233   4.3240   4.3244   4.3249   4.5546   4.5552   4.5571
     4.5581   4.6851   4.8848   5.0778   5.2524   5.2546   5.2786   5.2831
     5.6192   5.6854   5.6870   5.7260   5.9959   5.9960   6.0287   6.0319
     6.2448   6.2474   6.6308   6.6329   6.7061   6.7230   6.7723   6.7725
     6.7728   6.7751   6.9397   6.9401   6.9408   6.9408   7.0961   7.0978
     7.0997   7.0998   7.1673   7.1954   7.3491   7.3619   7.3826   7.3832
     7.3834   7.3840   7.4046   7.6705   7.6734   7.8165   7.8167   7.8545
     7.8555   7.9574   7.9985   7.9986   8.0107   8.0115   8.4376   8.4812
     8.4834   8.4836   8.5050   8.5674   8.5681   8.6505   8.6506   8.6713
     8.6755   8.7193   8.7231   8.7785   8.8549   8.8917   8.8924   8.8949
     8.8961   8.9617   8.9620   8.9625   8.9631   9.1449   9.1452   9.1460
     9.1463   9.2737   9.2743   9.3529   9.3530   9.3898   9.3900   9.3902
     9.3902   9.4258   9.4492   9.6560   9.6584   9.7945   9.8007   9.8923
     9.8925  10.0228  10.0229  10.0511  10.0511  10.1462  10.2413

     occupation numbers 
     1.0000   1.0000   1.0000   1.0000   1.0000   1.0000   1.0000   1.0000
     1.0000   1.0000   1.0000   1.0000   1.0000   1.0000   1.0000   1.0000
     1.0000   1.0000   1.0000   1.0000   1.0000   1.0000   1.0000   1.0000
     1.0000   1.0000   1.0000   1.0000   1.0000   1.0000   1.0000   1.0000
     1.0000   1.0000   1.0000   1.0000   1.0000   1.0000   1.0000   1.0000
     1.0000   1.0000   1.0000   1.0000   1.0000   1.0000   1.0000   1.0000
     1.0000   1.0000   1.0000   1.0000   1.0000   1.0000   1.0000   1.0000
     1.0000   1.0000   1.0000   1.0000   1.0000   1.0000   1.0000   1.0000
     1.0000   1.0000   1.0000   1.0000   1.0000   1.0000   1.0000   1.0000
     1.0000   1.0000   1.0000   1.0000   1.0000   1.0000   1.0000   1.0000
     1.0000   1.0000   1.0000   1.0000   1.0000   1.0000   1.0000   1.0000
     1.0000   1.0000   1.0000   1.0000   1.0000   1.0000   1.0000   1.0000
     1.0000   1.0000   1.0000   1.0000   1.0000   1.0000   1.0000   1.0000
     1.0000   1.0000   1.0000   1.0000   1.0000   1.0000   1.0000   1.0000
     1.0000   1.0000   1.0000   1.0000   1.0000   1.0000   1.0000   1.0000
     1.0000   1.0000   1.0000   1.0000   1.0000   1.0000   1.0000   1.0000
     1.0000   1.0000   1.0000   1.0000   1.0000   1.0000   1.0000   1.0000
     1.0000   1.0000   1.0000   1.0000   1.0000   1.0000   1.0000   1.0000
     1.0000   1.0000   1.0000   1.0000   1.0000   1.0000   1.0000   1.0000
     1.0000   1.0000   1.0000   1.0000   1.0000   1.0000   1.0000   1.0000
     1.0000   1.0000   1.0000   1.0000   1.0000   1.0000   1.0000   1.0000
     1.0000   1.0000   1.0000   1.0000   1.0000   1.0000   1.0000   1.0000
     1.0000   1.0000   1.0000   1.0000   1.0000   1.0000   1.0000   1.0000
     1.0000   1.0000   1.0000   1.0000   1.0000   1.0000   1.0000   1.0000
     1.0000   1.0000   1.0000   1.0000   1.0000   1.0000   1.0000   1.0000
     1.0000   1.0000   1.0000   1.0000   1.0000   1.0000   1.0000   1.0000
     1.0000   1.0000   1.0000   1.0000   1.0000   1.0000   1.0000   1.0000
     1.0000   1.0000   1.0000   1.0000   1.0000   1.0000   1.0000   1.0000
     1.0000   1.0000   1.0000   1.0000   1.0000   1.0000   1.0000   1.0000
     1.0000   1.0000   1.0000   1.0000   1.0000   1.0000   0.9999   0.9999
     0.9999   0.9999   0.9999   0.9999   0.9999   0.9999   0.9999   0.9999
     0.9999   0.9999   0.9999   0.9999   0.9999   0.9999   0.9999   0.9999
     0.9999   0.9999   0.9999   0.9999   0.9999   0.9999   0.9999   0.9999
     0.9999   0.9999   0.9999   0.9999   0.9999   0.9999   0.9999   0.9999
     0.9999   0.9999   0.9999   0.9999   0.9999   0.9999   0.9999   0.9999
     0.9999   0.9999   0.9999   0.9999   0.9998   0.9998   0.9998   0.9998
     0.9998   0.9998   0.9998   0.9998   0.9998   0.9998   0.9998   0.9998
     0.9998   0.9998   0.9998   0.9998   0.9997   0.9997   0.9997   0.9997
     0.9997   0.9997   0.9997   0.9997   0.9997   0.9997   0.9997   0.9997
     0.9997   0.9997   0.9997   0.9997   0.9997   0.9997   0.9997   0.9997
     0.9997   0.9996   0.9996   0.9996   0.9996   0.9996   0.9996   0.9996
     0.9996   0.9995   0.9995   0.9995   0.9995   0.9995   0.9995   0.9995
     0.9994   0.9993   0.9993   0.9993   0.9993   0.9993   0.9993   0.9993
     0.9993   0.9993   0.9992   0.9992   0.9992   0.9992   0.9992   0.9991
     0.9991   0.9991   0.9991   0.9990   0.9990   0.9990   0.9990   0.9989
     0.9989   0.9989   0.9989   0.9989   0.9988   0.9987   0.9987   0.9987
     0.9987   0.9987   0.9987   0.9987   0.9987   0.9985   0.9985   0.9984
     0.9984   0.9984   0.9984   0.9984   0.9983   0.9982   0.9982   0.9982
     0.9982   0.9982   0.9981   0.9981   0.9981   0.9981   0.9981   0.9981
     0.9980   0.9980   0.9980   0.9980   0.9980   0.9980   0.9977   0.9977
     0.9977   0.9976   0.9976   0.9973   0.9973   0.9973   0.9973   0.9973
     0.9973   0.9973   0.9973   0.9972   0.9972   0.9971   0.9971   0.9970
     0.9970   0.9970   0.9970   0.9970   0.9970   0.9969   0.9969   0.9967
     0.9966   0.9966   0.9966   0.9965   0.9965   0.9964   0.9964   0.9964
     0.9964   0.9963   0.9963   0.9963   0.9962   0.9961   0.9960   0.9959
     0.9959   0.9958   0.9956   0.9956   0.9955   0.9955   0.9954   0.9954
     0.9954   0.9954   0.9949   0.9949   0.9947   0.9947   0.9946   0.9946
     0.9943   0.9943   0.9942   0.9942   0.9942   0.9942   0.9940   0.9938
     0.9935   0.9935   0.9935   0.9934   0.9934   0.9934   0.9931   0.9929
     0.9927   0.9925   0.9925   0.9923   0.9920   0.9920   0.9920   0.9920
     0.9919   0.9919   0.9919   0.9917   0.9917   0.9916   0.9916   0.9916
     0.9916   0.9915   0.9915   0.9913   0.9913   0.9907   0.9907   0.9907
     0.9907   0.9905   0.9905   0.9896   0.9896   0.9895   0.9894   0.9894
     0.9894   0.9894   0.9894   0.9892   0.9892   0.9892   0.9892   0.9891
     0.9891   0.9887   0.9887   0.9881   0.9875   0.9872   0.9872   0.9864
     0.9864   0.9864   0.9864   0.9863   0.9863   0.9860   0.9856   0.9856
     0.9851   0.9851   0.9851   0.9850   0.9850   0.9849   0.9848   0.9847
     0.9847   0.9844   0.9836   0.9836   0.9835   0.9835   0.9835   0.9835
     0.9834   0.9834   0.9827   0.9827   0.9826   0.9823   0.9820   0.9820
     0.9819   0.9819   0.9818   0.9815   0.9814   0.9813   0.9805   0.9799
     0.9798   0.9798   0.9798   0.9798   0.9797   0.9796   0.9794   0.9787
     0.9783   0.9782   0.9781   0.9778   0.9774   0.9765   0.9765   0.9761
     0.9761   0.9756   0.9756   0.9755   0.9755   0.9755   0.9754   0.9754
     0.9754   0.9753   0.9752   0.9749   0.9749   0.9745   0.9735   0.9735
     0.9734   0.9734   0.9730   0.9727   0.9727   0.9706   0.9706   0.9705
     0.9704   0.9699   0.9671   0.9671   0.9670   0.9670   0.9655   0.9655
     0.9653   0.9646   0.9644   0.9632   0.9612   0.9612   0.9611   0.9610
     0.9610   0.9600   0.9600   0.9600   0.9308   0.9233   0.8984   0.8984
     0.8913   0.8911   0.8784   0.8784   0.8783   0.8783   0.8746   0.8745
     0.8744   0.8744   0.8333   0.8332   0.8163   0.8162   0.8160   0.8160
     0.8117   0.8116   0.7377   0.7377   0.7377   0.7377   0.6155   0.6066
     0.6059   0.6054   0.5848   0.4249   0.4249   0.3076   0.3076   0.2956
     0.2956   0.2950   0.2950   0.2760   0.2609   0.2590   0.2545   0.2427
     0.2422   0.2411   0.2409   0.2408   0.2406   0.1728   0.1727   0.1722
     0.1719   0.1404   0.0992   0.0685   0.0476   0.0474   0.0450   0.0445
     0.0202   0.0171   0.0170   0.0154   0.0073   0.0073   0.0067   0.0066
     0.0035   0.0034   0.0010   0.0010   0.0007   0.0007   0.0006   0.0006
     0.0006   0.0006   0.0003   0.0003   0.0003   0.0003   0.0002   0.0002
     0.0002   0.0002   0.0001   0.0001   0.0001   0.0001   0.0001   0.0001
     0.0001   0.0001   0.0000   0.0000   0.0000   0.0000   0.0000   0.0000
     0.0000   0.0000   0.0000   0.0000   0.0000   0.0000   0.0000   0.0000
     0.0000   0.0000   0.0000   0.0000   0.0000   0.0000   0.0000   0.0000
     0.0000   0.0000   0.0000   0.0000   0.0000   0.0000   0.0000   0.0000
     0.0000   0.0000   0.0000   0.0000   0.0000   0.0000   0.0000   0.0000
     0.0000   0.0000   0.0000   0.0000   0.0000   0.0000   0.0000   0.0000
     0.0000   0.0000   0.0000   0.0000   0.0000   0.0000   0.0000   0.0000
     0.0000   0.0000   0.0000   0.0000   0.0000   0.0000   0.0000

          k = 0.0000-0.2165 0.0000 (256176 PWs)   bands (ev):

   -15.9931 -15.9930 -15.2511 -15.2510 -14.0323 -14.0322 -14.0302 -14.0302
   -13.7894 -13.7894 -13.3156 -13.3136 -13.3072 -13.3050 -11.9194 -11.9174
   -11.9046 -11.9026 -11.6889 -11.6887 -10.0023 -10.0022 -10.0009 -10.0005
    -8.7570  -8.7570  -8.5972  -8.5972  -8.5955  -8.5955  -7.7692  -7.7690
    -7.7657  -7.7655  -6.5906  -6.5905  -6.5900  -6.5899  -6.4376  -6.4338
    -6.4326  -6.4286  -5.6185  -5.6184  -5.5704  -5.5703  -4.7791  -4.7787
    -4.7746  -4.7744  -4.6631  -4.6630  -4.5248  -4.5248  -4.2217  -4.2209
    -4.2155  -4.2146  -4.1719  -4.1719  -3.7114  -3.7113  -3.2595  -3.2594
    -2.9893  -2.9892  -2.9884  -2.9884  -2.9138  -2.9136  -2.7580  -2.7580
    -2.7171  -2.7167  -2.6626  -2.6623  -2.6610  -2.6607  -2.4779  -2.4777
    -2.4751  -2.4748  -2.3754  -2.3754  -2.2844  -2.2843  -2.2843  -2.2841
    -2.2650  -2.2644  -2.2643  -2.2637  -2.2045  -2.2044  -2.0235  -2.0234
    -1.9489  -1.9488  -1.9487  -1.9484  -1.9333  -1.9333  -1.8283  -1.8282
    -1.8282  -1.8281  -1.6990  -1.6987  -1.6700  -1.6699  -1.6445  -1.6445
    -1.5511  -1.5511  -1.4572  -1.4569  -1.4553  -1.4548  -1.4515  -1.4515
    -1.4335  -1.4334  -1.4248  -1.4248  -1.4052  -1.4052  -1.3280  -1.3280
    -1.2405  -1.2405  -1.2401  -1.2401  -1.1488  -1.1488  -1.1484  -1.1483
    -1.0586  -1.0580  -1.0531  -1.0531  -0.9985  -0.9984  -0.9710  -0.9705
    -0.9617  -0.9613  -0.9571  -0.9569  -0.9538  -0.9538  -0.9317  -0.9308
    -0.9104  -0.9104  -0.9063  -0.9062  -0.8965  -0.8963  -0.8299  -0.8297
    -0.8284  -0.8283  -0.8170  -0.8168  -0.7706  -0.7706  -0.7322  -0.7322
    -0.7290  -0.7289  -0.6852  -0.6851  -0.6658  -0.6657  -0.6645  -0.6645
    -0.6593  -0.6592  -0.6088  -0.6087  -0.6013  -0.6009  -0.5931  -0.5930
    -0.5804  -0.5803  -0.5800  -0.5799  -0.5104  -0.5104  -0.5000  -0.4998
    -0.4994  -0.4989  -0.4962  -0.4959  -0.4776  -0.4774  -0.4629  -0.4629
    -0.4361  -0.4361  -0.4327  -0.4326  -0.3361  -0.3360  -0.3356  -0.3355
    -0.3149  -0.3147  -0.2887  -0.2881  -0.2873  -0.2867  -0.2831  -0.2831
    -0.2564  -0.2564  -0.2234  -0.2233  -0.2222  -0.2221  -0.2190  -0.2175
    -0.2166  -0.2152  -0.1852  -0.1851  -0.1659  -0.1659  -0.1640  -0.1627
    -0.1298  -0.1292  -0.1288  -0.1282  -0.1174  -0.1174  -0.1168  -0.1168
    -0.1145  -0.1132  -0.0391  -0.0391  -0.0388  -0.0387  -0.0091  -0.0069
     0.0155   0.0155   0.0180   0.0183   0.0221   0.0221   0.0232   0.0238
     0.0487   0.0490   0.0493   0.0494   0.0620   0.0622   0.0654   0.0661
     0.0706   0.0718   0.0718   0.0727   0.0756   0.0756   0.0858   0.0859
     0.1123   0.1123   0.1142   0.1143   0.1576   0.1661   0.1765   0.1767
     0.1770   0.1771   0.1862   0.1871   0.1893   0.1895   0.1932   0.1936
     0.2068   0.2156   0.2167   0.2213   0.2307   0.2307   0.2329   0.2332
     0.2413   0.2415   0.2443   0.2446   0.2450   0.2453   0.3013   0.3013
     0.3050   0.3052   0.3218   0.3220   0.3242   0.3243   0.3280   0.3304
     0.3306   0.3314   0.3485   0.3487   0.3493   0.3494   0.3667   0.3736
     0.3766   0.3777   0.3938   0.3939   0.3943   0.3943   0.4123   0.4145
     0.4300   0.4300   0.4412   0.4413   0.4532   0.4538   0.4539   0.4547
     0.4985   0.4994   0.5026   0.5032   0.5146   0.5147   0.5209   0.5214
     0.5479   0.5480   0.5823   0.5827   0.5833   0.5852   0.6195   0.6196
     0.6630   0.6639   0.7044   0.7048   0.7054   0.7057   0.7323   0.7324
     0.7329   0.7330   0.7420   0.7423   0.7693   0.7708   0.7732   0.7735
     0.7735   0.7736   0.7755   0.7757   0.7823   0.7870   0.7963   0.7964
     0.7977   0.7979   0.8003   0.8008   0.8025   0.8038   0.8355   0.8356
     0.8453   0.8455   0.8459   0.8460   0.8531   0.8531   0.8755   0.8758
     0.8758   0.8767   0.8768   0.8772   0.8773   0.8774   0.8790   0.8830
     0.9010   0.9013   0.9022   0.9024   0.9024   0.9028   0.9029   0.9038
     0.9196   0.9197   0.9639   0.9643   0.9761   0.9764   0.9880   0.9881
     0.9886   0.9887   0.9941   0.9941   0.9954   0.9955   1.0000   1.0001
     1.0001   1.0001   1.0430   1.0436   1.0436   1.0440   1.0606   1.0607
     1.0615   1.0626   1.0630   1.0641   1.0731   1.0733   1.0942   1.0949
     1.0987   1.0990   1.1001   1.1005   1.1530   1.1537   1.2032   1.2033
     1.2125   1.2131   1.2136   1.2167   1.2234   1.2236   1.2300   1.2302
     1.2363   1.2369   1.2455   1.2456   1.2462   1.2463   1.2580   1.2590
     1.2596   1.2596   1.2601   1.2623   1.2740   1.2743   1.2831   1.2831
     1.2878   1.2879   1.2896   1.2898   1.2915   1.2916   1.2971   1.2972
     1.3058   1.3059   1.3101   1.3102   1.3106   1.3106   1.3310   1.3310
     1.3434   1.3441   1.3459   1.3467   1.3493   1.3497   1.3580   1.3580
     1.3591   1.3591   1.3594   1.3594   1.4076   1.4088   1.4347   1.4387
     1.4470   1.4470   1.4595   1.4596   1.4743   1.4758   1.4769   1.4783
     1.4888   1.4889   1.5050   1.5050   1.5118   1.5119   1.5160   1.5163
     1.5163   1.5164   1.5176   1.5179   1.5200   1.5204   1.5223   1.5230
     1.5300   1.5302   1.5421   1.5443   1.5479   1.5484   1.5487   1.5491
     1.5591   1.5605   1.5873   1.5878   1.5893   1.5894   1.5965   1.5965
     1.5969   1.5969   1.6147   1.6149   1.6158   1.6162   1.6295   1.6295
     1.6333   1.6343   1.6343   1.6348   1.6516   1.6516   1.6528   1.6529
     1.6715   1.6717   1.6741   1.6742   1.6885   1.6885   1.6984   1.6988
     1.6994   1.6998   1.7128   1.7129   1.7149   1.7149   1.7315   1.7321
     1.7457   1.7457   1.7478   1.7479   1.7660   1.7660   1.7687   1.7688
     1.7688   1.7692   1.7703   1.7709   1.7984   1.7985   1.8059   1.8059
     1.8165   1.8165   1.8249   1.8257   1.8385   1.8385   1.8391   1.8391
     1.8486   1.8486   1.8610   1.8610   1.9043   1.9043   1.9049   1.9049
     2.0044   2.0045   2.0255   2.0255   2.0547   2.0552   2.0553   2.0559
     2.1036   2.1036   2.1142   2.1144   2.1308   2.1314   2.1316   2.1324
     2.1715   2.1715   2.4465   2.4475   2.4526   2.4543   2.7317   2.7317
     2.7318   2.7319   2.8134   2.8135   2.8760   2.8763   2.8789   2.8789
     2.8949   2.8955   3.0253   3.0272   3.0676   3.0677   3.0935   3.0939
     3.2405   3.2416   3.4786   3.4786   3.5059   3.5062   3.6828   3.6830
     3.9852   3.9853   4.2960   4.2962   4.3095   4.3098   4.4259   4.4260
     4.4351   4.4353   4.6336   4.6340   4.6343   4.6349   4.8048   4.8064
     4.9676   4.9679   5.0505   5.0507   5.3940   5.3941   5.4159   5.4159
     5.6708   5.6720   5.6720   5.6733   5.7407   5.7408   5.9849   5.9852
     6.1119   6.1252   6.1694   6.1820   6.6635   6.6638   6.7175   6.7190
     6.7211   6.7239   6.8541   6.8546   6.9799   6.9801   7.0980   7.0982
     7.3233   7.3327   7.3538   7.3633   7.3941   7.3945   7.4250   7.4251
     7.4350   7.4354   7.4757   7.4757   7.6453   7.6454   7.6932   7.6958
     7.7341   7.7379   8.0594   8.0608   8.0889   8.0889   8.1042   8.1065
     8.4548   8.4551   8.4843   8.4844   8.6698   8.6704   8.6977   8.6982
     8.6991   8.7000   8.8590   8.8594   8.9026   8.9026   9.0223   9.0228
     9.0288   9.0293   9.0724   9.0726   9.1399   9.1399   9.1780   9.1780
     9.3315   9.3317   9.4386   9.4401   9.5218   9.5257   9.5299   9.5321
     9.6949   9.6951   9.6952   9.6956   9.7602   9.7619   9.7631   9.7636
     9.8916   9.8917  10.1764  10.1777  10.1777  10.1778  10.3662

     occupation numbers 
     1.0000   1.0000   1.0000   1.0000   1.0000   1.0000   1.0000   1.0000
     1.0000   1.0000   1.0000   1.0000   1.0000   1.0000   1.0000   1.0000
     1.0000   1.0000   1.0000   1.0000   1.0000   1.0000   1.0000   1.0000
     1.0000   1.0000   1.0000   1.0000   1.0000   1.0000   1.0000   1.0000
     1.0000   1.0000   1.0000   1.0000   1.0000   1.0000   1.0000   1.0000
     1.0000   1.0000   1.0000   1.0000   1.0000   1.0000   1.0000   1.0000
     1.0000   1.0000   1.0000   1.0000   1.0000   1.0000   1.0000   1.0000
     1.0000   1.0000   1.0000   1.0000   1.0000   1.0000   1.0000   1.0000
     1.0000   1.0000   1.0000   1.0000   1.0000   1.0000   1.0000   1.0000
     1.0000   1.0000   1.0000   1.0000   1.0000   1.0000   1.0000   1.0000
     1.0000   1.0000   1.0000   1.0000   1.0000   1.0000   1.0000   1.0000
     1.0000   1.0000   1.0000   1.0000   1.0000   1.0000   1.0000   1.0000
     1.0000   1.0000   1.0000   1.0000   1.0000   1.0000   1.0000   1.0000
     1.0000   1.0000   1.0000   1.0000   1.0000   1.0000   1.0000   1.0000
     1.0000   1.0000   1.0000   1.0000   1.0000   1.0000   1.0000   1.0000
     1.0000   1.0000   1.0000   1.0000   1.0000   1.0000   1.0000   1.0000
     1.0000   1.0000   1.0000   1.0000   1.0000   1.0000   1.0000   1.0000
     1.0000   1.0000   1.0000   1.0000   1.0000   1.0000   1.0000   1.0000
     1.0000   1.0000   1.0000   1.0000   1.0000   1.0000   1.0000   1.0000
     1.0000   1.0000   1.0000   1.0000   1.0000   1.0000   1.0000   1.0000
     1.0000   1.0000   1.0000   1.0000   1.0000   1.0000   1.0000   1.0000
     1.0000   1.0000   1.0000   1.0000   1.0000   1.0000   1.0000   1.0000
     1.0000   1.0000   1.0000   1.0000   1.0000   1.0000   1.0000   1.0000
     1.0000   1.0000   1.0000   1.0000   1.0000   1.0000   1.0000   1.0000
     1.0000   1.0000   1.0000   1.0000   1.0000   1.0000   1.0000   1.0000
     1.0000   1.0000   1.0000   1.0000   1.0000   1.0000   1.0000   1.0000
     1.0000   1.0000   1.0000   1.0000   1.0000   1.0000   1.0000   1.0000
     1.0000   1.0000   1.0000   1.0000   1.0000   1.0000   1.0000   1.0000
     1.0000   1.0000   1.0000   1.0000   1.0000   1.0000   1.0000   1.0000
     1.0000   1.0000   1.0000   1.0000   1.0000   1.0000   1.0000   1.0000
     1.0000   1.0000   0.9999   0.9999   0.9999   0.9999   0.9999   0.9999
     0.9999   0.9999   0.9999   0.9999   0.9999   0.9999   0.9999   0.9999
     0.9999   0.9999   0.9999   0.9999   0.9999   0.9999   0.9999   0.9999
     0.9999   0.9999   0.9999   0.9999   0.9999   0.9999   0.9999   0.9999
     0.9999   0.9999   0.9999   0.9999   0.9999   0.9999   0.9998   0.9998
     0.9998   0.9998   0.9998   0.9998   0.9998   0.9998   0.9998   0.9998
     0.9998   0.9998   0.9998   0.9998   0.9998   0.9998   0.9998   0.9998
     0.9998   0.9998   0.9998   0.9998   0.9998   0.9998   0.9997   0.9997
     0.9997   0.9997   0.9997   0.9997   0.9997   0.9997   0.9997   0.9997
     0.9997   0.9997   0.9997   0.9997   0.9997   0.9997   0.9997   0.9997
     0.9997   0.9997   0.9996   0.9996   0.9996   0.9996   0.9996   0.9996
     0.9996   0.9996   0.9996   0.9996   0.9996   0.9995   0.9995   0.9995
     0.9995   0.9995   0.9995   0.9995   0.9994   0.9994   0.9994   0.9994
     0.9994   0.9994   0.9993   0.9993   0.9993   0.9993   0.9992   0.9992
     0.9990   0.9990   0.9989   0.9989   0.9989   0.9989   0.9988   0.9988
     0.9988   0.9988   0.9987   0.9987   0.9986   0.9986   0.9986   0.9986
     0.9986   0.9986   0.9986   0.9986   0.9985   0.9985   0.9985   0.9985
     0.9985   0.9985   0.9985   0.9985   0.9984   0.9984   0.9983   0.9983
     0.9982   0.9982   0.9982   0.9982   0.9982   0.9982   0.9980   0.9980
     0.9980   0.9980   0.9980   0.9980   0.9980   0.9980   0.9980   0.9980
     0.9978   0.9978   0.9978   0.9978   0.9978   0.9978   0.9978   0.9978
     0.9977   0.9977   0.9974   0.9974   0.9973   0.9972   0.9971   0.9971
     0.9971   0.9971   0.9971   0.9971   0.9971   0.9971   0.9970   0.9970
     0.9970   0.9970   0.9966   0.9966   0.9966   0.9966   0.9964   0.9964
     0.9964   0.9964   0.9964   0.9964   0.9963   0.9963   0.9960   0.9960
     0.9960   0.9960   0.9959   0.9959   0.9952   0.9952   0.9945   0.9945
     0.9943   0.9943   0.9943   0.9942   0.9941   0.9941   0.9940   0.9940
     0.9939   0.9939   0.9937   0.9937   0.9937   0.9937   0.9935   0.9935
     0.9935   0.9935   0.9935   0.9934   0.9932   0.9932   0.9930   0.9930
     0.9929   0.9929   0.9929   0.9929   0.9928   0.9928   0.9927   0.9927
     0.9925   0.9925   0.9924   0.9924   0.9924   0.9924   0.9920   0.9920
     0.9917   0.9917   0.9916   0.9916   0.9915   0.9915   0.9913   0.9913
     0.9913   0.9913   0.9913   0.9913   0.9900   0.9900   0.9893   0.9892
     0.9889   0.9889   0.9885   0.9885   0.9880   0.9880   0.9880   0.9879
     0.9876   0.9876   0.9870   0.9870   0.9868   0.9868   0.9866   0.9866
     0.9866   0.9866   0.9866   0.9866   0.9865   0.9865   0.9864   0.9864
     0.9861   0.9861   0.9857   0.9856   0.9855   0.9854   0.9854   0.9854
     0.9850   0.9850   0.9839   0.9838   0.9838   0.9838   0.9835   0.9835
     0.9835   0.9835   0.9827   0.9827   0.9826   0.9826   0.9820   0.9820
     0.9818   0.9818   0.9818   0.9818   0.9810   0.9810   0.9809   0.9809
     0.9800   0.9800   0.9799   0.9799   0.9791   0.9791   0.9786   0.9786
     0.9785   0.9785   0.9778   0.9778   0.9777   0.9777   0.9768   0.9767
     0.9760   0.9760   0.9758   0.9758   0.9747   0.9747   0.9746   0.9746
     0.9746   0.9745   0.9745   0.9744   0.9727   0.9727   0.9722   0.9722
     0.9715   0.9715   0.9709   0.9708   0.9699   0.9699   0.9699   0.9699
     0.9692   0.9692   0.9683   0.9683   0.9650   0.9650   0.9649   0.9649
     0.9561   0.9561   0.9541   0.9541   0.9511   0.9510   0.9510   0.9509
     0.9457   0.9457   0.9445   0.9445   0.9425   0.9424   0.9424   0.9423
     0.9375   0.9375   0.8940   0.8938   0.8928   0.8925   0.8294   0.8294
     0.8293   0.8293   0.8070   0.8069   0.7886   0.7885   0.7878   0.7877
     0.7829   0.7827   0.7410   0.7404   0.7266   0.7265   0.7175   0.7174
     0.6638   0.6634   0.5696   0.5696   0.5584   0.5583   0.4853   0.4852
     0.3627   0.3627   0.2501   0.2500   0.2456   0.2455   0.2092   0.2091
     0.2064   0.2064   0.1526   0.1525   0.1525   0.1523   0.1145   0.1141
     0.0850   0.0849   0.0723   0.0723   0.0347   0.0347   0.0330   0.0330
     0.0177   0.0177   0.0177   0.0176   0.0148   0.0148   0.0076   0.0075
     0.0052   0.0050   0.0044   0.0042   0.0009   0.0009   0.0007   0.0007
     0.0007   0.0007   0.0004   0.0004   0.0003   0.0003   0.0002   0.0002
     0.0001   0.0001   0.0001   0.0001   0.0000   0.0000   0.0000   0.0000
     0.0000   0.0000   0.0000   0.0000   0.0000   0.0000   0.0000   0.0000
     0.0000   0.0000   0.0000   0.0000   0.0000   0.0000   0.0000   0.0000
     0.0000   0.0000   0.0000   0.0000   0.0000   0.0000   0.0000   0.0000
     0.0000   0.0000   0.0000   0.0000   0.0000   0.0000   0.0000   0.0000
     0.0000   0.0000   0.0000   0.0000   0.0000   0.0000   0.0000   0.0000
     0.0000   0.0000   0.0000   0.0000   0.0000   0.0000   0.0000   0.0000
     0.0000   0.0000   0.0000   0.0000   0.0000   0.0000   0.0000   0.0000
     0.0000   0.0000   0.0000   0.0000   0.0000   0.0000   0.0000

          k = 0.2500 0.0000 0.0000 (256240 PWs)   bands (ev):

   -15.9620 -15.5906 -15.5900 -14.9747 -14.6079 -14.6074 -14.4859 -14.4859
   -13.5204 -13.5204 -13.0452 -12.6910 -12.6905 -12.6901 -12.6894 -11.7698
   -11.7683 -11.6605 -11.6605 -10.6816 -10.3669 -10.3658 -10.3568  -9.8400
    -9.6887  -9.3880  -9.3876  -8.9879  -8.7324  -8.7324  -8.1742  -7.1669
    -7.1656  -7.1647  -7.1637  -7.0499  -7.0478  -6.5864  -6.3131  -5.7450
    -5.5456  -5.5455  -5.5339  -5.5337  -5.5255  -4.9989  -4.9966  -4.8054
    -4.8036  -4.6219  -4.3019  -4.1529  -4.1427  -4.1407  -4.1329  -3.9884
    -3.9883  -3.9665  -3.9652  -3.6873  -3.6852  -3.6753  -3.6747  -3.5269
    -3.5269  -3.5253  -3.3682  -3.2383  -3.2382  -3.1554  -3.1546  -3.1538
    -3.1531  -3.0495  -3.0495  -2.9538  -2.9530  -2.9339  -2.7994  -2.7993
    -2.7656  -2.7214  -2.5722  -2.5718  -2.4848  -2.4848  -2.4169  -2.4169
    -2.3113  -2.3086  -2.0993  -2.0993  -2.0857  -2.0197  -2.0196  -1.7844
    -1.7843  -1.7679  -1.7663  -1.7227  -1.6922  -1.6412  -1.6411  -1.6316
    -1.6302  -1.5814  -1.5799  -1.5233  -1.4848  -1.4848  -1.4773  -1.4773
    -1.4567  -1.4296  -1.4140  -1.4028  -1.4027  -1.3917  -1.3917  -1.3310
    -1.3303  -1.2857  -1.2811  -1.2804  -1.2659  -1.2641  -1.2623  -1.2623
    -1.2594  -1.2593  -1.2119  -1.2063  -1.1867  -1.1849  -1.1744  -1.1727
    -1.0550  -1.0183  -1.0175  -1.0017  -0.9949  -0.9514  -0.9514  -0.9262
    -0.9252  -0.9195  -0.9146  -0.9145  -0.8990  -0.8989  -0.8894  -0.8670
    -0.8656  -0.8607  -0.8528  -0.8184  -0.8176  -0.8169  -0.8159  -0.8154
    -0.8143  -0.7951  -0.7932  -0.7713  -0.7608  -0.7369  -0.7338  -0.7312
    -0.7308  -0.7306  -0.7303  -0.7012  -0.6954  -0.6940  -0.6837  -0.6782
    -0.6782  -0.6642  -0.6641  -0.6638  -0.6634  -0.6581  -0.6577  -0.6464
    -0.6312  -0.6308  -0.6285  -0.6276  -0.6270  -0.6166  -0.6160  -0.5911
    -0.5884  -0.5833  -0.5827  -0.5779  -0.5344  -0.5337  -0.4984  -0.4984
[...]
     0.9801   0.9801   0.9794   0.9794   0.9786   0.9786   0.9786   0.9786
     0.9779   0.9779   0.9778   0.9778   0.9769   0.9769   0.9767   0.9767
     0.9758   0.9758   0.9754   0.9754   0.9748   0.9748   0.9747   0.9747
     0.9735   0.9735   0.9735   0.9735   0.9730   0.9730   0.9727   0.9727
     0.9726   0.9726   0.9719   0.9719   0.9714   0.9714   0.9705   0.9705
     0.9704   0.9704   0.9694   0.9694   0.9694   0.9694   0.9657   0.9657
     0.9632   0.9632   0.9629   0.9629   0.9614   0.9614   0.9125   0.9125
     0.9124   0.9124   0.8732   0.8732   0.8712   0.8712   0.8616   0.8616
     0.8599   0.8599   0.7755   0.7755   0.7747   0.7747   0.6995   0.6995
     0.6977   0.6976   0.5612   0.5610   0.5599   0.5597   0.4439   0.4439
     0.3345   0.3345   0.3343   0.3343   0.2722   0.2722   0.2707   0.2707
     0.2223   0.2221   0.2209   0.2207   0.1988   0.1988   0.1288   0.1287
     0.1021   0.1021   0.0763   0.0761   0.0754   0.0752   0.0606   0.0606
     0.0557   0.0557   0.0398   0.0397   0.0377   0.0377   0.0376   0.0376
     0.0356   0.0356   0.0341   0.0341   0.0288   0.0287   0.0281   0.0280
     0.0112   0.0112   0.0110   0.0110   0.0085   0.0085   0.0041   0.0041
     0.0029   0.0029   0.0028   0.0028   0.0027   0.0027   0.0026   0.0026
     0.0007   0.0007   0.0007   0.0007   0.0005   0.0005   0.0005   0.0005
     0.0000   0.0000   0.0000   0.0000   0.0000   0.0000   0.0000   0.0000
     0.0000   0.0000   0.0000   0.0000   0.0000   0.0000   0.0000   0.0000
     0.0000   0.0000   0.0000   0.0000   0.0000   0.0000   0.0000   0.0000
     0.0000   0.0000   0.0000   0.0000   0.0000   0.0000   0.0000   0.0000
     0.0000   0.0000   0.0000   0.0000   0.0000   0.0000   0.0000   0.0000
     0.0000   0.0000   0.0000   0.0000   0.0000   0.0000   0.0000   0.0000
     0.0000   0.0000   0.0000   0.0000   0.0000   0.0000   0.0000   0.0000
     0.0000   0.0000   0.0000   0.0000   0.0000   0.0000   0.0000

          k =-0.5000-0.2165 0.0000 (256328 PWs)   bands (ev):

   -15.4993 -15.4992 -15.4959 -15.4959 -14.7605 -14.7605 -14.7604 -14.7603
   -13.3120 -13.3120 -13.3120 -13.3119 -11.6845 -11.6845 -11.6844 -11.6843
   -11.2438 -11.2438 -11.2430 -11.2429 -11.0635 -11.0635 -11.0634 -11.0634
    -9.3648  -9.3648  -9.3646  -9.3646  -8.4028  -8.4028  -8.3944  -8.3943
    -7.6332  -7.6332  -7.6330  -7.6329  -5.5571  -5.5570  -5.5569  -5.5569
    -4.9330  -4.9329  -4.9327  -4.9327  -4.8675  -4.8674  -4.8672  -4.8671
    -4.7066  -4.7065  -4.6954  -4.6953  -4.0299  -4.0298  -4.0172  -4.0171
    -3.8846  -3.8845  -3.8844  -3.8844  -3.8325  -3.8325  -3.8323  -3.8322
    -3.5633  -3.5633  -3.5591  -3.5591  -3.2833  -3.2833  -3.2823  -3.2823
    -3.2818  -3.2817  -3.2807  -3.2806  -3.1367  -3.1366  -3.1365  -3.1364
    -2.7425  -2.7425  -2.7423  -2.7423  -2.2649  -2.2649  -2.2646  -2.2646
    -2.2134  -2.2134  -2.2124  -2.2124  -1.9571  -1.9571  -1.9569  -1.9568
    -1.7800  -1.7800  -1.7796  -1.7795  -1.7029  -1.7028  -1.7021  -1.7020
    -1.6527  -1.6527  -1.6487  -1.6486  -1.4868  -1.4868  -1.4857  -1.4857
    -1.4047  -1.4046  -1.4040  -1.4040  -1.1809  -1.1808  -1.1807  -1.1805
    -1.1768  -1.1768  -1.1767  -1.1767  -1.1393  -1.1393  -1.1391  -1.1391
    -1.1171  -1.1171  -1.1169  -1.1169  -1.0669  -1.0667  -1.0667  -1.0665
    -1.0648  -1.0645  -1.0642  -1.0641  -1.0419  -1.0419  -1.0417  -1.0417
    -0.9911  -0.9911  -0.9906  -0.9906  -0.9164  -0.9164  -0.9157  -0.9156
    -0.8729  -0.8729  -0.8728  -0.8728  -0.8530  -0.8530  -0.8528  -0.8528
    -0.8041  -0.8041  -0.8040  -0.8040  -0.7986  -0.7986  -0.7986  -0.7986
    -0.7724  -0.7724  -0.7723  -0.7723  -0.7390  -0.7390  -0.7386  -0.7386
    -0.7219  -0.7219  -0.7217  -0.7217  -0.7195  -0.7195  -0.7191  -0.7191
    -0.6703  -0.6703  -0.6560  -0.6559  -0.5644  -0.5644  -0.5640  -0.5640
    -0.5352  -0.5352  -0.5349  -0.5349  -0.4518  -0.4517  -0.4513  -0.4510
    -0.4496  -0.4495  -0.4491  -0.4488  -0.4435  -0.4435  -0.4432  -0.4432
    -0.3823  -0.3823  -0.3820  -0.3820  -0.3711  -0.3711  -0.3701  -0.3700
    -0.3489  -0.3489  -0.3489  -0.3488  -0.2544  -0.2543  -0.2539  -0.2539
    -0.2492  -0.2492  -0.2483  -0.2483  -0.1804  -0.1804  -0.1799  -0.1799
    -0.1306  -0.1306  -0.1302  -0.1302  -0.1095  -0.1094  -0.1089  -0.1089
    -0.0840  -0.0840  -0.0832  -0.0832  -0.0707  -0.0707  -0.0699  -0.0699
    -0.0289  -0.0288  -0.0283  -0.0282   0.0451   0.0451   0.0457   0.0458
     0.0609   0.0609   0.0615   0.0616   0.0772   0.0772   0.0778   0.0778
     0.1588   0.1589   0.1592   0.1592   0.1644   0.1644   0.1647   0.1648
     0.1686   0.1687   0.1688   0.1688   0.2056   0.2056   0.2057   0.2058
     0.2186   0.2188   0.2194   0.2194   0.2221   0.2222   0.2223   0.2224
     0.2912   0.2912   0.2924   0.2925   0.3179   0.3180   0.3183   0.3183
     0.3653   0.3653   0.3665   0.3666   0.3753   0.3754   0.3793   0.3794
     0.3989   0.3989   0.3993   0.3994   0.4058   0.4058   0.4072   0.4074
     0.4098   0.4100   0.4114   0.4115   0.4195   0.4195   0.4202   0.4203
     0.4236   0.4236   0.4238   0.4238   0.4420   0.4420   0.4420   0.4420
     0.4693   0.4693   0.4694   0.4694   0.4797   0.4797   0.4800   0.4800
     0.5290   0.5291   0.5296   0.5296   0.5625   0.5625   0.5627   0.5628
     0.6202   0.6217   0.6270   0.6279   0.6464   0.6465   0.6473   0.6474
     0.6612   0.6614   0.6631   0.6633   0.6673   0.6678   0.6688   0.6693
     0.6802   0.6803   0.6810   0.6810   0.6866   0.6875   0.6877   0.6885
     0.6920   0.6924   0.6929   0.6935   0.7100   0.7104   0.7114   0.7115
     0.7691   0.7693   0.7697   0.7697   0.7769   0.7769   0.7777   0.7779
     0.7833   0.7834   0.7840   0.7842   0.8269   0.8269   0.8275   0.8277
     0.8283   0.8285   0.8290   0.8291   0.8733   0.8733   0.8735   0.8736
     0.8853   0.8855   0.8863   0.8865   0.8871   0.8873   0.8880   0.8881
     0.8951   0.8952   0.8953   0.8953   0.9101   0.9102   0.9105   0.9108
     0.9254   0.9254   0.9268   0.9268   0.9964   0.9965   0.9981   0.9983
     1.0023   1.0023   1.0026   1.0027   1.0066   1.0071   1.0083   1.0085
     1.0234   1.0234   1.0263   1.0263   1.0454   1.0455   1.0461   1.0461
     1.0494   1.0494   1.0495   1.0495   1.1002   1.1005   1.1019   1.1021
     1.1305   1.1308   1.1308   1.1312   1.1455   1.1456   1.1470   1.1476
     1.1643   1.1643   1.1649   1.1649   1.1897   1.1897   1.1920   1.1920
     1.2446   1.2447   1.2453   1.2453   1.2774   1.2775   1.2786   1.2787
     1.3314   1.3315   1.3316   1.3320   1.3432   1.3435   1.3447   1.3455
     1.3580   1.3583   1.3587   1.3588   1.3625   1.3625   1.3627   1.3627
     1.3656   1.3656   1.3669   1.3669   1.3878   1.3885   1.3909   1.3911
     1.3940   1.3947   1.3958   1.3960   1.3981   1.3985   1.3997   1.4006
     1.4138   1.4141   1.4145   1.4149   1.4389   1.4390   1.4394   1.4395
     1.4495   1.4498   1.4499   1.4501   1.4591   1.4591   1.4591   1.4592
     1.5096   1.5097   1.5110   1.5110   1.5112   1.5112   1.5168   1.5169
     1.5402   1.5402   1.5402   1.5403   1.5549   1.5549   1.5584   1.5585
     1.5724   1.5725   1.5729   1.5730   1.5891   1.5891   1.5895   1.5896
     1.5978   1.5978   1.5993   1.5993   1.6058   1.6058   1.6058   1.6058
     1.6716   1.6716   1.6725   1.6725   1.6730   1.6730   1.6734   1.6735
     1.6805   1.6806   1.6816   1.6822   1.6901   1.6904   1.6909   1.6910
     1.6993   1.6994   1.6998   1.6999   1.7056   1.7057   1.7063   1.7065
     1.7119   1.7119   1.7123   1.7123   1.7232   1.7233   1.7239   1.7241
     1.7339   1.7340   1.7346   1.7346   1.7662   1.7662   1.7664   1.7664
     1.7796   1.7797   1.7808   1.7808   1.7970   1.7970   1.7983   1.7983
     1.8193   1.8194   1.8196   1.8196   1.8698   1.8700   1.8717   1.8719
     1.8919   1.8919   1.8924   1.8924   1.9212   1.9214   1.9220   1.9222
     1.9245   1.9245   1.9249   1.9250   1.9342   1.9342   1.9347   1.9348
     2.1504   2.1504   2.1511   2.1511   2.6445   2.6445   2.6479   2.6479
     2.8730   2.8730   2.8752   2.8752   3.1056   3.1056   3.1059   3.1059
     3.3929   3.3929   3.3930   3.3930   3.7680   3.7680   3.7682   3.7683
     3.9535   3.9535   3.9557   3.9557   4.2439   4.2439   4.2444   4.2445
     4.5395   4.5396   4.5415   4.5417   4.6055   4.6055   4.6129   4.6129
     4.8624   4.8625   4.8647   4.8647   4.9048   4.9054   4.9065   4.9068
     5.1887   5.1888   5.1906   5.1909   5.3595   5.3595   5.3867   5.3869
     5.4828   5.4829   5.4869   5.4874   5.6022   5.6023   5.6170   5.6201
     5.6319   5.6320   5.6339   5.6360   6.0210   6.0212   6.0225   6.0229
     6.0588   6.0588   6.0599   6.0599   6.1591   6.1597   6.1634   6.1639
     7.0975   7.0975   7.0979   7.0979   7.4260   7.4260   7.4276   7.4277
     7.4582   7.4583   7.4584   7.4585   7.5362   7.5364   7.5365   7.5366
     7.6603   7.6604   7.6605   7.6606   7.9086   7.9087   7.9089   7.9092
     8.1471   8.1471   8.1500   8.1500   8.2672   8.2678   8.2704   8.2707
     8.3352   8.3359   8.3383   8.3392   8.5513   8.5514   8.5583   8.5584
     8.7887   8.7888   8.7892   8.7892   9.0990   9.0990   9.0993   9.0993
     9.1994   9.1994   9.2002   9.2003   9.2752   9.2752   9.2752   9.2752
     9.3083   9.3084   9.3096   9.3096   9.5592   9.5592   9.5622   9.5622
     9.8349   9.8354   9.8356   9.8457   9.8461   9.8462   9.8462

     occupation numbers 
     1.0000   1.0000   1.0000   1.0000   1.0000   1.0000   1.0000   1.0000
     1.0000   1.0000   1.0000   1.0000   1.0000   1.0000   1.0000   1.0000
     1.0000   1.0000   1.0000   1.0000   1.0000   1.0000   1.0000   1.0000
     1.0000   1.0000   1.0000   1.0000   1.0000   1.0000   1.0000   1.0000
     1.0000   1.0000   1.0000   1.0000   1.0000   1.0000   1.0000   1.0000
     1.0000   1.0000   1.0000   1.0000   1.0000   1.0000   1.0000   1.0000
     1.0000   1.0000   1.0000   1.0000   1.0000   1.0000   1.0000   1.0000
     1.0000   1.0000   1.0000   1.0000   1.0000   1.0000   1.0000   1.0000
     1.0000   1.0000   1.0000   1.0000   1.0000   1.0000   1.0000   1.0000
     1.0000   1.0000   1.0000   1.0000   1.0000   1.0000   1.0000   1.0000
     1.0000   1.0000   1.0000   1.0000   1.0000   1.0000   1.0000   1.0000
     1.0000   1.0000   1.0000   1.0000   1.0000   1.0000   1.0000   1.0000
     1.0000   1.0000   1.0000   1.0000   1.0000   1.0000   1.0000   1.0000
     1.0000   1.0000   1.0000   1.0000   1.0000   1.0000   1.0000   1.0000
     1.0000   1.0000   1.0000   1.0000   1.0000   1.0000   1.0000   1.0000
     1.0000   1.0000   1.0000   1.0000   1.0000   1.0000   1.0000   1.0000
     1.0000   1.0000   1.0000   1.0000   1.0000   1.0000   1.0000   1.0000
     1.0000   1.0000   1.0000   1.0000   1.0000   1.0000   1.0000   1.0000
     1.0000   1.0000   1.0000   1.0000   1.0000   1.0000   1.0000   1.0000
     1.0000   1.0000   1.0000   1.0000   1.0000   1.0000   1.0000   1.0000
     1.0000   1.0000   1.0000   1.0000   1.0000   1.0000   1.0000   1.0000
     1.0000   1.0000   1.0000   1.0000   1.0000   1.0000   1.0000   1.0000
     1.0000   1.0000   1.0000   1.0000   1.0000   1.0000   1.0000   1.0000
     1.0000   1.0000   1.0000   1.0000   1.0000   1.0000   1.0000   1.0000
     1.0000   1.0000   1.0000   1.0000   1.0000   1.0000   1.0000   1.0000
     1.0000   1.0000   1.0000   1.0000   1.0000   1.0000   1.0000   1.0000
     1.0000   1.0000   1.0000   1.0000   1.0000   1.0000   1.0000   1.0000
     1.0000   1.0000   1.0000   1.0000   1.0000   1.0000   1.0000   1.0000
     1.0000   1.0000   1.0000   1.0000   1.0000   1.0000   1.0000   1.0000
     1.0000   1.0000   1.0000   1.0000   1.0000   1.0000   1.0000   1.0000
     0.9999   0.9999   0.9999   0.9999   0.9999   0.9999   0.9999   0.9999
     0.9999   0.9999   0.9999   0.9999   0.9999   0.9999   0.9999   0.9999
     0.9999   0.9999   0.9999   0.9999   0.9999   0.9999   0.9999   0.9999
     0.9999   0.9999   0.9999   0.9999   0.9999   0.9999   0.9999   0.9999
     0.9999   0.9999   0.9999   0.9999   0.9998   0.9998   0.9998   0.9998
     0.9998   0.9998   0.9998   0.9998   0.9998   0.9998   0.9998   0.9998
     0.9998   0.9998   0.9998   0.9998   0.9997   0.9997   0.9997   0.9997
     0.9997   0.9997   0.9997   0.9997   0.9997   0.9997   0.9997   0.9997
     0.9996   0.9996   0.9996   0.9996   0.9996   0.9996   0.9996   0.9996
     0.9996   0.9996   0.9996   0.9996   0.9996   0.9996   0.9996   0.9996
     0.9996   0.9996   0.9996   0.9996   0.9996   0.9996   0.9996   0.9996
     0.9995   0.9995   0.9995   0.9995   0.9995   0.9995   0.9995   0.9995
     0.9994   0.9994   0.9994   0.9994   0.9993   0.9993   0.9993   0.9993
     0.9992   0.9992   0.9992   0.9992   0.9991   0.9991   0.9991   0.9991
     0.9990   0.9990   0.9990   0.9990   0.9990   0.9990   0.9990   0.9990
     0.9990   0.9990   0.9990   0.9990   0.9990   0.9990   0.9990   0.9989
     0.9989   0.9989   0.9989   0.9989   0.9989   0.9989   0.9989   0.9989
     0.9986   0.9986   0.9986   0.9986   0.9986   0.9986   0.9986   0.9986
     0.9985   0.9985   0.9985   0.9985   0.9983   0.9983   0.9983   0.9983
     0.9983   0.9983   0.9983   0.9983   0.9980   0.9980   0.9980   0.9980
     0.9980   0.9980   0.9979   0.9979   0.9979   0.9979   0.9979   0.9979
     0.9979   0.9979   0.9979   0.9979   0.9978   0.9978   0.9978   0.9978
     0.9977   0.9977   0.9977   0.9977   0.9971   0.9971   0.9971   0.9971
     0.9970   0.9970   0.9970   0.9970   0.9970   0.9970   0.9970   0.9970
     0.9968   0.9968   0.9968   0.9968   0.9966   0.9966   0.9966   0.9966
     0.9965   0.9965   0.9965   0.9965   0.9959   0.9959   0.9959   0.9959
     0.9956   0.9955   0.9955   0.9955   0.9953   0.9953   0.9953   0.9953
     0.9951   0.9951   0.9951   0.9951   0.9947   0.9947   0.9946   0.9946
     0.9937   0.9937   0.9937   0.9937   0.9931   0.9931   0.9931   0.9931
     0.9920   0.9920   0.9920   0.9919   0.9917   0.9917   0.9917   0.9916
     0.9913   0.9913   0.9913   0.9913   0.9912   0.9912   0.9912   0.9912
     0.9911   0.9911   0.9911   0.9911   0.9906   0.9906   0.9905   0.9905
     0.9904   0.9904   0.9904   0.9904   0.9903   0.9903   0.9903   0.9902
     0.9899   0.9899   0.9899   0.9898   0.9891   0.9891   0.9891   0.9891
     0.9888   0.9888   0.9888   0.9888   0.9885   0.9885   0.9885   0.9885
     0.9869   0.9869   0.9868   0.9868   0.9868   0.9868   0.9866   0.9866
     0.9857   0.9857   0.9857   0.9857   0.9852   0.9852   0.9850   0.9850
     0.9845   0.9845   0.9845   0.9845   0.9838   0.9838   0.9838   0.9838
     0.9834   0.9834   0.9834   0.9834   0.9831   0.9831   0.9831   0.9831
     0.9800   0.9800   0.9799   0.9799   0.9799   0.9799   0.9799   0.9799
     0.9795   0.9795   0.9795   0.9795   0.9790   0.9790   0.9790   0.9790
     0.9786   0.9786   0.9785   0.9785   0.9782   0.9782   0.9782   0.9782
     0.9779   0.9779   0.9779   0.9779   0.9772   0.9772   0.9772   0.9772
     0.9766   0.9766   0.9766   0.9766   0.9747   0.9747   0.9747   0.9747
     0.9739   0.9739   0.9738   0.9738   0.9728   0.9728   0.9727   0.9727
     0.9713   0.9713   0.9713   0.9713   0.9677   0.9676   0.9675   0.9675
     0.9660   0.9660   0.9659   0.9659   0.9636   0.9636   0.9635   0.9635
     0.9633   0.9633   0.9633   0.9633   0.9625   0.9625   0.9625   0.9625
     0.9401   0.9401   0.9400   0.9400   0.8514   0.8514   0.8505   0.8505
     0.7895   0.7895   0.7889   0.7889   0.7133   0.7133   0.7132   0.7132
     0.6043   0.6043   0.6042   0.6042   0.4501   0.4501   0.4500   0.4500
     0.3751   0.3751   0.3743   0.3743   0.2676   0.2676   0.2674   0.2674
     0.1769   0.1768   0.1763   0.1763   0.1596   0.1596   0.1578   0.1578
     0.1033   0.1033   0.1029   0.1029   0.0956   0.0955   0.0953   0.0952
     0.0546   0.0545   0.0543   0.0543   0.0376   0.0376   0.0353   0.0353
     0.0282   0.0282   0.0279   0.0279   0.0211   0.0211   0.0203   0.0202
     0.0196   0.0196   0.0195   0.0194   0.0068   0.0068   0.0068   0.0068
     0.0061   0.0061   0.0061   0.0061   0.0045   0.0045   0.0045   0.0044
     0.0002   0.0002   0.0002   0.0002   0.0000   0.0000   0.0000   0.0000
     0.0000   0.0000   0.0000   0.0000   0.0000   0.0000   0.0000   0.0000
     0.0000   0.0000   0.0000   0.0000   0.0000   0.0000   0.0000   0.0000
     0.0000   0.0000   0.0000   0.0000   0.0000   0.0000   0.0000   0.0000
     0.0000   0.0000   0.0000   0.0000   0.0000   0.0000   0.0000   0.0000
     0.0000   0.0000   0.0000   0.0000   0.0000   0.0000   0.0000   0.0000
     0.0000   0.0000   0.0000   0.0000   0.0000   0.0000   0.0000   0.0000
     0.0000   0.0000   0.0000   0.0000   0.0000   0.0000   0.0000   0.0000
     0.0000   0.0000   0.0000   0.0000   0.0000   0.0000   0.0000

     the Fermi energy is     3.6473 ev

!    total energy              =  -12698.89117156 Ry
     Harris-Foulkes estimate   =  -12698.89117155 Ry
     estimated scf accuracy    <          1.6E-09 Ry

     The total energy is the sum of the following terms:

     one-electron contribution = -109279.19727547 Ry
     hartree contribution      =   56016.96591795 Ry
     xc contribution           =   -4447.11627173 Ry
     ewald contribution        =   45016.76625785 Ry
     Dispersion Correction     =      -2.98700982 Ry
     smearing contrib. (-TS)   =      -3.32279034 Ry

     convergence has been achieved in  43 iterations

     Writing output data file gc.save
 
     init_run     :    101.34s CPU    108.99s WALL (       1 calls)
     electrons    :  12013.31s CPU  12845.27s WALL (       1 calls)

     Called by init_run:
     wfcinit      :     99.15s CPU    106.21s WALL (       1 calls)
     potinit      :      0.36s CPU      0.38s WALL (       1 calls)

     Called by electrons:
     c_bands      :  11039.22s CPU  11774.16s WALL (      43 calls)
     sum_band     :    798.94s CPU    867.76s WALL (      43 calls)
     v_of_rho     :      2.99s CPU      3.52s WALL (      44 calls)
     v_h          :      0.24s CPU      0.34s WALL (      44 calls)
     v_xc         :      2.75s CPU      3.18s WALL (      44 calls)
     newd         :      7.87s CPU     13.90s WALL (      44 calls)
     mix_rho      :    164.04s CPU    185.25s WALL (      43 calls)

     Called by c_bands:
     init_us_2    :     35.79s CPU     36.31s WALL (     522 calls)
     cegterg      :  10882.50s CPU  11611.36s WALL (     263 calls)

     Called by sum_band:
     sum_band:bec :      4.42s CPU      4.98s WALL (     258 calls)
     addusdens    :      7.80s CPU     13.75s WALL (      43 calls)

     Called by *egterg:
     h_psi        :   3984.63s CPU   4308.52s WALL (    1648 calls)
     s_psi        :    972.14s CPU    983.90s WALL (    1648 calls)
     g_psi        :     10.11s CPU     10.13s WALL (    1379 calls)
     cdiaghg      :   3086.47s CPU   3201.99s WALL (    1637 calls)
     cegterg:over :   1105.76s CPU   1121.65s WALL (    1379 calls)
     cegterg:upda :    853.96s CPU    941.50s WALL (    1379 calls)
     cegterg:last :    674.01s CPU    696.44s WALL (     305 calls)
     cdiaghg:chol :    127.62s CPU    131.64s WALL (    1637 calls)
     cdiaghg:inve :    146.46s CPU    146.59s WALL (    1637 calls)
     cdiaghg:para :    256.00s CPU    319.13s WALL (    3274 calls)

     Called by h_psi:
     h_psi:vloc   :   1977.88s CPU   2280.23s WALL (    1648 calls)
     h_psi:vnl    :   1983.53s CPU   2005.05s WALL (    1648 calls)
     add_vuspsi   :    978.41s CPU    992.40s WALL (    1648 calls)

     General routines
     calbec       :   1371.50s CPU   1381.72s WALL (    1906 calls)
     fft          :      2.97s CPU      3.43s WALL (     571 calls)
     ffts         :     95.39s CPU    107.82s WALL (   25586 calls)
     fftw         :   2274.42s CPU   2531.52s WALL ( 1266202 calls)
 
     Parallel routines
     fft_scatter  :   1476.24s CPU   1613.63s WALL ( 1292359 calls)
 
     PWSCF        :     3h22m CPU        3h37m WALL

 
   This run was terminated on:  19:59:11  27Apr2017            

=------------------------------------------------------------------------------=
   JOB DONE.
=------------------------------------------------------------------------------=
