mpirun: INFO: switching to OpenMPI runtime version 1.10.2

     Program PWSCF v.5.4.0 starts on  5Oct2017 at  7:12:12 

     This program is part of the open-source Quantum ESPRESSO suite
     for quantum simulation of materials; please cite
         "P. Giannozzi et al., J. Phys.:Condens. Matter 21 395502 (2009);
          URL http://www.quantum-espresso.org", 
     in publications or presentations arising from this work. More details at
     http://www.quantum-espresso.org/quote

     Parallel version (MPI & OpenMP), running on      28 processor cores
     Number of MPI processes:                28
     Threads/MPI process:                     1
     R & G space division:  proc/nbgrp/npool/nimage =      28
     Waiting for input...
     Reading input from standard input
Warning: card &IONS ignored
Warning: card / ignored

     Current dimensions of program PWSCF are:
     Max number of different atomic species (ntypx) = 10
     Max number of k-points (npk) =  40000
     Max angular momentum in pseudopotentials (lmaxx) =  3
     WARNING: atomic wfc #  2 for atom type 4 has zero norm
     WARNING: atomic wfc #  4 for atom type 4 has zero norm
     WARNING: atomic wfc #  5 for atom type 4 has zero norm

     -------------------------------------
     Parameters for Dispersion Correction:
     -------------------------------------
       atom      VdW radius       C_6     

        Cu         2.952        374.666
        C_h        2.744         60.710
        C          2.744         60.710
        O          2.536         24.284

     Subspace diagonalization in iterative solution of the eigenvalue problem:
     one sub-group per band group will be used
     scalapack distributed-memory algorithm (size of sub-group:  3*  3 procs)

 
     Parallelization info
     --------------------
     sticks:   dense  smooth     PW     G-vecs:    dense   smooth      PW
     Min         408     408    108                73226    73226    9928
     Max         410     410    109                73231    73231    9931
     Sum       11433   11433   3039              2050409  2050409  278033
 


     bravais-lattice index     =            0
     lattice parameter (alat)  =      13.9425  a.u.
     unit-cell volume          =   21209.0878 (a.u.)^3
     number of atoms/cell      =          151
     number of atomic types    =            4
     number of electrons       =      1308.00
     number of Kohn-Sham states=          785
     kinetic-energy cutoff     =      80.0000  Ry
     charge density cutoff     =     320.0000  Ry
     convergence threshold     =      1.0E-08
     mixing beta               =       0.7000
     number of iterations used =            8  local-TF  mixing
     Exchange-correlation      =  SLA  PW   PBX  PBC ( 1  4  3  4 0 0)

     celldm(1)=  13.942539  celldm(2)=   0.000000  celldm(3)=   0.000000
     celldm(4)=   0.000000  celldm(5)=   0.000000  celldm(6)=   0.000000

     crystal axes: (cart. coord. in units of alat)
               a(1) = (   1.000000   0.000000   0.000000 )  
               a(2) = (   0.000000   2.309401   0.000000 )  
               a(3) = (   0.000000   0.000000   3.388418 )  

     reciprocal axes: (cart. coord. in units 2 pi/alat)
               b(1) = (  1.000000  0.000000  0.000000 )  
               b(2) = (  0.000000  0.433013  0.000000 )  
               b(3) = (  0.000000  0.000000  0.295123 )  


     PseudoPot. # 1 for Cu read from file:
     /home/549/hxw549/Short/pseudopotentials/Cu.pbe-n-van_ak.UPF
     MD5 check sum: 601f7c30f7467666bec936e0661ce3e1
     Pseudo is Ultrasoft + core correction, Zval = 11.0
     Generated by new atomic code, or converted to UPF format
     Using radial grid of  867 points,  6 beta functions with: 
                l(1) =   0
                l(2) =   0
                l(3) =   1
                l(4) =   1
                l(5) =   2
                l(6) =   2
     Q(r) pseudized with  8 coefficients,  rinner =    1.400   1.400   1.400
                                                       1.400   1.400

     PseudoPot. # 2 for C  read from file:
     /home/549/hxw549/Short/pseudopotentials/C.star1s-pbe-mt_gipaw.UPF
     MD5 check sum: ef0cb3dee31bd9e4ba2a832a2c716264
     Pseudo is Norm-conserving, Zval =  5.0
     Generated by new atomic code, or converted to UPF format
     Using radial grid of 1073 points,  1 beta functions with: 
                l(1) =   0

     PseudoPot. # 3 for C  read from file:
     /home/549/hxw549/Short/pseudopotentials/C.pbe-mt_gipaw.UPF
     MD5 check sum: 5ac2f21f2c440b14befe521540822c15
     Pseudo is Norm-conserving, Zval =  4.0
     Generated by new atomic code, or converted to UPF format
     Using radial grid of 1073 points,  1 beta functions with: 
                l(1) =   0

     PseudoPot. # 4 for O  read from file:
     /home/549/hxw549/Short/pseudopotentials/O.pbe-van_gipaw.UPF
     MD5 check sum: 5ce2a047509d4f331db576c963e74b29
     Pseudo is Ultrasoft, Zval =  6.0
     Generated by new atomic code, or converted to UPF format
     Using radial grid of 1095 points,  4 beta functions with: 
                l(1) =   0
                l(2) =   0
                l(3) =   1
                l(4) =   1
     Q(r) pseudized with 0 coefficients 


     atomic species   valence    mass     pseudopotential
        Cu            11.00    63.54600     Cu( 1.00)
        C_h            5.00    12.01070     C ( 1.00)
        C              4.00    12.01070     C ( 1.00)
        O              6.00    15.99940     O ( 1.00)

     No symmetry found



   Cartesian axes

     site n.     atom                  positions (alat units)
         1           Cu  tau(   1) = (   0.0008573  -0.0018351   0.9978221  )
         2           Cu  tau(   2) = (   0.2509084   0.2265501   0.9988819  )
         3           Cu  tau(   3) = (   0.5008508  -0.0019840   0.9975683  )
         4           Cu  tau(   4) = (   0.7507462   0.2262783   0.9983867  )
         5           Cu  tau(   5) = (   0.0009226   0.4569115   0.9995359  )
         6           Cu  tau(   6) = (   0.2509466   0.6897606   1.0003884  )
         7           Cu  tau(   7) = (   0.5007722   0.4569051   0.9997958  )
         8           Cu  tau(   8) = (   0.7508337   0.6899314   1.0007366  )
         9           Cu  tau(   9) = (   0.0008211   0.9242436   1.0005631  )
        10           Cu  tau(  10) = (   0.2510407   1.1587939   0.9997695  )
        11           Cu  tau(  11) = (   0.5010675   0.9243093   1.0009642  )
        12           Cu  tau(  12) = (   0.7507832   1.1585479   1.0002867  )
        13           Cu  tau(  13) = (   0.0008076   1.3920149   0.9981651  )
        14           Cu  tau(  14) = (   0.2508641   1.6229259   0.9968872  )
        15           Cu  tau(  15) = (   0.5009303   1.3917396   0.9986134  )
        16           Cu  tau(  16) = (   0.7508151   1.6234999   0.9965118  )
        17           Cu  tau(  17) = (   0.0010768   1.8521250   0.9962205  )
        18           Cu  tau(  18) = (   0.2506674   2.0802054   0.9970792  )
        19           Cu  tau(  19) = (   0.5006451   1.8527931   0.9957352  )
        20           Cu  tau(  20) = (   0.7510969   2.0800373   0.9962109  )
        21           Cu  tau(  21) = (   0.0009471   0.2250132   1.2487253  )
        22           Cu  tau(  22) = (   0.2507882  -0.0031446   1.2497440  )
        23           Cu  tau(  23) = (   0.5007919   0.2252728   1.2491714  )
        24           Cu  tau(  24) = (   0.7507971  -0.0036897   1.2491278  )
        25           Cu  tau(  25) = (   0.0012713   0.6893980   1.2461710  )
        26           Cu  tau(  26) = (   0.2511689   0.4560768   1.2478036  )
        27           Cu  tau(  27) = (   0.5013541   0.6891833   1.2462003  )
        28           Cu  tau(  28) = (   0.7508430   0.4560683   1.2474521  )
        29           Cu  tau(  29) = (   0.0015975   1.1598104   1.2452581  )
        30           Cu  tau(  30) = (   0.2511932   0.9245903   1.2453945  )
        31           Cu  tau(  31) = (   0.5012471   1.1599306   1.2456365  )
        32           Cu  tau(  32) = (   0.7516486   0.9243255   1.2458244  )
        33           Cu  tau(  33) = (   0.0010131   1.6253539   1.2462781  )
        34           Cu  tau(  34) = (   0.2511431   1.3937977   1.2457308  )
        35           Cu  tau(  35) = (   0.5008404   1.6254812   1.2457260  )
        36           Cu  tau(  36) = (   0.7511009   1.3943200   1.2451525  )
        37           Cu  tau(  37) = (   0.0008426   2.0793482   1.2491166  )
        38           Cu  tau(  38) = (   0.2507133   1.8534255   1.2477591  )
        39           Cu  tau(  39) = (   0.5006933   2.0795606   1.2489990  )
        40           Cu  tau(  40) = (   0.7509172   1.8537366   1.2472554  )
        41           Cu  tau(  41) = (   0.0008611  -0.0043987   1.5029302  )
        42           Cu  tau(  42) = (   0.2512449   0.2256642   1.5010773  )
        43           Cu  tau(  43) = (   0.5006184  -0.0040937   1.5031608  )
        44           Cu  tau(  44) = (   0.7506508   0.2245354   1.4992095  )
        45           Cu  tau(  45) = (   0.0016362   0.4566646   1.4959563  )
        46           Cu  tau(  46) = (   0.2523890   0.6905661   1.4930847  )
        47           Cu  tau(  47) = (   0.5011624   0.4575926   1.4977523  )
        48           Cu  tau(  48) = (   0.7518349   0.6902421   1.4941960  )
        49           Cu  tau(  49) = (   0.0023347   0.9247476   1.4925255  )
        50           Cu  tau(  50) = (   0.2526869   1.1599081   1.4923416  )
        51           Cu  tau(  51) = (   0.5020293   0.9246479   1.4907170  )
        52           Cu  tau(  52) = (   0.7523795   1.1609499   1.4907313  )
        53           Cu  tau(  53) = (   0.0022775   1.3952011   1.4935895  )
        54           Cu  tau(  54) = (   0.2511571   1.6262829   1.4978436  )
        55           Cu  tau(  55) = (   0.5013820   1.3947667   1.4939515  )
        56           Cu  tau(  56) = (   0.7512738   1.6266946   1.4968330  )
        57           Cu  tau(  57) = (   0.0008850   1.8536557   1.5027652  )
        58           Cu  tau(  58) = (   0.2508739   2.0790658   1.5048008  )
        59           Cu  tau(  59) = (   0.5008476   1.8533228   1.5022434  )
        60           Cu  tau(  60) = (   0.7505503   2.0787726   1.5044290  )
        61           Cu  tau(  61) = (   0.0016980   0.2262386   1.7497375  )
        62           Cu  tau(  62) = (   0.2509798  -0.0025672   1.7582257  )
        63           Cu  tau(  63) = (   0.5004316   0.2264262   1.7510009  )
        64           Cu  tau(  64) = (   0.7505303  -0.0023169   1.7573829  )
        65           Cu  tau(  65) = (   0.0019661   0.6913147   1.7387950  )
        66           Cu  tau(  66) = (   0.2525391   0.4569089   1.7431399  )
        67           Cu  tau(  67) = (   0.5023063   0.6918415   1.7420106  )
        68           Cu  tau(  68) = (   0.7512651   0.4566422   1.7431147  )
        69           Cu  tau(  69) = (   0.0041309   1.1625029   1.7356721  )
        70           Cu  tau(  70) = (   0.2541015   0.9252915   1.7395658  )
        71           Cu  tau(  71) = (   0.5034121   1.1639708   1.7344821  )
        72           Cu  tau(  72) = (   0.7552233   0.9274694   1.7335093  )
        73           Cu  tau(  73) = (   0.0022497   1.6232892   1.7515641  )
        74           Cu  tau(  74) = (   0.2533954   1.3956478   1.7415910  )
        75           Cu  tau(  75) = (   0.5018708   1.6237189   1.7502102  )
        76           Cu  tau(  76) = (   0.7526275   1.3955884   1.7397767  )
        77           Cu  tau(  77) = (   0.0007931   2.0789532   1.7611861  )
        78           Cu  tau(  78) = (   0.2511024   1.8512109   1.7583458  )
        79           Cu  tau(  79) = (   0.5009469   2.0787117   1.7606683  )
        80           Cu  tau(  80) = (   0.7514974   1.8508067   1.7587645  )
        81           Cu  tau(  81) = (   0.0027001   0.0029980   2.0095044  )
        82           Cu  tau(  82) = (   0.2527623   0.2336652   2.0024965  )
        83           Cu  tau(  83) = (   0.4986408   0.0010217   2.0104275  )
        84           Cu  tau(  84) = (   0.7489619   0.2291224   2.0040216  )
        85           Cu  tau(  85) = (  -0.0040408   0.4547941   1.9920730  )
        86           Cu  tau(  86) = (   0.2450909   0.6829240   1.9777034  )
        87           Cu  tau(  87) = (   0.5057828   0.4610105   1.9921824  )
        88           Cu  tau(  88) = (   0.7566954   0.6902729   1.9820341  )
        89           Cu  tau(  89) = (  -0.0032760   0.9313842   1.9771744  )
        90           Cu  tau(  90) = (   0.2495046   1.1622461   1.9788034  )
        91           Cu  tau(  91) = (   0.5198945   0.9355611   1.9773492  )
        92           Cu  tau(  92) = (   0.7623623   1.1705451   1.9826590  )
        93           Cu  tau(  93) = (   0.0082718   1.3932274   1.9974148  )
        94           Cu  tau(  94) = (   0.2553816   1.6199201   2.0056436  )
        95           Cu  tau(  95) = (   0.5016980   1.3878665   1.9912681  )
        96           Cu  tau(  96) = (   0.7518046   1.6146709   2.0045172  )
        97           Cu  tau(  97) = (   0.0003802   1.8462857   2.0115053  )
        98           Cu  tau(  98) = (   0.2508654   2.0775278   2.0128486  )
        99           Cu  tau(  99) = (   0.5037438   1.8474348   2.0102532  )
       100           Cu  tau( 100) = (   0.7513138   2.0807412   2.0125075  )
       101           C   tau( 101) = (   0.0011935   0.1000454   2.4741236  )
       102           C   tau( 102) = (   0.0013404   0.2901495   2.5156341  )
       103           C   tau( 103) = (   0.1677339   0.0040837   2.4545295  )
       104           C   tau( 104) = (   0.1682026   0.3849657   2.5377422  )
       105           C   tau( 105) = (   0.3344074   0.1002286   2.4714289  )
       106           C   tau( 106) = (   0.3346996   0.2899831   2.5140076  )
       107           C   tau( 107) = (   0.5012815   0.0040445   2.4544666  )
       108           C   tau( 108) = (   0.5015968   0.3851290   2.5349016  )
       109           C   tau( 109) = (   0.6681420   0.1002381   2.4726525  )
       110           C   tau( 110) = (   0.6684547   0.2904654   2.5131399  )
       111           C   tau( 111) = (   0.8345067   0.0035993   2.4576986  )
       112           C   tau( 112) = (   0.8349029   0.3856629   2.5369630  )
       113           C   tau( 113) = (   0.0018811   0.6733068   2.5877646  )
       114           C   tau( 114) = (   0.0016679   0.8678673   2.6011207  )
       115           C   tau( 115) = (   0.1685863   0.5750921   2.5778622  )
       116           C   tau( 116) = (   0.1663861   0.9662559   2.5993949  )
       117           C   tau( 117) = (   0.3352566   0.6695179   2.5928252  )
       118           C   tau( 118) = (   0.3355020   0.8670591   2.5834879  )
       119           C_h tau( 119) = (   0.5017990   0.5752781   2.5750147  )
       120           C   tau( 120) = (   0.5035221   0.9663080   2.6054749  )
       121           C   tau( 121) = (   0.6682909   0.6736338   2.5862785  )
       122           C   tau( 122) = (   0.6682695   0.8677820   2.6039852  )
       123           C   tau( 123) = (   0.8352335   0.5773365   2.5725417  )
       124           C   tau( 124) = (   0.8349689   0.9652527   2.6001355  )
       125           C   tau( 125) = (   0.0010665   1.2552202   2.5666315  )
       126           C   tau( 126) = (   0.0012477   1.4457697   2.5284987  )
       127           C   tau( 127) = (   0.1675581   1.1585448   2.5807218  )
       128           C   tau( 128) = (   0.1679636   1.5404101   2.5050077  )
       129           C   tau( 129) = (   0.3349431   1.2542814   2.5630127  )
       130           C   tau( 130) = (   0.3347897   1.4444110   2.5243447  )
       131           C   tau( 131) = (   0.5020061   1.1584714   2.5841203  )
       132           C   tau( 132) = (   0.5013393   1.5403612   2.5043339  )
       133           C   tau( 133) = (   0.6681619   1.2552363   2.5673588  )
       134           C   tau( 134) = (   0.6680338   1.4454475   2.5275663  )
       135           C   tau( 135) = (   0.8346856   1.1586075   2.5821647  )
       136           C   tau( 136) = (   0.8345324   1.5411140   2.5071397  )
       137           C   tau( 137) = (   0.0010460   1.8278692   2.4511787  )
       138           C   tau( 138) = (   0.0010317   2.0217261   2.4342541  )
       139           C   tau( 139) = (   0.1678685   1.7310290   2.4663119  )
       140           C   tau( 140) = (   0.1675627   2.1197405   2.4349419  )
       141           C   tau( 141) = (   0.3343157   1.8275601   2.4502918  )
       142           C   tau( 142) = (   0.3343711   2.0217622   2.4360008  )
       143           C   tau( 143) = (   0.5010915   1.7307980   2.4646800  )
       144           C   tau( 144) = (   0.5010073   2.1196324   2.4373775  )
       145           C   tau( 145) = (   0.6676447   1.8274733   2.4494839  )
       146           C   tau( 146) = (   0.6675343   2.0216639   2.4345855  )
       147           C   tau( 147) = (   0.8343141   1.7313514   2.4669788  )
       148           C   tau( 148) = (   0.8342927   2.1195700   2.4359499  )
       149           C   tau( 149) = (   0.3364713   0.8554695   2.3059262  )
       150           O   tau( 150) = (   0.4663307   0.9439922   2.2440879  )
       151           O   tau( 151) = (   0.2156522   0.7576010   2.2397108  )

     number of k points=     6  gaussian smearing, width (Ry)=  0.1000
                       cart. coord. in units 2pi/alat
        k(    1) = (   0.0000000   0.0000000   0.0000000), wk =   0.2500000
        k(    2) = (   0.0000000  -0.2165064   0.0000000), wk =   0.2500000
        k(    3) = (   0.2500000   0.0000000   0.0000000), wk =   0.5000000
        k(    4) = (   0.2500000  -0.2165064   0.0000000), wk =   0.5000000
        k(    5) = (  -0.5000000   0.0000000   0.0000000), wk =   0.2500000
        k(    6) = (  -0.5000000  -0.2165064   0.0000000), wk =   0.2500000

     Dense  grid:  2050409 G-vectors     FFT dimensions: (  80, 192, 270)

     Largest allocated arrays     est. size (Mb)     dimensions
        Kohn-Sham Wavefunctions       109.85 Mb     (    9171,  785)
        NL pseudopotentials           260.99 Mb     (    9171, 1865)
        Each V/rho on FFT grid          2.34 Mb     (  153600)
        Each G-vector array             0.56 Mb     (   73230)
        G-vector shells                 0.27 Mb     (   35784)
     Largest temporary arrays     est. size (Mb)     dimensions
        Auxiliary wavefunctions       439.41 Mb     (    9171, 3140)
        Each subspace H/S matrix       16.69 Mb     (    1046, 1046)
        Each <psi_i|beta_j> matrix     22.34 Mb     (    1865,  785)
        Arrays for rho mixing          18.75 Mb     (  153600,    8)

     Initial potential from superposition of free atoms
     Check: negative starting charge=   -0.001496

     starting charge 1282.31751, renormalised to 1308.00000

     negative rho (up, down):  1.526E-03 0.000E+00
     Starting wfc are 1300 randomized atomic wfcs

     total cpu time spent up to now is      201.3 secs

     Self-consistent Calculation

     iteration #  1     ecut=    80.00 Ry     beta=0.70
     Davidson diagonalization with overlap
     c_bands:  5 eigenvalues not converged
     c_bands:  5 eigenvalues not converged
     c_bands:  4 eigenvalues not converged
     c_bands:  2 eigenvalues not converged
     ethr =  1.00E-04,  avg # of iterations = 42.5

     negative rho (up, down):  2.510E+01 0.000E+00

     total cpu time spent up to now is     4762.7 secs

     total energy              =  -10047.35765583 Ry
     Harris-Foulkes estimate   =  -18315.51572330 Ry
     estimated scf accuracy    <  211821.72871250 Ry

     iteration #  2     ecut=    80.00 Ry     beta=0.70
     Davidson diagonalization with overlap
     ethr =  1.00E-02,  avg # of iterations = 14.3

     negative rho (up, down):  3.338E+01 0.000E+00

     total cpu time spent up to now is     6830.4 secs

     total energy              =  -11901.10065771 Ry
     Harris-Foulkes estimate   =  -13854.00467261 Ry
     estimated scf accuracy    <   36605.45174760 Ry

     iteration #  3     ecut=    80.00 Ry     beta=0.70
     Davidson diagonalization with overlap
     ethr =  1.00E-02,  avg # of iterations = 18.7

     negative rho (up, down):  3.165E+01 0.000E+00

     total cpu time spent up to now is     8774.0 secs

     total energy              =  -12161.31178029 Ry
     Harris-Foulkes estimate   =  -13770.33362118 Ry
     estimated scf accuracy    <    6741.82305151 Ry

     iteration #  4     ecut=    80.00 Ry     beta=0.70
     Davidson diagonalization with overlap
     ethr =  1.00E-02,  avg # of iterations =  4.3

     negative rho (up, down):  2.206E+01 0.000E+00

     total cpu time spent up to now is     9756.1 secs

     total energy              =  -12909.09277653 Ry
     Harris-Foulkes estimate   =  -13133.31395571 Ry
     estimated scf accuracy    <    1002.30719502 Ry

     iteration #  5     ecut=    80.00 Ry     beta=0.70
     Davidson diagonalization with overlap
     ethr =  1.00E-02,  avg # of iterations =  3.0

     negative rho (up, down):  1.763E+01 0.000E+00

     total cpu time spent up to now is    10276.5 secs

     total energy              =  -12917.02183102 Ry
     Harris-Foulkes estimate   =  -12982.59329397 Ry
     estimated scf accuracy    <    1266.60230554 Ry

     iteration #  6     ecut=    80.00 Ry     beta=0.70
     Davidson diagonalization with overlap
     ethr =  1.00E-02,  avg # of iterations =  1.0

     negative rho (up, down):  1.270E+01 0.000E+00

     total cpu time spent up to now is    10598.3 secs

     total energy              =  -12881.70066977 Ry
     Harris-Foulkes estimate   =  -12938.98116413 Ry
     estimated scf accuracy    <     527.37532507 Ry

     iteration #  7     ecut=    80.00 Ry     beta=0.70
     Davidson diagonalization with overlap
     ethr =  1.00E-02,  avg # of iterations =  2.0

     negative rho (up, down):  7.589E+00 0.000E+00

     total cpu time spent up to now is    10944.9 secs

     total energy              =  -12862.10232600 Ry
     Harris-Foulkes estimate   =  -12905.74656731 Ry
     estimated scf accuracy    <     364.21858513 Ry

     iteration #  8     ecut=    80.00 Ry     beta=0.70
     Davidson diagonalization with overlap
     ethr =  1.00E-02,  avg # of iterations =  1.2

     negative rho (up, down):  6.450E+00 0.000E+00

     total cpu time spent up to now is    11268.3 secs

     total energy              =  -12855.04402835 Ry
     Harris-Foulkes estimate   =  -12869.28025126 Ry
     estimated scf accuracy    <     309.54306871 Ry

     iteration #  9     ecut=    80.00 Ry     beta=0.70
     Davidson diagonalization with overlap
     ethr =  1.00E-02,  avg # of iterations =  1.0

     negative rho (up, down):  5.119E+00 0.000E+00

     total cpu time spent up to now is    11589.5 secs

     total energy              =  -12846.23409482 Ry
     Harris-Foulkes estimate   =  -12859.38317351 Ry
     estimated scf accuracy    <     194.97443844 Ry

     iteration # 10     ecut=    80.00 Ry     beta=0.70
     Davidson diagonalization with overlap
     ethr =  1.00E-02,  avg # of iterations =  1.0

     negative rho (up, down):  8.907E-01 0.000E+00

     total cpu time spent up to now is    11913.4 secs

     total energy              =  -12811.33443162 Ry
     Harris-Foulkes estimate   =  -12848.04057079 Ry
     estimated scf accuracy    <     160.51627772 Ry

     iteration # 11     ecut=    80.00 Ry     beta=0.70
     Davidson diagonalization with overlap
     ethr =  1.00E-02,  avg # of iterations =  1.3

     negative rho (up, down):  5.720E-01 0.000E+00

     total cpu time spent up to now is    12241.7 secs

     total energy              =  -12798.85894068 Ry
     Harris-Foulkes estimate   =  -12817.05412359 Ry
     estimated scf accuracy    <     107.73921020 Ry

     iteration # 12     ecut=    80.00 Ry     beta=0.70
     Davidson diagonalization with overlap
     ethr =  8.24E-03,  avg # of iterations =  2.2

     negative rho (up, down):  1.706E+00 0.000E+00

     total cpu time spent up to now is    12588.8 secs

     total energy              =  -12796.63195342 Ry
     Harris-Foulkes estimate   =  -12806.30627019 Ry
     estimated scf accuracy    <      54.54640947 Ry

     iteration # 13     ecut=    80.00 Ry     beta=0.70
     Davidson diagonalization with overlap
     ethr =  4.17E-03,  avg # of iterations =  3.7

     negative rho (up, down):  4.065E+00 0.000E+00

     total cpu time spent up to now is    12968.5 secs

     total energy              =  -12788.85206671 Ry
     Harris-Foulkes estimate   =  -12798.98385165 Ry
     estimated scf accuracy    <      80.02781213 Ry

     iteration # 14     ecut=    80.00 Ry     beta=0.70
     Davidson diagonalization with overlap
     ethr =  4.17E-03,  avg # of iterations =  2.8

     negative rho (up, down):  4.292E+00 0.000E+00

     total cpu time spent up to now is    13330.1 secs

     total energy              =  -12789.11336713 Ry
     Harris-Foulkes estimate   =  -12794.98377047 Ry
     estimated scf accuracy    <      56.52415312 Ry

     iteration # 15     ecut=    80.00 Ry     beta=0.70
     Davidson diagonalization with overlap
     ethr =  4.17E-03,  avg # of iterations =  2.0

     negative rho (up, down):  1.750E+00 0.000E+00

     total cpu time spent up to now is    13673.2 secs

     total energy              =  -12787.69810944 Ry
     Harris-Foulkes estimate   =  -12792.67160703 Ry
     estimated scf accuracy    <      34.37610490 Ry

     iteration # 16     ecut=    80.00 Ry     beta=0.70
     Davidson diagonalization with overlap
     ethr =  2.63E-03,  avg # of iterations =  2.0

     negative rho (up, down):  4.735E+00 0.000E+00

     total cpu time spent up to now is    14015.4 secs

     total energy              =  -12787.86445832 Ry
     Harris-Foulkes estimate   =  -12790.92779614 Ry
     estimated scf accuracy    <      31.17025065 Ry

     iteration # 17     ecut=    80.00 Ry     beta=0.70
     Davidson diagonalization with overlap
     ethr =  2.38E-03,  avg # of iterations =  2.5

     negative rho (up, down):  3.803E+00 0.000E+00

     total cpu time spent up to now is    14369.2 secs

     total energy              =  -12787.87001417 Ry
     Harris-Foulkes estimate   =  -12788.86363496 Ry
     estimated scf accuracy    <      14.31939131 Ry

     iteration # 18     ecut=    80.00 Ry     beta=0.70
     Davidson diagonalization with overlap
     ethr =  1.09E-03,  avg # of iterations =  3.5

     negative rho (up, down):  3.638E+00 0.000E+00

     total cpu time spent up to now is    14743.0 secs

     total energy              =  -12786.78840112 Ry
     Harris-Foulkes estimate   =  -12788.13255798 Ry
     estimated scf accuracy    <      11.28799032 Ry

     iteration # 19     ecut=    80.00 Ry     beta=0.70
     Davidson diagonalization with overlap
     ethr =  8.63E-04,  avg # of iterations =  5.2

     negative rho (up, down):  2.466E+00 0.000E+00

     total cpu time spent up to now is    15156.9 secs

     total energy              =  -12785.86252201 Ry
     Harris-Foulkes estimate   =  -12787.02719698 Ry
     estimated scf accuracy    <       8.65016290 Ry

     iteration # 20     ecut=    80.00 Ry     beta=0.70
     Davidson diagonalization with overlap
     ethr =  6.61E-04,  avg # of iterations =  1.2

     negative rho (up, down):  1.925E+00 0.000E+00

     total cpu time spent up to now is    15483.1 secs

     total energy              =  -12785.05719886 Ry
     Harris-Foulkes estimate   =  -12786.08004736 Ry
     estimated scf accuracy    <       6.20738440 Ry

     iteration # 21     ecut=    80.00 Ry     beta=0.70
     Davidson diagonalization with overlap
     ethr =  4.75E-04,  avg # of iterations =  1.5

     negative rho (up, down):  1.314E+00 0.000E+00

     total cpu time spent up to now is    15814.5 secs

     total energy              =  -12784.16574761 Ry
     Harris-Foulkes estimate   =  -12785.24865518 Ry
     estimated scf accuracy    <       7.48095671 Ry

     iteration # 22     ecut=    80.00 Ry     beta=0.70
     Davidson diagonalization with overlap
     ethr =  4.75E-04,  avg # of iterations =  1.0

     negative rho (up, down):  1.311E+00 0.000E+00

     total cpu time spent up to now is    16136.8 secs

     total energy              =  -12784.33086718 Ry
     Harris-Foulkes estimate   =  -12784.45978876 Ry
     estimated scf accuracy    <       6.14918026 Ry

     iteration # 23     ecut=    80.00 Ry     beta=0.70
     Davidson diagonalization with overlap
     ethr =  4.70E-04,  avg # of iterations =  1.0

     negative rho (up, down):  3.826E-01 0.000E+00

     total cpu time spent up to now is    16459.1 secs

     total energy              =  -12782.57646474 Ry
     Harris-Foulkes estimate   =  -12784.58182408 Ry
     estimated scf accuracy    <       4.91480424 Ry

     iteration # 24     ecut=    80.00 Ry     beta=0.70
     Davidson diagonalization with overlap
     ethr =  3.76E-04,  avg # of iterations = 11.8

     negative rho (up, down):  3.451E-01 0.000E+00

     total cpu time spent up to now is    17031.4 secs

     total energy              =  -12782.08756526 Ry
     Harris-Foulkes estimate   =  -12782.75985392 Ry
     estimated scf accuracy    <       4.64006395 Ry

     iteration # 25     ecut=    80.00 Ry     beta=0.70
     Davidson diagonalization with overlap
     ethr =  3.55E-04,  avg # of iterations =  3.5

     negative rho (up, down):  7.087E-01 0.000E+00

     total cpu time spent up to now is    17412.2 secs

     total energy              =  -12782.14618514 Ry
     Harris-Foulkes estimate   =  -12782.44983306 Ry
     estimated scf accuracy    <       2.47410041 Ry

     iteration # 26     ecut=    80.00 Ry     beta=0.70
     Davidson diagonalization with overlap
     ethr =  1.89E-04,  avg # of iterations =  7.3

     negative rho (up, down):  6.318E-01 0.000E+00

     total cpu time spent up to now is    17927.2 secs

     total energy              =  -12782.12169370 Ry
     Harris-Foulkes estimate   =  -12782.33464920 Ry
     estimated scf accuracy    <       1.65359334 Ry

     iteration # 27     ecut=    80.00 Ry     beta=0.70
     Davidson diagonalization with overlap
     ethr =  1.26E-04,  avg # of iterations =  2.2

     negative rho (up, down):  5.068E-01 0.000E+00

     total cpu time spent up to now is    18278.0 secs

     total energy              =  -12782.10762110 Ry
     Harris-Foulkes estimate   =  -12782.18461461 Ry
     estimated scf accuracy    <       0.63815580 Ry

     iteration # 28     ecut=    80.00 Ry     beta=0.70
     Davidson diagonalization with overlap
     ethr =  4.88E-05,  avg # of iterations =  9.7

     negative rho (up, down):  3.452E-01 0.000E+00

     total cpu time spent up to now is    18791.4 secs

     total energy              =  -12782.08859661 Ry
     Harris-Foulkes estimate   =  -12782.12819262 Ry
     estimated scf accuracy    <       0.27491214 Ry

     iteration # 29     ecut=    80.00 Ry     beta=0.70
     Davidson diagonalization with overlap
     ethr =  2.10E-05,  avg # of iterations =  9.5

     negative rho (up, down):  2.208E-01 0.000E+00

     total cpu time spent up to now is    19323.0 secs

     total energy              =  -12782.08641553 Ry
     Harris-Foulkes estimate   =  -12782.10009221 Ry
     estimated scf accuracy    <       0.06811092 Ry

     iteration # 30     ecut=    80.00 Ry     beta=0.70
     Davidson diagonalization with overlap
     c_bands:  3 eigenvalues not converged
     c_bands:  2 eigenvalues not converged
     ethr =  5.21E-06,  avg # of iterations = 14.2

     negative rho (up, down):  1.887E-01 0.000E+00

     total cpu time spent up to now is    19994.4 secs

     total energy              =  -12782.08755404 Ry
     Harris-Foulkes estimate   =  -12782.09234040 Ry
     estimated scf accuracy    <       0.03793293 Ry

     iteration # 31     ecut=    80.00 Ry     beta=0.70
     Davidson diagonalization with overlap
     ethr =  2.90E-06,  avg # of iterations =  9.7

     negative rho (up, down):  1.065E-01 0.000E+00

     total cpu time spent up to now is    20519.6 secs

     total energy              =  -12782.08544476 Ry
     Harris-Foulkes estimate   =  -12782.08988530 Ry
     estimated scf accuracy    <       0.01442574 Ry

     iteration # 32     ecut=    80.00 Ry     beta=0.70
     Davidson diagonalization with overlap
     c_bands:  1 eigenvalues not converged
     c_bands:  2 eigenvalues not converged
     ethr =  1.10E-06,  avg # of iterations = 15.0

     negative rho (up, down):  5.636E-02 0.000E+00

     total cpu time spent up to now is    21225.6 secs

     total energy              =  -12782.08367643 Ry
     Harris-Foulkes estimate   =  -12782.08626777 Ry
     estimated scf accuracy    <       0.00454837 Ry

     iteration # 33     ecut=    80.00 Ry     beta=0.70
     Davidson diagonalization with overlap
     c_bands:  1 eigenvalues not converged
     ethr =  3.48E-07,  avg # of iterations = 13.5

     negative rho (up, down):  1.747E-02 0.000E+00

     total cpu time spent up to now is    21876.6 secs

     total energy              =  -12782.08347317 Ry
     Harris-Foulkes estimate   =  -12782.08401015 Ry
     estimated scf accuracy    <       0.00164123 Ry

     iteration # 34     ecut=    80.00 Ry     beta=0.70
     Davidson diagonalization with overlap
     c_bands:  1 eigenvalues not converged
     c_bands:  1 eigenvalues not converged
     c_bands:  1 eigenvalues not converged
     ethr =  1.25E-07,  avg # of iterations = 15.2

     negative rho (up, down):  1.374E-02 0.000E+00

     total cpu time spent up to now is    22593.9 secs

     total energy              =  -12782.08331579 Ry
     Harris-Foulkes estimate   =  -12782.08360985 Ry
     estimated scf accuracy    <       0.00109835 Ry

     iteration # 35     ecut=    80.00 Ry     beta=0.70
     Davidson diagonalization with overlap
     ethr =  8.40E-08,  avg # of iterations =  6.2

     negative rho (up, down):  1.210E-02 0.000E+00

     total cpu time spent up to now is    23054.7 secs

     total energy              =  -12782.08333027 Ry
     Harris-Foulkes estimate   =  -12782.08342241 Ry
     estimated scf accuracy    <       0.00039185 Ry

     iteration # 36     ecut=    80.00 Ry     beta=0.70
     Davidson diagonalization with overlap
     ethr =  3.00E-08,  avg # of iterations =  3.7

     negative rho (up, down):  3.035E-03 0.000E+00

     total cpu time spent up to now is    23449.9 secs

     total energy              =  -12782.08318092 Ry
     Harris-Foulkes estimate   =  -12782.08335776 Ry
     estimated scf accuracy    <       0.00015185 Ry

     iteration # 37     ecut=    80.00 Ry     beta=0.70
     Davidson diagonalization with overlap
     c_bands:  1 eigenvalues not converged
     ethr =  1.16E-08,  avg # of iterations = 13.0

     negative rho (up, down):  1.256E-03 0.000E+00

     total cpu time spent up to now is    24088.8 secs

     total energy              =  -12782.08317419 Ry
     Harris-Foulkes estimate   =  -12782.08319665 Ry
     estimated scf accuracy    <       0.00008905 Ry

     iteration # 38     ecut=    80.00 Ry     beta=0.70
     Davidson diagonalization with overlap
     ethr =  6.81E-09,  avg # of iterations =  6.0

     negative rho (up, down):  9.885E-04 0.000E+00

     total cpu time spent up to now is    24536.8 secs

     total energy              =  -12782.08317216 Ry
     Harris-Foulkes estimate   =  -12782.08318068 Ry
     estimated scf accuracy    <       0.00002722 Ry

     iteration # 39     ecut=    80.00 Ry     beta=0.70
     Davidson diagonalization with overlap
     ethr =  2.08E-09,  avg # of iterations =  3.2

     negative rho (up, down):  1.076E-03 0.000E+00

     total cpu time spent up to now is    24917.2 secs

     total energy              =  -12782.08319183 Ry
     Harris-Foulkes estimate   =  -12782.08317388 Ry
     estimated scf accuracy    <       0.00000699 Ry

     iteration # 40     ecut=    80.00 Ry     beta=0.70
     Davidson diagonalization with overlap
     ethr =  5.34E-10,  avg # of iterations =  3.3

     negative rho (up, down):  1.238E-03 0.000E+00

     total cpu time spent up to now is    25312.5 secs

     total energy              =  -12782.08319736 Ry
     Harris-Foulkes estimate   =  -12782.08319266 Ry
     estimated scf accuracy    <       0.00000267 Ry

     iteration # 41     ecut=    80.00 Ry     beta=0.70
     Davidson diagonalization with overlap
     ethr =  2.04E-10,  avg # of iterations =  2.2

     negative rho (up, down):  1.510E-03 0.000E+00

     total cpu time spent up to now is    25675.5 secs

     total energy              =  -12782.08319922 Ry
     Harris-Foulkes estimate   =  -12782.08319764 Ry
     estimated scf accuracy    <       0.00000033 Ry

     iteration # 42     ecut=    80.00 Ry     beta=0.70
     Davidson diagonalization with overlap
     ethr =  2.54E-11,  avg # of iterations =  4.2

     negative rho (up, down):  1.601E-03 0.000E+00

     total cpu time spent up to now is    26167.1 secs

     total energy              =  -12782.08319930 Ry
     Harris-Foulkes estimate   =  -12782.08319929 Ry
     estimated scf accuracy    <       0.00000016 Ry

     iteration # 43     ecut=    80.00 Ry     beta=0.70
     Davidson diagonalization with overlap
     ethr =  1.21E-11,  avg # of iterations =  2.0

     negative rho (up, down):  1.646E-03 0.000E+00

     total cpu time spent up to now is    26517.5 secs

     total energy              =  -12782.08319925 Ry
     Harris-Foulkes estimate   =  -12782.08319932 Ry
     estimated scf accuracy    <       0.00000007 Ry

     iteration # 44     ecut=    80.00 Ry     beta=0.70
     Davidson diagonalization with overlap
     ethr =  5.26E-12,  avg # of iterations =  3.0

     negative rho (up, down):  1.675E-03 0.000E+00

     total cpu time spent up to now is    26900.2 secs

     total energy              =  -12782.08319923 Ry
     Harris-Foulkes estimate   =  -12782.08319926 Ry
     estimated scf accuracy    <       0.00000002 Ry

     iteration # 45     ecut=    80.00 Ry     beta=0.70
     Davidson diagonalization with overlap
     ethr =  1.60E-12,  avg # of iterations =  2.0

     negative rho (up, down):  1.650E-03 0.000E+00

     total cpu time spent up to now is    27268.9 secs

     total energy              =  -12782.08319925 Ry
     Harris-Foulkes estimate   =  -12782.08319923 Ry
     estimated scf accuracy    <       0.00000001 Ry

     iteration # 46     ecut=    80.00 Ry     beta=0.70
     Davidson diagonalization with overlap
     ethr =  9.49E-13,  avg # of iterations =  2.0

     negative rho (up, down):  1.645E-03 0.000E+00

     total cpu time spent up to now is    27611.7 secs

     End of self-consistent calculation

          k = 0.0000 0.0000 0.0000 (256287 PWs)   bands (ev):

   -20.2850 -18.4117 -16.9025 -15.7921 -15.6470 -15.0128 -14.6352 -14.3456
   -14.2695 -13.8090 -13.7686 -13.6961 -13.6716 -13.0879 -12.9452 -12.7454
   -12.7244 -12.6748 -12.6621 -11.3316 -11.1546 -11.1258 -11.0178 -10.9257
    -9.9411  -9.4509  -9.4072  -9.2381  -9.1974  -8.5670  -8.3864  -8.2546
    -8.1883  -7.7142  -7.4999  -7.4354  -7.2726  -7.2142  -7.1682  -7.1065
    -7.0963  -6.6427  -6.0254  -6.0018  -5.8674  -5.7669  -5.6490  -5.5888
    -5.5642  -5.5350  -5.5137  -5.3522  -5.3288  -5.1416  -5.0660  -4.7624
    -4.5397  -4.5262  -4.3681  -4.3363  -4.2673  -4.2217  -4.1794  -4.0428
    -3.8533  -3.8405  -3.8021  -3.7013  -3.5930  -3.4864  -3.2983  -3.2852
    -3.2638  -3.2585  -3.2061  -3.1141  -3.1020  -3.0611  -2.9086  -2.8823
    -2.8725  -2.8698  -2.8617  -2.8574  -2.8250  -2.6589  -2.6545  -2.6274
    -2.5398  -2.5279  -2.4976  -2.4410  -2.4254  -2.4068  -2.3687  -2.3676
    -2.2591  -2.1608  -2.1573  -2.1529  -2.1410  -2.0605  -2.0561  -2.0292
    -2.0270  -2.0236  -2.0227  -1.9535  -1.8942  -1.8928  -1.8840  -1.8820
    -1.8604  -1.7518  -1.7280  -1.7254  -1.6826  -1.6514  -1.6144  -1.6084
    -1.6036  -1.6007  -1.5972  -1.5928  -1.5679  -1.5583  -1.5327  -1.5271
    -1.5135  -1.5048  -1.4871  -1.4804  -1.4515  -1.4424  -1.4410  -1.4290
    -1.4175  -1.4058  -1.4012  -1.3943  -1.3909  -1.3792  -1.3287  -1.3193
    -1.3141  -1.2891  -1.2315  -1.1907  -1.1874  -1.1781  -1.1724  -1.1688
    -1.1580  -1.1501  -1.1364  -1.1221  -1.0932  -1.0897  -1.0719  -1.0645
    -1.0625  -1.0452  -1.0253  -1.0073  -0.9300  -0.9282  -0.9270  -0.9237
    -0.9186  -0.9149  -0.9094  -0.9066  -0.9027  -0.8988  -0.8928  -0.8884
    -0.8869  -0.8804  -0.8744  -0.8701  -0.8648  -0.8604  -0.8246  -0.8229
    -0.8158  -0.7923  -0.7893  -0.7858  -0.7787  -0.7524  -0.7443  -0.7371
    -0.7353  -0.7319  -0.7312  -0.7293  -0.7277  -0.7259  -0.7214  -0.7180
    -0.7164  -0.7153  -0.7146  -0.7133  -0.7095  -0.7039  -0.6416  -0.6058
    -0.5880  -0.5815  -0.5667  -0.5632  -0.5623  -0.5547  -0.5277  -0.5234
    -0.5122  -0.5109  -0.5064  -0.5013  -0.4945  -0.4932  -0.4769  -0.4725
    -0.4716  -0.4549  -0.4452  -0.4436  -0.4371  -0.4338  -0.4277  -0.4231
    -0.4181  -0.4144  -0.4015  -0.3742  -0.3650  -0.3610  -0.3279  -0.3184
    -0.3176  -0.3046  -0.2996  -0.2971  -0.2947  -0.2921  -0.2915  -0.2874
    -0.2841  -0.2809  -0.2797  -0.2777  -0.2739  -0.2710  -0.2678  -0.2616
    -0.2595  -0.2378  -0.2322  -0.2306  -0.2163  -0.2122  -0.1773  -0.1757
    -0.1685  -0.1664  -0.1650  -0.1646  -0.1450  -0.1442  -0.1424  -0.1377
    -0.1307  -0.1271  -0.1261  -0.1237  -0.1175  -0.1161  -0.1053  -0.1025
    -0.0968  -0.0956  -0.0932  -0.0866  -0.0750  -0.0712  -0.0681  -0.0652
    -0.0620  -0.0591  -0.0413  -0.0224  -0.0167  -0.0097  -0.0041   0.0040
     0.0047   0.0299   0.0356   0.0442   0.0542   0.0602   0.0647   0.0668
     0.0678   0.0740   0.0786   0.0836   0.0920   0.1057   0.1070   0.1142
     0.1170   0.1202   0.1257   0.1336   0.1412   0.1436   0.1494   0.1585
     0.1597   0.1633   0.1661   0.1702   0.1772   0.1785   0.1795   0.1833
     0.1861   0.1917   0.2048   0.2111   0.2242   0.2257   0.2315   0.2400
     0.2534   0.2559   0.2754   0.2768   0.2878   0.2910   0.3001   0.3063
     0.3174   0.3285   0.3295   0.3353   0.3597   0.3643   0.3717   0.3832
     0.3910   0.4038   0.4106   0.4120   0.4132   0.4230   0.4251   0.4503
     0.4527   0.4712   0.4736   0.4776   0.4791   0.4887   0.4947   0.4983
     0.5034   0.5087   0.5106   0.5177   0.5349   0.5382   0.5536   0.5551
     0.5649   0.5717   0.5796   0.5814   0.5874   0.5891   0.5936   0.6006
     0.6077   0.6173   0.6227   0.6316   0.6370   0.6414   0.6489   0.6497
     0.6530   0.6569   0.6652   0.6684   0.6699   0.6707   0.6717   0.6753
     0.6793   0.6809   0.6884   0.6893   0.6924   0.6968   0.7129   0.7155
     0.7202   0.7215   0.7270   0.7433   0.7547   0.7573   0.7664   0.7703
     0.7712   0.7749   0.7800   0.7850   0.7914   0.7920   0.7945   0.7960
     0.7977   0.7992   0.8026   0.8084   0.8181   0.8287   0.8313   0.8396
     0.8412   0.8426   0.8495   0.8542   0.8543   0.8549   0.8576   0.8663
     0.8688   0.8767   0.8786   0.8806   0.8838   0.8933   0.9120   0.9202
     0.9299   0.9313   0.9378   0.9393   0.9564   0.9635   0.9697   0.9717
     0.9764   0.9805   0.9855   0.9871   1.0018   1.0029   1.0049   1.0072
     1.0102   1.0135   1.0216   1.0268   1.0318   1.0387   1.0430   1.0436
     1.0497   1.0526   1.0534   1.0571   1.0591   1.0754   1.0917   1.0971
     1.0984   1.1036   1.1047   1.1102   1.1152   1.1178   1.1235   1.1299
     1.1342   1.1367   1.1387   1.1404   1.1472   1.1491   1.1536   1.1575
     1.1641   1.1668   1.1726   1.1753   1.1801   1.1852   1.1971   1.1989
     1.2049   1.2065   1.2107   1.2135   1.2167   1.2180   1.2223   1.2245
     1.2289   1.2318   1.2344   1.2367   1.2400   1.2422   1.2444   1.2475
     1.2529   1.2634   1.2657   1.2695   1.2757   1.2813   1.2828   1.2963
     1.3061   1.3089   1.3184   1.3197   1.3215   1.3282   1.3323   1.3393
     1.3475   1.3491   1.3512   1.3557   1.3600   1.3630   1.3653   1.3696
     1.3784   1.3827   1.3860   1.3871   1.3882   1.3907   1.3921   1.3994
     1.4026   1.4055   1.4076   1.4147   1.4185   1.4197   1.4201   1.4223
     1.4253   1.4273   1.4296   1.4368   1.4434   1.4466   1.4476   1.4511
     1.4569   1.4623   1.4656   1.4665   1.4711   1.4736   1.4864   1.4893
     1.4903   1.4949   1.5092   1.5107   1.5108   1.5137   1.5254   1.5260
     1.5299   1.5343   1.5359   1.5374   1.5396   1.5405   1.5420   1.5434
     1.5439   1.5515   1.5612   1.5648   1.5657   1.5741   1.5762   1.5784
     1.5835   1.5854   1.5865   1.5878   1.6044   1.6115   1.6190   1.6218
     1.6293   1.6310   1.6607   1.6642   1.6680   1.6774   1.6860   1.6971
     1.6988   1.7052   1.7240   1.7314   1.7362   1.7369   1.7417   1.7455
     1.7605   1.7678   1.7842   1.8001   2.0383   2.0621   2.1755   2.1844
     2.2130   2.2614   2.3071   2.3104   2.3149   2.3164   2.3186   2.3295
     2.3311   2.3334   2.4623   2.4644   2.5321   2.5326   2.5738   2.5826
     2.6098   2.6571   2.7598   2.8101   2.8212   2.8448   2.9210   3.1203
     3.2060   3.3232   3.3520   3.5744   3.5957   3.8618   3.8906   3.9208
     3.9386   3.9504   3.9577   3.9622   4.0161   4.0520   4.0564   4.0796
     4.1032   4.1164   4.1210   4.1257   4.1294   4.2382   4.2640   4.2675
     4.2890   4.4770   4.6736   4.8316   4.8881   5.0234   5.1852   5.2624
     5.2739   5.3936   5.4185   5.4395   5.6481   5.6720   5.7456   5.8740
     5.9941   6.0329   6.0556   6.2752   6.3008   6.3623   6.4594   6.4684
     6.5359   6.5790   6.5932   6.6312   6.6391   6.7683   6.7763   6.8421
     6.8613   6.9815   7.0045   7.0101   7.0439   7.1127   7.1245   7.1621
     7.1970   7.2511   7.3385   7.3872   7.4722   7.5062   7.5467   7.5838
     7.6551   7.7707   7.7843   7.8520   7.9139   8.0712   8.1132   8.1822
     8.1887   8.2306   8.2576   8.2900   8.3676   8.3867   8.4215   8.4440
     8.4516   8.4771   8.5855   8.5890   8.6490   8.6621   8.6663   8.6868
     8.7378   8.7472   8.7870   8.8246   8.8778   8.8819   8.9126   8.9354
     8.9905   9.0603   9.1091   9.1246   9.1884   9.1943   9.2453   9.3850
     9.4367   9.4550   9.4984   9.5155   9.5230   9.5421   9.6129   9.6891
     9.7226   9.7690   9.8185   9.9443  10.0566  10.1434  10.1558  10.1595
    10.2073

          k = 0.0000-0.2165 0.0000 (256176 PWs)   bands (ev):

   -20.2850 -18.4117 -16.9022 -15.8556 -15.4641 -15.2378 -14.6354 -14.2623
   -13.9304 -13.8932 -13.8471 -13.8245 -13.3991 -13.3305 -13.2832 -13.2771
   -12.2381 -12.0565 -11.9980 -11.9166 -11.7949 -11.7280 -10.3042 -10.2098
   -10.1901 -10.0421  -9.1208  -9.0606  -8.9229  -8.7479  -8.5899  -8.5534
    -8.0002  -7.8518  -7.8096  -7.7450  -7.1330  -6.9784  -6.7332  -6.6220
    -6.5822  -6.5049  -6.5014  -6.4415  -6.3851  -5.9193  -5.8210  -5.7440
    -5.7229  -5.2279  -5.1717  -5.0814  -5.0477  -4.8443  -4.7961  -4.6929
    -4.6870  -4.6705  -4.6198  -4.5964  -4.4672  -4.3708  -4.3249  -4.2594
    -4.0418  -3.8607  -3.6528  -3.6268  -3.4257  -3.4022  -3.3576  -3.1654
    -3.1640  -3.1622  -3.1488  -3.0542  -2.9998  -2.9609  -2.9000  -2.8874
    -2.8832  -2.7938  -2.7479  -2.7229  -2.6217  -2.6187  -2.5763  -2.5621
    -2.5517  -2.5385  -2.4504  -2.4479  -2.4447  -2.4437  -2.4288  -2.3299
    -2.3265  -2.2966  -2.2789  -2.2617  -2.1792  -2.1613  -2.1456  -2.0657
    -2.0542  -2.0044  -1.9998  -1.9924  -1.9864  -1.9218  -1.8569  -1.8562
    -1.8380  -1.8373  -1.7979  -1.7910  -1.7793  -1.7628  -1.7064  -1.6577
    -1.6419  -1.6296  -1.6212  -1.6089  -1.6075  -1.5935  -1.5895  -1.5676
    -1.5411  -1.5379  -1.5324  -1.5273  -1.5201  -1.5140  -1.3836  -1.3771
    -1.3560  -1.3464  -1.2646  -1.2507  -1.2322  -1.2243  -1.2133  -1.1999
    -1.1954  -1.1803  -1.1688  -1.1616  -1.1599  -1.1561  -1.1541  -1.1508
    -1.1478  -1.1402  -1.1387  -1.1235  -1.1205  -1.1110  -1.1060  -1.0938
    -1.0863  -1.0849  -1.0752  -1.0612  -1.0513  -1.0250  -1.0111  -0.9679
    -0.9651  -0.9637  -0.9533  -0.9367  -0.9289  -0.9256  -0.9242  -0.9215
    -0.9077  -0.8733  -0.8652  -0.8565  -0.8533  -0.8513  -0.8511  -0.8493
    -0.8483  -0.8075  -0.8058  -0.8033  -0.8000  -0.7946  -0.7845  -0.7817
    -0.7727  -0.7609  -0.7541  -0.7217  -0.7174  -0.7125  -0.7090  -0.6937
    -0.6897  -0.6888  -0.6854  -0.6687  -0.6642  -0.6551  -0.6403  -0.6333
    -0.6309  -0.6234  -0.6194  -0.5644  -0.5501  -0.5285  -0.5170  -0.5134
    -0.5106  -0.5082  -0.4900  -0.4877  -0.4850  -0.4833  -0.4831  -0.4805
    -0.4675  -0.4422  -0.4159  -0.4116  -0.4103  -0.4089  -0.4079  -0.4048
    -0.4012  -0.3894  -0.3844  -0.3757  -0.3749  -0.3693  -0.3662  -0.3381
    -0.3361  -0.3349  -0.3326  -0.3250  -0.3242  -0.3211  -0.3094  -0.2842
    -0.2825  -0.2644  -0.2612  -0.2486  -0.2431  -0.2096  -0.2076  -0.1941
    -0.1920  -0.1906  -0.1887  -0.1873  -0.1845  -0.1711  -0.1710  -0.1636
    -0.1552  -0.1444  -0.1384  -0.1360  -0.1341  -0.1324  -0.1268  -0.1256
    -0.1248  -0.1223  -0.1062  -0.0954  -0.0932  -0.0911  -0.0855  -0.0838
    -0.0808  -0.0796  -0.0654  -0.0477  -0.0409  -0.0354  -0.0314  -0.0294
    -0.0283  -0.0274  -0.0215  -0.0131  -0.0111  -0.0045   0.0101   0.0236
     0.0269   0.0319   0.0333   0.0376   0.0434   0.0462   0.0487   0.0496
     0.0501   0.0630   0.0856   0.0955   0.0999   0.1075   0.1099   0.1140
     0.1170   0.1240   0.1249   0.1381   0.1418   0.1491   0.1530   0.1559
     0.1657   0.1674   0.1711   0.1786   0.1922   0.1950   0.1987   0.1995
     0.2121   0.2171   0.2208   0.2280   0.2283   0.2321   0.2414   0.2476
     0.2517   0.2595   0.2669   0.2696   0.2724   0.2792   0.2888   0.3029
     0.3057   0.3066   0.3192   0.3221   0.3301   0.3354   0.3442   0.3488
     0.3591   0.3749   0.3893   0.3975   0.3985   0.4047   0.4074   0.4327
     0.4594   0.4723   0.4861   0.5032   0.5047   0.5155   0.5207   0.5243
     0.5327   0.5400   0.5426   0.5450   0.5471   0.5488   0.5520   0.5595
     0.5650   0.5797   0.5854   0.5934   0.5958   0.5999   0.6023   0.6061
     0.6078   0.6123   0.6140   0.6176   0.6218   0.6284   0.6308   0.6376
     0.6382   0.6420   0.6421   0.6453   0.6513   0.6533   0.6551   0.6621
     0.6710   0.6734   0.6770   0.6787   0.6858   0.6883   0.6923   0.6953
     0.6962   0.6986   0.7089   0.7092   0.7128   0.7141   0.7222   0.7227
     0.7406   0.7445   0.7512   0.7526   0.7589   0.7678   0.7694   0.7793
     0.7840   0.7900   0.7935   0.7988   0.8006   0.8021   0.8029   0.8056
     0.8086   0.8120   0.8285   0.8325   0.8360   0.8514   0.8570   0.8633
     0.8665   0.8689   0.8723   0.8749   0.8794   0.8864   0.8995   0.9041
     0.9070   0.9086   0.9102   0.9152   0.9455   0.9518   0.9918   0.9953
     1.0104   1.0119   1.0147   1.0185   1.0229   1.0252   1.0290   1.0307
     1.0315   1.0347   1.0358   1.0383   1.0393   1.0443   1.0472   1.0514
     1.0599   1.0672   1.0697   1.0716   1.0720   1.0761   1.0775   1.0831
     1.0847   1.0851   1.0880   1.0896   1.0921   1.0940   1.0951   1.1017
     1.1041   1.1076   1.1089   1.1106   1.1174   1.1196   1.1270   1.1308
     1.1369   1.1417   1.1443   1.1456   1.1499   1.1523   1.1539   1.1566
     1.1586   1.1615   1.1625   1.1690   1.1955   1.1992   1.2051   1.2060
     1.2355   1.2393   1.2394   1.2584   1.2777   1.2793   1.2816   1.2871
     1.2885   1.2976   1.2990   1.3037   1.3052   1.3057   1.3096   1.3105
     1.3144   1.3150   1.3169   1.3191   1.3224   1.3246   1.3266   1.3328
     1.3345   1.3370   1.3398   1.3432   1.3468   1.3489   1.3533   1.3573
     1.3632   1.3664   1.3714   1.3742   1.3785   1.3841   1.3895   1.3901
     1.3987   1.4003   1.4025   1.4088   1.4129   1.4142   1.4170   1.4212
     1.4285   1.4308   1.4378   1.4426   1.4442   1.4455   1.4486   1.4574
     1.4675   1.4759   1.4781   1.4827   1.4854   1.4907   1.4914   1.4932
     1.4945   1.4986   1.5009   1.5076   1.5082   1.5146   1.5169   1.5371
     1.5387   1.5437   1.5471   1.5521   1.5552   1.5559   1.5591   1.5597
     1.5610   1.5683   1.5770   1.5810   1.5897   1.5907   1.5946   1.5979
     1.6004   1.6045   1.6116   1.6153   1.6224   1.6241   1.6264   1.6287
     1.6359   1.6434   1.6656   1.6774   1.6805   1.6817   1.7032   1.7346
     1.7671   1.7708   1.7920   1.8142   1.8711   1.8735   1.8753   1.8765
     1.8809   1.9027   1.9106   1.9288   1.9332   1.9376   1.9419   1.9451
     1.9549   1.9770   2.0841   2.2165   2.2947   2.3368   2.4631   2.4646
     2.5290   2.5344   2.6108   2.6142   2.6412   2.6465   2.6884   2.6985
     2.7000   2.7226   2.7995   2.8147   2.8253   2.8299   2.9151   2.9208
     3.0341   3.0371   3.2764   3.2765   3.2831   3.2902   3.3220   3.3904
     3.7476   3.7890   3.8119   4.0461   4.0633   4.0766   4.1926   4.1966
     4.2524   4.3066   4.3851   4.3940   4.4543   4.4631   4.4832   4.5254
     4.6057   4.6423   4.7786   4.7921   5.2053   5.2156   5.2360   5.3086
     5.3393   5.4100   5.4608   5.4615   5.4736   5.5062   5.5836   5.7460
     5.8837   5.9155   6.0783   6.1305   6.2998   6.3242   6.3377   6.3447
     6.4056   6.4664   6.5136   6.6434   6.6822   6.7263   6.7642   6.8348
     6.8491   6.9091   7.0485   7.0840   7.1202   7.1463   7.1585   7.2250
     7.2285   7.2531   7.2673   7.2916   7.3944   7.4238   7.4477   7.4669
     7.5822   7.6728   7.7660   7.8038   7.8918   7.9195   7.9952   8.1216
     8.2016   8.2103   8.2991   8.3030   8.4620   8.4793   8.4837   8.5066
     8.5290   8.5657   8.6119   8.6541   8.7123   8.7299   8.7751   8.7808
     8.8061   8.8406   8.8593   8.8924   8.9545   8.9667   9.0754   9.1120
     9.1594   9.1983   9.2151   9.2241   9.3237   9.3911   9.4008   9.4066
     9.4145   9.4202   9.4643   9.4827   9.5172   9.5210   9.5699   9.5880
     9.6052   9.6712   9.8959   9.9041   9.9216   9.9964  10.0005  10.0115
    10.0862

          k = 0.2500 0.0000 0.0000 (256240 PWs)   bands (ev):

   -20.2849 -18.4118 -16.8559 -15.6849 -15.5262 -15.2219 -14.7088 -14.5836
   -14.5167 -14.4650 -13.7003 -13.5428 -13.3523 -12.8581 -12.7857 -12.6786
   -12.5980 -11.9845 -11.8508 -11.7435 -11.6716 -10.9412 -10.7672 -10.3891
   -10.2365 -10.0854  -9.8184  -9.5637  -9.5259  -9.0908  -8.8442  -8.7476
    -8.3997  -7.6751  -7.4672  -7.3983  -7.2199  -7.2018  -7.1060  -6.6993
    -6.6518  -6.5573  -5.9706  -5.8347  -5.6911  -5.6568  -5.5758  -5.5210
    -5.2232  -5.1634  -5.1493  -5.1167  -5.0467  -4.9315  -4.5964  -4.5902
    -4.3528  -4.3121  -4.2710  -4.2303  -4.1808  -4.0993  -4.0804  -4.0211
    -3.9520  -3.8593  -3.8467  -3.8240  -3.7335  -3.6940  -3.6869  -3.6272
    -3.4727  -3.4040  -3.3265  -3.3170  -3.3012  -3.1494  -3.1201  -3.1127
    -3.0686  -3.0171  -2.9602  -2.9401  -2.9321  -2.8889  -2.7810  -2.7698
    -2.6936  -2.6649  -2.6622  -2.5766  -2.5275  -2.4184  -2.3847  -2.2676
    -2.2364  -2.2254  -2.1769  -2.1705  -2.0953  -2.0628  -1.9688  -1.9664
    -1.9548  -1.9437  -1.9184  -1.8227  -1.7943  -1.7818  -1.7402  -1.6886
    -1.6773  -1.6759  -1.6732  -1.6719  -1.6706  -1.6670  -1.6480  -1.6405
    -1.6344  -1.6053  -1.5638  -1.5204  -1.5088  -1.5062  -1.4883  -1.4734
    -1.4565  -1.4534  -1.4467  -1.4460  -1.4386  -1.4336  -1.4249  -1.4047
    -1.3969  -1.3816  -1.3778  -1.3759  -1.3653  -1.2964  -1.2568  -1.2366
    -1.1979  -1.1966  -1.1867  -1.1604  -1.1442  -1.1220  -1.1197  -1.1163
    -1.1124  -1.1032  -1.0882  -1.0760  -1.0692  -1.0612  -1.0590  -1.0531
    -1.0499  -1.0363  -1.0250  -1.0149  -1.0086  -1.0075  -0.9889  -0.9841
    -0.9801  -0.9726  -0.9664  -0.9531  -0.9242  -0.9129  -0.9046  -0.8988
    -0.8944  -0.8913  -0.8876  -0.8852  -0.8823  -0.8781  -0.8734  -0.8705
    -0.8694  -0.8611  -0.8581  -0.8539  -0.8501  -0.8457  -0.8427  -0.8410
    -0.8284  -0.8174  -0.8072  -0.7800  -0.7690  -0.7607  -0.7450  -0.7279
    -0.7255  -0.6918  -0.6887  -0.6848  -0.6831  -0.6697  -0.6573  -0.6490
    -0.6482  -0.6293  -0.6236  -0.6214  -0.6171  -0.6065  -0.5964  -0.5928
    -0.5810  -0.4924  -0.4877  -0.4731  -0.4609  -0.4525  -0.4459  -0.4435
    -0.4406  -0.4308  -0.4285  -0.4263  -0.4198  -0.4034  -0.4018  -0.4007
    -0.3982  -0.3858  -0.3733  -0.3673  -0.3639  -0.3609  -0.3575  -0.3506
    -0.3496  -0.3460  -0.3446  -0.3384  -0.3264  -0.2865  -0.2857  -0.2752
    -0.2697  -0.2654  -0.2606  -0.2563  -0.2525  -0.2503  -0.2387  -0.2321
    -0.2285  -0.2234  -0.2198  -0.2127  -0.1867  -0.1815  -0.1775  -0.1714
    -0.1700  -0.1657  -0.1621  -0.1584  -0.1506  -0.1417  -0.1406  -0.1332
    -0.1309  -0.1282  -0.1150  -0.1135  -0.0918  -0.0895  -0.0806  -0.0788
    -0.0758  -0.0701  -0.0658  -0.0563  -0.0552  -0.0478  -0.0460  -0.0445
    -0.0193  -0.0150   0.0010   0.0033   0.0061   0.0156   0.0183   0.0328
     0.0443   0.0518   0.0547   0.0705   0.0806   0.0871   0.0913   0.0936
     0.0983   0.1026   0.1078   0.1100   0.1109   0.1156   0.1272   0.1300
     0.1333   0.1347   0.1390   0.1432   0.1477   0.1512   0.1542   0.1574
     0.1628   0.1693   0.1728   0.1794   0.1839   0.2048   0.2062   0.2125
     0.2261   0.2297   0.2340   0.2383   0.2449   0.2501   0.2520   0.2552
     0.2576   0.2728   0.2746   0.2830   0.2880   0.3140   0.3388   0.3447
     0.3612   0.3658   0.3707   0.3816   0.3843   0.3954   0.3986   0.4013
     0.4027   0.4038   0.4079   0.4095   0.4127   0.4151   0.4206   0.4220
     0.4324   0.4365   0.4398   0.4465   0.4485   0.4513   0.4598   0.4661
     0.4810   0.4826   0.4933   0.4953   0.4995   0.5068   0.5224   0.5362
     0.5413   0.5497   0.5576   0.5603   0.5647   0.5690   0.5719   0.5781
     0.5853   0.5886   0.5918   0.5931   0.5968   0.6063   0.6156   0.6172
     0.6185   0.6204   0.6225   0.6232   0.6282   0.6368   0.6450   0.6577
     0.6650   0.6676   0.6703   0.6731   0.6810   0.6835   0.6887   0.6915
     0.6924   0.6994   0.7087   0.7115   0.7141   0.7221   0.7266   0.7324
     0.7397   0.7458   0.7471   0.7491   0.7506   0.7570   0.7632   0.7680
     0.7686   0.7724   0.7785   0.7830   0.7874   0.8138   0.8177   0.8206
     0.8258   0.8422   0.8515   0.8549   0.8605   0.8623   0.8671   0.8743
     0.8761   0.8814   0.8840   0.8883   0.8927   0.8999   0.9017   0.9047
     0.9065   0.9381   0.9434   0.9460   0.9527   0.9569   0.9637   0.9668
     0.9687   0.9743   0.9808   0.9924   0.9942   0.9971   0.9993   1.0014
     1.0040   1.0074   1.0117   1.0166   1.0178   1.0215   1.0234   1.0258
     1.0350   1.0515   1.0530   1.0684   1.0727   1.0817   1.0849   1.0978
     1.0998   1.1057   1.1098   1.1141   1.1158   1.1244   1.1255   1.1279
     1.1294   1.1303   1.1330   1.1369   1.1407   1.1455   1.1535   1.1549
     1.1582   1.1612   1.1647   1.1689   1.1707   1.1750   1.1789   1.1825
     1.1861   1.1882   1.1955   1.1979   1.2007   1.2026   1.2071   1.2148
     1.2211   1.2243   1.2266   1.2297   1.2332   1.2348   1.2370   1.2389
     1.2412   1.2441   1.2527   1.2565   1.2627   1.2703   1.2718   1.2800
     1.2854   1.2999   1.3020   1.3053   1.3065   1.3108   1.3221   1.3318
     1.3332   1.3383   1.3419   1.3600   1.3618   1.3643   1.3656   1.3681
     1.3721   1.3728   1.3734   1.3835   1.3860   1.3902   1.3960   1.3991
     1.3997   1.4038   1.4105   1.4127   1.4148   1.4183   1.4202   1.4227
     1.4268   1.4301   1.4331   1.4355   1.4377   1.4421   1.4466   1.4534
     1.4549   1.4597   1.4609   1.4659   1.4714   1.4817   1.4852   1.4903
     1.4931   1.5010   1.5122   1.5185   1.5235   1.5252   1.5269   1.5294
     1.5326   1.5355   1.5388   1.5406   1.5433   1.5445   1.5464   1.5509
     1.5541   1.5565   1.5618   1.5631   1.5669   1.5704   1.5777   1.5800
     1.5864   1.5899   1.5923   1.5932   1.5958   1.5997   1.6032   1.6090
     1.6116   1.6134   1.6249   1.6320   1.6389   1.6483   1.6550   1.6701
     1.6772   1.6905   1.7010   1.7303   1.7313   1.7368   1.7457   1.7692
     1.7817   1.8342   1.8487   1.8765   1.8853   1.9187   1.9437   1.9463
     2.0876   2.1388   2.1434   2.1470   2.1539   2.1757   2.1865   2.2398
     2.2786   2.3096   2.4379   2.6567   2.6698   2.6737   2.7068   3.0515
     3.0879   3.0889   3.2914   3.3093   3.3124   3.3276   3.3282   3.3687
     3.3935   3.5338   3.5667   3.6361   3.7077   3.7373   3.7708   3.7848
     3.8002   3.8180   3.8791   3.8936   3.9395   3.9687   4.0302   4.0707
     4.1033   4.1455   4.3790   4.4065   4.4347   4.5969   4.6873   4.7434
     4.8502   4.9218   4.9388   5.0630   5.1677   5.3154   5.3236   5.3439
     5.3752   5.4618   5.5021   5.5226   5.5443   5.5935   5.5998   5.6316
     5.6807   5.7007   5.7582   5.7774   5.8061   5.9441   5.9708   6.0969
     6.1162   6.1219   6.1506   6.1608   6.3613   6.5113   6.7429   6.7785
     6.7996   6.8340   6.8612   6.9015   6.9573   6.9842   7.0490   7.1045
     7.1188   7.1571   7.1717   7.2086   7.2147   7.2468   7.2720   7.3514
     7.3853   7.4232   7.6009   7.6369   7.6705   7.7162   7.7471   7.7862
     7.8456   7.9918   8.0875   8.1125   8.1695   8.2042   8.2339   8.2490
     8.2788   8.3137   8.3490   8.3742   8.3887   8.4992   8.5394   8.5436
     8.6195   8.7209   8.7339   8.8245   9.0439   9.0491   9.0558   9.0690
     9.0937   9.1818   9.2202   9.2310   9.2413   9.3061   9.3274   9.3581
     9.3828   9.3932   9.5269   9.5396   9.5533   9.5894   9.6165   9.6631
     9.6955   9.7204   9.8046   9.8203   9.8661   9.9020   9.9214   9.9311
     9.9870

          k = 0.2500-0.2165 0.0000 (256316 PWs)   bands (ev):

   -20.2849 -18.4118 -16.8557 -15.7319 -15.4400 -15.1188 -15.0131 -14.7424
   -14.2826 -14.1428 -13.8619 -13.7156 -13.2975 -12.8669 -12.8157 -12.7607
   -12.3336 -12.2410 -11.8263 -11.6801 -11.1236 -11.0339 -10.9469 -10.7799
   -10.5497 -10.1706  -9.4500  -9.4098  -9.0678  -9.0055  -8.7593  -8.7097
    -8.3263  -8.2558  -8.0964  -8.0310  -6.9215  -6.8063  -6.6201  -6.4605
    -6.2843  -6.2255  -6.1208  -5.9935  -5.9500  -5.7960  -5.7593  -5.5662
    -5.5504  -5.1825  -5.0852  -5.0242  -4.8387  -4.7358  -4.6152  -4.5332
    -4.5235  -4.5045  -4.4342  -4.3143  -4.2209  -4.2054  -4.1895  -4.1144
    -3.9633  -3.8802  -3.8218  -3.7948  -3.7457  -3.5141  -3.4941  -3.4141
    -3.3453  -3.3206  -3.3127  -3.2579  -3.2436  -3.2271  -3.1763  -3.0777
    -3.0326  -2.9676  -2.8828  -2.8455  -2.8161  -2.7890  -2.7700  -2.7661
    -2.7575  -2.6978  -2.6811  -2.6251  -2.5551  -2.5490  -2.4297  -2.3934
    -2.1826  -2.1782  -2.1629  -2.0994  -2.0933  -2.0436  -2.0423  -2.0251
    -2.0161  -1.9454  -1.8877  -1.8796  -1.8721  -1.8517  -1.7986  -1.7444
    -1.7130  -1.6886  -1.6854  -1.6809  -1.6663  -1.6413  -1.6147  -1.5873
    -1.5833  -1.5830  -1.5784  -1.5677  -1.5554  -1.5532  -1.5494  -1.5468
    -1.5454  -1.5418  -1.5371  -1.5177  -1.4678  -1.4561  -1.4466  -1.3768
    -1.3415  -1.3332  -1.2793  -1.2573  -1.2398  -1.2098  -1.2035  -1.1673
    -1.1644  -1.1557  -1.1432  -1.1418  -1.1369  -1.1323  -1.1279  -1.1192
    -1.1165  -1.1145  -1.1123  -1.1043  -1.0991  -1.0866  -1.0836  -1.0782
    -1.0723  -1.0510  -1.0469  -1.0456  -1.0380  -1.0190  -1.0109  -1.0070
    -0.9923  -0.9890  -0.9864  -0.9833  -0.9688  -0.9380  -0.9334  -0.9145
    -0.9108  -0.9006  -0.8850  -0.8771  -0.8742  -0.8685  -0.8618  -0.8537
    -0.8474  -0.8393  -0.8344  -0.8324  -0.8296  -0.8272  -0.8201  -0.8101
    -0.8013  -0.7962  -0.7928  -0.7794  -0.7639  -0.7407  -0.7382  -0.7253
    -0.7160  -0.6766  -0.6737  -0.6627  -0.6379  -0.6349  -0.6322  -0.6303
    -0.6196  -0.5963  -0.5916  -0.5860  -0.5828  -0.5792  -0.5756  -0.5684
    -0.5607  -0.5596  -0.5168  -0.5115  -0.4909  -0.4901  -0.4770  -0.4695
    -0.4548  -0.4494  -0.4458  -0.4417  -0.4265  -0.4211  -0.4109  -0.4030
    -0.3843  -0.3800  -0.3731  -0.3710  -0.3688  -0.3597  -0.3563  -0.3390
    -0.3216  -0.3049  -0.3030  -0.2993  -0.2890  -0.2861  -0.2774  -0.2758
    -0.2726  -0.2690  -0.2620  -0.2569  -0.2489  -0.2459  -0.2442  -0.2415
    -0.2341  -0.2254  -0.2207  -0.2174  -0.2113  -0.2012  -0.1968  -0.1918
    -0.1910  -0.1815  -0.1734  -0.1623  -0.1583  -0.1535  -0.1508  -0.1420
    -0.1307  -0.1252  -0.1208  -0.1190  -0.1149  -0.1077  -0.0948  -0.0814
    -0.0715  -0.0628  -0.0588  -0.0564  -0.0390  -0.0278  -0.0154  -0.0057
     0.0100   0.0118   0.0155   0.0172   0.0273   0.0342   0.0407   0.0446
     0.0478   0.0514   0.0589   0.0633   0.0749   0.0788   0.0877   0.0901
     0.0963   0.0999   0.1023   0.1081   0.1129   0.1137   0.1145   0.1173
     0.1223   0.1261   0.1300   0.1321   0.1363   0.1397   0.1442   0.1472
     0.1529   0.1575   0.1760   0.1844   0.1896   0.1902   0.1962   0.2012
     0.2182   0.2210   0.2379   0.2450   0.2486   0.2559   0.2595   0.2635
     0.2690   0.2788   0.2791   0.2818   0.2876   0.2915   0.2945   0.2986
     0.3092   0.3213   0.3320   0.3595   0.3617   0.3733   0.3890   0.3947
     0.3980   0.4041   0.4057   0.4135   0.4170   0.4193   0.4307   0.4324
     0.4362   0.4420   0.4435   0.4510   0.4539   0.4561   0.4591   0.4621
     0.4874   0.4878   0.4961   0.4996   0.5078   0.5126   0.5150   0.5194
     0.5268   0.5311   0.5454   0.5520   0.5596   0.5642   0.5696   0.5732
     0.5757   0.5866   0.5943   0.5984   0.6017   0.6070   0.6128   0.6162
     0.6212   0.6234   0.6258   0.6354   0.6440   0.6502   0.6539   0.6607
     0.6954   0.6967   0.6994   0.7032   0.7098   0.7134   0.7187   0.7276
     0.7289   0.7317   0.7330   0.7342   0.7388   0.7458   0.7518   0.7620
     0.7652   0.7709   0.7719   0.7746   0.7801   0.7838   0.7862   0.7898
     0.7923   0.7950   0.7977   0.8024   0.8052   0.8088   0.8135   0.8165
     0.8213   0.8243   0.8255   0.8274   0.8322   0.8394   0.8433   0.8489
     0.8586   0.8675   0.8700   0.8720   0.8733   0.8805   0.9033   0.9128
     0.9241   0.9297   0.9385   0.9395   0.9437   0.9476   0.9517   0.9558
     0.9582   0.9596   0.9605   0.9663   0.9688   0.9722   0.9754   0.9777
     0.9789   0.9841   0.9999   1.0035   1.0076   1.0177   1.0186   1.0238
     1.0277   1.0361   1.0372   1.0392   1.0464   1.0511   1.0536   1.0629
     1.0705   1.0728   1.0803   1.0834   1.0844   1.0907   1.1044   1.1111
     1.1229   1.1283   1.1315   1.1416   1.1613   1.1657   1.1727   1.1827
     1.1928   1.1938   1.1986   1.1993   1.2023   1.2034   1.2069   1.2081
     1.2096   1.2109   1.2129   1.2158   1.2180   1.2190   1.2234   1.2292
     1.2342   1.2377   1.2403   1.2550   1.2580   1.2590   1.2639   1.2723
     1.2746   1.2757   1.2835   1.2854   1.2890   1.2914   1.2931   1.2964
     1.2986   1.3040   1.3098   1.3103   1.3144   1.3166   1.3187   1.3239
     1.3296   1.3315   1.3341   1.3385   1.3397   1.3411   1.3422   1.3515
     1.3543   1.3581   1.3607   1.3707   1.3730   1.3777   1.3794   1.3883
     1.3890   1.3976   1.4000   1.4099   1.4150   1.4211   1.4235   1.4254
     1.4344   1.4383   1.4427   1.4464   1.4472   1.4505   1.4544   1.4586
     1.4635   1.4683   1.4736   1.4746   1.4810   1.4824   1.4855   1.4888
     1.4926   1.4969   1.4982   1.5013   1.5091   1.5177   1.5212   1.5230
     1.5241   1.5265   1.5276   1.5309   1.5320   1.5355   1.5418   1.5466
     1.5485   1.5528   1.5537   1.5588   1.5619   1.5635   1.5673   1.5702
     1.5760   1.5816   1.5860   1.5890   1.5931   1.6003   1.6119   1.6156
     1.6180   1.6245   1.6308   1.6412   1.6505   1.6570   1.6583   1.6698
     1.6779   1.6890   1.7000   1.7213   1.7516   1.7684   1.7866   1.8250
     1.8358   1.8449   1.8497   1.8534   1.8620   1.8654   1.8789   1.8853
     1.8899   1.9719   2.0934   2.1241   2.2361   2.2374   2.2667   2.2713
     2.3593   2.4324   2.6914   2.6947   2.8398   2.8426   2.8790   2.8886
     2.8956   2.8996   2.9365   2.9560   3.0734   3.0904   3.1013   3.1962
     3.5357   3.5659   3.5809   3.6295   3.6477   3.7228   3.9142   3.9458
     3.9475   3.9709   4.0145   4.0992   4.1209   4.1894   4.2182   4.2617
     4.2757   4.3100   4.4859   4.4883   4.5972   4.6083   4.6696   4.7631
     4.7726   4.8121   4.8924   4.9078   4.9253   4.9863   5.0641   5.1379
     5.1847   5.2972   5.3406   5.4136   5.4185   5.4703   5.5309   5.5822
     5.6023   5.6625   5.7621   5.8600   5.8820   5.9003   5.9233   6.0556
     6.2082   6.2235   6.4643   6.5366   6.5644   6.6335   6.6920   6.7258
     6.8022   6.8254   6.8723   6.9048   6.9387   7.0268   7.0877   7.1026
     7.1668   7.2439   7.2627   7.2924   7.3460   7.3694   7.3868   7.4422
     7.4661   7.5215   7.5303   7.5554   7.6034   7.6564   7.7031   7.8135
     7.8300   7.8628   7.9131   7.9331   8.0430   8.2049   8.2260   8.3048
     8.3674   8.4316   8.4949   8.6055   8.6374   8.6477   8.6533   8.6769
     8.6953   8.7191   8.7753   8.8035   8.8574   8.8798   8.9349   8.9473
     8.9899   9.0589   9.1399   9.1823   9.2259   9.2418   9.2479   9.2869
     9.2996   9.3413   9.3457   9.3948   9.4244   9.4695   9.4871   9.5022
     9.5398   9.5641   9.6428   9.6609   9.6903   9.7227   9.9914  10.0046
    10.0208

          k =-0.5000 0.0000 0.0000 (256496 PWs)   bands (ev):

   -20.2849 -18.4119 -16.8015 -15.5610 -15.2994 -15.1946 -15.1683 -15.1071
   -14.4019 -14.2126 -14.0960 -14.0646 -12.8402 -12.5340 -12.4033 -12.3247
   -12.0369 -12.0188 -11.4641 -11.4594 -11.3619 -11.3431 -10.8278 -10.7833
   -10.7101 -10.4969  -9.9506  -9.8989  -9.6741  -9.3311  -8.8111  -8.7842
    -8.5978  -8.5638  -7.5282  -7.3535  -7.3085  -7.1427  -7.0543  -7.0412
    -6.6317  -5.9331  -5.8558  -5.4433  -5.2393  -5.1597  -5.1209  -5.0351
    -4.8603  -4.7760  -4.6676  -4.6589  -4.6469  -4.6447  -4.5291  -4.5162
    -4.4225  -4.3736  -4.3503  -4.3255  -4.2798  -4.2444  -4.1955  -4.1776
    -4.0974  -4.0800  -4.0645  -4.0443  -3.8516  -3.6451  -3.6365  -3.6336
    -3.6249  -3.5404  -3.3808  -3.3616  -3.2854  -3.2801  -3.2782  -3.2730
    -3.2714  -3.2225  -3.1105  -3.0924  -3.0577  -3.0433  -3.0239  -2.8876
    -2.5832  -2.5710  -2.5384  -2.5325  -2.5127  -2.5043  -2.5019  -2.4957
    -2.4847  -2.4311  -2.3121  -2.2489  -2.2231  -2.1882  -2.1195  -1.9805
    -1.9157  -1.8517  -1.7555  -1.7545  -1.7500  -1.7492  -1.7473  -1.7458
    -1.6697  -1.6653  -1.6612  -1.6150  -1.5562  -1.5259  -1.5251  -1.5186
    -1.5175  -1.5077  -1.4792  -1.4765  -1.4728  -1.4701  -1.4089  -1.3971
    -1.3877  -1.3772  -1.3639  -1.3122  -1.2986  -1.2960  -1.2895  -1.2877
    -1.2857  -1.2541  -1.2466  -1.2335  -1.2304  -1.2277  -1.2245  -1.2217
    -1.2138  -1.2124  -1.2067  -1.2007  -1.1990  -1.1831  -1.1763  -1.1747
    -1.1676  -1.1568  -1.1447  -1.1413  -1.1379  -1.1369  -1.1193  -1.0879
    -1.0864  -1.0657  -1.0615  -1.0570  -1.0533  -1.0502  -1.0463  -1.0354
    -1.0263  -1.0146  -1.0098  -0.9987  -0.9890  -0.9844  -0.9827  -0.9778
    -0.9740  -0.9540  -0.9528  -0.9402  -0.9360  -0.8959  -0.8783  -0.8632
    -0.8589  -0.8557  -0.8502  -0.8482  -0.8399  -0.8382  -0.8326  -0.8253
    -0.8063  -0.8024  -0.8015  -0.7976  -0.7973  -0.7900  -0.7893  -0.7882
    -0.7688  -0.7633  -0.7406  -0.7236  -0.7083  -0.7036  -0.6947  -0.6877
    -0.6684  -0.6666  -0.6112  -0.5900  -0.5862  -0.5845  -0.5776  -0.5451
    -0.5437  -0.5422  -0.5409  -0.5371  -0.5328  -0.4991  -0.4930  -0.4911
    -0.4815  -0.4799  -0.4782  -0.4773  -0.4756  -0.4737  -0.4650  -0.4559
    -0.4517  -0.4473  -0.4402  -0.3342  -0.3331  -0.3198  -0.3134  -0.3085
    -0.3057  -0.3002  -0.2927  -0.2917  -0.2905  -0.2868  -0.2860  -0.2829
    -0.2672  -0.2540  -0.2513  -0.2484  -0.2410  -0.2174  -0.2117  -0.2112
    -0.2060  -0.2031  -0.2004  -0.1956  -0.1838  -0.1807  -0.1781  -0.1760
    -0.1747  -0.1736  -0.1667  -0.1622  -0.1579  -0.1349  -0.1305  -0.1238
    -0.1234  -0.1207  -0.0891  -0.0870  -0.0859  -0.0835  -0.0374  -0.0308
    -0.0299  -0.0283  -0.0239  -0.0231  -0.0136  -0.0117   0.0002   0.0052
     0.0246   0.0296   0.0306   0.0394   0.0609   0.0743   0.0750   0.0769
     0.0865   0.0903   0.0926   0.0939   0.0983   0.1012   0.1027   0.1044
     0.1063   0.1078   0.1519   0.1682   0.1778   0.1791   0.1847   0.1858
     0.1896   0.1932   0.1935   0.1980   0.1985   0.1993   0.2021   0.2045
     0.2050   0.2057   0.2078   0.2096   0.2121   0.2207   0.2212   0.2291
     0.2338   0.2352   0.2376   0.2406   0.2434   0.2452   0.2458   0.2513
     0.2517   0.2639   0.2725   0.2740   0.2778   0.2810   0.2992   0.3035
     0.3065   0.3086   0.3128   0.3515   0.3679   0.3754   0.3870   0.4006
     0.4116   0.4149   0.4164   0.4194   0.4266   0.4298   0.4411   0.4454
     0.4504   0.4551   0.4591   0.4613   0.4690   0.4766   0.4838   0.4867
     0.4875   0.4983   0.4984   0.5009   0.5029   0.5049   0.5085   0.5132
     0.5144   0.5191   0.5205   0.5241   0.5258   0.5320   0.5915   0.6008
     0.6057   0.6079   0.6209   0.6241   0.6255   0.6312   0.6378   0.6412
     0.6480   0.6485   0.6498   0.6519   0.6540   0.6543   0.6549   0.6576
     0.6615   0.6665   0.6680   0.6713   0.6745   0.6762   0.6813   0.6827
     0.6847   0.6881   0.7046   0.7091   0.7121   0.7160   0.7294   0.7347
     0.7400   0.7426   0.7486   0.7514   0.7545   0.7581   0.7607   0.7629
     0.7655   0.7681   0.7703   0.7730   0.7734   0.7757   0.7794   0.7812
     0.7941   0.8001   0.8100   0.8193   0.8271   0.8313   0.8321   0.8399
     0.8410   0.8469   0.8505   0.8519   0.8625   0.8787   0.8862   0.8922
     0.8955   0.9121   0.9212   0.9247   0.9327   0.9406   0.9412   0.9430
     0.9445   0.9457   0.9490   0.9526   0.9566   0.9589   0.9674   0.9703
     0.9733   0.9788   0.9797   0.9827   0.9857   0.9986   1.0003   1.0033
     1.0058   1.0080   1.0176   1.0216   1.0243   1.0291   1.0322   1.0336
     1.0446   1.0454   1.0543   1.0644   1.0781   1.0875   1.1211   1.1243
     1.1254   1.1273   1.1307   1.1344   1.1465   1.1520   1.1673   1.1708
     1.1757   1.1776   1.1813   1.1839   1.1898   1.1925   1.2011   1.2064
     1.2176   1.2205   1.2219   1.2230   1.2261   1.2279   1.2318   1.2325
     1.2365   1.2396   1.2434   1.2456   1.2488   1.2508   1.2533   1.2571
     1.2609   1.2646   1.2682   1.2716   1.2754   1.2811   1.2819   1.2849
     1.2897   1.2950   1.3053   1.3174   1.3196   1.3230   1.3269   1.3319
     1.3346   1.3378   1.3415   1.3443   1.3465   1.3484   1.3508   1.3509
     1.3515   1.3582   1.3600   1.3665   1.3705   1.3795   1.3933   1.4048
     1.4063   1.4091   1.4102   1.4103   1.4133   1.4158   1.4209   1.4222
     1.4222   1.4253   1.4285   1.4317   1.4375   1.4399   1.4417   1.4428
     1.4443   1.4473   1.4514   1.4520   1.4571   1.4585   1.4610   1.4626
     1.4630   1.4670   1.4723   1.4750   1.4786   1.4829   1.4856   1.5030
     1.5095   1.5127   1.5136   1.5175   1.5201   1.5217   1.5240   1.5249
     1.5340   1.5393   1.5439   1.5457   1.5486   1.5519   1.5541   1.5549
     1.5564   1.5605   1.5682   1.5730   1.5797   1.5867   1.5951   1.5960
     1.5972   1.6007   1.6036   1.6079   1.6135   1.6182   1.6190   1.6199
     1.6223   1.6321   1.6350   1.6517   1.6581   1.6782   1.6820   1.6978
     1.7042   1.7145   1.7163   1.7231   1.7376   1.7826   2.1000   2.1043
     2.1433   2.1454   2.3036   2.3263   2.3482   2.3604   2.4004   2.4016
     2.4027   2.4061   2.6263   2.6398   2.7159   2.7828   2.9340   2.9365
     2.9455   2.9622   3.2941   3.2987   3.3074   3.3092   3.5717   3.5809
     3.6570   3.7762   3.7890   3.8304   3.9002   3.9921   4.0085   4.0340
     4.0545   4.1368   4.1737   4.1788   4.1992   4.2313   4.2762   4.3536
     4.6482   4.6669   4.7510   4.7872   4.8176   4.9151   4.9278   4.9419
     4.9495   5.0043   5.1084   5.1209   5.1267   5.1320   5.1410   5.1497
     5.1544   5.1667   5.1808   5.2045   5.2195   5.3610   5.5057   5.5289
     5.5380   5.5520   5.5776   5.6183   5.6432   5.6621   5.8172   5.9573
     6.0095   6.0426   6.0587   6.0851   6.0978   6.1139   6.1246   6.1739
     6.2215   6.2838   6.3131   6.3993   6.4287   6.5972   6.6649   6.7763
     6.8483   7.1069   7.1373   7.1497   7.1613   7.1888   7.2680   7.3224
     7.6153   7.6513   7.6642   7.6791   7.6810   7.6858   7.7335   7.7864
     7.8928   7.9134   7.9545   7.9569   8.0002   8.0179   8.0381   8.0578
     8.0877   8.1042   8.1092   8.1686   8.2218   8.2702   8.5079   8.6776
     8.7088   8.7468   8.7579   8.8051   8.8824   8.8872   8.8966   8.9095
     9.0446   9.0505   9.1009   9.1038   9.1272   9.1963   9.2923   9.3710
     9.3799   9.4938   9.4988   9.5314   9.5456   9.5485   9.5512   9.5611
     9.5701   9.5793   9.6007   9.6207   9.6941   9.7386   9.8413   9.9078
    10.1131

          k =-0.5000-0.2165 0.0000 (256328 PWs)   bands (ev):

   -20.2849 -18.4119 -16.8014 -15.5312 -15.3743 -15.3468 -14.9507 -14.8028
   -14.7123 -14.6853 -13.6743 -13.4477 -13.3180 -13.2710 -12.2618 -12.0492
   -11.6205 -11.5505 -11.5240 -11.4073 -11.3384 -11.2482 -11.1341 -11.1018
   -10.9952 -10.9627  -9.6799  -9.6586  -9.3661  -9.3266  -8.9085  -8.5622
    -8.4487  -8.4110  -7.9541  -7.9173  -7.6756  -7.6709  -6.6950  -6.2404
    -5.9699  -5.8317  -5.6522  -5.5491  -5.3007  -5.2129  -5.0600  -5.0408
    -5.0369  -5.0231  -5.0046  -4.9812  -4.9387  -4.8823  -4.7613  -4.5453
    -4.5289  -4.3342  -4.0889  -4.0631  -4.0574  -4.0498  -4.0466  -4.0089
    -4.0020  -3.9690  -3.9549  -3.9212  -3.8498  -3.8052  -3.7762  -3.7476
    -3.5665  -3.5306  -3.4931  -3.4162  -3.3986  -3.3437  -3.3149  -3.3074
    -3.2898  -3.2635  -3.1199  -3.1102  -3.1069  -3.0970  -2.8828  -2.6914
    -2.6482  -2.4864  -2.4566  -2.4505  -2.4469  -2.4447  -2.4418  -2.4320
    -2.4151  -2.3550  -2.3350  -2.2706  -2.1320  -2.0705  -1.9526  -1.9467
    -1.9452  -1.9422  -1.9403  -1.9305  -1.9207  -1.8746  -1.8217  -1.7667
    -1.7223  -1.6779  -1.6763  -1.6744  -1.6702  -1.6535  -1.4817  -1.4739
    -1.4670  -1.4606  -1.4443  -1.3787  -1.3753  -1.3728  -1.3693  -1.3676
    -1.3662  -1.3614  -1.3271  -1.3232  -1.3167  -1.3035  -1.3031  -1.2795
    -1.2710  -1.2642  -1.2586  -1.2523  -1.2502  -1.2467  -1.2460  -1.2424
    -1.2358  -1.2344  -1.2321  -1.2217  -1.1896  -1.1864  -1.1822  -1.1604
    -1.1493  -1.1403  -1.1193  -1.0982  -1.0867  -1.0820  -1.0803  -1.0684
    -1.0619  -1.0566  -1.0465  -1.0373  -1.0308  -1.0267  -1.0235  -1.0157
    -1.0127  -1.0113  -1.0095  -0.9999  -0.9947  -0.9918  -0.9894  -0.9826
    -0.9792  -0.9548  -0.9477  -0.9439  -0.9370  -0.9362  -0.9346  -0.9288
    -0.9210  -0.9182  -0.9095  -0.9080  -0.9062  -0.9049  -0.8975  -0.8895
    -0.8102  -0.7735  -0.7675  -0.7497  -0.7463  -0.7447  -0.7422  -0.7385
    -0.7339  -0.7297  -0.7273  -0.7184  -0.6608  -0.6578  -0.6550  -0.6493
    -0.6455  -0.6385  -0.6346  -0.6310  -0.6306  -0.6282  -0.6217  -0.6144
    -0.5802  -0.5762  -0.5758  -0.5747  -0.5612  -0.5539  -0.5526  -0.5494
    -0.5471  -0.5411  -0.5129  -0.5106  -0.4364  -0.4326  -0.4285  -0.4179
    -0.4156  -0.4143  -0.4133  -0.3981  -0.3759  -0.3718  -0.3699  -0.3693
    -0.3279  -0.3269  -0.3248  -0.3204  -0.3085  -0.3044  -0.3024  -0.2990
    -0.2775  -0.2757  -0.2672  -0.2657  -0.2569  -0.2511  -0.2389  -0.2352
    -0.2018  -0.1890  -0.1789  -0.1714  -0.1680  -0.1644  -0.1520  -0.1463
    -0.1367  -0.1363  -0.1317  -0.1310  -0.1208  -0.1180  -0.1133  -0.1090
    -0.0625  -0.0582  -0.0546  -0.0525  -0.0450  -0.0447  -0.0439  -0.0418
    -0.0315  -0.0288  -0.0253  -0.0230  -0.0090  -0.0068  -0.0040  -0.0028
     0.0043   0.0163   0.0210   0.0227   0.0248   0.0276   0.0298   0.0323
     0.0394   0.0827   0.0873   0.0907   0.0957   0.0985   0.1134   0.1472
     0.1536   0.1550   0.1618   0.1680   0.1702   0.1715   0.1724   0.1756
     0.1805   0.1859   0.1880   0.1928   0.2010   0.2065   0.2102   0.2134
     0.2180   0.2195   0.2207   0.2229   0.2289   0.2307   0.2320   0.2342
     0.2345   0.2367   0.2381   0.2389   0.2477   0.2606   0.2657   0.2680
     0.2725   0.2786   0.2890   0.2919   0.2941   0.3054   0.3167   0.3213
     0.3220   0.3244   0.3328   0.3336   0.3536   0.3553   0.3631   0.3658
     0.3678   0.3705   0.4069   0.4249   0.4341   0.4373   0.4427   0.4461
     0.4574   0.4594   0.4725   0.4744   0.4836   0.4870   0.4938   0.4977
     0.5119   0.5133   0.5158   0.5177   0.5217   0.5246   0.5542   0.5668
     0.5710   0.5752   0.5761   0.5775   0.5797   0.5804   0.5815   0.5839
     0.5852   0.5861   0.5922   0.5974   0.6016   0.6106   0.6138   0.6180
     0.6234   0.6283   0.6303   0.6346   0.6529   0.6552   0.6583   0.6626
     0.6645   0.6693   0.6756   0.6812   0.6846   0.6893   0.6925   0.6929
     0.6948   0.6962   0.7042   0.7057   0.7166   0.7203   0.7252   0.7304
     0.7315   0.7376   0.7399   0.7410   0.7442   0.7477   0.7532   0.7574
     0.7738   0.7819   0.7847   0.7897   0.7928   0.7944   0.7988   0.8045
     0.8090   0.8114   0.8183   0.8206   0.8308   0.8345   0.8380   0.8422
     0.8438   0.8466   0.8501   0.8522   0.8532   0.8592   0.8665   0.8700
     0.8732   0.8906   0.8926   0.8943   0.9002   0.9183   0.9201   0.9270
     0.9318   0.9366   0.9470   0.9514   0.9597   0.9648   0.9747   0.9763
     0.9820   0.9830   0.9845   0.9924   1.0043   1.0330   1.0392   1.0420
     1.0438   1.0488   1.0592   1.0666   1.0773   1.0832   1.0877   1.0912
     1.1038   1.1051   1.1078   1.1138   1.1193   1.1218   1.1269   1.1305
     1.1396   1.1447   1.1460   1.1485   1.1492   1.1502   1.1509   1.1532
     1.1551   1.1584   1.1596   1.1606   1.1639   1.1666   1.1681   1.1741
     1.1773   1.1830   1.1843   1.1909   1.1958   1.1987   1.2016   1.2071
     1.2104   1.2165   1.2196   1.2235   1.2265   1.2308   1.2330   1.2342
     1.2439   1.2471   1.2501   1.2513   1.2537   1.2543   1.2598   1.2735
     1.2956   1.3056   1.3065   1.3078   1.3113   1.3155   1.3175   1.3214
     1.3231   1.3249   1.3266   1.3304   1.3339   1.3352   1.3372   1.3378
     1.3400   1.3457   1.3629   1.3810   1.3865   1.3877   1.3887   1.3902
     1.3913   1.3934   1.3946   1.3967   1.3988   1.4035   1.4090   1.4094
     1.4388   1.4416   1.4442   1.4519   1.4589   1.4592   1.4631   1.4634
     1.4648   1.4664   1.4677   1.4688   1.4712   1.4728   1.4739   1.4765
     1.4785   1.4818   1.4857   1.4879   1.4887   1.4954   1.4975   1.4994
     1.4996   1.5019   1.5039   1.5069   1.5117   1.5128   1.5170   1.5195
     1.5259   1.5273   1.5424   1.5469   1.5514   1.5531   1.5556   1.5561
     1.5581   1.5673   1.5694   1.5771   1.5872   1.5937   1.6019   1.6052
     1.6088   1.6108   1.6142   1.6211   1.6398   1.6448   1.6479   1.6626
     1.6779   1.6805   1.6835   1.6851   1.6887   1.6928   1.7016   1.7075
     1.7140   1.7236   1.7283   1.7299   1.7310   1.7344   1.8118   1.8208
     1.9381   1.9449   1.9496   1.9661   2.3480   2.3516   2.4371   2.4996
     2.6600   2.6610   2.6849   2.6922   2.8609   2.8703   2.8897   2.9002
     3.1113   3.1236   3.1863   3.2014   3.5653   3.5667   3.5682   3.5737
     3.7162   3.7175   3.7760   3.7991   3.8530   4.0420   4.0445   4.0500
     4.0545   4.2406   4.2459   4.3168   4.3307   4.3371   4.3406   4.3512
     4.3683   4.4735   4.5949   4.6118   4.6701   4.7509   4.7791   4.7902
     4.8143   4.8302   5.0484   5.1230   5.1444   5.2079   5.2194   5.2354
     5.2564   5.2876   5.2966   5.3127   5.3385   5.3413   5.3727   5.3850
     5.4606   5.4945   5.5170   5.5452   5.6418   5.6988   5.7039   5.7850
     5.8207   5.8372   5.8536   5.8563   5.8843   5.9754   6.0251   6.0648
     6.5493   6.6768   6.7917   6.7996   7.0267   7.0384   7.1081   7.1120
     7.1447   7.1699   7.1802   7.1882   7.2078   7.2253   7.2307   7.2729
     7.3366   7.3457   7.4514   7.4736   7.4881   7.4918   7.5552   7.5707
     7.7164   7.7886   7.8563   7.9774   7.9906   8.1603   8.1802   8.2257
     8.2462   8.2912   8.2980   8.3210   8.3596   8.4169   8.4398   8.4495
     8.5733   8.6833   8.9252   8.9386   8.9417   8.9504   9.0036   9.0065
     9.0191   9.0434   9.0598   9.0923   9.1230   9.1449   9.1592   9.1625
     9.1933   9.2027   9.3544   9.3659   9.3844   9.3955   9.4766   9.4871
     9.5079   9.5214   9.5504   9.6314   9.7905   9.8040   9.9177  10.0042
    10.0320

     the Fermi energy is     3.4260 ev

!    total energy              =  -12782.08319928 Ry
     Harris-Foulkes estimate   =  -12782.08319925 Ry
     estimated scf accuracy    <          5.9E-09 Ry

     The total energy is the sum of the following terms:

     one-electron contribution = -100644.75848563 Ry
     hartree contribution      =   51697.49109735 Ry
     xc contribution           =   -4463.87015421 Ry
     ewald contribution        =   40635.26767268 Ry
     Dispersion Correction     =      -2.81437964 Ry
     smearing contrib. (-TS)   =      -3.39894983 Ry

     convergence has been achieved in  46 iterations

     Writing output data file gc.save
 
     init_run     :    189.13s CPU    200.80s WALL (       1 calls)
     electrons    :  25802.55s CPU  27410.69s WALL (       1 calls)

     Called by init_run:
     wfcinit      :    185.86s CPU    197.09s WALL (       1 calls)
     potinit      :      0.87s CPU      0.91s WALL (       1 calls)

     Called by electrons:
     c_bands      :  23621.20s CPU  25045.65s WALL (      46 calls)
     sum_band     :   1765.61s CPU   1887.72s WALL (      46 calls)
     v_of_rho     :      5.27s CPU      6.79s WALL (      47 calls)
     newd         :     16.23s CPU     29.07s WALL (      47 calls)
     mix_rho      :    394.19s CPU    441.58s WALL (      46 calls)

     Called by c_bands:
     init_us_2    :     84.28s CPU     85.55s WALL (     558 calls)
     cegterg      :  23274.11s CPU  24684.62s WALL (     284 calls)

     Called by sum_band:
     sum_band:bec :      5.15s CPU      5.70s WALL (     276 calls)
     addusdens    :     23.22s CPU     35.44s WALL (      46 calls)

     Called by *egterg:
     h_psi        :   8282.15s CPU   8893.52s WALL (    1976 calls)
     s_psi        :   2028.38s CPU   2041.23s WALL (    1976 calls)
     g_psi        :     22.24s CPU     22.34s WALL (    1686 calls)
     cdiaghg      :   6780.34s CPU   7111.98s WALL (    1962 calls)

     Called by h_psi:
     add_vuspsi   :   2031.64s CPU   2045.98s WALL (    1976 calls)

     General routines
     calbec       :   2832.86s CPU   2854.26s WALL (    2252 calls)
     fft          :      4.60s CPU      5.42s WALL (     610 calls)
     ffts         :    166.32s CPU    199.51s WALL (   26029 calls)
     fftw         :   4046.40s CPU   4593.45s WALL ( 1392530 calls)
     davcio       :      0.20s CPU      7.49s WALL (       6 calls)
 
     Parallel routines
     fft_scatter  :   2014.66s CPU   2320.59s WALL ( 1419169 calls)
 
     PWSCF        :     7h13m CPU        7h40m WALL

 
   This run was terminated on:  14:52:39   5Oct2017            

=------------------------------------------------------------------------------=
   JOB DONE.
=------------------------------------------------------------------------------=
