mpirun: INFO: switching to OpenMPI runtime version 1.10.2

     Program PWSCF v.5.4.0 starts on 13Jun2018 at 11:52: 2 

     This program is part of the open-source Quantum ESPRESSO suite
     for quantum simulation of materials; please cite
         "P. Giannozzi et al., J. Phys.:Condens. Matter 21 395502 (2009);
          URL http://www.quantum-espresso.org", 
     in publications or presentations arising from this work. More details at
     http://www.quantum-espresso.org/quote

     Parallel version (MPI & OpenMP), running on      56 processor cores
     Number of MPI processes:                56
     Threads/MPI process:                     1
     R & G space division:  proc/nbgrp/npool/nimage =      56
     Waiting for input...
     Reading input from standard input

     Current dimensions of program PWSCF are:
     Max number of different atomic species (ntypx) = 10
     Max number of k-points (npk) =  40000
     Max angular momentum in pseudopotentials (lmaxx) =  3
     WARNING: atomic wfc #  2 for atom type 5 has zero norm
     WARNING: atomic wfc #  4 for atom type 5 has zero norm
     WARNING: atomic wfc #  5 for atom type 5 has zero norm

     Subspace diagonalization in iterative solution of the eigenvalue problem:
     one sub-group per band group will be used
     scalapack distributed-memory algorithm (size of sub-group:  5*  5 procs)

 
     Parallelization info
     --------------------
     sticks:   dense  smooth     PW     G-vecs:    dense   smooth      PW
     Min         204     204     54                36612    36612    4962
     Max         205     205     55                36617    36617    4968
     Sum       11433   11433   3039              2050409  2050409  278033
 


     bravais-lattice index     =            0
     lattice parameter (alat)  =      13.9425  a.u.
     unit-cell volume          =   21209.0878 (a.u.)^3
     number of atoms/cell      =          152
     number of atomic types    =            5
     number of electrons       =      1309.00
     number of Kohn-Sham states=          786
     kinetic-energy cutoff     =      80.0000  Ry
     charge density cutoff     =     320.0000  Ry
     convergence threshold     =      1.0E-08
     mixing beta               =       0.7000
     number of iterations used =            8  local-TF  mixing
     Exchange-correlation      =  SLA  PW   PBX  PBC ( 1  4  3  4 0 0)
     nstep                     =           50


     celldm(1)=  13.942539  celldm(2)=   0.000000  celldm(3)=   0.000000
     celldm(4)=   0.000000  celldm(5)=   0.000000  celldm(6)=   0.000000

     crystal axes: (cart. coord. in units of alat)
               a(1) = (   1.000000   0.000000   0.000000 )  
               a(2) = (   0.000000   2.309401   0.000000 )  
               a(3) = (   0.000000   0.000000   3.388418 )  

     reciprocal axes: (cart. coord. in units 2 pi/alat)
               b(1) = (  1.000000  0.000000  0.000000 )  
               b(2) = (  0.000000  0.433013  0.000000 )  
               b(3) = (  0.000000  0.000000  0.295123 )  


     PseudoPot. # 1 for Cu read from file:
     /home/549/hxw549/Short/pseudopotentials/Cu.pbe-n-van_ak.UPF
     MD5 check sum: 601f7c30f7467666bec936e0661ce3e1
     Pseudo is Ultrasoft + core correction, Zval = 11.0
     Generated by new atomic code, or converted to UPF format
     Using radial grid of  867 points,  6 beta functions with: 
                l(1) =   0
                l(2) =   0
                l(3) =   1
                l(4) =   1
                l(5) =   2
                l(6) =   2
     Q(r) pseudized with  8 coefficients,  rinner =    1.400   1.400   1.400
                                                       1.400   1.400

     PseudoPot. # 2 for C  read from file:
     /home/549/hxw549/Short/pseudopotentials/C.star1s-pbe-mt_gipaw.UPF
     MD5 check sum: ef0cb3dee31bd9e4ba2a832a2c716264
     Pseudo is Norm-conserving, Zval =  5.0
     Generated by new atomic code, or converted to UPF format
     Using radial grid of 1073 points,  1 beta functions with: 
                l(1) =   0

     PseudoPot. # 3 for C  read from file:
     /home/549/hxw549/Short/pseudopotentials/C.pbe-mt_gipaw.UPF
     MD5 check sum: 5ac2f21f2c440b14befe521540822c15
     Pseudo is Norm-conserving, Zval =  4.0
     Generated by new atomic code, or converted to UPF format
     Using radial grid of 1073 points,  1 beta functions with: 
                l(1) =   0

     PseudoPot. # 4 for H  read from file:
     /home/549/hxw549/Short/pseudopotentials/H.pbe-van_ak.UPF
     MD5 check sum: 077eb6d537518a38cb46c6de387227b7
     Pseudo is Ultrasoft, Zval =  1.0
     Generated by new atomic code, or converted to UPF format
     Using radial grid of  615 points,  1 beta functions with: 
                l(1) =   0
     Q(r) pseudized with  8 coefficients,  rinner =    0.800

     PseudoPot. # 5 for O  read from file:
     /home/549/hxw549/Short/pseudopotentials/O.pbe-van_gipaw.UPF
     MD5 check sum: 5ce2a047509d4f331db576c963e74b29
     Pseudo is Ultrasoft, Zval =  6.0
     Generated by new atomic code, or converted to UPF format
     Using radial grid of 1095 points,  4 beta functions with: 
                l(1) =   0
                l(2) =   0
                l(3) =   1
                l(4) =   1
     Q(r) pseudized with 0 coefficients 


     atomic species   valence    mass     pseudopotential
        Cu            11.00    63.54600     Cu( 1.00)
        C_h            5.00    12.01070     C ( 1.00)
        C              4.00    12.01070     C ( 1.00)
        H              1.00     1.00783     H ( 1.00)
        O              6.00    15.99940     O ( 1.00)

     No symmetry found



   Cartesian axes

     site n.     atom                  positions (alat units)
         1           Cu  tau(   1) = (   0.0000000   0.0000567   0.9971194  )
         2           Cu  tau(   2) = (   0.2499927   0.2309760   0.9972946  )
         3           Cu  tau(   3) = (   0.5000000   0.0000313   0.9971490  )
         4           Cu  tau(   4) = (   0.7500073   0.2309760   0.9972946  )
         5           Cu  tau(   5) = (   0.0000000   0.4618437   0.9973425  )
         6           Cu  tau(   6) = (   0.2499840   0.6927701   0.9971914  )
         7           Cu  tau(   7) = (   0.5000000   0.4618722   0.9973119  )
         8           Cu  tau(   8) = (   0.7500160   0.6927701   0.9971914  )
         9           Cu  tau(   9) = (   0.0000000   0.9237521   0.9970621  )
        10           Cu  tau(  10) = (   0.2500157   1.1547420   0.9971373  )
        11           Cu  tau(  11) = (   0.5000000   0.9237453   0.9970727  )
        12           Cu  tau(  12) = (   0.7499843   1.1547420   0.9971373  )
        13           Cu  tau(  13) = (   0.0000000   1.3856555   0.9972830  )
        14           Cu  tau(  14) = (   0.2500029   1.6165618   0.9973242  )
        15           Cu  tau(  15) = (   0.5000000   1.3857014   0.9973005  )
        16           Cu  tau(  16) = (   0.7499971   1.6165618   0.9973242  )
        17           Cu  tau(  17) = (   0.0000000   1.8474941   0.9971969  )
        18           Cu  tau(  18) = (   0.2500043   2.0784518   0.9970745  )
        19           Cu  tau(  19) = (   0.5000000   1.8474499   0.9971773  )
        20           Cu  tau(  20) = (   0.7499957   2.0784518   0.9970745  )
        21           Cu  tau(  21) = (   0.0000000   0.2308065   1.2457643  )
        22           Cu  tau(  22) = (   0.2499892  -0.0001010   1.2455764  )
        23           Cu  tau(  23) = (   0.5000000   0.2308938   1.2456746  )
        24           Cu  tau(  24) = (   0.7500108  -0.0001010   1.2455764  )
        25           Cu  tau(  25) = (   0.0000000   0.6929786   1.2456406  )
        26           Cu  tau(  26) = (   0.2499874   0.4619293   1.2457459  )
        27           Cu  tau(  27) = (   0.5000000   0.6929012   1.2456074  )
        28           Cu  tau(  28) = (   0.7500126   0.4619293   1.2457459  )
        29           Cu  tau(  29) = (   0.0000000   1.1546142   1.2455676  )
        30           Cu  tau(  30) = (   0.2499981   0.9237849   1.2455149  )
        31           Cu  tau(  31) = (   0.5000000   1.1545763   1.2455800  )
        32           Cu  tau(  32) = (   0.7500019   0.9237849   1.2455149  )
        33           Cu  tau(  33) = (   0.0000000   1.6166029   1.2456910  )
        34           Cu  tau(  34) = (   0.2500161   1.3855492   1.2457134  )
        35           Cu  tau(  35) = (   0.5000000   1.6166555   1.2458019  )
        36           Cu  tau(  36) = (   0.7499839   1.3855492   1.2457134  )
        37           Cu  tau(  37) = (   0.0000000   2.0784993   1.2455162  )
        38           Cu  tau(  38) = (   0.2500161   1.8476387   1.2456210  )
        39           Cu  tau(  39) = (   0.5000000   2.0784755   1.2455152  )
        40           Cu  tau(  40) = (   0.7499839   1.8476387   1.2456210  )
        41           Cu  tau(  41) = (   0.0000000  -0.0003182   1.4954305  )
        42           Cu  tau(  42) = (   0.2500224   0.2307186   1.4951678  )
        43           Cu  tau(  43) = (   0.5000000  -0.0002059   1.4952775  )
        44           Cu  tau(  44) = (   0.7499776   0.2307186   1.4951678  )
        45           Cu  tau(  45) = (   0.0000000   0.4620254   1.4950571  )
        46           Cu  tau(  46) = (   0.2500339   0.6931225   1.4952807  )
        47           Cu  tau(  47) = (   0.5000000   0.4619896   1.4952144  )
        48           Cu  tau(  48) = (   0.7499661   0.6931225   1.4952807  )
        49           Cu  tau(  49) = (   0.0000000   0.9238798   1.4954544  )
        50           Cu  tau(  50) = (   0.2499708   1.1544329   1.4953374  )
        51           Cu  tau(  51) = (   0.5000000   0.9237633   1.4954072  )
        52           Cu  tau(  52) = (   0.7500292   1.1544329   1.4953374  )
        53           Cu  tau(  53) = (   0.0000000   1.3854453   1.4952066  )
        54           Cu  tau(  54) = (   0.2499861   1.6167017   1.4951298  )
        55           Cu  tau(  55) = (   0.5000000   1.3853760   1.4951346  )
        56           Cu  tau(  56) = (   0.7500139   1.6167017   1.4951298  )
        57           Cu  tau(  57) = (   0.0000000   1.8477718   1.4952308  )
        58           Cu  tau(  58) = (   0.2499930   2.0785254   1.4954090  )
        59           Cu  tau(  59) = (   0.5000000   1.8478762   1.4953503  )
        60           Cu  tau(  60) = (   0.7500070   2.0785254   1.4954090  )
        61           Cu  tau(  61) = (   0.0000000   0.2310733   1.7440777  )
        62           Cu  tau(  62) = (   0.2501089  -0.0001294   1.7450479  )
        63           Cu  tau(  63) = (   0.5000000   0.2306045   1.7445985  )
        64           Cu  tau(  64) = (   0.7498911  -0.0001294   1.7450479  )
        65           Cu  tau(  65) = (   0.0000000   0.6927994   1.7446059  )
        66           Cu  tau(  66) = (   0.2502918   0.4619532   1.7441197  )
        67           Cu  tau(  67) = (   0.5000000   0.6931011   1.7451318  )
        68           Cu  tau(  68) = (   0.7497082   0.4619532   1.7441197  )
        69           Cu  tau(  69) = (   0.0000000   1.1545789   1.7453503  )
        70           Cu  tau(  70) = (   0.2500220   0.9237908   1.7453835  )
        71           Cu  tau(  71) = (   0.5000000   1.1545999   1.7449118  )
        72           Cu  tau(  72) = (   0.7499780   0.9237908   1.7453835  )
        73           Cu  tau(  73) = (   0.0000000   1.6167791   1.7444075  )
        74           Cu  tau(  74) = (   0.2497438   1.3855115   1.7442733  )
        75           Cu  tau(  75) = (   0.5000000   1.6164906   1.7439233  )
        76           Cu  tau(  76) = (   0.7502562   1.3855115   1.7442733  )
        77           Cu  tau(  77) = (   0.0000000   2.0782721   1.7455014  )
        78           Cu  tau(  78) = (   0.2498426   1.8476765   1.7447807  )
        79           Cu  tau(  79) = (   0.5000000   2.0787016   1.7454002  )
        80           Cu  tau(  80) = (   0.7501574   1.8476765   1.7447807  )
        81           Cu  tau(  81) = (   0.0000000   0.0010732   1.9906710  )
        82           Cu  tau(  82) = (   0.2503054   0.2314650   1.9904877  )
        83           Cu  tau(  83) = (   0.5000000   0.0001335   1.9924670  )
        84           Cu  tau(  84) = (   0.7496946   0.2314650   1.9904877  )
        85           Cu  tau(  85) = (   0.0000000   0.4618379   1.9901778  )
        86           Cu  tau(  86) = (   0.2508441   0.6921348   1.9910282  )
        87           Cu  tau(  87) = (   0.5000000   0.4613052   1.9913358  )
        88           Cu  tau(  88) = (   0.7491559   0.6921348   1.9910282  )
        89           Cu  tau(  89) = (   0.0000000   0.9224699   1.9915918  )
        90           Cu  tau(  90) = (   0.2491275   1.1552920   1.9912642  )
        91           Cu  tau(  91) = (   0.5000000   0.9247757   1.9920574  )
        92           Cu  tau(  92) = (   0.7508725   1.1552920   1.9912642  )
        93           Cu  tau(  93) = (   0.0000000   1.3865904   1.9916296  )
        94           Cu  tau(  94) = (   0.2499532   1.6162906   1.9903050  )
        95           Cu  tau(  95) = (   0.5000000   1.3858063   1.9901800  )
        96           Cu  tau(  96) = (   0.7500468   1.6162906   1.9903050  )
        97           Cu  tau(  97) = (   0.0000000   1.8468318   1.9923212  )
        98           Cu  tau(  98) = (   0.2497561   2.0783183   1.9915134  )
        99           Cu  tau(  99) = (   0.5000000   1.8467805   1.9903847  )
       100           Cu  tau( 100) = (   0.7502439   2.0783183   1.9915134  )
       101           C   tau( 101) = (   0.0000064   0.0979239   2.3869522  )
       102           C   tau( 102) = (   0.0000112   0.2904884   2.3816567  )
       103           C   tau( 103) = (   0.1665802   0.0013830   2.3882279  )
       104           C   tau( 104) = (   0.1666156   0.3864838   2.3790509  )
       105           C   tau( 105) = (   0.3331992   0.0977983   2.3852134  )
       106           C   tau( 106) = (   0.3332217   0.2903889   2.3811220  )
       107           C   tau( 107) = (   0.5000011   0.0010501   2.3856350  )
       108           C   tau( 108) = (   0.5001270   0.3875402   2.3810436  )
       109           C   tau( 109) = (   0.6668462   0.0977708   2.3850469  )
       110           C   tau( 110) = (   0.6669741   0.2903961   2.3809109  )
       111           C   tau( 111) = (   0.8334274   0.0013751   2.3880774  )
       112           C   tau( 112) = (   0.8334738   0.3867267   2.3788744  )
       113           C   tau( 113) = (   0.0000298   0.6750104   2.3746820  )
       114           C   tau( 114) = (  -0.0005811   0.8671027   2.3762485  )
       115           C   tau( 115) = (   0.1665516   0.5789795   2.3781055  )
       116           C   tau( 116) = (   0.1670236   0.9625066   2.3944296  )
       117           C   tau( 117) = (   0.3326821   0.6756315   2.3974193  )
       118           C   tau( 118) = (   0.3300095   0.8655769   2.4162738  )
       119           C   tau( 119) = (   0.5002073   0.5790593   2.3944495  )
       120           C   tau( 120) = (   0.4997361   0.9626363   2.4774242  )
       121           C   tau( 121) = (   0.6672568   0.6762598   2.3974266  )
       122           C   tau( 122) = (   0.6689434   0.8659670   2.4182084  )
       123           C   tau( 123) = (   0.8334063   0.5794044   2.3780645  )
       124           C   tau( 124) = (   0.8318467   0.9623917   2.3955621  )
       125           C   tau( 125) = (   0.0001864   1.2503186   2.3801320  )
       126           C   tau( 126) = (   0.0001289   1.4431833   2.3750440  )
       127           C   tau( 127) = (   0.1667494   1.1554487   2.3920213  )
       128           C   tau( 128) = (   0.1668552   1.5396042   2.3772127  )
       129           C   tau( 129) = (   0.3343740   1.2516651   2.4002453  )
       130           C   tau( 130) = (   0.3338015   1.4439053   2.3839953  )
       131           C   tau( 131) = (   0.4998369   1.1587281   2.4209226  )
       132           C   tau( 132) = (   0.5001095   1.5400893   2.3841298  )
       133           C   tau( 133) = (   0.6656248   1.2513363   2.4006160  )
       134           C   tau( 134) = (   0.6662752   1.4437109   2.3838609  )
       135           C   tau( 135) = (   0.8333013   1.1552388   2.3926113  )
       136           C   tau( 136) = (   0.8332866   1.5394756   2.3770113  )
       137           C   tau( 137) = (   0.0000287   1.8284947   2.3824456  )
       138           C   tau( 138) = (  -0.0000047   2.0212831   2.3878599  )
       139           C   tau( 139) = (   0.1669224   1.7321270   2.3814168  )
       140           C   tau( 140) = (   0.1665045   2.1179353   2.3883973  )
       141           C   tau( 141) = (   0.3332837   1.8286087   2.3867359  )
       142           C   tau( 142) = (   0.3332857   2.0212988   2.3883704  )
       143           C   tau( 143) = (   0.5000140   1.7326262   2.3856333  )
       144           C   tau( 144) = (   0.4999843   2.1176978   2.3888923  )
       145           C   tau( 145) = (   0.6667536   1.8286044   2.3865724  )
       146           C   tau( 146) = (   0.6666625   2.0213057   2.3882283  )
       147           C   tau( 147) = (   0.8331424   1.7320990   2.3812349  )
       148           C   tau( 148) = (   0.8334635   2.1179176   2.3882464  )
       149           C   tau( 149) = (   0.4864987   0.9645678   2.7019699  )
       150           O   tau( 150) = (   0.3886168   1.0695663   2.7835332  )
       151           O   tau( 151) = (   0.5929530   0.8331891   2.7828173  )
       152           H   tau( 152) = (   0.5704827   0.8471876   2.9140276  )

     number of k points=     6  gaussian smearing, width (Ry)=  0.1000
                       cart. coord. in units 2pi/alat
        k(    1) = (   0.0000000   0.0000000   0.0000000), wk =   0.2500000
        k(    2) = (   0.0000000  -0.2165064   0.0000000), wk =   0.2500000
        k(    3) = (   0.2500000   0.0000000   0.0000000), wk =   0.5000000
        k(    4) = (   0.2500000  -0.2165064   0.0000000), wk =   0.5000000
        k(    5) = (  -0.5000000   0.0000000   0.0000000), wk =   0.2500000
        k(    6) = (  -0.5000000  -0.2165064   0.0000000), wk =   0.2500000

     Dense  grid:  2050409 G-vectors     FFT dimensions: (  80, 192, 270)

     Largest allocated arrays     est. size (Mb)     dimensions
        Kohn-Sham Wavefunctions        55.22 Mb     (    4604,  786)
        NL pseudopotentials           131.09 Mb     (    4604, 1866)
        Each V/rho on FFT grid          1.17 Mb     (   76800)
        Each G-vector array             0.28 Mb     (   36616)
        G-vector shells                 0.14 Mb     (   17932)
     Largest temporary arrays     est. size (Mb)     dimensions
        Auxiliary wavefunctions       220.87 Mb     (    4604, 3144)
        Each subspace H/S matrix        6.02 Mb     (     628,  628)
        Each <psi_i|beta_j> matrix     22.38 Mb     (    1866,  786)
        Arrays for rho mixing           9.38 Mb     (   76800,    8)

     Initial potential from superposition of free atoms
     Check: negative starting charge=   -0.001542

     starting charge 1283.31750, renormalised to 1309.00000

     negative rho (up, down):  1.572E-03 0.000E+00
     Starting wfc are 1301 randomized atomic wfcs

     total cpu time spent up to now is      114.5 secs

     Self-consistent Calculation

     iteration #  1     ecut=    80.00 Ry     beta=0.70
     Davidson diagonalization with overlap
     c_bands:  4 eigenvalues not converged
     c_bands:  4 eigenvalues not converged
     ethr =  1.00E-04,  avg # of iterations = 20.7

     negative rho (up, down):  2.451E+01 0.000E+00

     total cpu time spent up to now is     1957.3 secs

     total energy              =   -9859.55268763 Ry
     Harris-Foulkes estimate   =  -17276.67474180 Ry
     estimated scf accuracy    <  182451.51308138 Ry

     iteration #  2     ecut=    80.00 Ry     beta=0.70
     Davidson diagonalization with overlap
     ethr =  1.00E-02,  avg # of iterations = 11.7

     negative rho (up, down):  2.715E+01 0.000E+00

     total cpu time spent up to now is     2923.6 secs

     total energy              =  -12240.63777598 Ry
     Harris-Foulkes estimate   =  -13694.71723011 Ry
     estimated scf accuracy    <   21137.43829860 Ry

     iteration #  3     ecut=    80.00 Ry     beta=0.70
     Davidson diagonalization with overlap
     ethr =  1.00E-02,  avg # of iterations =  6.3

     negative rho (up, down):  2.897E+01 0.000E+00

     total cpu time spent up to now is     3491.6 secs

     total energy              =  -12473.87909475 Ry
     Harris-Foulkes estimate   =  -13423.49832287 Ry
     estimated scf accuracy    <    6438.82151775 Ry

     iteration #  4     ecut=    80.00 Ry     beta=0.70
     Davidson diagonalization with overlap
     ethr =  1.00E-02,  avg # of iterations =  5.0

     negative rho (up, down):  2.423E+01 0.000E+00

     total cpu time spent up to now is     4047.4 secs

     total energy              =  -12838.91588621 Ry
     Harris-Foulkes estimate   =  -13153.13582821 Ry
     estimated scf accuracy    <    4478.03346390 Ry

     iteration #  5     ecut=    80.00 Ry     beta=0.70
     Davidson diagonalization with overlap
     ethr =  1.00E-02,  avg # of iterations =  4.3

     negative rho (up, down):  1.553E+01 0.000E+00

     total cpu time spent up to now is     4371.4 secs

     total energy              =  -12886.58640302 Ry
     Harris-Foulkes estimate   =  -13046.46362818 Ry
     estimated scf accuracy    <    1046.00568482 Ry

     iteration #  6     ecut=    80.00 Ry     beta=0.70
     Davidson diagonalization with overlap
     ethr =  1.00E-02,  avg # of iterations =  2.0

     negative rho (up, down):  1.019E+01 0.000E+00

     total cpu time spent up to now is     4609.3 secs

     total energy              =  -12865.63666628 Ry
     Harris-Foulkes estimate   =  -12928.42830575 Ry
     estimated scf accuracy    <     430.26255680 Ry

     iteration #  7     ecut=    80.00 Ry     beta=0.70
     Davidson diagonalization with overlap
     ethr =  1.00E-02,  avg # of iterations =  2.0

     negative rho (up, down):  7.428E+00 0.000E+00

     total cpu time spent up to now is     4803.5 secs

     total energy              =  -12848.48454172 Ry
     Harris-Foulkes estimate   =  -12883.00626566 Ry
     estimated scf accuracy    <     782.03196647 Ry

     iteration #  8     ecut=    80.00 Ry     beta=0.70
     Davidson diagonalization with overlap
     ethr =  1.00E-02,  avg # of iterations =  1.5

     negative rho (up, down):  7.143E+00 0.000E+00

     total cpu time spent up to now is     4988.3 secs

     total energy              =  -12851.76762233 Ry
     Harris-Foulkes estimate   =  -12856.65898160 Ry
     estimated scf accuracy    <     237.44227429 Ry

     iteration #  9     ecut=    80.00 Ry     beta=0.70
     Davidson diagonalization with overlap
     ethr =  1.00E-02,  avg # of iterations =  1.0

     negative rho (up, down):  3.234E+00 0.000E+00

     total cpu time spent up to now is     5168.0 secs

     total energy              =  -12817.65091323 Ry
     Harris-Foulkes estimate   =  -12853.01286312 Ry
     estimated scf accuracy    <     210.42842949 Ry

     iteration # 10     ecut=    80.00 Ry     beta=0.70
     Davidson diagonalization with overlap
     ethr =  1.00E-02,  avg # of iterations =  1.3

     negative rho (up, down):  1.352E+00 0.000E+00

     total cpu time spent up to now is     5351.5 secs

     total energy              =  -12800.15019962 Ry
     Harris-Foulkes estimate   =  -12821.69435212 Ry
     estimated scf accuracy    <     296.51727501 Ry

     iteration # 11     ecut=    80.00 Ry     beta=0.70
     Davidson diagonalization with overlap
     ethr =  1.00E-02,  avg # of iterations =  1.8

     negative rho (up, down):  2.850E+00 0.000E+00

     total cpu time spent up to now is     5540.8 secs

     total energy              =  -12786.40048226 Ry
     Harris-Foulkes estimate   =  -12811.04886173 Ry
     estimated scf accuracy    <     220.27369924 Ry

     iteration # 12     ecut=    80.00 Ry     beta=0.70
     Davidson diagonalization with overlap
     ethr =  1.00E-02,  avg # of iterations =  3.2

     negative rho (up, down):  2.219E+00 0.000E+00

     total cpu time spent up to now is     5747.3 secs

     total energy              =  -12785.47547103 Ry
     Harris-Foulkes estimate   =  -12796.05728888 Ry
     estimated scf accuracy    <     114.00001771 Ry

     iteration # 13     ecut=    80.00 Ry     beta=0.70
     Davidson diagonalization with overlap
     ethr =  8.71E-03,  avg # of iterations =  1.8

     negative rho (up, down):  2.805E+00 0.000E+00

     total cpu time spent up to now is     5936.9 secs

     total energy              =  -12783.58245964 Ry
     Harris-Foulkes estimate   =  -12790.04644170 Ry
     estimated scf accuracy    <      58.94239337 Ry

     iteration # 14     ecut=    80.00 Ry     beta=0.70
     Davidson diagonalization with overlap
     ethr =  4.50E-03,  avg # of iterations =  2.0

     negative rho (up, down):  3.883E+00 0.000E+00

     total cpu time spent up to now is     6128.2 secs

     total energy              =  -12779.12520734 Ry
     Harris-Foulkes estimate   =  -12785.43855437 Ry
     estimated scf accuracy    <      41.51698255 Ry

     iteration # 15     ecut=    80.00 Ry     beta=0.70
     Davidson diagonalization with overlap
     ethr =  3.17E-03,  avg # of iterations =  3.0

     negative rho (up, down):  4.140E+00 0.000E+00

     total cpu time spent up to now is     6332.5 secs

     total energy              =  -12778.11844802 Ry
     Harris-Foulkes estimate   =  -12780.21606584 Ry
     estimated scf accuracy    <      20.62728355 Ry

     iteration # 16     ecut=    80.00 Ry     beta=0.70
     Davidson diagonalization with overlap
     ethr =  1.58E-03,  avg # of iterations =  7.3

     negative rho (up, down):  3.839E+00 0.000E+00

     total cpu time spent up to now is     6601.1 secs

     total energy              =  -12777.21634516 Ry
     Harris-Foulkes estimate   =  -12778.60400660 Ry
     estimated scf accuracy    <      12.35446480 Ry

     iteration # 17     ecut=    80.00 Ry     beta=0.70
     Davidson diagonalization with overlap
     ethr =  9.44E-04,  avg # of iterations =  5.2

     negative rho (up, down):  3.006E+00 0.000E+00

     total cpu time spent up to now is     6831.0 secs

     total energy              =  -12776.01023779 Ry
     Harris-Foulkes estimate   =  -12777.41630596 Ry
     estimated scf accuracy    <       8.86243235 Ry

     iteration # 18     ecut=    80.00 Ry     beta=0.70
     Davidson diagonalization with overlap
     ethr =  6.77E-04,  avg # of iterations =  6.7

     negative rho (up, down):  2.242E+00 0.000E+00

     total cpu time spent up to now is     7083.4 secs

     total energy              =  -12774.91309164 Ry
     Harris-Foulkes estimate   =  -12776.20410359 Ry
     estimated scf accuracy    <       7.68331619 Ry

     iteration # 19     ecut=    80.00 Ry     beta=0.70
     Davidson diagonalization with overlap
     ethr =  5.87E-04,  avg # of iterations =  5.3

     negative rho (up, down):  1.647E+00 0.000E+00

     total cpu time spent up to now is     7315.2 secs

     total energy              =  -12774.13191631 Ry
     Harris-Foulkes estimate   =  -12775.09644684 Ry
     estimated scf accuracy    <       6.20800317 Ry

     iteration # 20     ecut=    80.00 Ry     beta=0.70
     Davidson diagonalization with overlap
     ethr =  4.74E-04,  avg # of iterations =  2.3

     negative rho (up, down):  9.342E-01 0.000E+00

     total cpu time spent up to now is     7511.2 secs

     total energy              =  -12773.24360654 Ry
     Harris-Foulkes estimate   =  -12774.23748660 Ry
     estimated scf accuracy    <       4.60672525 Ry

     iteration # 21     ecut=    80.00 Ry     beta=0.70
     Davidson diagonalization with overlap
     ethr =  3.52E-04,  avg # of iterations =  6.2

     negative rho (up, down):  8.471E-01 0.000E+00

     total cpu time spent up to now is     7756.0 secs

     total energy              =  -12772.66813998 Ry
     Harris-Foulkes estimate   =  -12773.43655354 Ry
     estimated scf accuracy    <       2.76533638 Ry

     iteration # 22     ecut=    80.00 Ry     beta=0.70
     Davidson diagonalization with overlap
     ethr =  2.11E-04,  avg # of iterations =  7.0

     negative rho (up, down):  9.245E-01 0.000E+00

     total cpu time spent up to now is     8017.0 secs

     total energy              =  -12772.42003208 Ry
     Harris-Foulkes estimate   =  -12772.76574993 Ry
     estimated scf accuracy    <       1.84460225 Ry

     iteration # 23     ecut=    80.00 Ry     beta=0.70
     Davidson diagonalization with overlap
     ethr =  1.41E-04,  avg # of iterations =  7.8

     negative rho (up, down):  9.637E-01 0.000E+00

     total cpu time spent up to now is     8291.8 secs

     total energy              =  -12772.26480199 Ry
     Harris-Foulkes estimate   =  -12772.47999681 Ry
     estimated scf accuracy    <       0.93459018 Ry

     iteration # 24     ecut=    80.00 Ry     beta=0.70
     Davidson diagonalization with overlap
     ethr =  7.14E-05,  avg # of iterations =  6.7

     negative rho (up, down):  7.658E-01 0.000E+00

     total cpu time spent up to now is     8565.9 secs

     total energy              =  -12772.18578383 Ry
     Harris-Foulkes estimate   =  -12772.31073759 Ry
     estimated scf accuracy    <       0.59362757 Ry

     iteration # 25     ecut=    80.00 Ry     beta=0.70
     Davidson diagonalization with overlap
     ethr =  4.53E-05,  avg # of iterations =  6.7

     negative rho (up, down):  6.549E-01 0.000E+00

     total cpu time spent up to now is     8826.9 secs

     total energy              =  -12772.15466513 Ry
     Harris-Foulkes estimate   =  -12772.21970267 Ry
     estimated scf accuracy    <       0.33822869 Ry

     iteration # 26     ecut=    80.00 Ry     beta=0.70
     Davidson diagonalization with overlap
     ethr =  2.58E-05,  avg # of iterations =  7.0

     negative rho (up, down):  2.105E-01 0.000E+00

     total cpu time spent up to now is     9095.3 secs

     total energy              =  -12772.09180521 Ry
     Harris-Foulkes estimate   =  -12772.17836131 Ry
     estimated scf accuracy    <       0.20652134 Ry

     iteration # 27     ecut=    80.00 Ry     beta=0.70
     Davidson diagonalization with overlap
     ethr =  1.58E-05,  avg # of iterations = 11.2

     negative rho (up, down):  1.465E-01 0.000E+00

     total cpu time spent up to now is     9454.2 secs

     total energy              =  -12772.10876969 Ry
     Harris-Foulkes estimate   =  -12772.11578429 Ry
     estimated scf accuracy    <       0.03091505 Ry

     iteration # 28     ecut=    80.00 Ry     beta=0.70
     Davidson diagonalization with overlap
     c_bands:  1 eigenvalues not converged
     ethr =  2.36E-06,  avg # of iterations = 12.3

     negative rho (up, down):  1.215E-01 0.000E+00

     total cpu time spent up to now is     9811.3 secs

     total energy              =  -12772.10964752 Ry
     Harris-Foulkes estimate   =  -12772.11252662 Ry
     estimated scf accuracy    <       0.02038432 Ry

     iteration # 29     ecut=    80.00 Ry     beta=0.70
     Davidson diagonalization with overlap
     ethr =  1.56E-06,  avg # of iterations =  7.0

     negative rho (up, down):  6.664E-02 0.000E+00

     total cpu time spent up to now is    10084.9 secs

     total energy              =  -12772.10914613 Ry
     Harris-Foulkes estimate   =  -12772.11101568 Ry
     estimated scf accuracy    <       0.00581095 Ry

     iteration # 30     ecut=    80.00 Ry     beta=0.70
     Davidson diagonalization with overlap
     c_bands:  2 eigenvalues not converged
     ethr =  4.44E-07,  avg # of iterations = 10.3

     negative rho (up, down):  4.109E-02 0.000E+00

     total cpu time spent up to now is    10409.8 secs

     total energy              =  -12772.10860937 Ry
     Harris-Foulkes estimate   =  -12772.10951952 Ry
     estimated scf accuracy    <       0.00396314 Ry

     iteration # 31     ecut=    80.00 Ry     beta=0.70
     Davidson diagonalization with overlap
     ethr =  3.03E-07,  avg # of iterations =  8.3

     negative rho (up, down):  3.102E-02 0.000E+00

     total cpu time spent up to now is    10702.2 secs

     total energy              =  -12772.10869065 Ry
     Harris-Foulkes estimate   =  -12772.10885395 Ry
     estimated scf accuracy    <       0.00124611 Ry

     iteration # 32     ecut=    80.00 Ry     beta=0.70
     Davidson diagonalization with overlap
     ethr =  9.52E-08,  avg # of iterations =  7.8

     negative rho (up, down):  1.053E-02 0.000E+00

     total cpu time spent up to now is    10989.5 secs

     total energy              =  -12772.10840934 Ry
     Harris-Foulkes estimate   =  -12772.10881404 Ry
     estimated scf accuracy    <       0.00065219 Ry

     iteration # 33     ecut=    80.00 Ry     beta=0.70
     Davidson diagonalization with overlap
     c_bands:  1 eigenvalues not converged
     c_bands:  2 eigenvalues not converged
     c_bands:  2 eigenvalues not converged
     ethr =  4.98E-08,  avg # of iterations = 15.8

     negative rho (up, down):  2.413E-03 0.000E+00

     total cpu time spent up to now is    11385.9 secs

     total energy              =  -12772.10834548 Ry
     Harris-Foulkes estimate   =  -12772.10846258 Ry
     estimated scf accuracy    <       0.00032799 Ry

     iteration # 34     ecut=    80.00 Ry     beta=0.70
     Davidson diagonalization with overlap
     c_bands:  1 eigenvalues not converged
     ethr =  2.51E-08,  avg # of iterations = 11.7

     negative rho (up, down):  2.003E-03 0.000E+00

     total cpu time spent up to now is    11731.4 secs

     total energy              =  -12772.10836315 Ry
     Harris-Foulkes estimate   =  -12772.10836234 Ry
     estimated scf accuracy    <       0.00008704 Ry

     iteration # 35     ecut=    80.00 Ry     beta=0.70
     Davidson diagonalization with overlap
     ethr =  6.65E-09,  avg # of iterations =  6.8

     negative rho (up, down):  1.785E-03 0.000E+00

     total cpu time spent up to now is    12000.1 secs

     total energy              =  -12772.10836025 Ry
     Harris-Foulkes estimate   =  -12772.10836845 Ry
     estimated scf accuracy    <       0.00005873 Ry

     iteration # 36     ecut=    80.00 Ry     beta=0.70
     Davidson diagonalization with overlap
     c_bands:  1 eigenvalues not converged
     ethr =  4.49E-09,  avg # of iterations =  5.7

     negative rho (up, down):  1.641E-03 0.000E+00

     total cpu time spent up to now is    12245.4 secs

     total energy              =  -12772.10835603 Ry
     Harris-Foulkes estimate   =  -12772.10836354 Ry
     estimated scf accuracy    <       0.00002414 Ry

     iteration # 37     ecut=    80.00 Ry     beta=0.70
     Davidson diagonalization with overlap
     ethr =  1.84E-09,  avg # of iterations =  3.3

     negative rho (up, down):  1.547E-03 0.000E+00

     total cpu time spent up to now is    12462.2 secs

     total energy              =  -12772.10835876 Ry
     Harris-Foulkes estimate   =  -12772.10835816 Ry
     estimated scf accuracy    <       0.00001108 Ry

     iteration # 38     ecut=    80.00 Ry     beta=0.70
     Davidson diagonalization with overlap
     ethr =  8.46E-10,  avg # of iterations =  2.3

     negative rho (up, down):  1.497E-03 0.000E+00

     total cpu time spent up to now is    12663.2 secs

     total energy              =  -12772.10836120 Ry
     Harris-Foulkes estimate   =  -12772.10835952 Ry
     estimated scf accuracy    <       0.00000459 Ry

     iteration # 39     ecut=    80.00 Ry     beta=0.70
     Davidson diagonalization with overlap
     ethr =  3.50E-10,  avg # of iterations =  4.3

     negative rho (up, down):  1.519E-03 0.000E+00

     total cpu time spent up to now is    12895.2 secs

     total energy              =  -12772.10836280 Ry
     Harris-Foulkes estimate   =  -12772.10836156 Ry
     estimated scf accuracy    <       0.00000187 Ry

     iteration # 40     ecut=    80.00 Ry     beta=0.70
     Davidson diagonalization with overlap
     ethr =  1.43E-10,  avg # of iterations =  3.2

     negative rho (up, down):  1.580E-03 0.000E+00

     total cpu time spent up to now is    13111.0 secs

     total energy              =  -12772.10836328 Ry
     Harris-Foulkes estimate   =  -12772.10836297 Ry
     estimated scf accuracy    <       0.00000087 Ry

     iteration # 41     ecut=    80.00 Ry     beta=0.70
     Davidson diagonalization with overlap
     ethr =  6.66E-11,  avg # of iterations =  2.7

     negative rho (up, down):  1.629E-03 0.000E+00

     total cpu time spent up to now is    13318.7 secs

     total energy              =  -12772.10836334 Ry
     Harris-Foulkes estimate   =  -12772.10836335 Ry
     estimated scf accuracy    <       0.00000032 Ry

     iteration # 42     ecut=    80.00 Ry     beta=0.70
     Davidson diagonalization with overlap
     ethr =  2.43E-11,  avg # of iterations =  3.0

     negative rho (up, down):  1.654E-03 0.000E+00

     total cpu time spent up to now is    13536.4 secs

     total energy              =  -12772.10836334 Ry
     Harris-Foulkes estimate   =  -12772.10836337 Ry
     estimated scf accuracy    <       0.00000014 Ry

     iteration # 43     ecut=    80.00 Ry     beta=0.70
     Davidson diagonalization with overlap
     ethr =  1.10E-11,  avg # of iterations =  3.0

     negative rho (up, down):  1.660E-03 0.000E+00

     total cpu time spent up to now is    13748.1 secs

     total energy              =  -12772.10836335 Ry
     Harris-Foulkes estimate   =  -12772.10836335 Ry
     estimated scf accuracy    <       0.00000004 Ry

     iteration # 44     ecut=    80.00 Ry     beta=0.70
     Davidson diagonalization with overlap
     ethr =  2.79E-12,  avg # of iterations =  3.0

     negative rho (up, down):  1.661E-03 0.000E+00

     total cpu time spent up to now is    13967.1 secs

     total energy              =  -12772.10836336 Ry
     Harris-Foulkes estimate   =  -12772.10836335 Ry
     estimated scf accuracy    <       0.00000001 Ry

     iteration # 45     ecut=    80.00 Ry     beta=0.70
     Davidson diagonalization with overlap
     ethr =  8.86E-13,  avg # of iterations =  3.7

     negative rho (up, down):  1.663E-03 0.000E+00

     total cpu time spent up to now is    14204.5 secs

     End of self-consistent calculation

          k = 0.0000 0.0000 0.0000 (256287 PWs)   bands (ev):

   -20.0471 -17.9735 -15.9414 -15.5879 -15.5430 -14.4721 -14.4539 -13.9871
   -13.9775 -13.6364 -13.6325 -13.6198 -13.5842 -12.6869 -12.6622 -12.5797
   -12.5551 -12.5428 -12.5314 -10.9507 -10.8661 -10.8464 -10.8415 -10.6730
    -9.6561  -9.2293  -8.9772  -8.9644  -8.9609  -8.4070  -8.1000  -8.0955
    -8.0574  -7.8374  -7.1187  -7.1076  -7.0505  -7.0384  -7.0219  -7.0190
    -6.9599  -6.9130  -5.6489  -5.6081  -5.4876  -5.4826  -5.4431  -5.3494
    -5.3167  -5.2829  -5.2553  -5.0805  -5.0749  -4.7709  -4.5868  -4.2454
    -4.2286  -4.1887  -4.1529  -4.0945  -3.9655  -3.8452  -3.7861  -3.7140
    -3.5853  -3.5811  -3.4620  -3.3873  -3.0331  -3.0296  -3.0097  -2.9996
    -2.9981  -2.9633  -2.8698  -2.8477  -2.7899  -2.7742  -2.7521  -2.7451
    -2.6023  -2.6015  -2.5981  -2.5961  -2.5198  -2.4781  -2.4168  -2.3903
    -2.3357  -2.3308  -2.2684  -2.2459  -2.2064  -2.1929  -2.1772  -2.1080
    -2.0577  -1.9640  -1.9553  -1.9420  -1.9371  -1.8776  -1.8072  -1.7842
    -1.7833  -1.7446  -1.7443  -1.7442  -1.7441  -1.6460  -1.6381  -1.6251
    -1.6124  -1.6121  -1.6120  -1.6114  -1.5497  -1.5106  -1.4315  -1.3974
    -1.3674  -1.3498  -1.3288  -1.3269  -1.3264  -1.3099  -1.2823  -1.2617
    -1.2493  -1.2473  -1.2461  -1.1925  -1.1821  -1.1560  -1.1533  -1.1514
    -1.1499  -1.1222  -1.1220  -1.1147  -1.1058  -1.1039  -1.0870  -1.0300
    -1.0259  -1.0060  -0.9670  -0.9527  -0.9491  -0.9473  -0.9422  -0.8880
    -0.8676  -0.8537  -0.8522  -0.8455  -0.8380  -0.8010  -0.8004  -0.7811
    -0.7787  -0.7566  -0.7535  -0.7044  -0.6904  -0.6824  -0.6791  -0.6542
    -0.6390  -0.6315  -0.6265  -0.6183  -0.6156  -0.6129  -0.6118  -0.6115
    -0.6105  -0.6055  -0.6048  -0.5924  -0.5870  -0.5460  -0.5408  -0.5317
    -0.5140  -0.5127  -0.5073  -0.5055  -0.5054  -0.4802  -0.4480  -0.4469
    -0.4455  -0.4452  -0.4448  -0.4443  -0.4429  -0.4422  -0.4414  -0.4377
    -0.4375  -0.4374  -0.4350  -0.4316  -0.4313  -0.4207  -0.4190  -0.4144
    -0.3742  -0.3620  -0.3441  -0.2897  -0.2788  -0.2786  -0.2722  -0.2718
    -0.2491  -0.2452  -0.2305  -0.2302  -0.2099  -0.2082  -0.1999  -0.1965
    -0.1917  -0.1907  -0.1902  -0.1763  -0.1544  -0.1532  -0.1510  -0.1505
    -0.1428  -0.1420  -0.1317  -0.1299  -0.1212  -0.0809  -0.0808  -0.0270
    -0.0267  -0.0174  -0.0159  -0.0148  -0.0144  -0.0068   0.0004   0.0024
     0.0064   0.0066   0.0069   0.0097   0.0109   0.0112   0.0261   0.0261
     0.0371   0.0384   0.0411   0.0602   0.0609   0.1106   0.1125   0.1164
     0.1197   0.1199   0.1349   0.1468   0.1469   0.1471   0.1472   0.1644
     0.1651   0.1681   0.1683   0.1727   0.1898   0.1918   0.1922   0.1952
     0.1974   0.1974   0.1976   0.1989   0.2041   0.2154   0.2204   0.2211
     0.2224   0.2230   0.2336   0.2454   0.2913   0.2931   0.2933   0.2940
     0.2961   0.3421   0.3424   0.3449   0.3458   0.3489   0.3496   0.3497
     0.3500   0.3502   0.3614   0.3732   0.4025   0.4033   0.4041   0.4046
     0.4127   0.4310   0.4327   0.4329   0.4349   0.4384   0.4417   0.4569
     0.4575   0.4583   0.4592   0.4608   0.4624   0.4733   0.4744   0.4751
     0.4754   0.4825   0.4846   0.4890   0.4945   0.5057   0.5099   0.5152
     0.5205   0.5467   0.5471   0.5752   0.5774   0.5837   0.5992   0.5998
     0.6062   0.6504   0.6510   0.6511   0.6517   0.6522   0.6551   0.6808
     0.6846   0.6853   0.6863   0.6864   0.6916   0.6975   0.6982   0.7382
     0.7423   0.7512   0.7513   0.7598   0.7623   0.7646   0.7711   0.7896
     0.7942   0.7953   0.7956   0.7967   0.8248   0.8349   0.8359   0.8395
     0.8444   0.8460   0.8495   0.8515   0.8523   0.8861   0.8895   0.9044
     0.9082   0.9087   0.9087   0.9090   0.9215   0.9277   0.9415   0.9433
     0.9450   0.9474   0.9475   0.9485   0.9501   0.9515   0.9559   0.9586
     0.9597   0.9658   0.9669   0.9673   0.9741   0.9752   0.9869   1.0078
     1.0156   1.0158   1.0284   1.0286   1.0602   1.0608   1.0623   1.0626
     1.0645   1.0651   1.0653   1.0670   1.0803   1.0815   1.0839   1.0910
     1.0914   1.0931   1.0948   1.0992   1.0993   1.1077   1.1088   1.1299
     1.1315   1.1324   1.1329   1.1406   1.1444   1.1538   1.1552   1.1573
     1.1573   1.1583   1.1654   1.1676   1.1678   1.1731   1.1801   1.2177
     1.2178   1.2206   1.2291   1.2308   1.2316   1.2337   1.2364   1.2375
     1.2446   1.2502   1.2687   1.2690   1.2835   1.2842   1.2882   1.2883
     1.3029   1.3034   1.3107   1.3109   1.3122   1.3143   1.3211   1.3340
     1.3503   1.3506   1.3516   1.3534   1.3548   1.3558   1.3721   1.3809
     1.3899   1.3976   1.3985   1.4029   1.4088   1.4203   1.4214   1.4251
     1.4252   1.4264   1.4310   1.4355   1.4383   1.4404   1.4410   1.4413
     1.4433   1.4434   1.4509   1.4536   1.4592   1.4746   1.4766   1.4779
     1.4796   1.4832   1.4853   1.5168   1.5174   1.5191   1.5210   1.5230
     1.5233   1.5268   1.5277   1.5278   1.5287   1.5288   1.5294   1.5362
     1.5372   1.5458   1.5465   1.5687   1.5702   1.5923   1.5950   1.6132
     1.6138   1.6143   1.6158   1.6162   1.6180   1.6219   1.6360   1.6446
     1.6505   1.6525   1.6526   1.6527   1.6556   1.6581   1.6585   1.6590
     1.6617   1.6673   1.6860   1.6873   1.6879   1.6887   1.6894   1.6900
     1.6908   1.6914   1.7066   1.7070   1.7092   1.7151   1.7171   1.7226
     1.7232   1.7236   1.7238   1.7317   1.7345   1.7368   1.7382   1.7543
     1.7668   1.7676   1.7688   1.7711   1.7715   1.7755   1.7767   1.7908
     1.7963   1.7992   1.8007   1.8054   1.8131   1.8282   1.8284   1.8289
     1.8349   1.8351   1.8441   1.8466   1.8467   1.8476   1.8482   1.8493
     1.8497   1.8515   1.8519   1.8581   1.8598   1.8621   1.8785   1.8792
     1.8801   1.8802   1.8856   1.8902   1.8922   1.8971   1.9256   1.9274
     1.9313   1.9319   1.9691   1.9701   1.9712   1.9743   1.9910   1.9912
     1.9924   2.0026   2.0033   2.0185   2.0414   2.0438   2.0441   2.0442
     2.0452   2.0551   2.0553   2.0557   2.3145   2.3664   2.4833   2.5172
     2.5253   2.5534   2.5631   2.6169   2.6172   2.6180   2.6247   2.6345
     2.6372   2.6379   2.6902   2.8095   2.8174   2.8697   2.8763   2.8782
     2.8792   2.8917   2.9007   3.1232   3.1310   3.1312   3.1336   3.5092
     3.5246   3.5320   3.5394   3.9218   3.9277   4.1820   4.2201   4.2315
     4.2564   4.2608   4.2626   4.2804   4.3388   4.3654   4.3764   4.3809
     4.4100   4.4157   4.4186   4.4203   4.4214   4.4288   4.6423   4.6539
     4.6542   4.6717   4.7918   5.0538   5.1699   5.3277   5.3759   5.4040
     5.7102   5.7537   5.7938   5.8096   6.0389   6.0932   6.1047   6.1074
     6.1603   6.2587   6.3395   6.3545   6.7280   6.7398   6.8066   6.8176
     6.8620   6.8650   6.8666   6.8783   6.9877   7.0018   7.0577   7.0877
     7.1062   7.1858   7.1941   7.2102   7.2435   7.3668   7.4326   7.4549
     7.4835   7.5031   7.5179   7.5542   7.7078   7.7645   7.7651   7.9171
     7.9200   7.9720   8.0177   8.0747   8.0942   8.1005   8.1029   8.1680
     8.5428   8.5479   8.5621   8.5835   8.6012   8.6269   8.6727   8.6906
     8.7420   8.7436   8.7787   8.7906   8.8084   8.8128   8.9376   8.9513
     8.9721   8.9885   9.0119   9.0582   9.0643   9.0774   9.0883   9.2376
     9.2411   9.2539   9.2561   9.2596   9.3602   9.4617   9.4746   9.4834
     9.4992   9.5004   9.5154   9.5367   9.5854   9.6824   9.7504   9.7514
     9.8335   9.9841   9.9884   9.9998  10.0832  10.1217  10.1724  10.2386
    10.2729  10.3832

          k = 0.0000-0.2165 0.0000 (256176 PWs)   bands (ev):

   -20.0471 -17.9735 -15.8708 -15.8218 -15.1128 -15.0948 -13.9104 -13.9074
   -13.8860 -13.8587 -13.6578 -13.6378 -13.1883 -13.1771 -13.1719 -13.1462
   -11.8383 -11.7807 -11.7575 -11.7520 -11.5721 -11.5429 -10.0132  -9.8774
    -9.8549  -9.8483  -8.8732  -8.5999  -8.5724  -8.4588  -8.4505  -8.4397
    -8.0578  -7.6329  -7.6277  -7.6038  -7.5101  -6.4818  -6.4604  -6.4136
    -6.4059  -6.3514  -6.3103  -6.2911  -6.2381  -5.5719  -5.4785  -5.4771
    -5.4630  -4.9847  -4.6716  -4.6644  -4.6317  -4.5708  -4.5262  -4.4362
    -4.4318  -4.3499  -4.1938  -4.1076  -4.0764  -4.0669  -4.0491  -3.9739
    -3.8622  -3.6088  -3.4558  -3.3336  -3.1275  -3.0286  -2.8972  -2.8963
    -2.8940  -2.8883  -2.7864  -2.7464  -2.6631  -2.6516  -2.6239  -2.6226
    -2.5503  -2.5379  -2.5171  -2.4867  -2.3644  -2.3489  -2.3189  -2.3144
    -2.2778  -2.2316  -2.1903  -2.1821  -2.1728  -2.1724  -2.1720  -2.1711
    -2.1470  -2.1318  -2.0720  -2.0429  -2.0254  -1.8949  -1.8828  -1.8449
    -1.8395  -1.8351  -1.8314  -1.7721  -1.7442  -1.7335  -1.7331  -1.7174
    -1.6731  -1.5776  -1.5774  -1.5524  -1.5520  -1.5452  -1.4841  -1.4573
    -1.4519  -1.3590  -1.3576  -1.3435  -1.3413  -1.3410  -1.3350  -1.3323
    -1.3313  -1.3220  -1.3129  -1.3125  -1.2399  -1.2357  -1.2353  -1.1367
    -1.1159  -1.1085  -1.0598  -1.0571  -1.0544  -1.0540  -0.9702  -0.9626
    -0.9608  -0.9604  -0.9062  -0.9058  -0.8710  -0.8686  -0.8656  -0.8646
    -0.8644  -0.8616  -0.8612  -0.8529  -0.8371  -0.8186  -0.8178  -0.8151
    -0.8136  -0.8078  -0.8059  -0.8029  -0.7817  -0.7315  -0.7305  -0.7249
    -0.7220  -0.7053  -0.6782  -0.6781  -0.6399  -0.6398  -0.6366  -0.6365
    -0.5941  -0.5908  -0.5746  -0.5736  -0.5728  -0.5723  -0.5672  -0.5664
    -0.5387  -0.5167  -0.5155  -0.5087  -0.5083  -0.5006  -0.5003  -0.4875
    -0.4871  -0.4870  -0.4748  -0.4181  -0.4177  -0.4075  -0.4074  -0.4044
    -0.4031  -0.4010  -0.3863  -0.3851  -0.3806  -0.3704  -0.3682  -0.3436
    -0.3434  -0.3404  -0.3354  -0.3017  -0.2438  -0.2434  -0.2432  -0.2430
    -0.2225  -0.2223  -0.1961  -0.1948  -0.1945  -0.1939  -0.1908  -0.1907
    -0.1646  -0.1633  -0.1312  -0.1302  -0.1300  -0.1290  -0.1263  -0.1248
    -0.1239  -0.1226  -0.0927  -0.0926  -0.0736  -0.0736  -0.0706  -0.0663
    -0.0373  -0.0365  -0.0363  -0.0354  -0.0257  -0.0246  -0.0238  -0.0236
    -0.0105  -0.0035   0.0532   0.0534   0.0536   0.0538   0.0834   0.0841
     0.0859   0.1077   0.1080   0.1139   0.1162   0.1168   0.1182   0.1267
     0.1403   0.1416   0.1420   0.1436   0.1583   0.1601   0.1630   0.1640
     0.1646   0.1654   0.1676   0.1679   0.1776   0.1794   0.1799   0.2046
     0.2046   0.2053   0.2066   0.2081   0.2142   0.2699   0.2702   0.2706
     0.2712   0.2791   0.2801   0.2819   0.2829   0.3005   0.3037   0.3085
     0.3164   0.3228   0.3237   0.3250   0.3259   0.3337   0.3340   0.3360
     0.3370   0.3372   0.3379   0.3388   0.3920   0.3925   0.3965   0.3990
     0.3996   0.4081   0.4151   0.4173   0.4193   0.4227   0.4231   0.4258
     0.4397   0.4409   0.4421   0.4435   0.4479   0.4698   0.4710   0.4848
     0.4860   0.4868   0.4868   0.4907   0.4998   0.5053   0.5115   0.5225
     0.5225   0.5341   0.5341   0.5442   0.5467   0.5473   0.5481   0.5908
     0.5916   0.5952   0.5957   0.6064   0.6073   0.6085   0.6134   0.6143
     0.6405   0.6407   0.6733   0.6764   0.6776   0.6823   0.7118   0.7122
     0.7734   0.7859   0.7967   0.7977   0.7982   0.7988   0.8157   0.8252
     0.8258   0.8262   0.8286   0.8466   0.8658   0.8662   0.8663   0.8667
     0.8679   0.8686   0.8709   0.8760   0.8798   0.8837   0.8887   0.8902
     0.8913   0.8929   0.8945   0.8953   0.8968   0.8979   0.9281   0.9282
     0.9379   0.9380   0.9383   0.9389   0.9453   0.9454   0.9490   0.9686
     0.9691   0.9696   0.9697   0.9700   0.9703   0.9714   0.9753   0.9872
     0.9932   0.9941   0.9943   0.9949   0.9952   0.9955   0.9960   0.9968
     1.0120   1.0128   1.0567   1.0570   1.0685   1.0689   1.0783   1.0808
     1.0818   1.0829   1.0863   1.0871   1.0880   1.0913   1.0926   1.0927
     1.0928   1.0933   1.1335   1.1359   1.1361   1.1371   1.1441   1.1533
     1.1537   1.1569   1.1572   1.1584   1.1673   1.1679   1.1857   1.1868
     1.1874   1.1915   1.1947   1.1956   1.2453   1.2465   1.2957   1.2966
     1.3047   1.3058   1.3067   1.3110   1.3135   1.3162   1.3228   1.3230
     1.3291   1.3296   1.3332   1.3383   1.3389   1.3394   1.3457   1.3512
     1.3521   1.3524   1.3526   1.3539   1.3603   1.3672   1.3754   1.3754
     1.3783   1.3798   1.3813   1.3823   1.3825   1.3878   1.3895   1.3899
     1.3981   1.3982   1.4027   1.4029   1.4032   1.4036   1.4226   1.4235
     1.4282   1.4362   1.4410   1.4410   1.4428   1.4429   1.4503   1.4506
     1.4515   1.4518   1.4519   1.4522   1.4954   1.5018   1.5276   1.5348
     1.5393   1.5394   1.5527   1.5534   1.5652   1.5705   1.5721   1.5736
     1.5810   1.5823   1.5973   1.5994   1.6003   1.6049   1.6051   1.6078
     1.6092   1.6097   1.6101   1.6117   1.6135   1.6150   1.6153   1.6156
     1.6224   1.6225   1.6344   1.6377   1.6402   1.6407   1.6417   1.6427
     1.6518   1.6532   1.6718   1.6807   1.6819   1.6824   1.6888   1.6888
     1.6890   1.6906   1.7030   1.7065   1.7110   1.7113   1.7188   1.7227
     1.7238   1.7258   1.7266   1.7288   1.7435   1.7449   1.7450   1.7464
     1.7596   1.7644   1.7647   1.7675   1.7809   1.7819   1.7910   1.7913
     1.7921   1.7926   1.8048   1.8059   1.8075   1.8076   1.8240   1.8247
     1.8337   1.8382   1.8384   1.8399   1.8436   1.8580   1.8589   1.8610
     1.8611   1.8623   1.8626   1.8632   1.8646   1.8909   1.8910   1.8983
     1.8986   1.9089   1.9094   1.9183   1.9295   1.9313   1.9318   1.9322
     1.9410   1.9411   1.9533   1.9534   1.9607   1.9973   1.9979   1.9982
     2.0076   2.0986   2.0993   2.1197   2.1213   2.1499   2.1534   2.1543
     2.1781   2.1970   2.2024   2.2060   2.2090   2.2228   2.2264   2.2277
     2.2461   2.2638   2.2639   2.5850   2.5919   2.5957   2.8237   2.8256
     2.8276   2.8289   2.9049   2.9078   2.9686   2.9696   2.9762   2.9769
     2.9880   2.9880   3.1172   3.1179   3.1611   3.1657   3.1873   3.1880
     3.3312   3.3330   3.4078   3.5708   3.5708   3.6000   3.6225   3.7799
     3.7847   4.0791   4.0820   4.3696   4.3881   4.4541   4.4795   4.5102
     4.5619   4.5736   4.7255   4.7266   4.7309   4.7370   4.8936   4.8997
     5.0316   5.0756   5.1253   5.1517   5.1617   5.4771   5.5063   5.5096
     5.5972   5.7576   5.7636   5.7638   5.7663   5.8041   5.8511   5.9937
     6.0821   6.1353   6.2288   6.2672   6.6222   6.7395   6.7704   6.7997
     6.8173   6.8200   6.8334   6.8829   6.9539   6.9635   7.0724   7.0742
     7.1762   7.1920   7.2092   7.4176   7.4466   7.4634   7.4719   7.4893
     7.5018   7.5155   7.5288   7.5303   7.5393   7.6077   7.7321   7.7467
     7.7724   7.7961   7.8469   7.9014   8.1339   8.1528   8.1837   8.2192
     8.2391   8.2791   8.4952   8.5482   8.5503   8.5701   8.7594   8.7633
     8.7904   8.7997   8.8033   8.8088   8.8910   8.9473   9.0036   9.1074
     9.1089   9.1197   9.1238   9.1427   9.1647   9.1665   9.2118   9.2247
     9.2785   9.3031   9.3533   9.4111   9.4365   9.5240   9.5479   9.5698
     9.6177   9.6270   9.7862   9.7887   9.7920   9.7929   9.8532   9.8675
     9.8732   9.8778   9.8986   9.9833  10.0488  10.0605  10.0690  10.1938
    10.1949  10.2455

          k = 0.2500 0.0000 0.0000 (256240 PWs)   bands (ev):

   -20.0471 -17.9735 -15.8175 -15.4644 -15.4202 -14.8320 -14.4821 -14.4439
   -14.3507 -14.3317 -13.3905 -13.3706 -12.9092 -12.5822 -12.5612 -12.5440
   -12.5316 -11.6679 -11.6256 -11.5352 -11.5181 -10.5841 -10.3026 -10.2403
   -10.2279  -9.7513  -9.5461  -9.2955  -9.2207  -8.8803  -8.6800  -8.5839
    -8.2262  -7.8822  -7.0530  -7.0374  -7.0287  -6.9829  -6.9254  -6.8851
    -6.4290  -6.1637  -5.6646  -5.4856  -5.4320  -5.4173  -5.4055  -5.3565
    -4.9109  -4.9073  -4.8679  -4.6548  -4.5947  -4.4565  -4.1951  -4.1289
    -4.0602  -4.0498  -4.0319  -3.9277  -3.8884  -3.8480  -3.8117  -3.7280
    -3.5959  -3.5913  -3.5808  -3.5034  -3.4374  -3.4330  -3.3728  -3.2962
    -3.1998  -3.1124  -3.0755  -3.0403  -3.0259  -3.0132  -2.9665  -2.8923
    -2.8516  -2.8370  -2.7641  -2.7268  -2.6545  -2.6289  -2.6082  -2.5953
    -2.4650  -2.3956  -2.3919  -2.3817  -2.3020  -2.2533  -2.2170  -2.2087
    -1.9932  -1.9795  -1.9581  -1.9282  -1.9190  -1.8094  -1.6916  -1.6911
    -1.6757  -1.6729  -1.6130  -1.5923  -1.5452  -1.5168  -1.4911  -1.4872
    -1.4446  -1.4264  -1.4039  -1.3923  -1.3922  -1.3849  -1.3848  -1.3642
    -1.3363  -1.3156  -1.3084  -1.3037  -1.2769  -1.2399  -1.2354  -1.2008
    -1.1917  -1.1737  -1.1721  -1.1707  -1.1698  -1.1697  -1.1660  -1.1390
    -1.1184  -1.1048  -1.0945  -1.0927  -1.0875  -1.0815  -1.0714  -0.9624
    -0.9254  -0.9219  -0.9024  -0.8686  -0.8575  -0.8484  -0.8336  -0.8329
    -0.8270  -0.8195  -0.8085  -0.7992  -0.7970  -0.7839  -0.7743  -0.7733
    -0.7674  -0.7564  -0.7252  -0.7234  -0.7228  -0.7212  -0.7199  -0.7026
    -0.7010  -0.7000  -0.6766  -0.6670  -0.6399  -0.6390  -0.6378  -0.6368
    -0.6261  -0.6117  -0.6049  -0.6031  -0.5998  -0.5910  -0.5854  -0.5819
    -0.5721  -0.5718  -0.5711  -0.5706  -0.5655  -0.5654  -0.5566  -0.5541
    -0.5509  -0.5348  -0.5309  -0.5156  -0.5004  -0.4912  -0.4909  -0.4841
    -0.4506  -0.4422  -0.4409  -0.4147  -0.4060  -0.4058  -0.3865  -0.3848
    -0.3758  -0.3601  -0.3596  -0.3467  -0.3432  -0.3412  -0.3392  -0.3319
    -0.3311  -0.3117  -0.2882  -0.2237  -0.1919  -0.1876  -0.1839  -0.1717
    -0.1573  -0.1551  -0.1542  -0.1394  -0.1388  -0.1383  -0.1368  -0.1165
    -0.1164  -0.1159  -0.1084  -0.0997  -0.0935  -0.0767  -0.0745  -0.0729
    -0.0717  -0.0709  -0.0513  -0.0499  -0.0497  -0.0460   0.0109   0.0116
     0.0118   0.0130   0.0196   0.0216   0.0260   0.0305   0.0375   0.0449
     0.0543   0.0545   0.0778   0.0783   0.0797   0.0843   0.1155   0.1157
     0.1188   0.1193   0.1297   0.1300   0.1398   0.1463   0.1484   0.1581
     0.1598   0.1768   0.1815   0.1847   0.2094   0.2118   0.2137   0.2153
     0.2168   0.2290   0.2301   0.2304   0.2322   0.2398   0.2594   0.2594
     0.2661   0.2712   0.2736   0.2925   0.2978   0.3005   0.3008   0.3325
     0.3443   0.3472   0.3483   0.3556   0.3587   0.3605   0.3682   0.3925
     0.3930   0.3995   0.3996   0.4050   0.4117   0.4130   0.4156   0.4160
     0.4170   0.4186   0.4201   0.4210   0.4242   0.4433   0.4440   0.4449
     0.4457   0.4528   0.4531   0.4702   0.4706   0.4856   0.4875   0.5042
     0.5261   0.5267   0.5279   0.5283   0.5286   0.5358   0.5452   0.5497
     0.5519   0.5529   0.5531   0.5560   0.5823   0.5884   0.5987   0.6456
     0.6631   0.6657   0.6659   0.6682   0.6822   0.6833   0.6858   0.6867
     0.6910   0.6941   0.6948   0.6960   0.6993   0.6997   0.7063   0.7130
     0.7176   0.7182   0.7189   0.7238   0.7329   0.7341   0.7377   0.7409
     0.7452   0.7459   0.7490   0.7669   0.7703   0.7745   0.7991   0.8170
     0.8176   0.8299   0.8338   0.8379   0.8387   0.8543   0.8545   0.8554
     0.8583   0.8686   0.8746   0.8879   0.8895   0.8901   0.8971   0.8975
     0.9028   0.9034   0.9079   0.9082   0.9300   0.9336   0.9371   0.9516
     0.9567   0.9581   0.9631   0.9633   0.9653   0.9669   0.9672   0.9682
     0.9850   0.9915   0.9920   1.0036   1.0045   1.0050   1.0060   1.0086
     1.0213   1.0216   1.0245   1.0295   1.0299   1.0484   1.0497   1.0568
     1.0687   1.0737   1.0741   1.0747   1.0811   1.0814   1.0843   1.1064
     1.1138   1.1177   1.1353   1.1409   1.1523   1.1526   1.1568   1.1573
     1.1620   1.1775   1.1826   1.1857   1.1874   1.1903   1.1966   1.2039
     1.2093   1.2153   1.2169   1.2269   1.2362   1.2364   1.2412   1.2519
     1.2560   1.2651   1.2676   1.2682   1.2700   1.2908   1.2930   1.3028
     1.3038   1.3046   1.3052   1.3078   1.3147   1.3156   1.3178   1.3232
     1.3574   1.3619   1.3629   1.3634   1.3669   1.3674   1.3800   1.3810
     1.3852   1.3989   1.3999   1.4016   1.4048   1.4115   1.4132   1.4154
     1.4271   1.4282   1.4303   1.4306   1.4325   1.4343   1.4350   1.4396
     1.4422   1.4430   1.4439   1.4467   1.4535   1.4584   1.4669   1.4699
     1.4740   1.4769   1.4786   1.4841   1.4872   1.4881   1.4897   1.5017
     1.5025   1.5178   1.5186   1.5194   1.5217   1.5227   1.5305   1.5367
     1.5447   1.5467   1.5499   1.5594   1.5638   1.5682   1.5689   1.5705
     1.5788   1.5874   1.5918   1.5941   1.6003   1.6043   1.6056   1.6366
     1.6401   1.6472   1.6543   1.6562   1.6571   1.6642   1.6656   1.6664
     1.6668   1.6741   1.6759   1.6840   1.6874   1.6909   1.6911   1.7034
     1.7093   1.7108   1.7126   1.7135   1.7174   1.7181   1.7239   1.7255
     1.7271   1.7283   1.7294   1.7365   1.7386   1.7389   1.7417   1.7477
     1.7578   1.7617   1.7632   1.7663   1.7680   1.7695   1.7725   1.7796
     1.7907   1.7910   1.7935   1.8067   1.8166   1.8178   1.8255   1.8279
     1.8322   1.8349   1.8356   1.8370   1.8391   1.8399   1.8455   1.8456
     1.8473   1.8481   1.8517   1.8549   1.8728   1.8744   1.8753   1.8767
     1.8787   1.8819   1.8826   1.8942   1.8946   1.9029   1.9047   1.9075
     1.9169   1.9177   1.9245   1.9267   1.9309   1.9392   1.9580   1.9584
     1.9648   1.9938   1.9962   2.0333   2.0355   2.0375   2.0431   2.0607
     2.0939   2.1542   2.1676   2.1721   2.1737   2.1939   2.1962   2.2195
     2.2473   2.4047   2.4413   2.4676   2.4736   2.4939   2.4958   2.5338
     2.5996   2.6480   2.6616   2.9680   2.9715   2.9743   2.9758   3.3771
     3.3848   3.3946   3.4176   3.6023   3.6032   3.6266   3.6267   3.6672
     3.6861   3.8417   3.8738   3.9780   3.9846   4.0341   4.0404   4.1029
     4.1115   4.1236   4.1255   4.1736   4.2720   4.2800   4.3643   4.3741
     4.5107   4.5637   4.5759   4.6300   4.6891   4.7788   4.8442   5.0140
     5.1416   5.2071   5.2386   5.3474   5.5493   5.6159   5.6244   5.6317
     5.6924   5.7634   5.8420   5.8684   5.9039   5.9159   5.9667   5.9814
     6.0139   6.0485   6.0786   6.1056   6.1522   6.1935   6.2099   6.2200
     6.3868   6.4150   6.4169   6.4405   6.4980   6.6702   7.0690   7.0907
     7.0998   7.1155   7.1550   7.1824   7.2093   7.2459   7.2596   7.3707
     7.4191   7.4341   7.4366   7.4444   7.4798   7.6228   7.6434   7.6817
     7.7158   7.8142   7.8724   7.8829   7.8974   7.9570   7.9803   8.1197
     8.1290   8.1470   8.1791   8.2062   8.3474   8.4025   8.4167   8.4626
     8.4829   8.5970   8.6251   8.6633   8.6802   8.7181   8.7270   8.7332
     8.7497   8.7696   8.7994   8.8451   8.9676   9.0430   9.0517   9.1552
     9.2873   9.3111   9.3728   9.4075   9.4574   9.5071   9.5499   9.5716
     9.5887   9.5926   9.6005   9.6063   9.6135   9.6236   9.6643   9.6844
     9.7526   9.7949   9.8130   9.8768   9.8859  10.1059  10.1189  10.1232
    10.1344  10.2082

          k = 0.2500-0.2165 0.0000 (256316 PWs)   bands (ev):

   -20.0471 -17.9735 -15.7467 -15.6985 -14.9906 -14.9725 -14.7599 -14.7170
   -14.0169 -14.0008 -13.5390 -13.5185 -12.8332 -12.8080 -12.5972 -12.5725
   -12.1341 -12.1103 -11.4680 -11.4336 -10.8676 -10.8204 -10.5950 -10.5563
   -10.2115 -10.1890  -9.2099  -9.1130  -8.7804  -8.6100  -8.5450  -8.4920
    -8.2057  -7.9468  -7.9181  -7.8671  -7.6836  -6.2460  -6.1616  -6.1212
    -6.1010  -6.0155  -5.9564  -5.8031  -5.7430  -5.5178  -5.4255  -5.3003
    -5.2976  -4.9079  -4.6662  -4.5102  -4.4094  -4.3504  -4.3079  -4.2733
    -4.2679  -4.2292  -4.1240  -3.9417  -3.9405  -3.9175  -3.8001  -3.7223
    -3.6867  -3.6453  -3.6064  -3.4473  -3.4226  -3.3182  -3.3038  -3.1961
    -3.1618  -3.0888  -3.0643  -3.0518  -3.0450  -3.0154  -2.9567  -2.8811
    -2.7380  -2.7042  -2.6530  -2.6202  -2.5695  -2.5228  -2.5185  -2.5039
    -2.5016  -2.4976  -2.4260  -2.3805  -2.3423  -2.3128  -2.1305  -2.0756
    -2.0484  -2.0075  -1.9075  -1.9060  -1.8760  -1.8157  -1.7819  -1.7701
    -1.7613  -1.7612  -1.6919  -1.6009  -1.6007  -1.5630  -1.5596  -1.5241
    -1.4665  -1.4206  -1.4124  -1.4050  -1.4049  -1.3652  -1.3465  -1.3439
    -1.3200  -1.3145  -1.3004  -1.2999  -1.2974  -1.2874  -1.2697  -1.2688
    -1.2672  -1.2671  -1.2635  -1.2589  -1.2582  -1.2432  -1.1908  -1.1725
    -1.1721  -1.0592  -1.0590  -0.9554  -0.9530  -0.9327  -0.9202  -0.9197
    -0.9119  -0.8674  -0.8670  -0.8667  -0.8528  -0.8528  -0.8393  -0.8392
    -0.8294  -0.8275  -0.8172  -0.8162  -0.8084  -0.8023  -0.8019  -0.7920
    -0.7865  -0.7851  -0.7767  -0.7764  -0.7738  -0.7213  -0.7198  -0.7176
    -0.7147  -0.7107  -0.7034  -0.7032  -0.6754  -0.6740  -0.6679  -0.6587
    -0.6301  -0.6295  -0.6273  -0.6178  -0.6175  -0.6152  -0.5860  -0.5858
    -0.5634  -0.5608  -0.5557  -0.5512  -0.5493  -0.5459  -0.5449  -0.5395
    -0.5325  -0.5135  -0.5127  -0.4945  -0.4893  -0.4574  -0.4571  -0.4523
    -0.4520  -0.4134  -0.3689  -0.3679  -0.3669  -0.3629  -0.3624  -0.3602
    -0.3585  -0.3163  -0.3111  -0.3090  -0.3019  -0.3018  -0.2962  -0.2959
    -0.2848  -0.2838  -0.2757  -0.2535  -0.2410  -0.2384  -0.2115  -0.2038
    -0.2034  -0.1853  -0.1557  -0.1557  -0.1535  -0.1531  -0.1260  -0.1229
    -0.1217  -0.1112  -0.1091  -0.0914  -0.0896  -0.0814  -0.0773  -0.0739
    -0.0443  -0.0392  -0.0345  -0.0319  -0.0314  -0.0183   0.0028   0.0029
     0.0153   0.0167   0.0217   0.0283   0.0332   0.0418   0.0422   0.0466
     0.0471   0.0529   0.0550   0.0589   0.0591   0.0764   0.0769   0.0832
     0.0884   0.0934   0.0942   0.1152   0.1220   0.1359   0.1417   0.1442
     0.1536   0.1709   0.1711   0.1732   0.1864   0.1930   0.1946   0.1978
     0.1979   0.2166   0.2355   0.2567   0.2573   0.2738   0.2926   0.2932
     0.3024   0.3025   0.3068   0.3072   0.3237   0.3240   0.3326   0.3406
     0.3412   0.3482   0.3579   0.3626   0.3649   0.3684   0.3695   0.3696
     0.3724   0.3758   0.3975   0.3980   0.4063   0.4077   0.4082   0.4093
     0.4101   0.4109   0.4131   0.4164   0.4201   0.4240   0.4422   0.4424
     0.4425   0.4434   0.4770   0.4772   0.4850   0.4854   0.4916   0.4939
     0.5104   0.5127   0.5223   0.5384   0.5429   0.5431   0.5516   0.5518
     0.5604   0.5623   0.5650   0.5664   0.5678   0.5808   0.5810   0.5881
     0.5894   0.6142   0.6173   0.6201   0.6810   0.6815   0.6930   0.6933
     0.6946   0.6951   0.6977   0.6997   0.7011   0.7016   0.7037   0.7062
     0.7285   0.7287   0.7306   0.7308   0.7406   0.7444   0.7454   0.7459
     0.7462   0.7507   0.7771   0.7773   0.7922   0.7931   0.8037   0.8083
     0.8109   0.8157   0.8324   0.8562   0.8583   0.8614   0.8625   0.8690
     0.8694   0.8732   0.8806   0.8808   0.8897   0.8912   0.8920   0.8930
     0.8938   0.8943   0.9231   0.9232   0.9293   0.9306   0.9436   0.9439
     0.9720   0.9785   0.9796   0.9804   0.9820   1.0106   1.0117   1.0167
     1.0183   1.0202   1.0211   1.0254   1.0270   1.0347   1.0380   1.0382
     1.0392   1.0487   1.0522   1.0579   1.0601   1.0605   1.0728   1.0753
     1.0772   1.0789   1.0798   1.0807   1.0898   1.0903   1.0966   1.1004
     1.1006   1.1010   1.1157   1.1181   1.1210   1.1217   1.1275   1.1277
     1.1302   1.1312   1.1344   1.1360   1.1672   1.1690   1.1766   1.1771
     1.1973   1.2091   1.2179   1.2183   1.2347   1.2347   1.2366   1.2368
     1.2420   1.2424   1.2554   1.2629   1.2635   1.2654   1.2658   1.2669
     1.2683   1.2768   1.2878   1.2949   1.2959   1.2982   1.3072   1.3080
     1.3151   1.3179   1.3370   1.3370   1.3480   1.3630   1.3658   1.3716
     1.3741   1.3754   1.3771   1.3781   1.3828   1.3832   1.3920   1.4073
     1.4131   1.4132   1.4286   1.4292   1.4397   1.4466   1.4492   1.4509
     1.4692   1.4731   1.4859   1.4888   1.4919   1.4928   1.4972   1.4982
     1.4995   1.5001   1.5015   1.5017   1.5052   1.5052   1.5162   1.5174
     1.5239   1.5292   1.5294   1.5302   1.5455   1.5497   1.5682   1.5760
     1.5763   1.5812   1.5837   1.5865   1.5872   1.5884   1.5959   1.5971
     1.6016   1.6025   1.6031   1.6063   1.6099   1.6108   1.6158   1.6161
     1.6203   1.6223   1.6274   1.6286   1.6348   1.6352   1.6364   1.6369
     1.6485   1.6506   1.6564   1.6572   1.6665   1.6815   1.6830   1.6897
     1.6899   1.7043   1.7074   1.7079   1.7129   1.7217   1.7220   1.7296
     1.7316   1.7350   1.7411   1.7416   1.7469   1.7488   1.7522   1.7592
     1.7596   1.7603   1.7706   1.7724   1.7751   1.7863   1.7879   1.7930
     1.7933   1.7936   1.7991   1.8008   1.8015   1.8036   1.8043   1.8177
     1.8178   1.8222   1.8223   1.8322   1.8364   1.8401   1.8435   1.8473
     1.8478   1.8479   1.8534   1.8545   1.8563   1.8564   1.8584   1.8635
     1.8654   1.8654   1.8893   1.8894   1.8970   1.8983   1.9027   1.9129
     1.9150   1.9327   1.9383   1.9393   1.9424   1.9614   1.9622   1.9683
     1.9684   1.9930   1.9958   2.0496   2.0614   2.0678   2.0726   2.0770
     2.1533   2.1596   2.1702   2.1745   2.1835   2.1942   2.1962   2.1967
     2.2213   2.2393   2.2452   2.2506   2.5349   2.5366   2.5652   2.5673
     2.6918   2.6950   2.9918   2.9934   3.1631   3.1893   3.1941   3.1965
     3.2036   3.2059   3.2304   3.2356   3.3860   3.3905   3.4200   3.4783
     3.4814   3.9409   3.9442   4.0034   4.0071   4.0428   4.0470   4.2441
     4.2468   4.2509   4.2536   4.3942   4.3995   4.4690   4.4744   4.5680
     4.5695   4.7622   4.7792   4.7836   4.9036   4.9426   4.9556   5.0526
     5.0727   5.1233   5.1489   5.1836   5.2972   5.3092   5.3921   5.4027
     5.4690   5.5442   5.6548   5.6561   5.7574   5.8311   5.8420   5.8578
     5.8623   5.8846   6.0371   6.1579   6.1782   6.2562   6.2884   6.3004
     6.3622   6.3855   6.5791   6.8077   6.9799   6.9840   7.0076   7.0148
     7.1325   7.1373   7.2045   7.2425   7.2530   7.4103   7.4135   7.4673
     7.4790   7.4868   7.5101   7.5724   7.6168   7.6194   7.6790   7.7336
     7.7377   7.7549   7.7659   7.7741   7.7904   7.8286   7.8294   8.0581
     8.0654   8.1606   8.1914   8.2814   8.3205   8.3500   8.3667   8.3838
     8.4270   8.5925   8.5988   8.6385   8.6497   8.7206   8.8466   8.8679
     8.9868   8.9953   9.0269   9.0313   9.0562   9.0937   9.0966   9.1228
     9.1618   9.2413   9.2920   9.3015   9.3425   9.3721   9.3929   9.4173
     9.5068   9.5336   9.5676   9.5945   9.6093   9.6166   9.6281   9.6655
     9.6744   9.7081   9.7438   9.7494   9.7593   9.7772   9.8116   9.8310
     9.9907  10.0473

          k =-0.5000 0.0000 0.0000 (256496 PWs)   bands (ev):

   -20.0471 -17.9735 -15.4580 -15.4355 -15.1075 -15.0819 -15.0634 -15.0396
   -13.9945 -13.9861 -13.9809 -13.9550 -12.2419 -12.2150 -12.2024 -12.1770
   -11.6640 -11.6218 -11.3588 -11.3145 -11.3106 -11.2665 -10.7089 -10.6560
   -10.2848 -10.2358  -9.6884  -9.6214  -9.2540  -9.2461  -8.6463  -8.4238
    -8.4045  -8.3654  -7.9610  -6.9354  -6.8985  -6.8669  -6.8578  -6.8437
    -6.7727  -5.4470  -5.3894  -4.9877  -4.9041  -4.8960  -4.6663  -4.6366
    -4.4003  -4.3983  -4.3961  -4.3906  -4.3117  -4.2732  -4.2542  -4.2393
    -4.2253  -4.1929  -4.1775  -4.1116  -4.0316  -4.0271  -3.9567  -3.9053
    -3.8779  -3.8626  -3.7425  -3.6048  -3.5713  -3.5688  -3.5647  -3.5462
    -3.3449  -3.2910  -3.1391  -3.1321  -3.0743  -3.0154  -3.0135  -3.0129
    -3.0092  -2.8916  -2.8824  -2.8635  -2.8591  -2.8393  -2.7586  -2.6900
    -2.3718  -2.3461  -2.3414  -2.3212  -2.2943  -2.2738  -2.2568  -2.2131
    -2.1969  -2.1749  -2.0790  -2.0003  -1.9865  -1.9381  -1.9007  -1.8953
    -1.8919  -1.8892  -1.4738  -1.4715  -1.4710  -1.4708  -1.4683  -1.4679
    -1.4490  -1.3488  -1.3445  -1.3429  -1.2620  -1.2419  -1.2415  -1.2413
    -1.2364  -1.1940  -1.1934  -1.1921  -1.1913  -1.1604  -1.1216  -1.0944
    -1.0845  -1.0795  -1.0764  -1.0204  -1.0165  -1.0159  -1.0119  -1.0091
    -0.9968  -0.9955  -0.9749  -0.9497  -0.9479  -0.9476  -0.9445  -0.9442
    -0.9424  -0.9323  -0.9316  -0.9290  -0.9243  -0.9151  -0.9094  -0.8825
    -0.8818  -0.8809  -0.8770  -0.8583  -0.8582  -0.8581  -0.8570  -0.7943
    -0.7942  -0.7727  -0.7722  -0.7718  -0.7717  -0.7438  -0.7419  -0.7418
    -0.7407  -0.7397  -0.7383  -0.7342  -0.7170  -0.6978  -0.6974  -0.6970
    -0.6970  -0.6753  -0.6749  -0.6451  -0.6449  -0.5996  -0.5993  -0.5771
    -0.5709  -0.5708  -0.5689  -0.5683  -0.5422  -0.5413  -0.5408  -0.5396
    -0.5361  -0.5327  -0.5234  -0.5214  -0.5206  -0.5192  -0.5189  -0.5028
    -0.4928  -0.4908  -0.4895  -0.4306  -0.4300  -0.4271  -0.4270  -0.3840
    -0.3832  -0.3181  -0.3015  -0.3014  -0.3011  -0.3009  -0.2707  -0.2624
    -0.2623  -0.2614  -0.2613  -0.2594  -0.2495  -0.2402  -0.2267  -0.2199
    -0.2193  -0.2190  -0.2165  -0.2127  -0.2043  -0.2006  -0.1885  -0.1862
    -0.1809  -0.1700  -0.0958  -0.0859  -0.0666  -0.0573  -0.0565  -0.0464
    -0.0457  -0.0446  -0.0359  -0.0309   0.0022   0.0043   0.0053   0.0058
     0.0069   0.0090   0.0207   0.0395   0.0401   0.0406   0.0410   0.0439
     0.0454   0.0673   0.0814   0.0816   0.0824   0.0826   0.1149   0.1149
     0.1152   0.1153   0.1271   0.1274   0.1597   0.1598   0.1614   0.1614
     0.1734   0.1794   0.1839   0.1930   0.2059   0.2146   0.2167   0.2750
     0.2754   0.2762   0.2765   0.2811   0.2815   0.2817   0.2825   0.2970
     0.3223   0.3241   0.3245   0.3294   0.3587   0.3612   0.3848   0.3852
     0.3870   0.3874   0.3892   0.3893   0.3894   0.3899   0.3900   0.3904
     0.3906   0.3912   0.4509   0.4560   0.4720   0.4743   0.4762   0.4776
     0.4824   0.4830   0.4836   0.4839   0.4860   0.4894   0.4902   0.4908
     0.4917   0.4938   0.4965   0.4972   0.5051   0.5075   0.5128   0.5130
     0.5261   0.5263   0.5264   0.5265   0.5265   0.5271   0.5390   0.5390
     0.5393   0.5394   0.5516   0.5523   0.5638   0.5640   0.5644   0.5644
     0.5732   0.5751   0.5943   0.5959   0.6678   0.6766   0.6976   0.6979
     0.6999   0.7001   0.7177   0.7277   0.7319   0.7325   0.7332   0.7415
     0.7459   0.7466   0.7515   0.7540   0.7563   0.7566   0.7579   0.7606
     0.7627   0.7633   0.7637   0.7645   0.7663   0.7708   0.7783   0.7785
     0.7805   0.7946   0.8002   0.8011   0.8060   0.8067   0.8078   0.8145
     0.8148   0.8357   0.8714   0.8913   0.9034   0.9036   0.9045   0.9087
     0.9165   0.9202   0.9348   0.9355   0.9376   0.9380   0.9406   0.9411
     0.9413   0.9426   0.9430   0.9444   0.9451   0.9479   0.9492   0.9495
     0.9558   0.9571   0.9578   0.9621   0.9793   0.9805   0.9947   0.9957
     1.0129   1.0171   1.0294   1.0319   1.0338   1.0343   1.0401   1.0406
     1.0414   1.0423   1.0440   1.0453   1.0462   1.0469   1.0597   1.0630
     1.0634   1.0654   1.0774   1.0800   1.0815   1.0902   1.1176   1.1180
     1.1186   1.1191   1.1195   1.1218   1.1361   1.1378   1.1637   1.1757
     1.1761   1.1776   1.1796   1.1809   1.1812   1.1816   1.2042   1.2264
     1.2457   1.2457   1.2486   1.2492   1.2493   1.2512   1.2581   1.2584
     1.2637   1.2648   1.2653   1.2658   1.2762   1.2782   1.2965   1.2969
     1.2983   1.2989   1.3156   1.3171   1.3173   1.3181   1.3190   1.3194
     1.3226   1.3228   1.3545   1.3557   1.3560   1.3568   1.4134   1.4185
     1.4241   1.4246   1.4251   1.4263   1.4520   1.4578   1.4595   1.4606
     1.4621   1.4680   1.4792   1.4825   1.4869   1.4880   1.4899   1.5033
     1.5044   1.5113   1.5232   1.5250   1.5259   1.5266   1.5276   1.5277
     1.5327   1.5345   1.5379   1.5402   1.5442   1.5442   1.5468   1.5477
     1.5488   1.5489   1.5512   1.5520   1.5815   1.5849   1.5859   1.5859
     1.5941   1.6154   1.6217   1.6225   1.6226   1.6245   1.6270   1.6303
     1.6426   1.6438   1.6496   1.6522   1.6523   1.6527   1.6548   1.6627
     1.6629   1.6639   1.6644   1.6713   1.6786   1.6872   1.6938   1.6983
     1.7105   1.7111   1.7223   1.7257   1.7262   1.7265   1.7267   1.7268
     1.7269   1.7288   1.7342   1.7410   1.7411   1.7417   1.7423   1.7427
     1.7428   1.7435   1.7505   1.7520   1.7526   1.7532   1.7541   1.7549
     1.7602   1.7626   1.7760   1.7764   1.7894   1.7924   1.7951   1.7999
     1.8036   1.8041   1.8057   1.8061   1.8213   1.8221   1.8253   1.8254
     1.8389   1.8412   1.8422   1.8476   1.8521   1.8583   1.8586   1.8590
     1.8661   1.8788   1.8792   1.8818   1.8821   1.8907   1.8912   1.8920
     1.8922   1.8925   1.8993   1.9065   1.9117   1.9119   1.9237   1.9239
     1.9239   1.9241   1.9325   1.9376   1.9395   1.9456   1.9873   1.9893
     1.9994   2.0176   2.0187   2.0220   2.0225   2.0578   2.4330   2.4369
     2.4387   2.4420   2.6326   2.6416   2.6510   2.6609   2.6929   2.6939
     2.7008   2.7012   2.9977   3.0153   3.0188   3.0295   3.2074   3.2373
     3.2410   3.2443   3.3915   3.5922   3.5925   3.5958   3.5984   3.8770
     3.8881   4.1404   4.1531   4.1597   4.1610   4.3237   4.3246   4.3317
     4.3357   4.4731   4.4778   4.4816   4.4834   4.5484   4.5693   4.8321
     4.9216   4.9837   5.0964   5.1270   5.1359   5.1466   5.1501   5.2303
     5.2318   5.2715   5.2926   5.4256   5.4264   5.4357   5.4458   5.4521
     5.4580   5.4696   5.4785   5.4914   5.4965   5.5623   5.5725   5.5916
     5.8318   5.8886   5.9439   5.9687   5.9985   6.0598   6.0677   6.1901
     6.3463   6.3923   6.3961   6.4124   6.4154   6.4228   6.4269   6.4358
     6.4800   6.6753   6.8116   6.8142   6.8266   6.8460   6.8714   6.9071
     7.0825   7.3070   7.4822   7.4862   7.4929   7.5108   7.5305   7.5312
     7.9483   7.9810   7.9862   7.9895   7.9914   7.9934   8.0036   8.0435
     8.0916   8.1835   8.2205   8.2481   8.2760   8.2798   8.2822   8.3292
     8.3558   8.4483   8.4565   8.4680   8.4911   8.5148   8.5214   8.5384
     8.5621   8.5841   8.6662   8.6794   8.7420   8.7960   9.2113   9.2159
     9.2197   9.2242   9.2364   9.2545   9.2620   9.2755   9.3918   9.4487
     9.4527   9.4567   9.4643   9.4870   9.6379   9.6621   9.6693   9.7355
     9.7989   9.8203   9.8473   9.9002   9.9081   9.9232   9.9268   9.9384
     9.9513   9.9775

          k =-0.5000-0.2165 0.0000 (256328 PWs)   bands (ev):

   -20.0471 -17.9735 -15.3827 -15.3696 -15.3459 -15.3104 -14.6348 -14.6163
   -14.6117 -14.5961 -13.1910 -13.1847 -13.1710 -13.1437 -11.6082 -11.5614
   -11.5610 -11.5108 -11.1923 -11.1273 -11.0947 -11.0864 -10.9727 -10.9297
   -10.9229 -10.9188  -9.3556  -9.2442  -9.2198  -9.1620  -8.5247  -8.2695
    -8.2638  -8.2062  -7.9935  -7.5121  -7.5098  -7.4657  -7.3479  -5.6415
    -5.4373  -5.4244  -5.3990  -4.9914  -4.8141  -4.7917  -4.7854  -4.7758
    -4.7741  -4.7718  -4.7666  -4.6531  -4.5767  -4.5720  -4.5541  -4.4030
    -4.1394  -3.9483  -3.9323  -3.9188  -3.8058  -3.7954  -3.7925  -3.7904
    -3.7600  -3.7407  -3.7043  -3.6948  -3.6833  -3.4892  -3.4582  -3.4570
    -3.3540  -3.2890  -3.1855  -3.1772  -3.1642  -3.1632  -3.1409  -3.1320
    -3.0854  -3.0385  -2.9804  -2.9537  -2.8515  -2.8250  -2.6346  -2.6158
    -2.5968  -2.4062  -2.1727  -2.1724  -2.1721  -2.1712  -2.1370  -2.1185
    -2.1167  -2.1136  -1.8940  -1.8400  -1.8295  -1.8092  -1.7991  -1.6871
    -1.6862  -1.6791  -1.6685  -1.6123  -1.6083  -1.6069  -1.5920  -1.5576
    -1.5376  -1.4983  -1.4693  -1.3944  -1.3943  -1.3932  -1.3928  -1.2994
    -1.2911  -1.2473  -1.1874  -1.0844  -1.0844  -1.0843  -1.0843  -1.0805
    -1.0721  -1.0567  -1.0451  -1.0443  -1.0418  -1.0368  -1.0246  -1.0243
    -1.0241  -1.0236  -0.9746  -0.9745  -0.9742  -0.9741  -0.9723  -0.9720
    -0.9718  -0.9711  -0.9495  -0.9494  -0.9494  -0.9493  -0.8992  -0.8989
    -0.8980  -0.8976  -0.8489  -0.8246  -0.8224  -0.8212  -0.7841  -0.7806
    -0.7805  -0.7803  -0.7802  -0.7605  -0.7599  -0.7599  -0.7546  -0.7125
    -0.7114  -0.7110  -0.7091  -0.7062  -0.7061  -0.7061  -0.7054  -0.6960
    -0.6785  -0.6769  -0.6467  -0.6466  -0.6462  -0.6459  -0.6297  -0.6296
    -0.6295  -0.6290  -0.6279  -0.6272  -0.6271  -0.6262  -0.6228  -0.5611
    -0.5391  -0.4976  -0.4728  -0.4720  -0.4717  -0.4694  -0.4525  -0.4424
    -0.4423  -0.4422  -0.4407  -0.3592  -0.3590  -0.3587  -0.3581  -0.3538
    -0.3523  -0.3520  -0.3511  -0.3506  -0.3496  -0.3474  -0.3194  -0.3004
    -0.2898  -0.2891  -0.2883  -0.2858  -0.2788  -0.2780  -0.2765  -0.2670
    -0.2566  -0.2559  -0.2554  -0.2550  -0.1631  -0.1628  -0.1582  -0.1576
    -0.1561  -0.1550  -0.1524  -0.1439  -0.0881  -0.0876  -0.0874  -0.0869
    -0.0380  -0.0379  -0.0374  -0.0371  -0.0174  -0.0170  -0.0167  -0.0153
     0.0078   0.0088   0.0155   0.0169   0.0215   0.0221   0.0223   0.0229
     0.0619   0.0656   0.0688   0.0745   0.1374   0.1376   0.1381   0.1384
     0.1533   0.1535   0.1539   0.1541   0.1699   0.1701   0.1704   0.1711
     0.2516   0.2526   0.2530   0.2547   0.2568   0.2571   0.2574   0.2576
     0.2610   0.2615   0.2619   0.2627   0.2980   0.2980   0.2981   0.2982
     0.3111   0.3113   0.3117   0.3120   0.3144   0.3148   0.3152   0.3157
     0.3836   0.3840   0.3851   0.3855   0.4102   0.4113   0.4121   0.4124
     0.4585   0.4609   0.4643   0.4671   0.4703   0.4736   0.4841   0.4896
     0.4915   0.4917   0.4923   0.4958   0.4986   0.4999   0.5008   0.5014
     0.5044   0.5050   0.5114   0.5127   0.5128   0.5147   0.5158   0.5160
     0.5161   0.5162   0.5232   0.5332   0.5345   0.5347   0.5353   0.5452
     0.5616   0.5617   0.5619   0.5621   0.5716   0.5731   0.5732   0.5749
     0.6217   0.6219   0.6221   0.6222   0.6537   0.6551   0.6557   0.6566
     0.6705   0.7201   0.7246   0.7375   0.7382   0.7391   0.7403   0.7451
     0.7518   0.7560   0.7568   0.7582   0.7600   0.7675   0.7719   0.7726
     0.7729   0.7736   0.7738   0.7774   0.7790   0.7811   0.7819   0.7856
     0.7859   0.7878   0.7892   0.7933   0.8125   0.8324   0.8517   0.8607
     0.8650   0.8655   0.8683   0.8696   0.8702   0.8716   0.8737   0.8760
     0.8769   0.8780   0.8861   0.9049   0.9190   0.9197   0.9212   0.9216
     0.9218   0.9224   0.9227   0.9405   0.9656   0.9659   0.9666   0.9672
     0.9786   0.9787   0.9793   0.9795   0.9808   0.9824   0.9853   0.9874
     0.9883   0.9889   0.9937   0.9987   1.0032   1.0042   1.0070   1.0129
     1.0142   1.0202   1.0205   1.0236   1.0890   1.0892   1.0909   1.0927
     1.0945   1.0948   1.0950   1.0958   1.0969   1.1004   1.1027   1.1032
     1.1179   1.1188   1.1284   1.1369   1.1376   1.1381   1.1388   1.1399
     1.1419   1.1426   1.1448   1.1461   1.1898   1.1938   1.1944   1.1983
[...]
     atom   63 type  1   force =     0.00000604    0.00005196   -0.00650899
     atom   64 type  1   force =    -0.00025094   -0.00017889   -0.00646147
     atom   65 type  1   force =    -0.00000410    0.00121043   -0.00564811
     atom   66 type  1   force =     0.00027868    0.00051597   -0.00655679
     atom   67 type  1   force =    -0.00001634    0.00121601   -0.00517279
     atom   68 type  1   force =    -0.00029791    0.00055941   -0.00648450
     atom   69 type  1   force =     0.00000622   -0.00082548   -0.00438242
     atom   70 type  1   force =     0.00049617    0.00061135   -0.00474303
     atom   71 type  1   force =    -0.00002181   -0.00115023   -0.00470146
     atom   72 type  1   force =    -0.00050006    0.00047946   -0.00481840
     atom   73 type  1   force =     0.00001968   -0.00110132   -0.00539260
     atom   74 type  1   force =    -0.00023282   -0.00136877   -0.00521934
     atom   75 type  1   force =    -0.00003419   -0.00076283   -0.00674982
     atom   76 type  1   force =     0.00021614   -0.00128464   -0.00537149
     atom   77 type  1   force =    -0.00000438    0.00018109   -0.00620476
     atom   78 type  1   force =    -0.00025456   -0.00029295   -0.00629443
     atom   79 type  1   force =    -0.00000420   -0.00031440   -0.00630161
     atom   80 type  1   force =     0.00024372   -0.00029172   -0.00630326
     atom   81 type  1   force =    -0.00002446    0.00000772    0.00324539
     atom   82 type  1   force =    -0.00142860    0.00004467    0.00297913
     atom   83 type  1   force =     0.00000727    0.00016274    0.00262868
     atom   84 type  1   force =     0.00140497    0.00002510    0.00295357
     atom   85 type  1   force =    -0.00001694    0.00111945    0.00700310
     atom   86 type  1   force =    -0.00264776   -0.00033642    0.00285812
     atom   87 type  1   force =    -0.00002437    0.00014463    0.00146803
     atom   88 type  1   force =     0.00262177   -0.00049224    0.00280930
     atom   89 type  1   force =     0.00003748    0.00040581    0.00024675
     atom   90 type  1   force =    -0.00198089    0.00126374    0.00063167
     atom   91 type  1   force =    -0.00005055   -0.00090436    0.00025309
     atom   92 type  1   force =     0.00198360    0.00130523    0.00076278
     atom   93 type  1   force =    -0.00001848   -0.00101320    0.00094128
     atom   94 type  1   force =     0.00060852   -0.00010409    0.00336226
     atom   95 type  1   force =    -0.00001190    0.00063005    0.00302883
     atom   96 type  1   force =    -0.00063500   -0.00004654    0.00338296
     atom   97 type  1   force =    -0.00002561   -0.00027559    0.00288995
     atom   98 type  1   force =     0.00012382   -0.00011329    0.00222758
     atom   99 type  1   force =     0.00000959    0.00005847    0.00363616
     atom  100 type  1   force =    -0.00012824   -0.00010650    0.00223939
     atom  101 type  3   force =    -0.00090595    0.00258272    0.00349355
     atom  102 type  3   force =     0.00086927   -0.00406143    0.00311082
     atom  103 type  3   force =     0.00056668    0.00145737    0.00161038
     atom  104 type  3   force =    -0.00261810    0.00456707    0.00494566
     atom  105 type  3   force =     0.00044788   -0.00058727    0.00480732
     atom  106 type  3   force =     0.00453962    0.00035652    0.00447830
     atom  107 type  3   force =     0.00006643    0.00344842    0.00249594
     atom  108 type  3   force =     0.00185852    0.00491740   -0.00489304
     atom  109 type  3   force =    -0.00063380    0.00050811    0.00489032
     atom  110 type  3   force =    -0.00287315    0.00032448    0.00423020
     atom  111 type  3   force =    -0.00030555    0.00003793    0.00166234
     atom  112 type  3   force =     0.00187666    0.00699882    0.00395338
     atom  113 type  3   force =    -0.00101647    0.00581075   -0.00593806
     atom  114 type  3   force =    -0.00103764   -0.00169485   -0.00142163
     atom  115 type  3   force =     0.00493212   -0.00551201    0.00572789
     atom  116 type  3   force =    -0.00554280    0.00058522    0.00361820
     atom  117 type  3   force =    -0.00254515    0.00452596    0.00689312
     atom  118 type  3   force =    -0.00179028   -0.00376014   -0.00066358
     atom  119 type  3   force =     0.00046411   -0.00106552   -0.00376090
     atom  120 type  3   force =    -0.00369478    0.00353231   -0.00476272
     atom  121 type  3   force =     0.00411987    0.00591669    0.00769178
     atom  122 type  3   force =    -0.00241862   -0.00221252    0.00260272
     atom  123 type  3   force =    -0.00255131   -0.00351821    0.00376834
     atom  124 type  3   force =     0.00037762    0.00084937    0.00652256
     atom  125 type  3   force =    -0.00007709   -0.00380431   -0.00617818
     atom  126 type  3   force =     0.00048488    0.00019845    0.00738289
     atom  127 type  3   force =     0.00314312    0.00033551    0.00285797
     atom  128 type  3   force =     0.00014576   -0.00031215    0.00526612
     atom  129 type  3   force =    -0.00148571    0.00340167    0.00619417
     atom  130 type  3   force =     0.00013649   -0.00159640    0.00034504
     atom  131 type  3   force =     0.00041813    0.00055483   -0.00152558
     atom  132 type  3   force =     0.00072642    0.00316594   -0.00567557
     atom  133 type  3   force =     0.00219359    0.00171174    0.00573875
     atom  134 type  3   force =     0.00191111   -0.00229196    0.00075826
     atom  135 type  3   force =    -0.00185209    0.00110585    0.00057501
     atom  136 type  3   force =     0.00027670   -0.00251562    0.00530049
     atom  137 type  3   force =    -0.00004016   -0.00158310    0.00430393
     atom  138 type  3   force =    -0.00085278    0.00121010    0.00063133
     atom  139 type  3   force =    -0.00375154   -0.00151093    0.00346986
     atom  140 type  3   force =     0.00218029   -0.00200736   -0.00056031
     atom  141 type  3   force =     0.00096971   -0.00062269    0.00415045
     atom  142 type  3   force =    -0.00225683    0.00105889    0.00102740
     atom  143 type  3   force =     0.00188324   -0.00262334    0.00342836
     atom  144 type  3   force =    -0.00157155   -0.00448465   -0.00020464
     atom  145 type  3   force =    -0.00253937   -0.00092323    0.00431544
     atom  146 type  3   force =     0.00341915    0.00052297    0.00110730
     atom  147 type  3   force =     0.00320080   -0.00248327    0.00363050
     atom  148 type  3   force =    -0.00266051   -0.00141800   -0.00059791
     atom  149 type  3   force =     0.00327140   -0.00360679   -0.00822589
     atom  150 type  5   force =     0.00455139   -0.00399154    0.00304685
     atom  151 type  5   force =    -0.00700484    0.00878534    0.00427741
     atom  152 type  4   force =     0.00355176   -0.00622019    0.01027058

     Total force =     0.055740     Total SCF correction =     0.000317

     number of scf cycles    =   8
     number of bfgs steps    =   7

     energy   old            =  -12772.1380506180 Ry
     energy   new            =  -12772.1434552356 Ry

     CASE: energy  _new < energy  _old

     new trust radius        =       0.0544046218 bohr
     new conv_thr            =       0.0000000100 Ry


ATOMIC_POSITIONS (angstrom)
Cu      -0.000118256  -0.000527851   7.245282703
Cu       1.844547317   1.703399375   7.246268505
Cu       3.688962519  -0.000094692   7.245225217
Cu       5.533340123   1.703416388   7.246231225
Cu      -0.000079999   3.406878414   7.246848792
Cu       1.844427242   5.110709508   7.245550164
Cu       3.688923981   3.407052242   7.246089062
Cu       5.533452602   5.110721748   7.245650683
Cu      -0.000093577   6.815113712   7.244662508
Cu       1.844572849   8.518997369   7.245136047
Cu       3.688927746   6.814436695   7.244600011
Cu       5.533306180   8.519018776   7.245180542
Cu      -0.000074463  10.223090367   7.246016040
Cu       1.844332958  11.926874107   7.246700991
Cu       3.688921688  10.223039481   7.246699344
Cu       5.533543500  11.926814117   7.246711776
Cu      -0.000126001  13.630563900   7.245699334
Cu       1.844481107  15.334635987   7.244808980
Cu       3.688963951  13.630714293   7.245715876
Cu       5.533392679  15.334646390   7.244782690
Cu      -0.000097060   1.702170150   9.101567743
Cu       1.844597655  -0.001483174   9.101225421
Cu       3.688939077   1.702489428   9.101982228
Cu       5.533280642  -0.001457695   9.101244236
Cu      -0.000063006   5.112278065   9.100910852
Cu       1.844681916   3.407420482   9.101793438
Cu       3.688916760   5.112244725   9.101971577
Cu       5.533193391   3.407352857   9.101709506
Cu      -0.000115739   8.518090881   9.100797843
Cu       1.844778922   6.815337035   9.101247651
Cu       3.688950836   8.517769020   9.101811785
Cu       5.533089789   6.815393937   9.101305814
Cu      -0.000100133  11.927073204   9.102181588
Cu       1.844372224  10.222053323   9.101849098
Cu       3.688936787  11.927379612   9.102028389
Cu       5.533507751  10.222009322   9.101963748
Cu      -0.000097913  15.334890096   9.101122583
Cu       1.844236697  13.631730645   9.101544441
Cu       3.688937754  15.334591716   9.101011468
Cu       5.533639057  13.631744569   9.101512356
Cu      -0.000116280  -0.002903261  11.013354066
Cu       1.844650818   1.702022306  11.011902012
Cu       3.688953558  -0.002396700  11.013164900
Cu       5.533217567   1.702152527  11.012027789
Cu      -0.000150429   3.408643655  11.010752473
Cu       1.844416365   5.113590526  11.012968631
Cu       3.688974476   3.407802679  11.012272542
Cu       5.533479977   5.113393311  11.012604387
Cu      -0.000070663   6.816956309  11.014788082
Cu       1.843356167   8.517235469  11.015544530
Cu       3.688909206   6.815547404  11.017506067
Cu       5.534491079   8.517112818  11.015891534
Cu      -0.000035730  10.220073487  11.014464333
Cu       1.843935597  11.926118056  11.013504756
Cu       3.688879053  10.220940736  11.013720172
Cu       5.533929808  11.926273063  11.013353414
Cu      -0.000093203  13.631525784  11.013599198
Cu       1.844304438  15.334654808  11.014184540
Cu       3.688931762  13.632223702  11.013931824
Cu       5.533574164  15.334637920  11.014207540
Cu      -0.000222099   1.698964326  12.893379370
Cu       1.845385964  -0.002435224  12.905579392
Cu       3.689020036   1.702190748  12.901425336
Cu       5.532477024  -0.002377449  12.905688240
Cu      -0.000452949   5.122145847  12.906955944
Cu       1.848826292   3.412055497  12.898648226
Cu       3.689187484   5.117334144  12.909596902
Cu       5.528978472   3.412730155  12.899685032
Cu       0.000366670   8.513852907  12.927947275
Cu       1.842669859   6.817072542  12.917587241
Cu       3.688401395   8.510914515  12.912019734
Cu       5.535297171   6.815580354  12.917027397
Cu      -0.000034886  11.921110241  12.908036577
Cu       1.839679481  10.210823509  12.913244613
Cu       3.688832402  11.922266897  12.899774667
Cu       5.538184166  10.211637538  12.911990472
Cu      -0.000125748  15.333656017  12.908929363
Cu       1.842634031  13.631363510  12.905481001
Cu       3.688967880  15.335660331  12.908260762
Cu       5.535244176  13.631276014  12.905571766
Cu      -0.000061515   0.014014240  14.702582106
Cu       1.860849938   1.708202158  14.702339404
Cu       3.688826669  -0.004431028  14.719753392
Cu       5.516848917   1.708296379  14.702677026
Cu       0.000062648   3.402480189  14.663237940
Cu       1.863756460   5.109840128  14.723542694
Cu       3.688488891   3.405461076  14.720835790
Cu       5.513319062   5.110209538  14.728015738
Cu       0.000027131   6.803513456  14.751663872
Cu       1.860992019   8.503943415  14.758105999
Cu       3.689136136   6.815217967  14.763920058
Cu       5.516822246   8.504004904  14.750448352
Cu      -0.000562157  10.205810893  14.749770947
Cu       1.829778427  11.919555024  14.705290933
Cu       3.689236319  10.226203105  14.703324296
Cu       5.547891128  11.919235974  14.705134616
Cu      -0.000145576  13.634868298  14.720424042
Cu       1.844762056  15.335222041  14.716322066
Cu       3.688936342  13.615233129  14.697557194
Cu       5.533083688  15.335279405  14.716320025
C       -0.000371474   0.719384696  17.661041654
C       -0.001235909   2.136234090  17.642187315
C        1.228392876   0.008666397  17.674884721
C        1.225740486   2.848155073  17.636571449
C        2.456432554   0.717020276  17.648922760
C        2.455635216   2.135713948  17.640858054
C        3.688272921   0.009550908  17.659670828
C        3.687187553   2.847734389  17.673015425
C        4.919777887   0.716614451  17.648800984
C        4.918231303   2.134955581  17.641180534
C        6.149283970   0.008660115  17.675019189
C        6.148562804   2.847050553  17.638926501
C        0.000253753   4.975525740  17.710954981
C        0.003919041   6.392650379  17.728456078
C        1.227717062   4.263882061  17.671205383
C        1.234683961   7.102537171  17.786134093
C        2.456514647   4.980119503  17.736764863
C        2.442964609   6.381945392  17.842130583
C        3.689572151   4.260052669  17.728649079
C        3.696837871   7.110617686  18.235965726
C        4.922710045   4.981932173  17.713236646
C        4.940274378   6.384561457  17.824333865
C        6.150255526   4.263817065  17.663872048
C        6.149113808   7.102209002  17.775951595
C        0.001716303   9.236710939  17.753396171
C       -0.000987242  10.659908738  17.630439885
C        1.229375265   8.530464606  17.778722587
C        1.230791277  11.369960879  17.612783319
C        2.465922709   9.241336340  17.749728056
C        2.460428854  10.662012572  17.686644274
C        3.691095169   8.555121285  17.837082353
C        3.687529551  11.373891343  17.710093097
C        4.914674373   9.242619362  17.766566881
C        4.915971815  10.664691454  17.694607746
C        6.151952253   8.530261961  17.795408720
C        6.145308838  11.371626715  17.617479554
C        0.000317972  13.500363652  17.603192670
C        0.000536941  14.919966995  17.670234451
C        1.231858859  12.790907217  17.607070474
C        1.229649241  15.628391836  17.684162107
C        2.459760190  13.501941474  17.663239641
C        2.459817314  14.921334245  17.684987395
C        3.688348303  12.792408598  17.682892867
C        3.688744972  15.629134822  17.699091916
C        4.916652088  13.502415877  17.663721472
C        4.918835299  14.921751859  17.684965656
C        6.145606885  12.792894169  17.608153365
C        6.149285658  15.628568016  17.684223920
C        3.594557307   7.134445606  19.827706406
O        2.864705504   7.889281767  20.460938191
O        4.374722368   6.166362520  20.400595162
H        4.192307701   6.261108548  21.359635726



     Writing output data file gc.save
     Check: negative starting charge=   -0.001524
     NEW-OLD atomic charge density approx. for the potential
     Check: negative starting charge=   -0.001491

     negative rho (up, down):  1.526E-03 0.000E+00

     total cpu time spent up to now is    42495.8 secs

     Self-consistent Calculation

     iteration #  1     ecut=    80.00 Ry     beta=0.70
     Davidson diagonalization with overlap
     c_bands:  3 eigenvalues not converged
     c_bands:  2 eigenvalues not converged
     ethr =  1.00E-06,  avg # of iterations = 15.7

     negative rho (up, down):  4.044E-03 0.000E+00

     total cpu time spent up to now is    43257.3 secs

     total energy              =  -12772.14009133 Ry
     Harris-Foulkes estimate   =  -12772.16677635 Ry
     estimated scf accuracy    <       0.35614586 Ry

     iteration #  2     ecut=    80.00 Ry     beta=0.70
     Davidson diagonalization with overlap
     ethr =  2.72E-05,  avg # of iterations =  1.0

     negative rho (up, down):  6.206E-03 0.000E+00

     total cpu time spent up to now is    43454.8 secs

     total energy              =  -12772.14077433 Ry
     Harris-Foulkes estimate   =  -12772.15520517 Ry
     estimated scf accuracy    <       0.08778767 Ry

     iteration #  3     ecut=    80.00 Ry     beta=0.70
     Davidson diagonalization with overlap
     ethr =  6.71E-06,  avg # of iterations =  6.8

     negative rho (up, down):  1.254E-02 0.000E+00

     total cpu time spent up to now is    43718.2 secs

     total energy              =  -12772.14312267 Ry
     Harris-Foulkes estimate   =  -12772.15098665 Ry
     estimated scf accuracy    <       0.09290891 Ry

     iteration #  4     ecut=    80.00 Ry     beta=0.70
     Davidson diagonalization with overlap
     ethr =  6.71E-06,  avg # of iterations =  6.0

     negative rho (up, down):  1.432E-02 0.000E+00

     total cpu time spent up to now is    43973.4 secs

     total energy              =  -12772.14693964 Ry
     Harris-Foulkes estimate   =  -12772.14738138 Ry
     estimated scf accuracy    <       0.01313376 Ry

     iteration #  5     ecut=    80.00 Ry     beta=0.70
     Davidson diagonalization with overlap
     c_bands:  1 eigenvalues not converged
     ethr =  1.00E-06,  avg # of iterations =  7.0

     negative rho (up, down):  1.374E-02 0.000E+00

     total cpu time spent up to now is    44237.5 secs

     total energy              =  -12772.14664842 Ry
     Harris-Foulkes estimate   =  -12772.14719697 Ry
     estimated scf accuracy    <       0.00845626 Ry

     iteration #  6     ecut=    80.00 Ry     beta=0.70
     Davidson diagonalization with overlap
     ethr =  6.46E-07,  avg # of iterations =  9.0

     negative rho (up, down):  1.124E-02 0.000E+00

     total cpu time spent up to now is    44525.3 secs

     total energy              =  -12772.14671502 Ry
     Harris-Foulkes estimate   =  -12772.14687034 Ry
     estimated scf accuracy    <       0.00095124 Ry

     iteration #  7     ecut=    80.00 Ry     beta=0.70
     Davidson diagonalization with overlap
     ethr =  7.27E-08,  avg # of iterations =  5.2

     negative rho (up, down):  6.728E-03 0.000E+00

     total cpu time spent up to now is    44764.2 secs

     total energy              =  -12772.14665177 Ry
     Harris-Foulkes estimate   =  -12772.14676842 Ry
     estimated scf accuracy    <       0.00016068 Ry

     iteration #  8     ecut=    80.00 Ry     beta=0.70
     Davidson diagonalization with overlap
     c_bands:  1 eigenvalues not converged
     ethr =  1.23E-08,  avg # of iterations = 11.8

     negative rho (up, down):  3.084E-03 0.000E+00

     total cpu time spent up to now is    45106.5 secs

     total energy              =  -12772.14659951 Ry
     Harris-Foulkes estimate   =  -12772.14666825 Ry
     estimated scf accuracy    <       0.00013027 Ry

     iteration #  9     ecut=    80.00 Ry     beta=0.70
     Davidson diagonalization with overlap
     c_bands:  1 eigenvalues not converged
     ethr =  9.95E-09,  avg # of iterations =  9.2

     negative rho (up, down):  2.112E-03 0.000E+00

     total cpu time spent up to now is    45406.7 secs

     total energy              =  -12772.14659975 Ry
     Harris-Foulkes estimate   =  -12772.14660751 Ry
     estimated scf accuracy    <       0.00001957 Ry

     iteration # 10     ecut=    80.00 Ry     beta=0.70
     Davidson diagonalization with overlap
     ethr =  1.49E-09,  avg # of iterations =  2.0

     negative rho (up, down):  1.455E-03 0.000E+00

     total cpu time spent up to now is    45610.3 secs

     total energy              =  -12772.14659981 Ry
     Harris-Foulkes estimate   =  -12772.14660148 Ry
     estimated scf accuracy    <       0.00000859 Ry

     iteration # 11     ecut=    80.00 Ry     beta=0.70
     Davidson diagonalization with overlap
     ethr =  6.57E-10,  avg # of iterations =  2.7

     negative rho (up, down):  1.408E-03 0.000E+00

     total cpu time spent up to now is    45827.8 secs

     total energy              =  -12772.14660082 Ry
     Harris-Foulkes estimate   =  -12772.14660081 Ry
     estimated scf accuracy    <       0.00000193 Ry

     iteration # 12     ecut=    80.00 Ry     beta=0.70
     Davidson diagonalization with overlap
