
     Program PWSCF v.5.4.0 starts on  7Nov2016 at 21:57: 2 

     This program is part of the open-source Quantum ESPRESSO suite
     for quantum simulation of materials; please cite
         "P. Giannozzi et al., J. Phys.:Condens. Matter 21 395502 (2009);
          URL http://www.quantum-espresso.org", 
     in publications or presentations arising from this work. More details at
     http://www.quantum-espresso.org/quote

     Parallel version (MPI & OpenMP), running on     128 processor cores
     Number of MPI processes:               128
     Threads/MPI process:                     1
     R & G space division:  proc/nbgrp/npool/nimage =     128
     Waiting for input...
     Reading input from standard input

     Current dimensions of program PWSCF are:
     Max number of different atomic species (ntypx) = 10
     Max number of k-points (npk) =  40000
     Max angular momentum in pseudopotentials (lmaxx) =  3

     -------------------------------------
     Parameters for Dispersion Correction:
     -------------------------------------
       atom      VdW radius       C_6     

        Cu         2.952        374.666

     Subspace diagonalization in iterative solution of the eigenvalue problem:
     one sub-group per band group will be used
     scalapack distributed-memory algorithm (size of sub-group:  8*  8 procs)

     Found symmetry operation: I + (  0.3333  0.0000  0.0000)
     This is a supercell, fractional translations are disabled
 
     Parallelization info
     --------------------
     sticks:   dense  smooth     PW     G-vecs:    dense   smooth      PW
     Min          63      56     15                 8575     7174     979
     Max          64      57     16                 8592     7211     987
     Sum        8173    7269   1931              1099045   921191  125855
 


     bravais-lattice index     =            0
     lattice parameter (alat)  =      27.5793  a.u.
     unit-cell volume          =   26950.5233 (a.u.)^3
     number of atoms/cell      =          120
     number of atomic types    =            1
     number of electrons       =      1320.00
     number of Kohn-Sham states=          792
     kinetic-energy cutoff     =      40.0000  Ry
     charge density cutoff     =     180.0000  Ry
     convergence threshold     =      1.0E-08
     mixing beta               =       0.7000
     number of iterations used =            8  plain     mixing
     Exchange-correlation      =  SLA  PW   PBE  PBE ( 1  4  3  4 0 0)
     nstep                     =           50


     celldm(1)=  27.579319  celldm(2)=   0.000000  celldm(3)=   0.000000
     celldm(4)=   0.000000  celldm(5)=   0.000000  celldm(6)=   0.000000

     crystal axes: (cart. coord. in units of alat)
               a(1) = (   1.000000   0.000000   0.000000 )  
               a(2) = (   0.000000   0.750000   0.000000 )  
               a(3) = (   0.000000   0.000000   1.712992 )  

     reciprocal axes: (cart. coord. in units 2 pi/alat)
               b(1) = (  1.000000  0.000000  0.000000 )  
               b(2) = (  0.000000  1.333333  0.000000 )  
               b(3) = (  0.000000  0.000000  0.583774 )  


     PseudoPot. # 1 for Cu read from file:
     /home/549/hxw549/Short/pseudopotentials/Cu.pbe-n-van_ak.UPF
     MD5 check sum: 601f7c30f7467666bec936e0661ce3e1
     Pseudo is Ultrasoft + core correction, Zval = 11.0
     Generated by new atomic code, or converted to UPF format
     Using radial grid of  867 points,  6 beta functions with: 
                l(1) =   0
                l(2) =   0
                l(3) =   1
                l(4) =   1
                l(5) =   2
                l(6) =   2
     Q(r) pseudized with  8 coefficients,  rinner =    1.400   1.400   1.400
                                                       1.400   1.400

     atomic species   valence    mass     pseudopotential
        Cu            11.00    63.54600     Cu( 1.00)

      8 Sym. Ops., with inversion, found



   Cartesian axes

     site n.     atom                  positions (alat units)
         1           Cu  tau(   1) = (   0.0000000   0.0000000   0.6095009  )
         2           Cu  tau(   2) = (   0.3333333   0.0000000   0.6095009  )
         3           Cu  tau(   3) = (   0.6666667   0.0000000   0.6095009  )
         4           Cu  tau(   4) = (   0.0000000   0.1875000   0.6095009  )
         5           Cu  tau(   5) = (   0.3333333   0.1875000   0.6095009  )
         6           Cu  tau(   6) = (   0.6666667   0.1875000   0.6095009  )
         7           Cu  tau(   7) = (   0.0000000   0.3750000   0.6095009  )
         8           Cu  tau(   8) = (   0.3333333   0.3750000   0.6095009  )
         9           Cu  tau(   9) = (   0.6666667   0.3750000   0.6095009  )
        10           Cu  tau(  10) = (   0.0000000   0.5625000   0.6095009  )
        11           Cu  tau(  11) = (   0.3333333   0.5625000   0.6095009  )
        12           Cu  tau(  12) = (   0.6666667   0.5625000   0.6095009  )
        13           Cu  tau(  13) = (   0.1666667   0.0937500   0.6095009  )
        14           Cu  tau(  14) = (   0.5000000   0.0937500   0.6095009  )
        15           Cu  tau(  15) = (   0.8333333   0.0937500   0.6095009  )
        16           Cu  tau(  16) = (   0.1666667   0.2812500   0.6095009  )
        17           Cu  tau(  17) = (   0.5000000   0.2812500   0.6095009  )
        18           Cu  tau(  18) = (   0.8333333   0.2812500   0.6095009  )
        19           Cu  tau(  19) = (   0.1666667   0.4687500   0.6095009  )
        20           Cu  tau(  20) = (   0.5000000   0.4687500   0.6095009  )
        21           Cu  tau(  21) = (   0.8333333   0.4687500   0.6095009  )
        22           Cu  tau(  22) = (   0.1666667   0.6562500   0.6095009  )
        23           Cu  tau(  23) = (   0.5000000   0.6562500   0.6095009  )
        24           Cu  tau(  24) = (   0.8333333   0.6562500   0.6095009  )
        25           Cu  tau(  25) = (   0.1666667   0.0000000   0.7312252  )
        26           Cu  tau(  26) = (   0.5000000   0.0000000   0.7312252  )
        27           Cu  tau(  27) = (   0.8333333   0.0000000   0.7312252  )
        28           Cu  tau(  28) = (   0.1666667   0.1875000   0.7312252  )
        29           Cu  tau(  29) = (   0.5000000   0.1875000   0.7312252  )
        30           Cu  tau(  30) = (   0.8333333   0.1875000   0.7312252  )
        31           Cu  tau(  31) = (   0.1666667   0.3750000   0.7312252  )
        32           Cu  tau(  32) = (   0.5000000   0.3750000   0.7312252  )
        33           Cu  tau(  33) = (   0.8333333   0.3750000   0.7312252  )
        34           Cu  tau(  34) = (   0.1666667   0.5625000   0.7312252  )
        35           Cu  tau(  35) = (   0.5000000   0.5625000   0.7312252  )
        36           Cu  tau(  36) = (   0.8333333   0.5625000   0.7312252  )
        37           Cu  tau(  37) = (   0.0000000   0.0937500   0.7312252  )
        38           Cu  tau(  38) = (   0.3333333   0.0937500   0.7312252  )
        39           Cu  tau(  39) = (   0.6666667   0.0937500   0.7312252  )
        40           Cu  tau(  40) = (   0.0000000   0.2812500   0.7312252  )
        41           Cu  tau(  41) = (   0.3333333   0.2812500   0.7312252  )
        42           Cu  tau(  42) = (   0.6666667   0.2812500   0.7312252  )
        43           Cu  tau(  43) = (   0.0000000   0.4687500   0.7312252  )
        44           Cu  tau(  44) = (   0.3333333   0.4687500   0.7312252  )
        45           Cu  tau(  45) = (   0.6666667   0.4687500   0.7312252  )
        46           Cu  tau(  46) = (   0.0000000   0.6562500   0.7312252  )
        47           Cu  tau(  47) = (   0.3333333   0.6562500   0.7312252  )
        48           Cu  tau(  48) = (   0.6666667   0.6562500   0.7312252  )
        49           Cu  tau(  49) = (   0.0000000   0.0000000   0.8564960  )
        50           Cu  tau(  50) = (   0.3333333   0.0000000   0.8564960  )
        51           Cu  tau(  51) = (   0.6666667   0.0000000   0.8564960  )
        52           Cu  tau(  52) = (   0.0000000   0.1875000   0.8564960  )
        53           Cu  tau(  53) = (   0.3333333   0.1875000   0.8564960  )
        54           Cu  tau(  54) = (   0.6666667   0.1875000   0.8564960  )
        55           Cu  tau(  55) = (   0.0000000   0.3750000   0.8564960  )
        56           Cu  tau(  56) = (   0.3333333   0.3750000   0.8564960  )
        57           Cu  tau(  57) = (   0.6666667   0.3750000   0.8564960  )
        58           Cu  tau(  58) = (   0.0000000   0.5625000   0.8564960  )
        59           Cu  tau(  59) = (   0.3333333   0.5625000   0.8564960  )
        60           Cu  tau(  60) = (   0.6666667   0.5625000   0.8564960  )
        61           Cu  tau(  61) = (   0.1666667   0.0937500   0.8564960  )
        62           Cu  tau(  62) = (   0.5000000   0.0937500   0.8564960  )
        63           Cu  tau(  63) = (   0.8333333   0.0937500   0.8564960  )
        64           Cu  tau(  64) = (   0.1666667   0.2812500   0.8564960  )
        65           Cu  tau(  65) = (   0.5000000   0.2812500   0.8564960  )
        66           Cu  tau(  66) = (   0.8333333   0.2812500   0.8564960  )
        67           Cu  tau(  67) = (   0.1666667   0.4687500   0.8564960  )
        68           Cu  tau(  68) = (   0.5000000   0.4687500   0.8564960  )
        69           Cu  tau(  69) = (   0.8333333   0.4687500   0.8564960  )
        70           Cu  tau(  70) = (   0.1666667   0.6562500   0.8564960  )
        71           Cu  tau(  71) = (   0.5000000   0.6562500   0.8564960  )
        72           Cu  tau(  72) = (   0.8333333   0.6562500   0.8564960  )
        73           Cu  tau(  73) = (   0.1666667   0.0000000   0.9817669  )
        74           Cu  tau(  74) = (   0.5000000   0.0000000   0.9817669  )
        75           Cu  tau(  75) = (   0.8333333   0.0000000   0.9817669  )
        76           Cu  tau(  76) = (   0.1666667   0.1875000   0.9817669  )
        77           Cu  tau(  77) = (   0.5000000   0.1875000   0.9817669  )
        78           Cu  tau(  78) = (   0.8333333   0.1875000   0.9817669  )
        79           Cu  tau(  79) = (   0.1666667   0.3750000   0.9817669  )
        80           Cu  tau(  80) = (   0.5000000   0.3750000   0.9817669  )
        81           Cu  tau(  81) = (   0.8333333   0.3750000   0.9817669  )
        82           Cu  tau(  82) = (   0.1666667   0.5625000   0.9817669  )
        83           Cu  tau(  83) = (   0.5000000   0.5625000   0.9817669  )
        84           Cu  tau(  84) = (   0.8333333   0.5625000   0.9817669  )
        85           Cu  tau(  85) = (   0.0000000   0.0937500   0.9817669  )
        86           Cu  tau(  86) = (   0.3333333   0.0937500   0.9817669  )
        87           Cu  tau(  87) = (   0.6666667   0.0937500   0.9817669  )
        88           Cu  tau(  88) = (   0.0000000   0.2812500   0.9817669  )
        89           Cu  tau(  89) = (   0.3333333   0.2812500   0.9817669  )
        90           Cu  tau(  90) = (   0.6666667   0.2812500   0.9817669  )
        91           Cu  tau(  91) = (   0.0000000   0.4687500   0.9817669  )
        92           Cu  tau(  92) = (   0.3333333   0.4687500   0.9817669  )
        93           Cu  tau(  93) = (   0.6666667   0.4687500   0.9817669  )
        94           Cu  tau(  94) = (   0.0000000   0.6562500   0.9817669  )
        95           Cu  tau(  95) = (   0.3333333   0.6562500   0.9817669  )
        96           Cu  tau(  96) = (   0.6666667   0.6562500   0.9817669  )
        97           Cu  tau(  97) = (   0.0000000   0.0000000   1.1034922  )
        98           Cu  tau(  98) = (   0.3333333   0.0000000   1.1034922  )
        99           Cu  tau(  99) = (   0.6666667   0.0000000   1.1034922  )
       100           Cu  tau( 100) = (   0.0000000   0.1875000   1.1034922  )
       101           Cu  tau( 101) = (   0.3333333   0.1875000   1.1034922  )
       102           Cu  tau( 102) = (   0.6666667   0.1875000   1.1034922  )
       103           Cu  tau( 103) = (   0.0000000   0.3750000   1.1034922  )
       104           Cu  tau( 104) = (   0.3333333   0.3750000   1.1034922  )
       105           Cu  tau( 105) = (   0.6666667   0.3750000   1.1034922  )
       106           Cu  tau( 106) = (   0.0000000   0.5625000   1.1034922  )
       107           Cu  tau( 107) = (   0.3333333   0.5625000   1.1034922  )
       108           Cu  tau( 108) = (   0.6666667   0.5625000   1.1034922  )
       109           Cu  tau( 109) = (   0.1666667   0.0937500   1.1034922  )
       110           Cu  tau( 110) = (   0.5000000   0.0937500   1.1034922  )
       111           Cu  tau( 111) = (   0.8333333   0.0937500   1.1034922  )
       112           Cu  tau( 112) = (   0.1666667   0.2812500   1.1034922  )
       113           Cu  tau( 113) = (   0.5000000   0.2812500   1.1034922  )
       114           Cu  tau( 114) = (   0.8333333   0.2812500   1.1034922  )
       115           Cu  tau( 115) = (   0.1666667   0.4687500   1.1034922  )
       116           Cu  tau( 116) = (   0.5000000   0.4687500   1.1034922  )
       117           Cu  tau( 117) = (   0.8333333   0.4687500   1.1034922  )
       118           Cu  tau( 118) = (   0.1666667   0.6562500   1.1034922  )
       119           Cu  tau( 119) = (   0.5000000   0.6562500   1.1034922  )
       120           Cu  tau( 120) = (   0.8333333   0.6562500   1.1034922  )

     number of k points=     4  gaussian smearing, width (Ry)=  0.1000
                       cart. coord. in units 2pi/alat
        k(    1) = (   0.0000000   0.0000000   0.0000000), wk =   0.5000000
        k(    2) = (   0.0000000  -0.6666667   0.0000000), wk =   0.5000000
        k(    3) = (  -0.5000000   0.0000000   0.0000000), wk =   0.5000000
        k(    4) = (  -0.5000000  -0.6666667   0.0000000), wk =   0.5000000

     Dense  grid:  1099045 G-vectors     FFT dimensions: ( 120,  90, 216)

     Smooth grid:   921191 G-vectors     FFT dimensions: ( 120,  90, 192)

     Largest allocated arrays     est. size (Mb)     dimensions
        Kohn-Sham Wavefunctions        11.17 Mb     (     924,  792)
        NL pseudopotentials            30.45 Mb     (     924, 2160)
        Each V/rho on FFT grid          0.33 Mb     (   21600)
        Each G-vector array             0.07 Mb     (    8590)
        G-vector shells                 0.03 Mb     (    4265)
     Largest temporary arrays     est. size (Mb)     dimensions
        Auxiliary wavefunctions        44.67 Mb     (     924, 3168)
        Each subspace H/S matrix        2.39 Mb     (     396,  396)
        Each <psi_i|beta_j> matrix     26.10 Mb     (    2160,  792)
        Arrays for rho mixing           2.64 Mb     (   21600,    8)

     Initial potential from superposition of free atoms
     Check: negative starting charge=   -0.008389

     starting charge 1318.58109, renormalised to 1320.00000

     negative rho (up, down):  8.398E-03 0.000E+00
     Starting wfc are 1080 randomized atomic wfcs

     total cpu time spent up to now is       30.7 secs

     Self-consistent Calculation

     iteration #  1     ecut=    40.00 Ry     beta=0.70
     Davidson diagonalization with overlap
     ethr =  1.00E-04,  avg # of iterations =  7.0

     negative rho (up, down):  2.950E-03 0.000E+00

     total cpu time spent up to now is      205.8 secs

     total energy              =  -14545.39432598 Ry
     Harris-Foulkes estimate   =  -14583.79527720 Ry
     estimated scf accuracy    <      45.20819799 Ry

     iteration #  2     ecut=    40.00 Ry     beta=0.70
     Davidson diagonalization with overlap
     ethr =  3.42E-03,  avg # of iterations = 12.5

     total cpu time spent up to now is      534.5 secs

     total energy              =  -13867.67568667 Ry
     Harris-Foulkes estimate   =  -15022.98027586 Ry
     estimated scf accuracy    <   36445.45731620 Ry

     iteration #  3     ecut=    40.00 Ry     beta=0.70
     Davidson diagonalization with overlap
     ethr =  3.42E-03,  avg # of iterations =  6.8

     total cpu time spent up to now is      706.6 secs

     total energy              =  -14563.63986880 Ry
     Harris-Foulkes estimate   =  -14603.75765803 Ry
     estimated scf accuracy    <     146.53256090 Ry

     iteration #  4     ecut=    40.00 Ry     beta=0.70
     Davidson diagonalization with overlap
     ethr =  3.42E-03,  avg # of iterations =  3.5

     total cpu time spent up to now is      807.7 secs

     total energy              =  -14577.21441799 Ry
     Harris-Foulkes estimate   =  -14581.03575788 Ry
     estimated scf accuracy    <      16.59752085 Ry

     iteration #  5     ecut=    40.00 Ry     beta=0.70
     Davidson diagonalization with overlap
     ethr =  1.26E-03,  avg # of iterations =  2.0

     total cpu time spent up to now is      869.8 secs

     total energy              =  -14578.67865626 Ry
     Harris-Foulkes estimate   =  -14579.31986437 Ry
     estimated scf accuracy    <       3.25533188 Ry

     iteration #  6     ecut=    40.00 Ry     beta=0.70
     Davidson diagonalization with overlap
     ethr =  2.47E-04,  avg # of iterations =  2.5

     total cpu time spent up to now is      934.1 secs

     total energy              =  -14578.86457586 Ry
     Harris-Foulkes estimate   =  -14579.13642475 Ry
     estimated scf accuracy    <       1.53885740 Ry

     iteration #  7     ecut=    40.00 Ry     beta=0.70
     Davidson diagonalization with overlap
     ethr =  1.17E-04,  avg # of iterations =  2.2

     total cpu time spent up to now is      994.7 secs

     total energy              =  -14578.92195952 Ry
     Harris-Foulkes estimate   =  -14579.10371498 Ry
     estimated scf accuracy    <       4.49646227 Ry

     iteration #  8     ecut=    40.00 Ry     beta=0.70
     Davidson diagonalization with overlap
     ethr =  1.17E-04,  avg # of iterations =  3.2

     total cpu time spent up to now is     1060.7 secs

     total energy              =  -14578.96641891 Ry
     Harris-Foulkes estimate   =  -14579.06403799 Ry
     estimated scf accuracy    <       3.40902893 Ry

     iteration #  9     ecut=    40.00 Ry     beta=0.70
     Davidson diagonalization with overlap
     ethr =  1.17E-04,  avg # of iterations =  1.0

     total cpu time spent up to now is     1114.0 secs

     total energy              =  -14578.97742191 Ry
     Harris-Foulkes estimate   =  -14579.01155521 Ry
     estimated scf accuracy    <       1.88384017 Ry

     iteration # 10     ecut=    40.00 Ry     beta=0.70
     Davidson diagonalization with overlap
     ethr =  1.17E-04,  avg # of iterations =  1.0

     total cpu time spent up to now is     1167.2 secs

     total energy              =  -14578.95276644 Ry
     Harris-Foulkes estimate   =  -14578.99059139 Ry
     estimated scf accuracy    <       1.58116903 Ry

     iteration # 11     ecut=    40.00 Ry     beta=0.70
     Davidson diagonalization with overlap
     ethr =  1.17E-04,  avg # of iterations =  1.0

     total cpu time spent up to now is     1220.8 secs

     total energy              =  -14578.17701496 Ry
     Harris-Foulkes estimate   =  -14578.96112399 Ry
     estimated scf accuracy    <       1.34321259 Ry

     iteration # 12     ecut=    40.00 Ry     beta=0.70
     Davidson diagonalization with overlap
     ethr =  1.02E-04,  avg # of iterations = 10.2

     total cpu time spent up to now is     1463.1 secs

     total energy              =  -14576.03333316 Ry
     Harris-Foulkes estimate   =  -14580.65696381 Ry
     estimated scf accuracy    <      51.54234265 Ry

     iteration # 13     ecut=    40.00 Ry     beta=0.70
     Davidson diagonalization with overlap
     ethr =  1.02E-04,  avg # of iterations =  5.5

     total cpu time spent up to now is     1607.9 secs

     total energy              =  -14578.18960163 Ry
     Harris-Foulkes estimate   =  -14578.84061922 Ry
     estimated scf accuracy    <       3.03619659 Ry

     iteration # 14     ecut=    40.00 Ry     beta=0.70
     Davidson diagonalization with overlap
     ethr =  1.02E-04,  avg # of iterations =  3.8

     total cpu time spent up to now is     1682.7 secs

     total energy              =  -14578.37037744 Ry
     Harris-Foulkes estimate   =  -14578.60227876 Ry
     estimated scf accuracy    <       0.77312619 Ry

     iteration # 15     ecut=    40.00 Ry     beta=0.70
     Davidson diagonalization with overlap
     ethr =  5.86E-05,  avg # of iterations =  3.5

     total cpu time spent up to now is     1780.3 secs

     total energy              =  -14578.10443182 Ry
     Harris-Foulkes estimate   =  -14578.79281905 Ry
     estimated scf accuracy    <       4.37671246 Ry

     iteration # 16     ecut=    40.00 Ry     beta=0.70
     Davidson diagonalization with overlap
     ethr =  5.86E-05,  avg # of iterations =  3.5

     total cpu time spent up to now is     1874.0 secs

     total energy              =  -14578.35208393 Ry
     Harris-Foulkes estimate   =  -14578.66423608 Ry
     estimated scf accuracy    <       1.66501828 Ry

     iteration # 17     ecut=    40.00 Ry     beta=0.70
     Davidson diagonalization with overlap
     ethr =  5.86E-05,  avg # of iterations =  2.2

     total cpu time spent up to now is     1938.6 secs

     total energy              =  -14578.47144390 Ry
     Harris-Foulkes estimate   =  -14578.56258231 Ry
     estimated scf accuracy    <       0.71536731 Ry

     iteration # 18     ecut=    40.00 Ry     beta=0.70
     Davidson diagonalization with overlap
     ethr =  5.42E-05,  avg # of iterations =  2.0

     total cpu time spent up to now is     1997.9 secs

     total energy              =  -14578.49360241 Ry
     Harris-Foulkes estimate   =  -14578.54128436 Ry
     estimated scf accuracy    <       0.42458974 Ry

     iteration # 19     ecut=    40.00 Ry     beta=0.70
     Davidson diagonalization with overlap
     ethr =  3.22E-05,  avg # of iterations =  2.0

     total cpu time spent up to now is     2057.7 secs

     total energy              =  -14578.46824046 Ry
     Harris-Foulkes estimate   =  -14578.57603078 Ry
     estimated scf accuracy    <       0.92114212 Ry

     iteration # 20     ecut=    40.00 Ry     beta=0.70
     Davidson diagonalization with overlap
     ethr =  3.22E-05,  avg # of iterations =  2.0

     total cpu time spent up to now is     2117.2 secs

     total energy              =  -14578.51064535 Ry
     Harris-Foulkes estimate   =  -14578.52910829 Ry
     estimated scf accuracy    <       0.10411487 Ry

     iteration # 21     ecut=    40.00 Ry     beta=0.70
     Davidson diagonalization with overlap
     ethr =  7.89E-06,  avg # of iterations =  2.5

     negative rho (up, down):  3.159E-05 0.000E+00

     total cpu time spent up to now is     2181.3 secs

     total energy              =  -14578.51903836 Ry
     Harris-Foulkes estimate   =  -14578.52445966 Ry
     estimated scf accuracy    <       0.03756430 Ry

     iteration # 22     ecut=    40.00 Ry     beta=0.70
     Davidson diagonalization with overlap
     ethr =  2.85E-06,  avg # of iterations =  5.5

     negative rho (up, down):  3.090E-08 0.000E+00

     total cpu time spent up to now is     2264.9 secs

     total energy              =  -14578.51868603 Ry
     Harris-Foulkes estimate   =  -14578.52600990 Ry
     estimated scf accuracy    <       0.05931495 Ry

     iteration # 23     ecut=    40.00 Ry     beta=0.70
     Davidson diagonalization with overlap
     ethr =  2.85E-06,  avg # of iterations =  2.8

     negative rho (up, down):  2.833E-06 0.000E+00

     total cpu time spent up to now is     2329.0 secs

     total energy              =  -14578.52154377 Ry
     Harris-Foulkes estimate   =  -14578.52276344 Ry
     estimated scf accuracy    <       0.00655428 Ry

     iteration # 24     ecut=    40.00 Ry     beta=0.70
     Davidson diagonalization with overlap
     ethr =  4.97E-07,  avg # of iterations =  2.8

     negative rho (up, down):  9.746E-05 0.000E+00

     total cpu time spent up to now is     2395.0 secs

     total energy              =  -14578.52038457 Ry
     Harris-Foulkes estimate   =  -14578.52307510 Ry
     estimated scf accuracy    <       0.01057083 Ry

     iteration # 25     ecut=    40.00 Ry     beta=0.70
     Davidson diagonalization with overlap
     ethr =  4.97E-07,  avg # of iterations =  3.5

     negative rho (up, down):  1.547E-04 0.000E+00

     total cpu time spent up to now is     2503.4 secs

     total energy              =  -14578.51493954 Ry
     Harris-Foulkes estimate   =  -14578.52995978 Ry
     estimated scf accuracy    <       0.11757321 Ry

     iteration # 26     ecut=    40.00 Ry     beta=0.70
     Davidson diagonalization with overlap
     ethr =  4.97E-07,  avg # of iterations =  3.5

     negative rho (up, down):  2.488E-04 0.000E+00

     total cpu time spent up to now is     2599.4 secs

     total energy              =  -14578.52212073 Ry
     Harris-Foulkes estimate   =  -14578.52256564 Ry
     estimated scf accuracy    <       0.00247630 Ry

     iteration # 27     ecut=    40.00 Ry     beta=0.70
     Davidson diagonalization with overlap
     ethr =  1.88E-07,  avg # of iterations =  1.0

     negative rho (up, down):  3.356E-04 0.000E+00

     total cpu time spent up to now is     2653.1 secs

     total energy              =  -14578.52230836 Ry
     Harris-Foulkes estimate   =  -14578.52237393 Ry
     estimated scf accuracy    <       0.00019999 Ry

     iteration # 28     ecut=    40.00 Ry     beta=0.70
     Davidson diagonalization with overlap
     ethr =  1.52E-08,  avg # of iterations =  3.0

     negative rho (up, down):  5.099E-04 0.000E+00

     total cpu time spent up to now is     2741.7 secs

     total energy              =  -14578.52221610 Ry
     Harris-Foulkes estimate   =  -14578.52250017 Ry
     estimated scf accuracy    <       0.00372719 Ry

     iteration # 29     ecut=    40.00 Ry     beta=0.70
     Davidson diagonalization with overlap
     ethr =  1.52E-08,  avg # of iterations =  3.0

     negative rho (up, down):  6.873E-04 0.000E+00

     total cpu time spent up to now is     2810.1 secs

     total energy              =  -14578.52232871 Ry
     Harris-Foulkes estimate   =  -14578.52239422 Ry
     estimated scf accuracy    <       0.00044390 Ry

     iteration # 30     ecut=    40.00 Ry     beta=0.70
     Davidson diagonalization with overlap
     ethr =  1.52E-08,  avg # of iterations =  2.0

     negative rho (up, down):  7.392E-04 0.000E+00

     total cpu time spent up to now is     2871.0 secs

     total energy              =  -14578.52234744 Ry
     Harris-Foulkes estimate   =  -14578.52238005 Ry
     estimated scf accuracy    <       0.00023425 Ry

     iteration # 31     ecut=    40.00 Ry     beta=0.70
     Davidson diagonalization with overlap
     ethr =  1.52E-08,  avg # of iterations =  2.0

     negative rho (up, down):  8.252E-04 0.000E+00

     total cpu time spent up to now is     2930.5 secs

     total energy              =  -14578.52235725 Ry
     Harris-Foulkes estimate   =  -14578.52237031 Ry
     estimated scf accuracy    <       0.00007583 Ry

     iteration # 32     ecut=    40.00 Ry     beta=0.70
     Davidson diagonalization with overlap
     ethr =  5.74E-09,  avg # of iterations =  2.0

     negative rho (up, down):  9.071E-04 0.000E+00

     total cpu time spent up to now is     2991.5 secs

     total energy              =  -14578.52235457 Ry
     Harris-Foulkes estimate   =  -14578.52237448 Ry
     estimated scf accuracy    <       0.00012482 Ry

     iteration # 33     ecut=    40.00 Ry     beta=0.70
     Davidson diagonalization with overlap
     ethr =  5.74E-09,  avg # of iterations =  2.0

     negative rho (up, down):  9.493E-04 0.000E+00

     total cpu time spent up to now is     3052.1 secs

     total energy              =  -14578.52235939 Ry
     Harris-Foulkes estimate   =  -14578.52237012 Ry
     estimated scf accuracy    <       0.00008604 Ry

     iteration # 34     ecut=    40.00 Ry     beta=0.70
     Davidson diagonalization with overlap
     ethr =  5.74E-09,  avg # of iterations =  2.0

     negative rho (up, down):  9.828E-04 0.000E+00

     total cpu time spent up to now is     3111.3 secs

     total energy              =  -14578.52236266 Ry
     Harris-Foulkes estimate   =  -14578.52236683 Ry
     estimated scf accuracy    <       0.00002042 Ry

     iteration # 35     ecut=    40.00 Ry     beta=0.70
     Davidson diagonalization with overlap
     ethr =  1.55E-09,  avg # of iterations =  2.0

     negative rho (up, down):  1.035E-03 0.000E+00

     total cpu time spent up to now is     3173.0 secs

     total energy              =  -14578.52236158 Ry
     Harris-Foulkes estimate   =  -14578.52236743 Ry
     estimated scf accuracy    <       0.00003634 Ry

     iteration # 36     ecut=    40.00 Ry     beta=0.70
     Davidson diagonalization with overlap
     ethr =  1.55E-09,  avg # of iterations =  2.8

     negative rho (up, down):  1.059E-03 0.000E+00

     total cpu time spent up to now is     3239.0 secs

     total energy              =  -14578.52236124 Ry
     Harris-Foulkes estimate   =  -14578.52236846 Ry
     estimated scf accuracy    <       0.00004874 Ry

     iteration # 37     ecut=    40.00 Ry     beta=0.70
     Davidson diagonalization with overlap
     ethr =  1.55E-09,  avg # of iterations =  2.0

     negative rho (up, down):  1.088E-03 0.000E+00

     total cpu time spent up to now is     3299.4 secs

     total energy              =  -14578.52236451 Ry
     Harris-Foulkes estimate   =  -14578.52236503 Ry
     estimated scf accuracy    <       0.00000169 Ry

     iteration # 38     ecut=    40.00 Ry     beta=0.70
     Davidson diagonalization with overlap
     ethr =  1.28E-10,  avg # of iterations =  3.0

     negative rho (up, down):  1.094E-03 0.000E+00

     total cpu time spent up to now is     3379.7 secs

     total energy              =  -14578.52236425 Ry
     Harris-Foulkes estimate   =  -14578.52236522 Ry
     estimated scf accuracy    <       0.00000857 Ry

     iteration # 39     ecut=    40.00 Ry     beta=0.70
     Davidson diagonalization with overlap
     ethr =  1.28E-10,  avg # of iterations =  3.0

     negative rho (up, down):  1.107E-03 0.000E+00

     total cpu time spent up to now is     3445.9 secs

     total energy              =  -14578.52236430 Ry
     Harris-Foulkes estimate   =  -14578.52236528 Ry
     estimated scf accuracy    <       0.00000993 Ry

     iteration # 40     ecut=    40.00 Ry     beta=0.70
     Davidson diagonalization with overlap
     ethr =  1.28E-10,  avg # of iterations =  2.8

     negative rho (up, down):  1.117E-03 0.000E+00

     total cpu time spent up to now is     3511.4 secs

     total energy              =  -14578.52236458 Ry
     Harris-Foulkes estimate   =  -14578.52236496 Ry
     estimated scf accuracy    <       0.00000259 Ry

     iteration # 41     ecut=    40.00 Ry     beta=0.70
     Davidson diagonalization with overlap
     ethr =  1.28E-10,  avg # of iterations =  2.0

     negative rho (up, down):  1.122E-03 0.000E+00

     total cpu time spent up to now is     3571.3 secs

     total energy              =  -14578.52236466 Ry
     Harris-Foulkes estimate   =  -14578.52236489 Ry
     estimated scf accuracy    <       0.00000152 Ry

     iteration # 42     ecut=    40.00 Ry     beta=0.70
     Davidson diagonalization with overlap
     ethr =  1.15E-10,  avg # of iterations =  2.0

     negative rho (up, down):  1.127E-03 0.000E+00

     total cpu time spent up to now is     3631.1 secs

     total energy              =  -14578.52236471 Ry
     Harris-Foulkes estimate   =  -14578.52236483 Ry
     estimated scf accuracy    <       0.00000056 Ry

     iteration # 43     ecut=    40.00 Ry     beta=0.70
     Davidson diagonalization with overlap
     ethr =  4.21E-11,  avg # of iterations =  2.0

     negative rho (up, down):  1.131E-03 0.000E+00

     total cpu time spent up to now is     3692.0 secs

     total energy              =  -14578.52236467 Ry
     Harris-Foulkes estimate   =  -14578.52236485 Ry
     estimated scf accuracy    <       0.00000143 Ry

     iteration # 44     ecut=    40.00 Ry     beta=0.70
     Davidson diagonalization with overlap
     ethr =  4.21E-11,  avg # of iterations =  2.2

     negative rho (up, down):  1.134E-03 0.000E+00

     total cpu time spent up to now is     3753.5 secs

     total energy              =  -14578.52236470 Ry
     Harris-Foulkes estimate   =  -14578.52236482 Ry
     estimated scf accuracy    <       0.00000073 Ry

     iteration # 45     ecut=    40.00 Ry     beta=0.70
     Davidson diagonalization with overlap
     ethr =  4.21E-11,  avg # of iterations =  2.0

     negative rho (up, down):  1.135E-03 0.000E+00

     total cpu time spent up to now is     3813.6 secs

     total energy              =  -14578.52236472 Ry
     Harris-Foulkes estimate   =  -14578.52236478 Ry
     estimated scf accuracy    <       0.00000038 Ry

     iteration # 46     ecut=    40.00 Ry     beta=0.70
     Davidson diagonalization with overlap
     ethr =  2.91E-11,  avg # of iterations =  2.0

     negative rho (up, down):  1.137E-03 0.000E+00

     total cpu time spent up to now is     3873.9 secs

     total energy              =  -14578.52236472 Ry
     Harris-Foulkes estimate   =  -14578.52236477 Ry
     estimated scf accuracy    <       0.00000035 Ry

     iteration # 47     ecut=    40.00 Ry     beta=0.70
     Davidson diagonalization with overlap
     ethr =  2.63E-11,  avg # of iterations =  2.0

     negative rho (up, down):  1.139E-03 0.000E+00

     total cpu time spent up to now is     3933.3 secs

     total energy              =  -14578.52236473 Ry
     Harris-Foulkes estimate   =  -14578.52236476 Ry
     estimated scf accuracy    <       0.00000016 Ry

     iteration # 48     ecut=    40.00 Ry     beta=0.70
     Davidson diagonalization with overlap
     ethr =  1.23E-11,  avg # of iterations =  2.0

     negative rho (up, down):  1.140E-03 0.000E+00

     total cpu time spent up to now is     3994.3 secs

     total energy              =  -14578.52236472 Ry
     Harris-Foulkes estimate   =  -14578.52236476 Ry
     estimated scf accuracy    <       0.00000026 Ry

     iteration # 49     ecut=    40.00 Ry     beta=0.70
     Davidson diagonalization with overlap
     ethr =  1.23E-11,  avg # of iterations =  2.8

     negative rho (up, down):  1.141E-03 0.000E+00

     total cpu time spent up to now is     4058.5 secs

     total energy              =  -14578.52236472 Ry
     Harris-Foulkes estimate   =  -14578.52236476 Ry
     estimated scf accuracy    <       0.00000044 Ry

     iteration # 50     ecut=    40.00 Ry     beta=0.70
     Davidson diagonalization with overlap
     ethr =  1.23E-11,  avg # of iterations =  2.0

     negative rho (up, down):  1.141E-03 0.000E+00

     total cpu time spent up to now is     4118.8 secs

     total energy              =  -14578.52236472 Ry
     Harris-Foulkes estimate   =  -14578.52236475 Ry
     estimated scf accuracy    <       0.00000024 Ry

     iteration # 51     ecut=    40.00 Ry     beta=0.70
     Davidson diagonalization with overlap
     ethr =  1.23E-11,  avg # of iterations =  2.0

     negative rho (up, down):  1.142E-03 0.000E+00

     total cpu time spent up to now is     4178.7 secs

     total energy              =  -14578.52236473 Ry
     Harris-Foulkes estimate   =  -14578.52236475 Ry
     estimated scf accuracy    <       0.00000013 Ry

     iteration # 52     ecut=    40.00 Ry     beta=0.70
     Davidson diagonalization with overlap
     ethr =  9.81E-12,  avg # of iterations =  2.0

     negative rho (up, down):  1.142E-03 0.000E+00

     total cpu time spent up to now is     4238.5 secs

     total energy              =  -14578.52236473 Ry
     Harris-Foulkes estimate   =  -14578.52236474 Ry
     estimated scf accuracy    <       0.00000007 Ry

     iteration # 53     ecut=    40.00 Ry     beta=0.70
     Davidson diagonalization with overlap
     ethr =  5.51E-12,  avg # of iterations =  2.0

     negative rho (up, down):  1.142E-03 0.000E+00

     total cpu time spent up to now is     4298.6 secs

     total energy              =  -14578.52236473 Ry
     Harris-Foulkes estimate   =  -14578.52236474 Ry
     estimated scf accuracy    <       0.00000008 Ry

     iteration # 54     ecut=    40.00 Ry     beta=0.70
     Davidson diagonalization with overlap
     ethr =  5.51E-12,  avg # of iterations =  2.2

     negative rho (up, down):  1.143E-03 0.000E+00

     total cpu time spent up to now is     4360.0 secs

     total energy              =  -14578.52236473 Ry
     Harris-Foulkes estimate   =  -14578.52236474 Ry
     estimated scf accuracy    <       0.00000006 Ry

     iteration # 55     ecut=    40.00 Ry     beta=0.70
     Davidson diagonalization with overlap
     ethr =  4.36E-12,  avg # of iterations =  2.0

     negative rho (up, down):  1.143E-03 0.000E+00

     total cpu time spent up to now is     4420.8 secs

     total energy              =  -14578.52236473 Ry
     Harris-Foulkes estimate   =  -14578.52236474 Ry
     estimated scf accuracy    <       0.00000010 Ry

     iteration # 56     ecut=    40.00 Ry     beta=0.70
     Davidson diagonalization with overlap
     ethr =  4.36E-12,  avg # of iterations =  2.0

     negative rho (up, down):  1.143E-03 0.000E+00

     total cpu time spent up to now is     4482.0 secs

     total energy              =  -14578.52236473 Ry
     Harris-Foulkes estimate   =  -14578.52236474 Ry
     estimated scf accuracy    <       0.00000010 Ry

     iteration # 57     ecut=    40.00 Ry     beta=0.70
     Davidson diagonalization with overlap
     ethr =  4.36E-12,  avg # of iterations =  2.0

     negative rho (up, down):  1.143E-03 0.000E+00

     total cpu time spent up to now is     4542.0 secs

     total energy              =  -14578.52236473 Ry
     Harris-Foulkes estimate   =  -14578.52236474 Ry
     estimated scf accuracy    <       0.00000003 Ry

     iteration # 58     ecut=    40.00 Ry     beta=0.70
     Davidson diagonalization with overlap
     ethr =  2.22E-12,  avg # of iterations =  2.0

     negative rho (up, down):  1.143E-03 0.000E+00

     total cpu time spent up to now is     4602.7 secs

     total energy              =  -14578.52236473 Ry
     Harris-Foulkes estimate   =  -14578.52236474 Ry
     estimated scf accuracy    <       0.00000004 Ry

     iteration # 59     ecut=    40.00 Ry     beta=0.70
     Davidson diagonalization with overlap
     ethr =  2.22E-12,  avg # of iterations =  2.8

     negative rho (up, down):  1.143E-03 0.000E+00

     total cpu time spent up to now is     4667.2 secs

     total energy              =  -14578.52236473 Ry
     Harris-Foulkes estimate   =  -14578.52236474 Ry
     estimated scf accuracy    <       0.00000012 Ry

     iteration # 60     ecut=    40.00 Ry     beta=0.70
     Davidson diagonalization with overlap
     ethr =  2.22E-12,  avg # of iterations =  2.2

     negative rho (up, down):  1.143E-03 0.000E+00

     total cpu time spent up to now is     4728.7 secs

     total energy              =  -14578.52236473 Ry
     Harris-Foulkes estimate   =  -14578.52236474 Ry
     estimated scf accuracy    <       0.00000004 Ry

     iteration # 61     ecut=    40.00 Ry     beta=0.70
     Davidson diagonalization with overlap
     ethr =  2.22E-12,  avg # of iterations =  2.0

     negative rho (up, down):  1.143E-03 0.000E+00

     total cpu time spent up to now is     4788.9 secs

     total energy              =  -14578.52236473 Ry
     Harris-Foulkes estimate   =  -14578.52236474 Ry
     estimated scf accuracy    <       0.00000005 Ry

     iteration # 62     ecut=    40.00 Ry     beta=0.70
     Davidson diagonalization with overlap
     ethr =  2.22E-12,  avg # of iterations =  2.0

     negative rho (up, down):  1.144E-03 0.000E+00

     total cpu time spent up to now is     4848.9 secs

     total energy              =  -14578.52236473 Ry
     Harris-Foulkes estimate   =  -14578.52236474 Ry
     estimated scf accuracy    <       0.00000002 Ry

     iteration # 63     ecut=    40.00 Ry     beta=0.70
     Davidson diagonalization with overlap
     ethr =  1.49E-12,  avg # of iterations =  2.0

     negative rho (up, down):  1.144E-03 0.000E+00

     total cpu time spent up to now is     4909.5 secs

     total energy              =  -14578.52236473 Ry
     Harris-Foulkes estimate   =  -14578.52236474 Ry
     estimated scf accuracy    <       0.00000004 Ry

     iteration # 64     ecut=    40.00 Ry     beta=0.70
     Davidson diagonalization with overlap
     ethr =  1.49E-12,  avg # of iterations =  2.2

     negative rho (up, down):  1.144E-03 0.000E+00

     total cpu time spent up to now is     4971.2 secs

     total energy              =  -14578.52236473 Ry
     Harris-Foulkes estimate   =  -14578.52236474 Ry
     estimated scf accuracy    <       0.00000003 Ry

     iteration # 65     ecut=    40.00 Ry     beta=0.70
     Davidson diagonalization with overlap
     ethr =  1.49E-12,  avg # of iterations =  2.0

     negative rho (up, down):  1.144E-03 0.000E+00

     total cpu time spent up to now is     5031.6 secs

     total energy              =  -14578.52236473 Ry
     Harris-Foulkes estimate   =  -14578.52236474 Ry
     estimated scf accuracy    <       0.00000002 Ry

     iteration # 66     ecut=    40.00 Ry     beta=0.70
     Davidson diagonalization with overlap
     ethr =  1.25E-12,  avg # of iterations =  2.0

     negative rho (up, down):  1.144E-03 0.000E+00

     total cpu time spent up to now is     5092.0 secs

     total energy              =  -14578.52236473 Ry
     Harris-Foulkes estimate   =  -14578.52236474 Ry
     estimated scf accuracy    <       0.00000002 Ry

     iteration # 67     ecut=    40.00 Ry     beta=0.70
     Davidson diagonalization with overlap
     ethr =  1.25E-12,  avg # of iterations =  2.0

     negative rho (up, down):  1.144E-03 0.000E+00

     total cpu time spent up to now is     5152.0 secs

     total energy              =  -14578.52236473 Ry
     Harris-Foulkes estimate   =  -14578.52236474 Ry
     estimated scf accuracy    <       0.00000002 Ry

     iteration # 68     ecut=    40.00 Ry     beta=0.70
     Davidson diagonalization with overlap
     ethr =  1.21E-12,  avg # of iterations =  2.0

     negative rho (up, down):  1.144E-03 0.000E+00

     total cpu time spent up to now is     5212.4 secs

     total energy              =  -14578.52236473 Ry
     Harris-Foulkes estimate   =  -14578.52236474 Ry
     estimated scf accuracy    <       0.00000002 Ry

     iteration # 69     ecut=    40.00 Ry     beta=0.70
     Davidson diagonalization with overlap
     ethr =  1.21E-12,  avg # of iterations =  2.5

     negative rho (up, down):  1.144E-03 0.000E+00

     total cpu time spent up to now is     5275.1 secs

     total energy              =  -14578.52236473 Ry
     Harris-Foulkes estimate   =  -14578.52236474 Ry
     estimated scf accuracy    <       0.00000004 Ry

     iteration # 70     ecut=    40.00 Ry     beta=0.70
     Davidson diagonalization with overlap
     ethr =  1.21E-12,  avg # of iterations =  2.0

     negative rho (up, down):  1.144E-03 0.000E+00

     total cpu time spent up to now is     5335.1 secs

     total energy              =  -14578.52236473 Ry
     Harris-Foulkes estimate   =  -14578.52236474 Ry
     estimated scf accuracy    <       0.00000002 Ry

     iteration # 71     ecut=    40.00 Ry     beta=0.70
     Davidson diagonalization with overlap
     ethr =  1.21E-12,  avg # of iterations =  2.0

     negative rho (up, down):  1.144E-03 0.000E+00

     total cpu time spent up to now is     5395.3 secs

     total energy              =  -14578.52236473 Ry
     Harris-Foulkes estimate   =  -14578.52236474 Ry
     estimated scf accuracy    <       0.00000002 Ry

     iteration # 72     ecut=    40.00 Ry     beta=0.70
     Davidson diagonalization with overlap
     ethr =  1.21E-12,  avg # of iterations =  2.0

     negative rho (up, down):  1.144E-03 0.000E+00

     total cpu time spent up to now is     5455.3 secs

     total energy              =  -14578.52236473 Ry
     Harris-Foulkes estimate   =  -14578.52236474 Ry
     estimated scf accuracy    <       0.00000001 Ry

     iteration # 73     ecut=    40.00 Ry     beta=0.70
     Davidson diagonalization with overlap
     ethr =  1.10E-12,  avg # of iterations =  2.0

     negative rho (up, down):  1.144E-03 0.000E+00

     total cpu time spent up to now is     5515.3 secs

     total energy              =  -14578.52236473 Ry
     Harris-Foulkes estimate   =  -14578.52236474 Ry
     estimated scf accuracy    <       0.00000001 Ry

     iteration # 74     ecut=    40.00 Ry     beta=0.70
     Davidson diagonalization with overlap
     ethr =  9.49E-13,  avg # of iterations =  2.0

     negative rho (up, down):  1.144E-03 0.000E+00

     total cpu time spent up to now is     5574.8 secs

     End of self-consistent calculation

          k = 0.0000 0.0000 0.0000 (115097 PWs)   bands (ev):

    -7.3120  -6.6255  -6.6255  -6.1941  -6.0391  -6.0391  -5.5362  -5.5362
    -5.4145  -5.4145  -5.4145  -5.4145  -5.0144  -5.0144  -4.9319  -4.9319
    -4.5168  -4.4874  -4.4873  -4.4873  -4.4873  -4.0091  -3.9887  -3.9887
    -3.9812  -3.9812  -3.9513  -3.9513  -3.9513  -3.9513  -3.4997  -3.4997
    -3.4574  -3.4058  -3.4044  -3.4044  -3.4044  -3.4044  -3.3759  -3.3759
    -3.3537  -3.3537  -3.3537  -3.3537  -3.3524  -3.3524  -3.3524  -3.3524
    -3.3014  -3.3014  -3.2848  -3.2836  -3.2836  -3.2746  -3.2746  -3.2746
    -3.2746  -3.2567  -3.2567  -3.2228  -3.2146  -3.2146  -3.1271  -3.1271
    -3.0926  -3.0926  -3.0926  -3.0926  -2.9894  -2.9894  -2.9675  -2.9675
    -2.9528  -2.9109  -2.9109  -2.8978  -2.8978  -2.8978  -2.8978  -2.8671
    -2.8671  -2.8644  -2.8644  -2.8125  -2.8125  -2.7611  -2.7590  -2.7590
    -2.7590  -2.7590  -2.7562  -2.7562  -2.7562  -2.7562  -2.7409  -2.7106
    -2.7106  -2.7106  -2.7106  -2.6553  -2.6553  -2.6537  -2.6537  -2.6390
    -2.6390  -2.6390  -2.6390  -2.6358  -2.6358  -2.6096  -2.6096  -2.5826
    -2.5826  -2.5826  -2.5826  -2.5687  -2.5654  -2.5654  -2.5653  -2.5653
    -2.5491  -2.5491  -2.5248  -2.5248  -2.5223  -2.5223  -2.5223  -2.5223
    -2.5162  -2.5162  -2.5112  -2.5112  -2.5080  -2.5080  -2.4962  -2.4962
    -2.4504  -2.4504  -2.4504  -2.4504  -2.4450  -2.4450  -2.4297  -2.4297
    -2.4297  -2.4297  -2.4132  -2.4132  -2.4132  -2.4132  -2.4084  -2.4084
    -2.3967  -2.3607  -2.3594  -2.3594  -2.3594  -2.3594  -2.3583  -2.3583
    -2.3540  -2.3540  -2.3540  -2.3540  -2.3527  -2.3470  -2.3470  -2.3470
    -2.3470  -2.3245  -2.3245  -2.3245  -2.3245  -2.3155  -2.3155  -2.3137
    -2.3137  -2.3107  -2.3107  -2.2676  -2.2676  -2.2676  -2.2676  -2.2646
    -2.2646  -2.2602  -2.2602  -2.2602  -2.2602  -2.2218  -2.2218  -2.2097
    -2.2097  -2.2090  -2.2090  -2.2035  -2.2035  -2.2035  -2.2035  -2.1992
    -2.1992  -2.1631  -2.1195  -2.1195  -2.1158  -2.1158  -2.1158  -2.1158
    -2.1121  -2.1121  -2.1121  -2.1121  -2.0784  -2.0784  -2.0733  -2.0733
    -2.0106  -1.9917  -1.9917  -1.9907  -1.9907  -1.9784  -1.9784  -1.9757
    -1.9757  -1.9757  -1.9757  -1.9648  -1.9648  -1.9209  -1.9209  -1.9050
    -1.9050  -1.9050  -1.9050  -1.8651  -1.8651  -1.8329  -1.8278  -1.8278
    -1.8278  -1.8278  -1.8062  -1.7907  -1.7907  -1.7893  -1.7893  -1.7712
    -1.7712  -1.7361  -1.7361  -1.7326  -1.7326  -1.7309  -1.7224  -1.7131
    -1.7131  -1.7016  -1.7016  -1.7016  -1.7016  -1.6865  -1.6865  -1.6865
    -1.6865  -1.5815  -1.5815  -1.5815  -1.5815  -1.5807  -1.5807  -1.5326
    -1.5326  -1.5326  -1.5326  -1.5015  -1.5012  -1.5012  -1.4932  -1.4932
    -1.4583  -1.4583  -1.4583  -1.4582  -1.4538  -1.4538  -1.4538  -1.4538
    -1.4144  -1.4144  -1.4091  -1.4091  -1.3907  -1.3907  -1.3510  -1.3510
    -1.3510  -1.3510  -1.3190  -1.3189  -1.3189  -1.3187  -1.3187  -1.3187
    -1.3187  -1.3017  -1.2573  -1.2573  -1.2573  -1.2573  -1.2401  -1.2401
    -1.2400  -1.2400  -1.2373  -1.2335  -1.2335  -1.2324  -1.2324  -1.2324
    -1.2324  -1.2124  -1.2034  -1.2034  -1.2012  -1.2012  -1.2012  -1.2012
    -1.1821  -1.1821  -1.1718  -1.1718  -1.1646  -1.1646  -1.1524  -1.1219
    -1.1219  -1.1113  -1.1113  -1.1030  -1.1030  -1.1018  -1.1003  -1.1003
    -1.0830  -1.0830  -1.0825  -1.0825  -1.0815  -1.0811  -1.0811  -1.0774
    -1.0773  -1.0134  -1.0134  -1.0042  -0.9942  -0.9942  -0.9628  -0.9628
    -0.9616  -0.9616  -0.9542  -0.9391  -0.9391  -0.9365  -0.9365  -0.9365
    -0.9365  -0.9278  -0.9278  -0.9178  -0.9178  -0.9084  -0.8935  -0.8935
    -0.8935  -0.8935  -0.8866  -0.8866  -0.8688  -0.8688  -0.8535  -0.8352
    -0.8352  -0.8352  -0.8352  -0.8324  -0.8324  -0.8307  -0.8307  -0.8235
    -0.8235  -0.8235  -0.8235  -0.8146  -0.8067  -0.8067  -0.8004  -0.8004
    -0.7997  -0.7997  -0.7992  -0.7992  -0.7804  -0.7804  -0.7804  -0.7767
    -0.7748  -0.7748  -0.7748  -0.7748  -0.7711  -0.7711  -0.7711  -0.7711
    -0.7698  -0.7579  -0.7579  -0.7579  -0.7579  -0.7391  -0.7391  -0.7391
    -0.7391  -0.7359  -0.7126  -0.7126  -0.7115  -0.7115  -0.7115  -0.7115
    -0.6941  -0.6941  -0.6904  -0.6904  -0.6887  -0.6887  -0.6887  -0.6887
    -0.6858  -0.6858  -0.6816  -0.6816  -0.6647  -0.6647  -0.6647  -0.6647
    -0.6414  -0.6414  -0.6414  -0.6414  -0.6293  -0.6293  -0.6117  -0.6083
    -0.6083  -0.6065  -0.6065  -0.6065  -0.6065  -0.6043  -0.6043  -0.6043
    -0.6043  -0.6033  -0.5911  -0.5911  -0.5826  -0.5826  -0.5697  -0.5697
    -0.5484  -0.5484  -0.5370  -0.5370  -0.5370  -0.5370  -0.5337  -0.5337
    -0.5337  -0.5337  -0.5336  -0.5336  -0.5289  -0.5289  -0.5258  -0.5256
    -0.5256  -0.5256  -0.5256  -0.5217  -0.5217  -0.5101  -0.4933  -0.4933
    -0.4933  -0.4933  -0.4768  -0.4768  -0.4743  -0.4743  -0.4743  -0.4743
    -0.4742  -0.4742  -0.4579  -0.4579  -0.4579  -0.4579  -0.4565  -0.4511
    -0.4511  -0.4511  -0.4511  -0.4500  -0.4500  -0.4468  -0.4393  -0.4393
    -0.4384  -0.4384  -0.4294  -0.4294  -0.4294  -0.4294  -0.4287  -0.4286
    -0.4276  -0.4276  -0.4105  -0.4105  -0.4105  -0.4105  -0.4065  -0.4065
    -0.4065  -0.4065  -0.4017  -0.4017  -0.4016  -0.4016  -0.3942  -0.3942
    -0.3903  -0.3901  -0.3901  -0.3866  -0.3770  -0.3770  -0.3770  -0.3770
    -0.3740  -0.3708  -0.3708  -0.3681  -0.3681  -0.3670  -0.3670  -0.3669
    -0.3669  -0.3503  -0.3503  -0.3439  -0.3439  -0.3439  -0.3439  -0.3402
    -0.3402  -0.3150  -0.3150  -0.3110  -0.3110  -0.3110  -0.3110  -0.2968
    -0.2968  -0.2929  -0.2929  -0.2929  -0.2929  -0.2928  -0.2928  -0.2924
    -0.2924  -0.2924  -0.2924  -0.2809  -0.2809  -0.2225  -0.2225  -0.2225
    -0.2225  -0.2107  -0.2107  -0.2107  -0.2107  -0.1945  -0.1640  -0.1640
    -0.1542  -0.1542  -0.1542  -0.1542  -0.1531  -0.1515  -0.1474  -0.1474
    -0.1355  -0.1241  -0.1241  -0.1241  -0.1241  -0.1080  -0.1080  -0.0664
    -0.0664  -0.0599  -0.0598  -0.0391  -0.0018  -0.0018   0.1253   0.1253
     0.1253   0.1253   0.1672   0.2854   0.2854   0.2854   0.2854   0.3376
     0.3376   0.3688   0.3836   0.3836   0.4074   0.4074   0.4182   0.5250
     0.5250   0.5250   0.5250   0.6340   0.6340   0.6349   0.6349   0.9322
     0.9322   0.9322   0.9322   1.1372   1.1372   1.2318   1.2318   1.2318
     1.2318   1.2919   1.2919   1.4708   1.4708   1.4708   1.4709   1.4907
     1.6670   1.6670   1.6670   1.6670   1.7376   2.0201   2.0201   2.0201
     2.0201   2.2186   2.2186   2.3362   2.3362   2.3587   2.3587   2.5749
     2.5912   2.5912   2.7494   2.7494   2.7494   2.7494   2.7723   2.7931
     2.7931   2.7931   2.7931   2.9576   2.9576   2.9943   3.2692   3.2692
     3.3881   3.3881   3.3881   3.3881   3.4956   3.4956   3.5862   3.5862
     3.7276   3.8095   3.8095   3.8735   3.8735   3.8735   3.8735   3.8894
     4.1450   4.1450   4.4747   4.4747   4.6523   4.6523   4.9485   4.9485
     5.2506   5.2506   5.3665   5.3665   5.4252   5.5884   5.5884   5.5884
     5.5884   5.7240   5.7240   5.7240   5.7240   5.7689   5.9563   5.9563
     5.9563   5.9563   5.9679   5.9679   5.9811   5.9811   5.9811   5.9811
     6.0068   6.0908   6.1586   6.1586   6.2159   6.2159   6.3055   6.3055
     6.4588   6.4588   6.6072   6.8124   6.8124   6.8245   6.8245   7.0017
     7.0021   7.0433   7.0433   7.0434   7.0434   7.1369   7.1369   7.1805
     7.1805   7.2743   7.2743   7.2751   7.2751   7.3972   7.3972   7.4075
     7.4106   7.4114   7.4375   7.4375   7.4375   7.4375   7.5908   7.5908
     7.5909   7.5909   7.6443   7.6443   7.6667   7.6667   7.6672   7.6672

          k = 0.0000-0.6667 0.0000 (115142 PWs)   bands (ev):

    -6.9840  -6.9840  -6.3090  -6.3090  -6.3089  -6.3089  -5.8831  -5.8831
    -5.2475  -5.2475  -5.2475  -5.2475  -4.6566  -4.6566  -4.6566  -4.6566
    -4.6495  -4.6495  -4.2288  -4.2288  -4.1936  -4.1936  -4.1936  -4.1936
    -3.8980  -3.8980  -3.7830  -3.7829  -3.7823  -3.7823  -3.7823  -3.7823
    -3.7426  -3.7425  -3.7425  -3.7425  -3.7003  -3.7003  -3.7003  -3.7003
    -3.3383  -3.3383  -3.3383  -3.3383  -3.2790  -3.2790  -3.2790  -3.2790
    -3.2688  -3.2688  -3.1554  -3.1554  -3.1552  -3.1552  -3.1444  -3.1444
    -3.1444  -3.1444  -3.1257  -3.1256  -3.1256  -3.1256  -3.1253  -3.1253
    -3.1253  -3.1253  -3.0646  -3.0646  -3.0451  -3.0451  -3.0056  -3.0056
    -2.9802  -2.9802  -2.9802  -2.9802  -2.9769  -2.9769  -2.9079  -2.9079
    -2.9079  -2.9079  -2.8976  -2.8976  -2.8976  -2.8976  -2.8674  -2.8674
    -2.7933  -2.7933  -2.7303  -2.7303  -2.7281  -2.7281  -2.7280  -2.7280
    -2.7172  -2.7172  -2.7172  -2.7172  -2.6600  -2.6600  -2.6600  -2.6600
    -2.6511  -2.6510  -2.6145  -2.6145  -2.6086  -2.6086  -2.5754  -2.5754
    -2.5612  -2.5612  -2.5612  -2.5612  -2.5517  -2.5517  -2.5517  -2.5517
    -2.5497  -2.5497  -2.5497  -2.5497  -2.5347  -2.5347  -2.5158  -2.5157
    -2.5157  -2.5157  -2.4987  -2.4987  -2.4868  -2.4868  -2.4868  -2.4868
    -2.4750  -2.4750  -2.4750  -2.4750  -2.4668  -2.4668  -2.4668  -2.4668
    -2.4269  -2.4269  -2.4250  -2.4250  -2.4250  -2.4250  -2.4168  -2.4168
    -2.3871  -2.3871  -2.3762  -2.3762  -2.3555  -2.3555  -2.3555  -2.3555
    -2.3468  -2.3468  -2.3354  -2.3354  -2.3036  -2.3036  -2.2935  -2.2935
    -2.2915  -2.2915  -2.2915  -2.2915  -2.2610  -2.2610  -2.2610  -2.2610
    -2.2443  -2.2443  -2.2443  -2.2443  -2.2262  -2.2262  -2.2262  -2.2262
    -2.2243  -2.2243  -2.2160  -2.2160  -2.2160  -2.2160  -2.2140  -2.2140
    -2.2140  -2.2140  -2.1953  -2.1953  -2.1873  -2.1873  -2.1873  -2.1873
    -2.1802  -2.1802  -2.1676  -2.1676  -2.1190  -2.1190  -2.1190  -2.1189
    -2.0794  -2.0794  -2.0794  -2.0794  -2.0686  -2.0686  -2.0686  -2.0686
    -2.0608  -2.0608  -2.0090  -2.0090  -2.0090  -2.0090  -1.9765  -1.9765
    -1.9488  -1.9488  -1.9488  -1.9488  -1.9339  -1.9339  -1.9222  -1.9222
    -1.8775  -1.8775  -1.8375  -1.8375  -1.8374  -1.8374  -1.8275  -1.8275
    -1.8211  -1.8211  -1.8211  -1.8211  -1.8193  -1.8193  -1.7691  -1.7691
    -1.7331  -1.7331  -1.7331  -1.7331  -1.7057  -1.7057  -1.6977  -1.6977
    -1.6977  -1.6977  -1.6811  -1.6811  -1.6811  -1.6811  -1.6756  -1.6756
    -1.6196  -1.6196  -1.6196  -1.6196  -1.5538  -1.5538  -1.5538  -1.5538
    -1.5361  -1.5361  -1.5326  -1.5326  -1.4727  -1.4727  -1.4727  -1.4727
    -1.4577  -1.4577  -1.4521  -1.4521  -1.4521  -1.4521  -1.4357  -1.4357
    -1.4274  -1.4274  -1.4274  -1.4274  -1.4148  -1.4148  -1.4005  -1.4005
    -1.3571  -1.3570  -1.3567  -1.3567  -1.3567  -1.3567  -1.3415  -1.3415
    -1.3415  -1.3415  -1.3248  -1.3248  -1.3051  -1.3051  -1.2445  -1.2445
    -1.2445  -1.2445  -1.2440  -1.2440  -1.2402  -1.2401  -1.2219  -1.2219
    -1.2219  -1.2219  -1.2029  -1.2029  -1.2009  -1.2009  -1.2009  -1.2009
    -1.1257  -1.1257  -1.1198  -1.1197  -1.1197  -1.1197  -1.0992  -1.0992
    -1.0992  -1.0992  -1.0862  -1.0862  -1.0862  -1.0862  -1.0857  -1.0857
    -1.0621  -1.0621  -1.0217  -1.0217  -1.0129  -1.0129  -1.0099  -1.0099
    -1.0099  -1.0099  -1.0048  -1.0048  -1.0014  -1.0014  -0.9910  -0.9910
    -0.9910  -0.9910  -0.9768  -0.9768  -0.9572  -0.9572  -0.9572  -0.9572
    -0.9186  -0.9186  -0.9069  -0.9069  -0.9069  -0.9069  -0.9026  -0.9026
    -0.9026  -0.9026  -0.8960  -0.8960  -0.8772  -0.8772  -0.8772  -0.8772
    -0.8629  -0.8629  -0.8629  -0.8629  -0.8143  -0.8143  -0.8088  -0.8088
    -0.8057  -0.8057  -0.8035  -0.8035  -0.7793  -0.7793  -0.7793  -0.7793
    -0.7784  -0.7784  -0.7784  -0.7784  -0.7781  -0.7781  -0.7781  -0.7781
    -0.7761  -0.7761  -0.7761  -0.7761  -0.7698  -0.7698  -0.7698  -0.7698
    -0.7596  -0.7596  -0.7568  -0.7568  -0.7374  -0.7374  -0.7374  -0.7374
    -0.7298  -0.7298  -0.7232  -0.7232  -0.7232  -0.7232  -0.6963  -0.6963
    -0.6853  -0.6852  -0.6852  -0.6852  -0.6688  -0.6688  -0.6688  -0.6688
    -0.6591  -0.6591  -0.6591  -0.6591  -0.6529  -0.6529  -0.6420  -0.6420
    -0.6325  -0.6325  -0.6325  -0.6325  -0.6224  -0.6224  -0.6224  -0.6224
    -0.6200  -0.6200  -0.6009  -0.6009  -0.6009  -0.6009  -0.5988  -0.5988
    -0.5868  -0.5868  -0.5728  -0.5728  -0.5728  -0.5728  -0.5598  -0.5598
    -0.5598  -0.5598  -0.5449  -0.5449  -0.5358  -0.5358  -0.5336  -0.5336
    -0.5336  -0.5336  -0.5272  -0.5272  -0.5268  -0.5268  -0.5267  -0.5267
    -0.5267  -0.5267  -0.5162  -0.5162  -0.5162  -0.5162  -0.5065  -0.5065
    -0.5064  -0.5064  -0.4959  -0.4959  -0.4884  -0.4884  -0.4757  -0.4757
    -0.4757  -0.4757  -0.4588  -0.4588  -0.4588  -0.4588  -0.4552  -0.4552
    -0.4552  -0.4552  -0.4490  -0.4490  -0.4490  -0.4490  -0.4376  -0.4376
    -0.4376  -0.4376  -0.4366  -0.4366  -0.4350  -0.4349  -0.4228  -0.4227
    -0.4218  -0.4218  -0.4216  -0.4216  -0.4175  -0.4175  -0.4175  -0.4175
    -0.4118  -0.4118  -0.4091  -0.4091  -0.4091  -0.4091  -0.4073  -0.4073
    -0.4073  -0.4073  -0.3944  -0.3944  -0.3927  -0.3927  -0.3927  -0.3927
    -0.3653  -0.3653  -0.3653  -0.3653  -0.3602  -0.3602  -0.3565  -0.3565
    -0.3565  -0.3565  -0.3342  -0.3342  -0.3253  -0.3253  -0.3253  -0.3253
    -0.3198  -0.3198  -0.3092  -0.3092  -0.2972  -0.2971  -0.2949  -0.2949
    -0.2949  -0.2949  -0.2940  -0.2940  -0.2940  -0.2940  -0.2569  -0.2569
    -0.2569  -0.2569  -0.2477  -0.2477  -0.2220  -0.2220  -0.2108  -0.2108
    -0.2062  -0.2062  -0.1876  -0.1875  -0.1567  -0.1567  -0.1567  -0.1567
    -0.1501  -0.1501  -0.1414  -0.1414  -0.1414  -0.1414  -0.1051  -0.1051
    -0.1051  -0.1051  -0.1016  -0.1016  -0.1016  -0.1016  -0.1000  -0.1000
    -0.1000  -0.1000  -0.0974  -0.0974  -0.0641  -0.0641  -0.0641  -0.0641
    -0.0469  -0.0469  -0.0469  -0.0469   0.0785   0.0785   0.0785   0.0785
     0.1305   0.1305   0.1305   0.1305   0.1574   0.1574   0.4312   0.4312
     0.7266   0.7266   0.7419   0.7419   0.7419   0.7419   0.8309   0.8309
     0.8309   0.8309   0.8568   0.8568   0.8568   0.8568   1.0622   1.0622
     1.0622   1.0622   1.0976   1.0976   1.3482   1.3482   1.3482   1.3482
     2.0718   2.0719   2.2741   2.2741   2.2964   2.2964   2.2964   2.2964
     2.5400   2.5400   2.5693   2.5693   2.5693   2.5693   2.6490   2.6490
     2.7236   2.7236   2.7236   2.7236   2.7504   2.7504   2.8143   2.8143
     2.8143   2.8143   3.1067   3.1067   3.3355   3.3355   3.3355   3.3355
     3.4371   3.4371   3.4371   3.4371   3.4729   3.4729   3.5127   3.5127
     3.7618   3.7618   4.0984   4.0985   4.1289   4.1289   4.3863   4.3863
     4.3863   4.3863   4.4222   4.4222   4.5007   4.5007   4.6209   4.6209
     4.6966   4.6966   4.6966   4.6966   4.7831   4.7831   4.8506   4.8506
     4.8506   4.8506   5.4176   5.4176   5.7444   5.7444   6.0320   6.0320
     6.0320   6.0320   6.0785   6.0785   6.2733   6.2733   6.2733   6.2733
     6.3666   6.3666   6.4174   6.4174   6.4174   6.4174   6.4216   6.4216
     6.5839   6.5839   6.5839   6.5840   6.6384   6.6384   6.6384   6.6384
     6.7140   6.7140   6.7140   6.7140   6.7669   6.7669   6.7669   6.7669
     6.7787   6.7787   6.9085   6.9085   6.9609   6.9609   6.9624   6.9624
     7.1444   7.1444   7.1444   7.1444   7.5071   7.5071   7.5471   7.5471
     7.5471   7.5471   7.5747   7.5747   7.5747   7.5747   7.7594   7.7594

          k =-0.5000 0.0000 0.0000 (115088 PWs)   bands (ev):

    -7.1366  -7.1366  -6.0250  -6.0250  -5.8784  -5.8784  -5.8784  -5.8784
    -5.8376  -5.8376  -4.8758  -4.8758  -4.8758  -4.8758  -4.7983  -4.7983
    -4.7157  -4.7157  -4.7157  -4.7157  -4.3731  -4.3731  -4.2382  -4.2382
    -3.9418  -3.9418  -3.9418  -3.9418  -3.4999  -3.4999  -3.4357  -3.4357
    -3.4357  -3.4357  -3.4158  -3.4158  -3.4158  -3.4158  -3.4108  -3.4108
    -3.4071  -3.4071  -3.3925  -3.3925  -3.3627  -3.3627  -3.3627  -3.3627
    -3.3596  -3.3596  -3.3243  -3.3243  -3.2762  -3.2762  -3.2654  -3.2654
    -3.2654  -3.2654  -3.1795  -3.1795  -3.1039  -3.1039  -3.0792  -3.0792
    -3.0792  -3.0792  -3.0363  -3.0363  -3.0363  -3.0363  -3.0326  -3.0326
    -3.0326  -3.0326  -2.9386  -2.9386  -2.9092  -2.9092  -2.8443  -2.8443
    -2.8443  -2.8443  -2.8052  -2.8052  -2.8001  -2.8001  -2.7781  -2.7781
    -2.7781  -2.7781  -2.7315  -2.7315  -2.7258  -2.7258  -2.7258  -2.7258
    -2.6992  -2.6992  -2.6992  -2.6992  -2.6746  -2.6746  -2.6746  -2.6746
    -2.6613  -2.6613  -2.6613  -2.6613  -2.5860  -2.5860  -2.5809  -2.5809
    -2.5809  -2.5809  -2.5663  -2.5663  -2.5579  -2.5579  -2.5579  -2.5579
    -2.5547  -2.5547  -2.5416  -2.5416  -2.5416  -2.5416  -2.5299  -2.5299
    -2.5299  -2.5299  -2.5060  -2.5060  -2.5060  -2.5060  -2.4629  -2.4629
    -2.4611  -2.4611  -2.4289  -2.4289  -2.4289  -2.4289  -2.3950  -2.3950
    -2.3950  -2.3950  -2.3916  -2.3916  -2.3916  -2.3916  -2.3881  -2.3881
    -2.3881  -2.3881  -2.3678  -2.3678  -2.3656  -2.3656  -2.3656  -2.3656
    -2.3597  -2.3597  -2.3597  -2.3597  -2.3436  -2.3436  -2.3306  -2.3306
    -2.3239  -2.3239  -2.3239  -2.3239  -2.3197  -2.3197  -2.3197  -2.3197
    -2.3195  -2.3195  -2.3195  -2.3195  -2.3173  -2.3173  -2.2914  -2.2914
    -2.2848  -2.2848  -2.2848  -2.2848  -2.2236  -2.2236  -2.2236  -2.2236
    -2.2182  -2.2182  -2.2099  -2.2099  -2.2099  -2.2099  -2.1861  -2.1861
    -2.1861  -2.1861  -2.1774  -2.1773  -2.1444  -2.1444  -2.0878  -2.0878
    -2.0878  -2.0878  -2.0774  -2.0774  -2.0774  -2.0774  -2.0680  -2.0680
    -2.0468  -2.0468  -2.0468  -2.0468  -1.9985  -1.9985  -1.9786  -1.9786
    -1.9257  -1.9257  -1.9257  -1.9257  -1.9168  -1.9168  -1.8739  -1.8739
    -1.8590  -1.8590  -1.8524  -1.8524  -1.8524  -1.8524  -1.8476  -1.8476
    -1.8231  -1.8231  -1.7960  -1.7960  -1.7960  -1.7960  -1.7764  -1.7764
    -1.7764  -1.7764  -1.7590  -1.7590  -1.7590  -1.7590  -1.7307  -1.7307
    -1.6654  -1.6654  -1.6654  -1.6654  -1.6643  -1.6643  -1.6053  -1.6053
    -1.6053  -1.6053  -1.5971  -1.5971  -1.5971  -1.5971  -1.5745  -1.5745
    -1.5734  -1.5734  -1.5734  -1.5734  -1.5025  -1.5025  -1.5025  -1.5025
    -1.4768  -1.4768  -1.4768  -1.4768  -1.4523  -1.4523  -1.4493  -1.4493
    -1.4264  -1.4264  -1.4264  -1.4264  -1.3970  -1.3970  -1.3970  -1.3970
    -1.3567  -1.3567  -1.3567  -1.3567  -1.3447  -1.3447  -1.3447  -1.3447
    -1.2661  -1.2661  -1.2599  -1.2599  -1.2474  -1.2474  -1.2474  -1.2474
    -1.2440  -1.2440  -1.2440  -1.2440  -1.2402  -1.2402  -1.2402  -1.2402
    -1.1726  -1.1726  -1.1662  -1.1662  -1.1634  -1.1634  -1.1634  -1.1634
    -1.1605  -1.1605  -1.1605  -1.1605  -1.1573  -1.1573  -1.1436  -1.1436
    -1.1355  -1.1355  -1.1011  -1.1011  -1.0863  -1.0863  -1.0807  -1.0807
    -1.0807  -1.0807  -1.0789  -1.0789  -1.0757  -1.0757  -1.0247  -1.0247
    -1.0238  -1.0238  -1.0211  -1.0211  -1.0211  -1.0211  -1.0177  -1.0177
    -1.0177  -1.0177  -0.9420  -0.9420  -0.9392  -0.9392  -0.9392  -0.9392
    -0.9165  -0.9165  -0.9126  -0.9126  -0.9080  -0.9080  -0.9050  -0.9050
    -0.9050  -0.9049  -0.8946  -0.8946  -0.8946  -0.8946  -0.8731  -0.8731
    -0.8731  -0.8731  -0.8724  -0.8724  -0.8724  -0.8724  -0.8658  -0.8658
    -0.8548  -0.8548  -0.8548  -0.8548  -0.8358  -0.8358  -0.8241  -0.8241
    -0.8135  -0.8134  -0.8074  -0.8074  -0.7850  -0.7850  -0.7850  -0.7850
    -0.7741  -0.7741  -0.7669  -0.7669  -0.7668  -0.7668  -0.7668  -0.7668
    -0.7441  -0.7441  -0.7441  -0.7441  -0.7377  -0.7377  -0.7374  -0.7374
    -0.7374  -0.7374  -0.7218  -0.7217  -0.6927  -0.6927  -0.6805  -0.6805
    -0.6805  -0.6805  -0.6746  -0.6746  -0.6643  -0.6643  -0.6600  -0.6600
    -0.6545  -0.6545  -0.6545  -0.6545  -0.6515  -0.6515  -0.6446  -0.6446
    -0.6446  -0.6446  -0.6410  -0.6410  -0.6410  -0.6410  -0.6333  -0.6333
    -0.6254  -0.6254  -0.6254  -0.6254  -0.5949  -0.5949  -0.5949  -0.5949
    -0.5749  -0.5749  -0.5681  -0.5681  -0.5681  -0.5681  -0.5261  -0.5261
    -0.5187  -0.5187  -0.5167  -0.5167  -0.5138  -0.5138  -0.5138  -0.5138
    -0.5102  -0.5102  -0.5077  -0.5077  -0.5077  -0.5077  -0.4929  -0.4929
    -0.4929  -0.4929  -0.4927  -0.4927  -0.4927  -0.4927  -0.4921  -0.4921
    -0.4835  -0.4835  -0.4831  -0.4831  -0.4759  -0.4759  -0.4724  -0.4724
    -0.4724  -0.4724  -0.4631  -0.4631  -0.4630  -0.4630  -0.4566  -0.4566
    -0.4566  -0.4566  -0.4557  -0.4557  -0.4503  -0.4503  -0.4503  -0.4503
    -0.4492  -0.4492  -0.4425  -0.4425  -0.4425  -0.4425  -0.4398  -0.4398
    -0.4192  -0.4192  -0.4017  -0.4017  -0.4017  -0.4017  -0.3954  -0.3954
    -0.3954  -0.3954  -0.3928  -0.3928  -0.3905  -0.3905  -0.3905  -0.3905
    -0.3764  -0.3764  -0.3764  -0.3764  -0.3687  -0.3687  -0.3687  -0.3687
    -0.3622  -0.3622  -0.3622  -0.3622  -0.3445  -0.3445  -0.3445  -0.3445
    -0.3429  -0.3429  -0.3429  -0.3429  -0.3407  -0.3407  -0.3407  -0.3407
    -0.3064  -0.3064  -0.3064  -0.3064  -0.3019  -0.3019  -0.3009  -0.3009
    -0.3009  -0.3009  -0.2866  -0.2866  -0.2866  -0.2866  -0.2797  -0.2797
    -0.2797  -0.2797  -0.2676  -0.2676  -0.2653  -0.2653  -0.2565  -0.2565
    -0.2046  -0.2045  -0.1968  -0.1968  -0.1968  -0.1968  -0.1915  -0.1915
    -0.1804  -0.1804  -0.1599  -0.1599  -0.1548  -0.1548  -0.1548  -0.1548
    -0.1352  -0.1352  -0.1352  -0.1352  -0.1314  -0.1313  -0.1205  -0.1205
    -0.1205  -0.1205  -0.0822  -0.0822  -0.0724  -0.0724  -0.0681  -0.0681
    -0.0446  -0.0445   0.0273   0.0273   0.0273   0.0273   0.3732   0.3732
     0.3960   0.3960   0.4153   0.4153   0.4699   0.4699   0.4699   0.4699
     0.6845   0.6845   0.6870   0.6870   0.6870   0.6870   1.1074   1.1074
     1.1376   1.1376   1.1376   1.1376   1.2314   1.2314   1.2314   1.2314
     1.3733   1.3733   1.3733   1.3733   1.4550   1.4550   1.5341   1.5341
     1.5880   1.5880   1.7280   1.7280   1.7796   1.7796   1.7796   1.7796
     1.9304   1.9304   2.0436   2.0436   2.0703   2.0703   2.2563   2.2563
     2.2563   2.2563   2.3065   2.3065   2.3065   2.3065   2.9886   2.9886
     2.9886   2.9886   3.0561   3.0561   3.2852   3.2852   3.4197   3.4197
     3.4197   3.4197   3.6637   3.6637   3.7677   3.7677   3.7677   3.7677
     3.8774   3.8774   4.1483   4.1483   4.1483   4.1483   4.6275   4.6275
     4.6275   4.6275   4.7656   4.7656   4.8180   4.8180   4.8180   4.8180
     4.8810   4.8810   4.8975   4.8975   4.8975   4.8975   5.1479   5.1479
     5.1480   5.1480   5.6513   5.6513   5.7474   5.7474   5.8377   5.8377
     5.8377   5.8377   5.9417   5.9418   6.0012   6.0012   6.0012   6.0012
     6.0455   6.0455   6.1941   6.1941   6.1941   6.1941   6.2718   6.2718
     6.3704   6.3704   6.6175   6.6175   6.6175   6.6176   6.7465   6.7465
     6.7465   6.7465   6.7746   6.7746   7.1710   7.1710   7.1714   7.1714
     7.1892   7.1892   7.1892   7.1892   7.3151   7.3154   7.4405   7.4405
     7.4879   7.4879   7.5035   7.5035   7.5035   7.5035   7.5919   7.5919
     7.5928   7.5928   7.6304   7.6304   7.6304   7.6304   7.7018   7.7021

          k =-0.5000-0.6667 0.0000 (115200 PWs)   bands (ev):

    -6.8114  -6.8114  -6.8114  -6.8113  -5.7193  -5.7193  -5.7193  -5.7193
    -5.5370  -5.5370  -5.5370  -5.5370  -4.5426  -4.5426  -4.5426  -4.5426
    -4.5284  -4.5284  -4.5284  -4.5284  -4.0968  -4.0968  -4.0968  -4.0968
    -3.9953  -3.9953  -3.9953  -3.9953  -3.8445  -3.8445  -3.8445  -3.8445
    -3.7408  -3.7408  -3.7408  -3.7408  -3.5008  -3.5008  -3.5008  -3.5008
    -3.3171  -3.3171  -3.3171  -3.3171  -3.2399  -3.2399  -3.2399  -3.2399
    -3.2249  -3.2249  -3.2249  -3.2249  -3.1396  -3.1396  -3.1396  -3.1396
    -3.1180  -3.1180  -3.1180  -3.1180  -3.0953  -3.0953  -3.0953  -3.0953
    -3.0879  -3.0879  -3.0879  -3.0879  -3.0824  -3.0824  -3.0824  -3.0824
    -3.0736  -3.0736  -3.0736  -3.0736  -3.0368  -3.0368  -3.0368  -3.0368
    -2.8345  -2.8345  -2.8345  -2.8345  -2.8198  -2.8198  -2.8198  -2.8198
    -2.7666  -2.7665  -2.7665  -2.7665  -2.7517  -2.7517  -2.7516  -2.7516
    -2.7261  -2.7261  -2.7261  -2.7261  -2.6736  -2.6736  -2.6736  -2.6736
    -2.6392  -2.6392  -2.6392  -2.6392  -2.5655  -2.5655  -2.5655  -2.5655
    -2.5630  -2.5630  -2.5630  -2.5630  -2.5413  -2.5413  -2.5413  -2.5413
    -2.5380  -2.5379  -2.5379  -2.5379  -2.5215  -2.5215  -2.5215  -2.5215
    -2.5152  -2.5152  -2.5152  -2.5152  -2.4737  -2.4737  -2.4737  -2.4737
    -2.4702  -2.4702  -2.4702  -2.4702  -2.4290  -2.4290  -2.4290  -2.4290
    -2.4223  -2.4223  -2.4223  -2.4223  -2.4134  -2.4134  -2.4134  -2.4134
    -2.3893  -2.3893  -2.3893  -2.3893  -2.3581  -2.3581  -2.3581  -2.3581
    -2.3511  -2.3511  -2.3511  -2.3511  -2.3444  -2.3444  -2.3444  -2.3444
    -2.3099  -2.3099  -2.3099  -2.3099  -2.2603  -2.2603  -2.2603  -2.2603
    -2.2577  -2.2577  -2.2577  -2.2577  -2.2554  -2.2554  -2.2554  -2.2554
    -2.2202  -2.2202  -2.2202  -2.2202  -2.2006  -2.2006  -2.2006  -2.2006
    -2.1923  -2.1923  -2.1923  -2.1923  -2.1888  -2.1888  -2.1888  -2.1888
    -2.1537  -2.1537  -2.1537  -2.1537  -2.1527  -2.1527  -2.1527  -2.1527
    -2.0986  -2.0986  -2.0986  -2.0986  -2.0659  -2.0659  -2.0659  -2.0659
    -2.0449  -2.0449  -2.0449  -2.0449  -1.9507  -1.9507  -1.9507  -1.9507
    -1.9402  -1.9402  -1.9402  -1.9402  -1.8695  -1.8695  -1.8695  -1.8695
    -1.8514  -1.8514  -1.8514  -1.8514  -1.8125  -1.8125  -1.8125  -1.8125
    -1.8122  -1.8122  -1.8122  -1.8122  -1.8086  -1.8086  -1.8086  -1.8086
    -1.7409  -1.7409  -1.7409  -1.7409  -1.7121  -1.7121  -1.7121  -1.7121
    -1.7024  -1.7024  -1.7024  -1.7024  -1.6615  -1.6615  -1.6615  -1.6615
    -1.5461  -1.5461  -1.5461  -1.5461  -1.5384  -1.5383  -1.5383  -1.5383
    -1.5176  -1.5176  -1.5176  -1.5176  -1.4828  -1.4828  -1.4828  -1.4828
    -1.4767  -1.4767  -1.4767  -1.4767  -1.4726  -1.4726  -1.4726  -1.4726
    -1.4536  -1.4536  -1.4536  -1.4536  -1.4261  -1.4261  -1.4261  -1.4261
    -1.3714  -1.3714  -1.3714  -1.3714  -1.3664  -1.3664  -1.3664  -1.3664
    -1.3467  -1.3467  -1.3467  -1.3467  -1.2830  -1.2830  -1.2830  -1.2830
    -1.2807  -1.2807  -1.2807  -1.2807  -1.2341  -1.2341  -1.2341  -1.2341
    -1.2069  -1.2069  -1.2069  -1.2069  -1.1759  -1.1759  -1.1759  -1.1759
    -1.1584  -1.1584  -1.1584  -1.1584  -1.1566  -1.1566  -1.1566  -1.1566
    -1.1052  -1.1052  -1.1052  -1.1052  -1.0256  -1.0256  -1.0256  -1.0256
    -1.0249  -1.0249  -1.0249  -1.0249  -1.0218  -1.0218  -1.0218  -1.0218
    -1.0152  -1.0152  -1.0152  -1.0151  -0.9636  -0.9636  -0.9636  -0.9636
    -0.9593  -0.9593  -0.9593  -0.9593  -0.9563  -0.9563  -0.9563  -0.9563
    -0.9405  -0.9405  -0.9405  -0.9405  -0.9280  -0.9280  -0.9280  -0.9280
    -0.9203  -0.9203  -0.9203  -0.9203  -0.9019  -0.9019  -0.9019  -0.9019
    -0.8947  -0.8947  -0.8947  -0.8947  -0.8725  -0.8725  -0.8725  -0.8725
    -0.8663  -0.8663  -0.8663  -0.8663  -0.8222  -0.8222  -0.8221  -0.8221
    -0.7706  -0.7706  -0.7706  -0.7706  -0.7572  -0.7572  -0.7572  -0.7572
    -0.7535  -0.7535  -0.7535  -0.7535  -0.7399  -0.7399  -0.7399  -0.7399
    -0.7158  -0.7158  -0.7158  -0.7158  -0.7000  -0.7000  -0.7000  -0.7000
    -0.6911  -0.6911  -0.6911  -0.6911  -0.6859  -0.6858  -0.6858  -0.6858
    -0.6811  -0.6811  -0.6811  -0.6811  -0.6746  -0.6746  -0.6746  -0.6746
    -0.6735  -0.6734  -0.6734  -0.6734  -0.6429  -0.6429  -0.6429  -0.6429
    -0.6320  -0.6320  -0.6320  -0.6319  -0.6157  -0.6157  -0.6157  -0.6157
    -0.5933  -0.5933  -0.5933  -0.5933  -0.5761  -0.5761  -0.5761  -0.5761
    -0.5663  -0.5663  -0.5663  -0.5663  -0.5585  -0.5585  -0.5585  -0.5585
    -0.5324  -0.5324  -0.5324  -0.5324  -0.5276  -0.5276  -0.5276  -0.5276
    -0.5199  -0.5199  -0.5199  -0.5199  -0.5108  -0.5108  -0.5108  -0.5108
    -0.5065  -0.5065  -0.5065  -0.5065  -0.5027  -0.5027  -0.5027  -0.5027
    -0.4989  -0.4989  -0.4989  -0.4989  -0.4978  -0.4978  -0.4978  -0.4978
    -0.4919  -0.4919  -0.4919  -0.4919  -0.4587  -0.4587  -0.4587  -0.4587
    -0.4565  -0.4565  -0.4564  -0.4564  -0.4560  -0.4560  -0.4560  -0.4560
    -0.4344  -0.4344  -0.4344  -0.4344  -0.4230  -0.4230  -0.4230  -0.4230
    -0.4208  -0.4208  -0.4208  -0.4208  -0.4204  -0.4204  -0.4204  -0.4204
    -0.4148  -0.4148  -0.4148  -0.4148  -0.4084  -0.4084  -0.4084  -0.4084
    -0.3999  -0.3999  -0.3999  -0.3999  -0.3983  -0.3983  -0.3983  -0.3983
    -0.3859  -0.3859  -0.3859  -0.3859  -0.3421  -0.3421  -0.3421  -0.3421
    -0.3320  -0.3320  -0.3320  -0.3320  -0.3245  -0.3245  -0.3245  -0.3245
    -0.3230  -0.3230  -0.3230  -0.3230  -0.3081  -0.3081  -0.3081  -0.3081
    -0.2661  -0.2661  -0.2661  -0.2661  -0.2381  -0.2381  -0.2381  -0.2381
    -0.2308  -0.2308  -0.2308  -0.2308  -0.2209  -0.2209  -0.2209  -0.2209
    -0.1843  -0.1843  -0.1843  -0.1843  -0.1843  -0.1843  -0.1843  -0.1843
    -0.1765  -0.1764  -0.1764  -0.1764  -0.1563  -0.1563  -0.1563  -0.1563
    -0.1472  -0.1472  -0.1472  -0.1472  -0.1301  -0.1301  -0.1301  -0.1301
    -0.1031  -0.1031  -0.1031  -0.1031   0.0679   0.0679   0.0679   0.0679
     0.1238   0.1238   0.1238   0.1238   0.1541   0.1541   0.1541   0.1541
     0.2341   0.2341   0.2341   0.2341   0.2439   0.2439   0.2439   0.2439
     0.4005   0.4005   0.4005   0.4005   0.5213   0.5213   0.5213   0.5213
     0.7132   0.7132   0.7132   0.7132   1.0231   1.0231   1.0231   1.0231
     1.1890   1.1890   1.1890   1.1890   1.4874   1.4874   1.4874   1.4874
     2.2190   2.2190   2.2191   2.2191   2.2633   2.2634   2.2634   2.2634
     2.3494   2.3494   2.3494   2.3494   2.5775   2.5775   2.5775   2.5775
     2.8164   2.8164   2.8164   2.8164   2.8566   2.8566   2.8566   2.8566
     3.0444   3.0444   3.0444   3.0444   3.6580   3.6580   3.6580   3.6580
     3.6851   3.6851   3.6851   3.6851   3.7139   3.7139   3.7139   3.7139
     3.7770   3.7770   3.7770   3.7770   3.9974   3.9974   3.9974   3.9974
     4.0104   4.0104   4.0104   4.0104   4.1109   4.1109   4.1109   4.1109
     4.8259   4.8259   4.8259   4.8259   5.0250   5.0250   5.0250   5.0250
     5.3933   5.3933   5.3934   5.3934   6.0813   6.0813   6.0813   6.0813
     6.1095   6.1095   6.1095   6.1095   6.2509   6.2509   6.2509   6.2509
     6.2980   6.2980   6.2980   6.2980   6.3613   6.3613   6.3613   6.3613
     6.3726   6.3726   6.3726   6.3726   6.6029   6.6030   6.6030   6.6030
     6.6634   6.6634   6.6634   6.6634   6.7209   6.7209   6.7209   6.7209
     6.8851   6.8851   6.8851   6.8851   7.0753   7.0754   7.0754   7.0754
     7.2295   7.2295   7.2295   7.2295   7.3033   7.3033   7.3033   7.3033
     7.6219   7.6219   7.6222   7.6222   7.8109   7.8109   7.8109   7.8109

     the Fermi energy is     1.6715 ev

!    total energy              =  -14578.52236473 Ry
     Harris-Foulkes estimate   =  -14578.52236474 Ry
     estimated scf accuracy    <          7.9E-09 Ry

     The total energy is the sum of the following terms:

     one-electron contribution = -128704.36368489 Ry
     hartree contribution      =   65827.46106403 Ry
     xc contribution           =   -5133.98363296 Ry
     ewald contribution        =   53439.20155257 Ry
     Dispersion Correction     =      -2.93297659 Ry
     smearing contrib. (-TS)   =      -3.90468689 Ry

     convergence has been achieved in  74 iterations

     negative rho (up, down):  1.144E-03 0.000E+00

     Forces acting on atoms (Ry/au):

     atom    1 type  1   force =     0.00000000    0.00000000   -0.06998720
     atom    2 type  1   force =    -0.00001123    0.00000000   -0.06997934
     atom    3 type  1   force =     0.00001123    0.00000000   -0.06997934
     atom    4 type  1   force =     0.00000000   -0.00002912   -0.06999908
     atom    5 type  1   force =    -0.00001154   -0.00003060   -0.06998652
     atom    6 type  1   force =     0.00001154   -0.00003060   -0.06998652
     atom    7 type  1   force =     0.00000000    0.00000000   -0.07000519
     atom    8 type  1   force =    -0.00001361    0.00000000   -0.06999089
     atom    9 type  1   force =     0.00001361    0.00000000   -0.06999089
     atom   10 type  1   force =     0.00000000    0.00002912   -0.06999908
     atom   11 type  1   force =    -0.00001154    0.00003060   -0.06998652
     atom   12 type  1   force =     0.00001154    0.00003060   -0.06998652
     atom   13 type  1   force =    -0.00001911   -0.00002648   -0.06998921
     atom   14 type  1   force =     0.00000000   -0.00002529   -0.06997485
     atom   15 type  1   force =     0.00001911   -0.00002648   -0.06998921
     atom   16 type  1   force =    -0.00002014   -0.00001636   -0.07000151
     atom   17 type  1   force =     0.00000000   -0.00002048   -0.06998332
     atom   18 type  1   force =     0.00002014   -0.00001636   -0.07000151
     atom   19 type  1   force =    -0.00002014    0.00001636   -0.07000151
     atom   20 type  1   force =     0.00000000    0.00002048   -0.06998332
     atom   21 type  1   force =     0.00002014    0.00001636   -0.07000151
     atom   22 type  1   force =    -0.00001911    0.00002648   -0.06998921
     atom   23 type  1   force =     0.00000000    0.00002529   -0.06997485
     atom   24 type  1   force =     0.00001911    0.00002648   -0.06998921
     atom   25 type  1   force =    -0.00000777    0.00000000    0.01373688
     atom   26 type  1   force =     0.00000000    0.00000000    0.01376976
     atom   27 type  1   force =     0.00000777    0.00000000    0.01373688
     atom   28 type  1   force =    -0.00000505   -0.00003071    0.01374144
     atom   29 type  1   force =     0.00000000   -0.00002803    0.01378121
     atom   30 type  1   force =     0.00000505   -0.00003071    0.01374144
     atom   31 type  1   force =    -0.00000437    0.00000000    0.01374531
     atom   32 type  1   force =     0.00000000    0.00000000    0.01379173
     atom   33 type  1   force =     0.00000437    0.00000000    0.01374531
     atom   34 type  1   force =    -0.00000505    0.00003071    0.01374144
     atom   35 type  1   force =     0.00000000    0.00002803    0.01378121
     atom   36 type  1   force =     0.00000505    0.00003071    0.01374144
     atom   37 type  1   force =     0.00000000   -0.00002879    0.01372423
     atom   38 type  1   force =     0.00000131   -0.00002268    0.01376172
     atom   39 type  1   force =    -0.00000131   -0.00002268    0.01376172
     atom   40 type  1   force =     0.00000000   -0.00001547    0.01372744
     atom   41 type  1   force =     0.00000303   -0.00001616    0.01377404
     atom   42 type  1   force =    -0.00000303   -0.00001616    0.01377404
     atom   43 type  1   force =     0.00000000    0.00001547    0.01372744
     atom   44 type  1   force =     0.00000303    0.00001616    0.01377404
     atom   45 type  1   force =    -0.00000303    0.00001616    0.01377404
     atom   46 type  1   force =     0.00000000    0.00002879    0.01372423
     atom   47 type  1   force =     0.00000131    0.00002268    0.01376172
     atom   48 type  1   force =    -0.00000131    0.00002268    0.01376172
     atom   49 type  1   force =     0.00000000    0.00000000    0.00000000
     atom   50 type  1   force =     0.00000792    0.00000000    0.00000000
     atom   51 type  1   force =    -0.00000792    0.00000000    0.00000000
     atom   52 type  1   force =     0.00000000   -0.00002884    0.00000000
     atom   53 type  1   force =     0.00001214   -0.00002135    0.00000000
     atom   54 type  1   force =    -0.00001214   -0.00002135    0.00000000
     atom   55 type  1   force =     0.00000000    0.00000000    0.00000000
     atom   56 type  1   force =     0.00001354    0.00000000    0.00000000
     atom   57 type  1   force =    -0.00001354    0.00000000    0.00000000
[...]
     atom   90 type  1   force =    -0.00000358   -0.00000046    0.03033827
     atom   91 type  1   force =     0.00000000   -0.00001174    0.03030478
     atom   92 type  1   force =     0.00000358    0.00000046    0.03033827
     atom   93 type  1   force =    -0.00000358    0.00000046    0.03033827
     atom   94 type  1   force =     0.00000000   -0.00001468    0.03032504
     atom   95 type  1   force =     0.00001772   -0.00000079    0.03034286
     atom   96 type  1   force =    -0.00001772   -0.00000079    0.03034286
     atom   97 type  1   force =     0.00000000    0.00000000   -0.00140306
     atom   98 type  1   force =     0.00002110    0.00000000   -0.00137650
     atom   99 type  1   force =    -0.00002110    0.00000000   -0.00137650
     atom  100 type  1   force =     0.00000000   -0.00000229   -0.00141167
     atom  101 type  1   force =     0.00001671   -0.00000822   -0.00138138
     atom  102 type  1   force =    -0.00001671   -0.00000822   -0.00138138
     atom  103 type  1   force =     0.00000000    0.00000000   -0.00141677
     atom  104 type  1   force =     0.00001203    0.00000000   -0.00138425
     atom  105 type  1   force =    -0.00001203    0.00000000   -0.00138425
     atom  106 type  1   force =     0.00000000    0.00000229   -0.00141167
     atom  107 type  1   force =     0.00001671    0.00000822   -0.00138138
     atom  108 type  1   force =    -0.00001671    0.00000822   -0.00138138
     atom  109 type  1   force =    -0.00000699   -0.00000256   -0.00138326
     atom  110 type  1   force =     0.00000000   -0.00000819   -0.00138362
     atom  111 type  1   force =     0.00000699   -0.00000256   -0.00138326
     atom  112 type  1   force =    -0.00001023   -0.00000173   -0.00139814
     atom  113 type  1   force =     0.00000000   -0.00000832   -0.00138559
     atom  114 type  1   force =     0.00001023   -0.00000173   -0.00139814
     atom  115 type  1   force =    -0.00001023    0.00000173   -0.00139814
     atom  116 type  1   force =     0.00000000    0.00000832   -0.00138559
     atom  117 type  1   force =     0.00001023    0.00000173   -0.00139814
     atom  118 type  1   force =    -0.00000699    0.00000256   -0.00138326
     atom  119 type  1   force =     0.00000000    0.00000819   -0.00138362
     atom  120 type  1   force =     0.00000699    0.00000256   -0.00138326

     Total force =     0.210360     Total SCF correction =     0.000361

     number of scf cycles    =   6
     number of bfgs steps    =   5

     energy   old            =  -14579.3684977153 Ry
     energy   new            =  -14579.5890022765 Ry

     CASE: energy  _new < energy  _old

     new trust radius        =       0.1747014691 bohr
     new conv_thr            =       0.0000000100 Ry


ATOMIC_POSITIONS (angstrom)
Cu       0.000000000   0.000000000   8.434706563
Cu       4.864873938   0.000000000   8.434736957
Cu       9.729472842   0.000000000   8.434736957
Cu       0.000000000   2.736431634   8.434748671
Cu       4.864851560   2.736387048   8.434770449
Cu       9.729495220   2.736387048   8.434770449
Cu       0.000000000   5.472880043   8.434781293
Cu       4.864823194   5.472880043   8.434790662
Cu       9.729523586   5.472880043   8.434790662
Cu       0.000000000   8.209328451   8.434748671
Cu       4.864851560   8.209373037   8.434770449
Cu       9.729495220   8.209373037   8.434770449
Cu       2.432437456   1.368184417   8.434710455
Cu       7.297173390   1.368150060   8.434773258
Cu      12.161909324   1.368184417   8.434710455
Cu       2.432414343   4.104660354   8.434749205
Cu       7.297173390   4.104625911   8.434813398
Cu      12.161932437   4.104660354   8.434749205
Cu       2.432414343   6.841099731   8.434749205
Cu       7.297173390   6.841134174   8.434813398
Cu      12.161932437   6.841099731   8.434749205
Cu       2.432437456   9.577575668   8.434710455
Cu       7.297173390   9.577610025   8.434773258
Cu      12.161909324   9.577575668   8.434710455
Cu       2.432456865   0.000000000  10.539005166
Cu       7.297173390   0.000000000  10.539062763
Cu      12.161889915   0.000000000  10.539005166
Cu       2.432432622   2.736468844  10.539053124
Cu       7.297173390   2.736392907  10.539103553
Cu      12.161914158   2.736468844  10.539053124
Cu       2.432401366   5.472880043  10.539089165
Cu       7.297173390   5.472880043  10.539139987
Cu      12.161945414   5.472880043  10.539089165
Cu       2.432432622   8.209291241  10.539053124
Cu       7.297173390   8.209367178  10.539103553
Cu      12.161914158   8.209291241  10.539053124
Cu       0.000000000   1.368244386  10.539017652
Cu       4.864905742   1.368197565  10.539055142
Cu       9.729441038   1.368197565  10.539055142
Cu       0.000000000   4.104707733  10.539083711
Cu       4.864861012   4.104658964  10.539111872
Cu       9.729485768   4.104658964  10.539111872
Cu       0.000000000   6.841052352  10.539083711
Cu       4.864861012   6.841101121  10.539111872
Cu       9.729485768   6.841101121  10.539111872
Cu       0.000000000   9.577515699  10.539017652
Cu       4.864905742   9.577562520  10.539055142
Cu       9.729441038   9.577562520  10.539055142
Cu       0.000000000   0.000000000  12.500000000
Cu       4.864913447   0.000000000  12.500000000
Cu       9.729433333   0.000000000  12.500000000
Cu       0.000000000   2.736520840  12.500000000
Cu       4.864883818   2.736442490  12.500000000
Cu       9.729462962   2.736442490  12.500000000
Cu       0.000000000   5.472880043  12.500000000
Cu       4.864844134   5.472880043  12.500000000
Cu       9.729502646   5.472880043  12.500000000
Cu       0.000000000   8.209239245  12.500000000
Cu       4.864883818   8.209317595  12.500000000
Cu       9.729462962   8.209317595  12.500000000
Cu       2.432441311   1.368240498  12.500000000
Cu       7.297173390   1.368187729  12.500000000
Cu      12.161905469   1.368240498  12.500000000
Cu       2.432398130   4.104715416  12.500000000
Cu       7.297173390   4.104649000  12.500000000
Cu      12.161948650   4.104715416  12.500000000
Cu       2.432398130   6.841044669  12.500000000
Cu       7.297173390   6.841111085  12.500000000
Cu      12.161948650   6.841044669  12.500000000
Cu       2.432441311   9.577519587  12.500000000
Cu       7.297173390   9.577572356  12.500000000
Cu      12.161905469   9.577519587  12.500000000
Cu       2.432456865   0.000000000  14.460996104
Cu       7.297173390   0.000000000  14.460938507
Cu      12.161889915   0.000000000  14.460996104
Cu       2.432432622   2.736468844  14.460948146
Cu       7.297173390   2.736392907  14.460897717
Cu      12.161914158   2.736468844  14.460948146
Cu       2.432401366   5.472880043  14.460912105
Cu       7.297173390   5.472880043  14.460861283
Cu      12.161945414   5.472880043  14.460912105
Cu       2.432432622   8.209291241  14.460948146
Cu       7.297173390   8.209367178  14.460897717
Cu      12.161914158   8.209291241  14.460948146
Cu       0.000000000   1.368244386  14.460983618
Cu       4.864905742   1.368197565  14.460946128
Cu       9.729441038   1.368197565  14.460946128
Cu       0.000000000   4.104707733  14.460917559
Cu       4.864861012   4.104658964  14.460889398
Cu       9.729485768   4.104658964  14.460889398
Cu       0.000000000   6.841052352  14.460917559
Cu       4.864861012   6.841101121  14.460889398
Cu       9.729485768   6.841101121  14.460889398
Cu       0.000000000   9.577515699  14.460983618
Cu       4.864905742   9.577562520  14.460946128
Cu       9.729441038   9.577562520  14.460946128
Cu       0.000000000   0.000000000  16.565308097
Cu       4.864873938   0.000000000  16.565277703
Cu       9.729472842   0.000000000  16.565277703
Cu       0.000000000   2.736431634  16.565265989
Cu       4.864851560   2.736387048  16.565244211
Cu       9.729495220   2.736387048  16.565244211
Cu       0.000000000   5.472880043  16.565233367
Cu       4.864823194   5.472880043  16.565223998
Cu       9.729523586   5.472880043  16.565223998
Cu       0.000000000   8.209328451  16.565265989
Cu       4.864851560   8.209373037  16.565244211
Cu       9.729495220   8.209373037  16.565244211
Cu       2.432437456   1.368184417  16.565304205
Cu       7.297173390   1.368150060  16.565241402
Cu      12.161909324   1.368184417  16.565304205
Cu       2.432414343   4.104660354  16.565265455
Cu       7.297173390   4.104625911  16.565201262
Cu      12.161932437   4.104660354  16.565265455
Cu       2.432414343   6.841099731  16.565265455
Cu       7.297173390   6.841134174  16.565201262
Cu      12.161932437   6.841099731  16.565265455
Cu       2.432437456   9.577575668  16.565304205
Cu       7.297173390   9.577610025  16.565241402
Cu      12.161909324   9.577575668  16.565304205



     Writing output data file copper.save
     Check: negative starting charge=   -0.006638
     NEW-OLD atomic charge density approx. for the potential
     Check: negative starting charge=   -0.006371

     negative rho (up, down):  6.726E-03 0.000E+00

     total cpu time spent up to now is    17561.8 secs

     Self-consistent Calculation

     iteration #  1     ecut=    40.00 Ry     beta=0.70
     Davidson diagonalization with overlap
     ethr =  1.00E-06,  avg # of iterations = 10.0

     negative rho (up, down):  1.938E-03 0.000E+00

     total cpu time spent up to now is    17908.3 secs

     total energy              =  -14578.97238158 Ry
     Harris-Foulkes estimate   =  -14579.71549149 Ry
     estimated scf accuracy    <       0.84050660 Ry

     iteration #  2     ecut=    40.00 Ry     beta=0.70
     Davidson diagonalization with overlap
     ethr =  6.37E-05,  avg # of iterations =  5.8

     negative rho (up, down):  1.018E-03 0.000E+00

     total cpu time spent up to now is    18087.6 secs

     total energy              =  -14572.51551059 Ry
     Harris-Foulkes estimate   =  -14587.33963489 Ry
     estimated scf accuracy    <     171.11564415 Ry

     iteration #  3     ecut=    40.00 Ry     beta=0.70
     Davidson diagonalization with overlap
     ethr =  6.37E-05,  avg # of iterations =  9.2

     negative rho (up, down):  6.755E-04 0.000E+00

     total cpu time spent up to now is    18328.6 secs

     total energy              =  -14579.63774477 Ry
     Harris-Foulkes estimate   =  -14579.70449421 Ry
     estimated scf accuracy    <       0.22801142 Ry

     iteration #  4     ecut=    40.00 Ry     beta=0.70
     Davidson diagonalization with overlap
     ethr =  1.73E-05,  avg # of iterations =  5.8

     negative rho (up, down):  5.857E-04 0.000E+00

     total cpu time spent up to now is    18417.1 secs

     total energy              =  -14579.66476119 Ry
     Harris-Foulkes estimate   =  -14579.66943125 Ry
     estimated scf accuracy    <       0.01116437 Ry

     iteration #  5     ecut=    40.00 Ry     beta=0.70
     Davidson diagonalization with overlap
     ethr =  8.46E-07,  avg # of iterations =  6.8

     negative rho (up, down):  5.708E-04 0.000E+00

     total cpu time spent up to now is    18606.1 secs

     total energy              =  -14579.65285251 Ry
     Harris-Foulkes estimate   =  -14579.68528250 Ry
     estimated scf accuracy    <       0.41952759 Ry

     iteration #  6     ecut=    40.00 Ry     beta=0.70
     Davidson diagonalization with overlap
     ethr =  8.46E-07,  avg # of iterations =  5.2

     negative rho (up, down):  5.618E-04 0.000E+00

     total cpu time spent up to now is    18698.3 secs

     total energy              =  -14579.66631143 Ry
     Harris-Foulkes estimate   =  -14579.67406545 Ry
     estimated scf accuracy    <       0.06588984 Ry

     iteration #  7     ecut=    40.00 Ry     beta=0.70
     Davidson diagonalization with overlap
     ethr =  8.46E-07,  avg # of iterations =  3.8

     negative rho (up, down):  5.594E-04 0.000E+00

     total cpu time spent up to now is    18775.2 secs

     total energy              =  -14579.66845350 Ry
     Harris-Foulkes estimate   =  -14579.67229289 Ry
     estimated scf accuracy    <       0.02837261 Ry

     iteration #  8     ecut=    40.00 Ry     beta=0.70
     Davidson diagonalization with overlap
     ethr =  8.46E-07,  avg # of iterations =  5.5

     negative rho (up, down):  5.593E-04 0.000E+00

     total cpu time spent up to now is    18855.5 secs

     total energy              =  -14579.66964957 Ry
     Harris-Foulkes estimate   =  -14579.67148596 Ry
     estimated scf accuracy    <       0.01490353 Ry

     iteration #  9     ecut=    40.00 Ry     beta=0.70
     Davidson diagonalization with overlap
     ethr =  8.46E-07,  avg # of iterations =  2.0

     negative rho (up, down):  5.601E-04 0.000E+00

     total cpu time spent up to now is    18914.4 secs

     total energy              =  -14579.67043103 Ry
     Harris-Foulkes estimate   =  -14579.67056837 Ry
     estimated scf accuracy    <       0.00044376 Ry

     iteration # 10     ecut=    40.00 Ry     beta=0.70
     Davidson diagonalization with overlap
     ethr =  3.36E-08,  avg # of iterations =  3.0

     negative rho (up, down):  5.612E-04 0.000E+00

     total cpu time spent up to now is    19000.5 secs

     total energy              =  -14579.67039302 Ry
     Harris-Foulkes estimate   =  -14579.67066587 Ry
     estimated scf accuracy    <       0.00183409 Ry

     iteration # 11     ecut=    40.00 Ry     beta=0.70
     Davidson diagonalization with overlap
     ethr =  3.36E-08,  avg # of iterations =  2.5

     negative rho (up, down):  5.625E-04 0.000E+00

     total cpu time spent up to now is    19065.3 secs

     total energy              =  -14579.67048440 Ry
     Harris-Foulkes estimate   =  -14579.67055003 Ry
     estimated scf accuracy    <       0.00019556 Ry

     iteration # 12     ecut=    40.00 Ry     beta=0.70
     Davidson diagonalization with overlap
     ethr =  1.48E-08,  avg # of iterations =  3.0

     negative rho (up, down):  5.623E-04 0.000E+00

     total cpu time spent up to now is    19151.1 secs

     total energy              =  -14579.67045661 Ry
     Harris-Foulkes estimate   =  -14579.67060382 Ry
     estimated scf accuracy    <       0.00096473 Ry

     iteration # 13     ecut=    40.00 Ry     beta=0.70
     Davidson diagonalization with overlap
     ethr =  1.48E-08,  avg # of iterations =  2.2

     negative rho (up, down):  5.626E-04 0.000E+00

     total cpu time spent up to now is    19215.8 secs

     total energy              =  -14579.67052141 Ry
     Harris-Foulkes estimate   =  -14579.67054687 Ry
     estimated scf accuracy    <       0.00014680 Ry

     iteration # 14     ecut=    40.00 Ry     beta=0.70
     Davidson diagonalization with overlap
     ethr =  1.11E-08,  avg # of iterations =  2.0

     negative rho (up, down):  5.627E-04 0.000E+00

     total cpu time spent up to now is    19275.5 secs

     total energy              =  -14579.67052907 Ry
     Harris-Foulkes estimate   =  -14579.67054156 Ry
     estimated scf accuracy    <       0.00006168 Ry

     iteration # 15     ecut=    40.00 Ry     beta=0.70
     Davidson diagonalization with overlap
     ethr =  4.67E-09,  avg # of iterations =  2.2

     negative rho (up, down):  5.627E-04 0.000E+00

     total cpu time spent up to now is    19337.2 secs

     total energy              =  -14579.67052624 Ry
     Harris-Foulkes estimate   =  -14579.67054373 Ry
     estimated scf accuracy    <       0.00015010 Ry

     iteration # 16     ecut=    40.00 Ry     beta=0.70
     Davidson diagonalization with overlap
     ethr =  4.67E-09,  avg # of iterations =  2.5

     negative rho (up, down):  5.627E-04 0.000E+00

     total cpu time spent up to now is    19399.7 secs

     total energy              =  -14579.67053033 Ry
     Harris-Foulkes estimate   =  -14579.67054196 Ry
     estimated scf accuracy    <       0.00014987 Ry

     iteration # 17     ecut=    40.00 Ry     beta=0.70
     Davidson diagonalization with overlap
     ethr =  4.67E-09,  avg # of iterations =  2.0

     negative rho (up, down):  5.628E-04 0.000E+00

     total cpu time spent up to now is    19459.3 secs

     total energy              =  -14579.67053545 Ry
     Harris-Foulkes estimate   =  -14579.67053729 Ry
     estimated scf accuracy    <       0.00001139 Ry

     iteration # 18     ecut=    40.00 Ry     beta=0.70
     Davidson diagonalization with overlap
     ethr =  8.63E-10,  avg # of iterations =  2.0

     negative rho (up, down):  5.629E-04 0.000E+00

     total cpu time spent up to now is    19519.3 secs

     total energy              =  -14579.67053617 Ry
     Harris-Foulkes estimate   =  -14579.67053686 Ry
     estimated scf accuracy    <       0.00000426 Ry

     iteration # 19     ecut=    40.00 Ry     beta=0.70
     Davidson diagonalization with overlap
     ethr =  3.23E-10,  avg # of iterations =  2.0

     negative rho (up, down):  5.630E-04 0.000E+00

     total cpu time spent up to now is    19579.4 secs

     total energy              =  -14579.67053636 Ry
     Harris-Foulkes estimate   =  -14579.67053670 Ry
     estimated scf accuracy    <       0.00000184 Ry

     iteration # 20     ecut=    40.00 Ry     beta=0.70
     Davidson diagonalization with overlap
     ethr =  1.39E-10,  avg # of iterations =  2.0

     negative rho (up, down):  5.630E-04 0.000E+00

     total cpu time spent up to now is    19640.2 secs

     total energy              =  -14579.67053633 Ry
     Harris-Foulkes estimate   =  -14579.67053680 Ry
     estimated scf accuracy    <       0.00000285 Ry

     iteration # 21     ecut=    40.00 Ry     beta=0.70
     Davidson diagonalization with overlap
     ethr =  1.39E-10,  avg # of iterations =  2.0

     negative rho (up, down):  5.630E-04 0.000E+00

     total cpu time spent up to now is    19701.0 secs

     total energy              =  -14579.67053651 Ry
     Harris-Foulkes estimate   =  -14579.67053669 Ry
     estimated scf accuracy    <       0.00000128 Ry

     iteration # 22     ecut=    40.00 Ry     beta=0.70
     Davidson diagonalization with overlap
     ethr =  9.68E-11,  avg # of iterations =  2.0

     negative rho (up, down):  5.630E-04 0.000E+00

     total cpu time spent up to now is    19760.9 secs

     total energy              =  -14579.67053658 Ry
     Harris-Foulkes estimate   =  -14579.67053662 Ry
     estimated scf accuracy    <       0.00000020 Ry

     iteration # 23     ecut=    40.00 Ry     beta=0.70
     Davidson diagonalization with overlap
     ethr =  1.52E-11,  avg # of iterations =  2.0

     negative rho (up, down):  5.630E-04 0.000E+00

     total cpu time spent up to now is    19821.1 secs

     total energy              =  -14579.67053659 Ry
     Harris-Foulkes estimate   =  -14579.67053661 Ry
     estimated scf accuracy    <       0.00000007 Ry

     iteration # 24     ecut=    40.00 Ry     beta=0.70
     Davidson diagonalization with overlap
     ethr =  5.23E-12,  avg # of iterations =  2.5

     negative rho (up, down):  5.630E-04 0.000E+00

     total cpu time spent up to now is    19884.8 secs

     total energy              =  -14579.67053658 Ry
     Harris-Foulkes estimate   =  -14579.67053661 Ry
     estimated scf accuracy    <       0.00000025 Ry

     iteration # 25     ecut=    40.00 Ry     beta=0.70
     Davidson diagonalization with overlap
     ethr =  5.23E-12,  avg # of iterations =  2.0

     negative rho (up, down):  5.630E-04 0.000E+00

     total cpu time spent up to now is    19945.5 secs

     total energy              =  -14579.67053659 Ry
     Harris-Foulkes estimate   =  -14579.67053660 Ry
     estimated scf accuracy    <       0.00000003 Ry

     iteration # 26     ecut=    40.00 Ry     beta=0.70
     Davidson diagonalization with overlap
[r2129:10996] *** An error occurred in MPI_Cart_sub
[r2129:10996] *** reported by process [3293184001,47553877901438]
[r2129:10996] *** on communicator MPI_COMMUNICATOR 65534
[r2129:10996] *** MPI_ERR_INTERN: internal error
[r2129:10996] *** MPI_ERRORS_ARE_FATAL (processes in this communicator will now abort,
[r2129:10996] ***    and potentially your MPI job)
