mpirun: INFO: switching to OpenMPI runtime version 1.10.2

     Program PWSCF v.5.4.0 starts on 16Sep2017 at 17:39:14 

     This program is part of the open-source Quantum ESPRESSO suite
     for quantum simulation of materials; please cite
         "P. Giannozzi et al., J. Phys.:Condens. Matter 21 395502 (2009);
          URL http://www.quantum-espresso.org", 
     in publications or presentations arising from this work. More details at
     http://www.quantum-espresso.org/quote

     Parallel version (MPI & OpenMP), running on      28 processor cores
     Number of MPI processes:                28
     Threads/MPI process:                     1
     R & G space division:  proc/nbgrp/npool/nimage =      28
     Waiting for input...
     Reading input from standard input
Warning: card &IONS ignored
Warning: card / ignored

     Current dimensions of program PWSCF are:
     Max number of different atomic species (ntypx) = 10
     Max number of k-points (npk) =  40000
     Max angular momentum in pseudopotentials (lmaxx) =  3
     WARNING: atomic wfc #  2 for atom type 4 has zero norm
     WARNING: atomic wfc #  4 for atom type 4 has zero norm
     WARNING: atomic wfc #  5 for atom type 4 has zero norm

     -------------------------------------
     Parameters for Dispersion Correction:
     -------------------------------------
       atom      VdW radius       C_6     

        Cu         2.952        374.666
        C_h        2.744         60.710
        C          2.744         60.710
        O          2.536         24.284

     Subspace diagonalization in iterative solution of the eigenvalue problem:
     one sub-group per band group will be used
     scalapack distributed-memory algorithm (size of sub-group:  3*  3 procs)

 
     Parallelization info
     --------------------
     sticks:   dense  smooth     PW     G-vecs:    dense   smooth      PW
     Min         408     408    108                73226    73226    9928
     Max         410     410    109                73231    73231    9931
     Sum       11433   11433   3039              2050409  2050409  278033
 


     bravais-lattice index     =            0
     lattice parameter (alat)  =      13.9425  a.u.
     unit-cell volume          =   21209.0878 (a.u.)^3
     number of atoms/cell      =          151
     number of atomic types    =            4
     number of electrons       =      1308.00
     number of Kohn-Sham states=          785
     kinetic-energy cutoff     =      80.0000  Ry
     charge density cutoff     =     320.0000  Ry
     convergence threshold     =      1.0E-08
     mixing beta               =       0.7000
     number of iterations used =            8  local-TF  mixing
     Exchange-correlation      =  SLA  PW   PBX  PBC ( 1  4  3  4 0 0)

     celldm(1)=  13.942539  celldm(2)=   0.000000  celldm(3)=   0.000000
     celldm(4)=   0.000000  celldm(5)=   0.000000  celldm(6)=   0.000000

     crystal axes: (cart. coord. in units of alat)
               a(1) = (   1.000000   0.000000   0.000000 )  
               a(2) = (   0.000000   2.309401   0.000000 )  
               a(3) = (   0.000000   0.000000   3.388418 )  

     reciprocal axes: (cart. coord. in units 2 pi/alat)
               b(1) = (  1.000000  0.000000  0.000000 )  
               b(2) = (  0.000000  0.433013  0.000000 )  
               b(3) = (  0.000000  0.000000  0.295123 )  


     PseudoPot. # 1 for Cu read from file:
     /home/549/hxw549/Short/pseudopotentials/Cu.pbe-n-van_ak.UPF
     MD5 check sum: 601f7c30f7467666bec936e0661ce3e1
     Pseudo is Ultrasoft + core correction, Zval = 11.0
     Generated by new atomic code, or converted to UPF format
     Using radial grid of  867 points,  6 beta functions with: 
                l(1) =   0
                l(2) =   0
                l(3) =   1
                l(4) =   1
                l(5) =   2
                l(6) =   2
     Q(r) pseudized with  8 coefficients,  rinner =    1.400   1.400   1.400
                                                       1.400   1.400

     PseudoPot. # 2 for C  read from file:
     /home/549/hxw549/Short/pseudopotentials/C.star1s-pbe-mt_gipaw.UPF
     MD5 check sum: ef0cb3dee31bd9e4ba2a832a2c716264
     Pseudo is Norm-conserving, Zval =  5.0
     Generated by new atomic code, or converted to UPF format
     Using radial grid of 1073 points,  1 beta functions with: 
                l(1) =   0

     PseudoPot. # 3 for C  read from file:
     /home/549/hxw549/Short/pseudopotentials/C.pbe-mt_gipaw.UPF
     MD5 check sum: 5ac2f21f2c440b14befe521540822c15
     Pseudo is Norm-conserving, Zval =  4.0
     Generated by new atomic code, or converted to UPF format
     Using radial grid of 1073 points,  1 beta functions with: 
                l(1) =   0

     PseudoPot. # 4 for O  read from file:
     /home/549/hxw549/Short/pseudopotentials/O.pbe-van_gipaw.UPF
     MD5 check sum: 5ce2a047509d4f331db576c963e74b29
     Pseudo is Ultrasoft, Zval =  6.0
     Generated by new atomic code, or converted to UPF format
     Using radial grid of 1095 points,  4 beta functions with: 
                l(1) =   0
                l(2) =   0
                l(3) =   1
                l(4) =   1
     Q(r) pseudized with 0 coefficients 


     atomic species   valence    mass     pseudopotential
        Cu            11.00    63.54600     Cu( 1.00)
        C_h            5.00    12.01070     C ( 1.00)
        C              4.00    12.01070     C ( 1.00)
        O              6.00    15.99940     O ( 1.00)

     No symmetry found



   Cartesian axes

     site n.     atom                  positions (alat units)
         1           Cu  tau(   1) = (   0.0008573  -0.0018351   0.9978221  )
         2           Cu  tau(   2) = (   0.2509084   0.2265501   0.9988819  )
         3           Cu  tau(   3) = (   0.5008508  -0.0019840   0.9975683  )
         4           Cu  tau(   4) = (   0.7507462   0.2262783   0.9983867  )
         5           Cu  tau(   5) = (   0.0009226   0.4569115   0.9995359  )
         6           Cu  tau(   6) = (   0.2509466   0.6897606   1.0003884  )
         7           Cu  tau(   7) = (   0.5007722   0.4569051   0.9997958  )
         8           Cu  tau(   8) = (   0.7508337   0.6899314   1.0007366  )
         9           Cu  tau(   9) = (   0.0008211   0.9242436   1.0005631  )
        10           Cu  tau(  10) = (   0.2510407   1.1587939   0.9997695  )
        11           Cu  tau(  11) = (   0.5010675   0.9243093   1.0009642  )
        12           Cu  tau(  12) = (   0.7507832   1.1585479   1.0002867  )
        13           Cu  tau(  13) = (   0.0008076   1.3920149   0.9981651  )
        14           Cu  tau(  14) = (   0.2508641   1.6229259   0.9968872  )
        15           Cu  tau(  15) = (   0.5009303   1.3917396   0.9986134  )
        16           Cu  tau(  16) = (   0.7508151   1.6234999   0.9965118  )
        17           Cu  tau(  17) = (   0.0010768   1.8521250   0.9962205  )
        18           Cu  tau(  18) = (   0.2506674   2.0802054   0.9970792  )
        19           Cu  tau(  19) = (   0.5006451   1.8527931   0.9957352  )
        20           Cu  tau(  20) = (   0.7510969   2.0800373   0.9962109  )
        21           Cu  tau(  21) = (   0.0009471   0.2250132   1.2487253  )
        22           Cu  tau(  22) = (   0.2507882  -0.0031446   1.2497440  )
        23           Cu  tau(  23) = (   0.5007919   0.2252728   1.2491714  )
        24           Cu  tau(  24) = (   0.7507971  -0.0036897   1.2491278  )
        25           Cu  tau(  25) = (   0.0012713   0.6893980   1.2461710  )
        26           Cu  tau(  26) = (   0.2511689   0.4560768   1.2478036  )
        27           Cu  tau(  27) = (   0.5013541   0.6891833   1.2462003  )
        28           Cu  tau(  28) = (   0.7508430   0.4560683   1.2474521  )
        29           Cu  tau(  29) = (   0.0015975   1.1598104   1.2452581  )
        30           Cu  tau(  30) = (   0.2511932   0.9245903   1.2453945  )
        31           Cu  tau(  31) = (   0.5012471   1.1599306   1.2456365  )
        32           Cu  tau(  32) = (   0.7516486   0.9243255   1.2458244  )
        33           Cu  tau(  33) = (   0.0010131   1.6253539   1.2462781  )
        34           Cu  tau(  34) = (   0.2511431   1.3937977   1.2457308  )
        35           Cu  tau(  35) = (   0.5008404   1.6254812   1.2457260  )
        36           Cu  tau(  36) = (   0.7511009   1.3943200   1.2451525  )
        37           Cu  tau(  37) = (   0.0008426   2.0793482   1.2491166  )
        38           Cu  tau(  38) = (   0.2507133   1.8534255   1.2477591  )
        39           Cu  tau(  39) = (   0.5006933   2.0795606   1.2489990  )
        40           Cu  tau(  40) = (   0.7509172   1.8537366   1.2472554  )
        41           Cu  tau(  41) = (   0.0008611  -0.0043987   1.5029302  )
        42           Cu  tau(  42) = (   0.2512449   0.2256642   1.5010773  )
        43           Cu  tau(  43) = (   0.5006184  -0.0040937   1.5031608  )
        44           Cu  tau(  44) = (   0.7506508   0.2245354   1.4992095  )
        45           Cu  tau(  45) = (   0.0016362   0.4566646   1.4959563  )
        46           Cu  tau(  46) = (   0.2523890   0.6905661   1.4930847  )
        47           Cu  tau(  47) = (   0.5011624   0.4575926   1.4977523  )
        48           Cu  tau(  48) = (   0.7518349   0.6902421   1.4941960  )
        49           Cu  tau(  49) = (   0.0023347   0.9247476   1.4925255  )
        50           Cu  tau(  50) = (   0.2526869   1.1599081   1.4923416  )
        51           Cu  tau(  51) = (   0.5020293   0.9246479   1.4907170  )
        52           Cu  tau(  52) = (   0.7523795   1.1609499   1.4907313  )
        53           Cu  tau(  53) = (   0.0022775   1.3952011   1.4935895  )
        54           Cu  tau(  54) = (   0.2511571   1.6262829   1.4978436  )
        55           Cu  tau(  55) = (   0.5013820   1.3947667   1.4939515  )
        56           Cu  tau(  56) = (   0.7512738   1.6266946   1.4968330  )
        57           Cu  tau(  57) = (   0.0008850   1.8536557   1.5027652  )
        58           Cu  tau(  58) = (   0.2508739   2.0790658   1.5048008  )
        59           Cu  tau(  59) = (   0.5008476   1.8533228   1.5022434  )
        60           Cu  tau(  60) = (   0.7505503   2.0787726   1.5044290  )
        61           Cu  tau(  61) = (   0.0016980   0.2262386   1.7497375  )
        62           Cu  tau(  62) = (   0.2509798  -0.0025672   1.7582257  )
        63           Cu  tau(  63) = (   0.5004316   0.2264262   1.7510009  )
        64           Cu  tau(  64) = (   0.7505303  -0.0023169   1.7573829  )
        65           Cu  tau(  65) = (   0.0019661   0.6913147   1.7387950  )
        66           Cu  tau(  66) = (   0.2525391   0.4569089   1.7431399  )
        67           Cu  tau(  67) = (   0.5023063   0.6918415   1.7420106  )
        68           Cu  tau(  68) = (   0.7512651   0.4566422   1.7431147  )
        69           Cu  tau(  69) = (   0.0041309   1.1625029   1.7356721  )
        70           Cu  tau(  70) = (   0.2541015   0.9252915   1.7395658  )
        71           Cu  tau(  71) = (   0.5034121   1.1639708   1.7344821  )
        72           Cu  tau(  72) = (   0.7552233   0.9274694   1.7335093  )
        73           Cu  tau(  73) = (   0.0022497   1.6232892   1.7515641  )
        74           Cu  tau(  74) = (   0.2533954   1.3956478   1.7415910  )
        75           Cu  tau(  75) = (   0.5018708   1.6237189   1.7502102  )
        76           Cu  tau(  76) = (   0.7526275   1.3955884   1.7397767  )
        77           Cu  tau(  77) = (   0.0007931   2.0789532   1.7611861  )
        78           Cu  tau(  78) = (   0.2511024   1.8512109   1.7583458  )
        79           Cu  tau(  79) = (   0.5009469   2.0787117   1.7606683  )
        80           Cu  tau(  80) = (   0.7514974   1.8508067   1.7587645  )
        81           Cu  tau(  81) = (   0.0027001   0.0029980   2.0095044  )
        82           Cu  tau(  82) = (   0.2527623   0.2336652   2.0024965  )
        83           Cu  tau(  83) = (   0.4986408   0.0010217   2.0104275  )
        84           Cu  tau(  84) = (   0.7489619   0.2291224   2.0040216  )
        85           Cu  tau(  85) = (  -0.0040408   0.4547941   1.9920730  )
        86           Cu  tau(  86) = (   0.2450909   0.6829240   1.9777034  )
        87           Cu  tau(  87) = (   0.5057828   0.4610105   1.9921824  )
        88           Cu  tau(  88) = (   0.7566954   0.6902729   1.9820341  )
        89           Cu  tau(  89) = (  -0.0032760   0.9313842   1.9771744  )
        90           Cu  tau(  90) = (   0.2495046   1.1622461   1.9788034  )
        91           Cu  tau(  91) = (   0.5198945   0.9355611   1.9773492  )
        92           Cu  tau(  92) = (   0.7623623   1.1705451   1.9826590  )
        93           Cu  tau(  93) = (   0.0082718   1.3932274   1.9974148  )
        94           Cu  tau(  94) = (   0.2553816   1.6199201   2.0056436  )
        95           Cu  tau(  95) = (   0.5016980   1.3878665   1.9912681  )
        96           Cu  tau(  96) = (   0.7518046   1.6146709   2.0045172  )
        97           Cu  tau(  97) = (   0.0003802   1.8462857   2.0115053  )
        98           Cu  tau(  98) = (   0.2508654   2.0775278   2.0128486  )
        99           Cu  tau(  99) = (   0.5037438   1.8474348   2.0102532  )
       100           Cu  tau( 100) = (   0.7513138   2.0807412   2.0125075  )
       101           C   tau( 101) = (   0.0011935   0.1000454   2.4741236  )
       102           C   tau( 102) = (   0.0013404   0.2901495   2.5156341  )
       103           C   tau( 103) = (   0.1677339   0.0040837   2.4545295  )
       104           C   tau( 104) = (   0.1682026   0.3849657   2.5377422  )
       105           C   tau( 105) = (   0.3344074   0.1002286   2.4714289  )
       106           C   tau( 106) = (   0.3346996   0.2899831   2.5140076  )
       107           C   tau( 107) = (   0.5012815   0.0040445   2.4544666  )
       108           C   tau( 108) = (   0.5015968   0.3851290   2.5349016  )
       109           C   tau( 109) = (   0.6681420   0.1002381   2.4726525  )
       110           C   tau( 110) = (   0.6684547   0.2904654   2.5131399  )
       111           C   tau( 111) = (   0.8345067   0.0035993   2.4576986  )
       112           C   tau( 112) = (   0.8349029   0.3856629   2.5369630  )
       113           C   tau( 113) = (   0.0018811   0.6733068   2.5877646  )
       114           C   tau( 114) = (   0.0016679   0.8678673   2.6011207  )
       115           C   tau( 115) = (   0.1685863   0.5750921   2.5778622  )
       116           C   tau( 116) = (   0.1663861   0.9662559   2.5993949  )
       117           C   tau( 117) = (   0.3352566   0.6695179   2.5928252  )
       118           C   tau( 118) = (   0.3355020   0.8670591   2.5834879  )
       119           C   tau( 119) = (   0.5017990   0.5752781   2.5750147  )
       120           C   tau( 120) = (   0.5035221   0.9663080   2.6054749  )
       121           C   tau( 121) = (   0.6682909   0.6736338   2.5862785  )
       122           C   tau( 122) = (   0.6682695   0.8677820   2.6039852  )
       123           C   tau( 123) = (   0.8352335   0.5773365   2.5725417  )
       124           C   tau( 124) = (   0.8349689   0.9652527   2.6001355  )
       125           C   tau( 125) = (   0.0010665   1.2552202   2.5666315  )
       126           C   tau( 126) = (   0.0012477   1.4457697   2.5284987  )
       127           C   tau( 127) = (   0.1675581   1.1585448   2.5807218  )
       128           C   tau( 128) = (   0.1679636   1.5404101   2.5050077  )
       129           C   tau( 129) = (   0.3349431   1.2542814   2.5630127  )
       130           C   tau( 130) = (   0.3347897   1.4444110   2.5243447  )
       131           C   tau( 131) = (   0.5020061   1.1584714   2.5841203  )
       132           C   tau( 132) = (   0.5013393   1.5403612   2.5043339  )
       133           C   tau( 133) = (   0.6681619   1.2552363   2.5673588  )
       134           C   tau( 134) = (   0.6680338   1.4454475   2.5275663  )
       135           C   tau( 135) = (   0.8346856   1.1586075   2.5821647  )
       136           C   tau( 136) = (   0.8345324   1.5411140   2.5071397  )
       137           C   tau( 137) = (   0.0010460   1.8278692   2.4511787  )
       138           C   tau( 138) = (   0.0010317   2.0217261   2.4342541  )
       139           C   tau( 139) = (   0.1678685   1.7310290   2.4663119  )
       140           C   tau( 140) = (   0.1675627   2.1197405   2.4349419  )
       141           C   tau( 141) = (   0.3343157   1.8275601   2.4502918  )
       142           C   tau( 142) = (   0.3343711   2.0217622   2.4360008  )
       143           C   tau( 143) = (   0.5010915   1.7307980   2.4646800  )
       144           C   tau( 144) = (   0.5010073   2.1196324   2.4373775  )
       145           C   tau( 145) = (   0.6676447   1.8274733   2.4494839  )
       146           C   tau( 146) = (   0.6675343   2.0216639   2.4345855  )
       147           C   tau( 147) = (   0.8343141   1.7313514   2.4669788  )
       148           C   tau( 148) = (   0.8342927   2.1195700   2.4359499  )
       149           C_h tau( 149) = (   0.3364713   0.8554695   2.3059262  )
       150           O   tau( 150) = (   0.4663307   0.9439922   2.2440879  )
       151           O   tau( 151) = (   0.2156522   0.7576010   2.2397108  )

     number of k points=     6  gaussian smearing, width (Ry)=  0.1000
                       cart. coord. in units 2pi/alat
        k(    1) = (   0.0000000   0.0000000   0.0000000), wk =   0.2500000
        k(    2) = (   0.0000000  -0.2165064   0.0000000), wk =   0.2500000
        k(    3) = (   0.2500000   0.0000000   0.0000000), wk =   0.5000000
        k(    4) = (   0.2500000  -0.2165064   0.0000000), wk =   0.5000000
        k(    5) = (  -0.5000000   0.0000000   0.0000000), wk =   0.2500000
        k(    6) = (  -0.5000000  -0.2165064   0.0000000), wk =   0.2500000

     Dense  grid:  2050409 G-vectors     FFT dimensions: (  80, 192, 270)

     Largest allocated arrays     est. size (Mb)     dimensions
        Kohn-Sham Wavefunctions       109.85 Mb     (    9171,  785)
        NL pseudopotentials           260.99 Mb     (    9171, 1865)
        Each V/rho on FFT grid          2.34 Mb     (  153600)
        Each G-vector array             0.56 Mb     (   73230)
        G-vector shells                 0.27 Mb     (   35784)
     Largest temporary arrays     est. size (Mb)     dimensions
        Auxiliary wavefunctions       439.41 Mb     (    9171, 3140)
        Each subspace H/S matrix       16.69 Mb     (    1046, 1046)
        Each <psi_i|beta_j> matrix     22.34 Mb     (    1865,  785)
        Arrays for rho mixing          18.75 Mb     (  153600,    8)

     Initial potential from superposition of free atoms
     Check: negative starting charge=   -0.001494

     starting charge 1282.31751, renormalised to 1308.00000

     negative rho (up, down):  1.524E-03 0.000E+00
     Starting wfc are 1300 randomized atomic wfcs

     total cpu time spent up to now is      205.9 secs

     Self-consistent Calculation

     iteration #  1     ecut=    80.00 Ry     beta=0.70
     Davidson diagonalization with overlap
     c_bands:  5 eigenvalues not converged
     c_bands:  4 eigenvalues not converged
     c_bands:  5 eigenvalues not converged
     ethr =  1.00E-04,  avg # of iterations = 45.5

     negative rho (up, down):  2.382E+01 0.000E+00

     total cpu time spent up to now is     4914.8 secs

     total energy              =  -10109.09038486 Ry
     Harris-Foulkes estimate   =  -18212.95979545 Ry
     estimated scf accuracy    <  210041.19275045 Ry

     iteration #  2     ecut=    80.00 Ry     beta=0.70
     Davidson diagonalization with overlap
     ethr =  1.00E-02,  avg # of iterations = 13.8

     negative rho (up, down):  3.134E+01 0.000E+00

     total cpu time spent up to now is     6948.4 secs

     total energy              =  -11916.87145619 Ry
     Harris-Foulkes estimate   =  -13835.31899320 Ry
     estimated scf accuracy    <   35280.10302393 Ry

     iteration #  3     ecut=    80.00 Ry     beta=0.70
     Davidson diagonalization with overlap
     ethr =  1.00E-02,  avg # of iterations = 19.3

     negative rho (up, down):  3.010E+01 0.000E+00

     total cpu time spent up to now is     8970.1 secs

     total energy              =  -12141.69691522 Ry
     Harris-Foulkes estimate   =  -13760.97750969 Ry
     estimated scf accuracy    <    6890.84614068 Ry

     iteration #  4     ecut=    80.00 Ry     beta=0.70
     Davidson diagonalization with overlap
     ethr =  1.00E-02,  avg # of iterations =  4.2

     negative rho (up, down):  2.107E+01 0.000E+00

     total cpu time spent up to now is     9977.3 secs

     total energy              =  -12905.03441546 Ry
     Harris-Foulkes estimate   =  -13112.27526596 Ry
     estimated scf accuracy    <     990.02634465 Ry

     iteration #  5     ecut=    80.00 Ry     beta=0.70
     Davidson diagonalization with overlap
     ethr =  1.00E-02,  avg # of iterations =  3.0

     negative rho (up, down):  1.790E+01 0.000E+00

     total cpu time spent up to now is    10464.4 secs

     total energy              =  -12904.20882142 Ry
     Harris-Foulkes estimate   =  -12967.48428489 Ry
     estimated scf accuracy    <    1558.92980189 Ry

     iteration #  6     ecut=    80.00 Ry     beta=0.70
     Davidson diagonalization with overlap
     ethr =  1.00E-02,  avg # of iterations =  1.5

     negative rho (up, down):  9.461E+00 0.000E+00

     total cpu time spent up to now is    10801.7 secs

     total energy              =  -12860.66134603 Ry
     Harris-Foulkes estimate   =  -12935.62625861 Ry
     estimated scf accuracy    <     473.00808468 Ry

     iteration #  7     ecut=    80.00 Ry     beta=0.70
     Davidson diagonalization with overlap
     ethr =  1.00E-02,  avg # of iterations =  2.0

     negative rho (up, down):  7.371E+00 0.000E+00

     total cpu time spent up to now is    11169.9 secs

     total energy              =  -12857.04420249 Ry
     Harris-Foulkes estimate   =  -12880.04307670 Ry
     estimated scf accuracy    <     286.81159081 Ry

     iteration #  8     ecut=    80.00 Ry     beta=0.70
     Davidson diagonalization with overlap
     ethr =  1.00E-02,  avg # of iterations =  2.0

     negative rho (up, down):  5.794E+00 0.000E+00

     total cpu time spent up to now is    11519.7 secs

     total energy              =  -12848.60350928 Ry
     Harris-Foulkes estimate   =  -12863.65863709 Ry
     estimated scf accuracy    <     227.52828940 Ry

     iteration #  9     ecut=    80.00 Ry     beta=0.70
     Davidson diagonalization with overlap
     ethr =  1.00E-02,  avg # of iterations =  1.0

     negative rho (up, down):  5.198E+00 0.000E+00

     total cpu time spent up to now is    11848.8 secs

     total energy              =  -12844.20677434 Ry
     Harris-Foulkes estimate   =  -12850.25427641 Ry
     estimated scf accuracy    <     210.21390612 Ry

     iteration # 10     ecut=    80.00 Ry     beta=0.70
     Davidson diagonalization with overlap
     ethr =  1.00E-02,  avg # of iterations =  1.0

     negative rho (up, down):  6.431E-01 0.000E+00

     total cpu time spent up to now is    12177.5 secs

     total energy              =  -12802.45642928 Ry
     Harris-Foulkes estimate   =  -12845.04405966 Ry
     estimated scf accuracy    <     156.79746642 Ry

     iteration # 11     ecut=    80.00 Ry     beta=0.70
     Davidson diagonalization with overlap
     ethr =  1.00E-02,  avg # of iterations =  2.8

     negative rho (up, down):  5.479E-01 0.000E+00

     total cpu time spent up to now is    12548.7 secs

     total energy              =  -12798.17839859 Ry
     Harris-Foulkes estimate   =  -12817.20136924 Ry
     estimated scf accuracy    <     366.13448934 Ry

     iteration # 12     ecut=    80.00 Ry     beta=0.70
     Davidson diagonalization with overlap
     ethr =  1.00E-02,  avg # of iterations =  2.2

     negative rho (up, down):  5.615E-01 0.000E+00

     total cpu time spent up to now is    12902.3 secs

     total energy              =  -12796.43019015 Ry
     Harris-Foulkes estimate   =  -12806.85802393 Ry
     estimated scf accuracy    <      64.93096626 Ry

     iteration # 13     ecut=    80.00 Ry     beta=0.70
     Davidson diagonalization with overlap
     ethr =  4.96E-03,  avg # of iterations =  3.0

     negative rho (up, down):  2.442E+00 0.000E+00

     total cpu time spent up to now is    13274.2 secs

     total energy              =  -12791.60994373 Ry
     Harris-Foulkes estimate   =  -12803.37382682 Ry
     estimated scf accuracy    <      62.85412295 Ry

     iteration # 14     ecut=    80.00 Ry     beta=0.70
     Davidson diagonalization with overlap
     ethr =  4.81E-03,  avg # of iterations =  2.0

     negative rho (up, down):  3.370E+00 0.000E+00

     total cpu time spent up to now is    13625.0 secs

     total energy              =  -12790.57357854 Ry
     Harris-Foulkes estimate   =  -12795.28974558 Ry
     estimated scf accuracy    <      30.45725499 Ry

     iteration # 15     ecut=    80.00 Ry     beta=0.70
     Davidson diagonalization with overlap
     ethr =  2.33E-03,  avg # of iterations =  2.0

     negative rho (up, down):  3.733E+00 0.000E+00

     total cpu time spent up to now is    13975.3 secs

     total energy              =  -12788.27046103 Ry
     Harris-Foulkes estimate   =  -12791.97535079 Ry
     estimated scf accuracy    <      19.05842164 Ry

     iteration # 16     ecut=    80.00 Ry     beta=0.70
     Davidson diagonalization with overlap
     ethr =  1.46E-03,  avg # of iterations =  2.7

     negative rho (up, down):  5.303E+00 0.000E+00

     total cpu time spent up to now is    14341.1 secs

     total energy              =  -12787.55980404 Ry
     Harris-Foulkes estimate   =  -12789.59424413 Ry
     estimated scf accuracy    <      22.18047688 Ry

     iteration # 17     ecut=    80.00 Ry     beta=0.70
     Davidson diagonalization with overlap
     ethr =  1.46E-03,  avg # of iterations =  2.5

     negative rho (up, down):  4.553E+00 0.000E+00

     total cpu time spent up to now is    14703.5 secs

     total energy              =  -12787.41930547 Ry
     Harris-Foulkes estimate   =  -12788.85881747 Ry
     estimated scf accuracy    <      11.11348739 Ry

     iteration # 18     ecut=    80.00 Ry     beta=0.70
     Davidson diagonalization with overlap
     ethr =  8.50E-04,  avg # of iterations =  5.2

     negative rho (up, down):  3.095E+00 0.000E+00

     total cpu time spent up to now is    15121.4 secs

     total energy              =  -12786.18234834 Ry
     Harris-Foulkes estimate   =  -12787.65488353 Ry
     estimated scf accuracy    <       8.32180300 Ry

     iteration # 19     ecut=    80.00 Ry     beta=0.70
     Davidson diagonalization with overlap
     ethr =  6.36E-04,  avg # of iterations =  4.2

     negative rho (up, down):  2.665E+00 0.000E+00

     total cpu time spent up to now is    15514.9 secs

     total energy              =  -12785.61171402 Ry
     Harris-Foulkes estimate   =  -12786.39675155 Ry
     estimated scf accuracy    <       7.04745253 Ry

     iteration # 20     ecut=    80.00 Ry     beta=0.70
     Davidson diagonalization with overlap
     ethr =  5.39E-04,  avg # of iterations =  4.7

     negative rho (up, down):  1.999E+00 0.000E+00

     total cpu time spent up to now is    15921.2 secs

     total energy              =  -12784.71084304 Ry
     Harris-Foulkes estimate   =  -12785.72153641 Ry
     estimated scf accuracy    <       5.95476788 Ry

     iteration # 21     ecut=    80.00 Ry     beta=0.70
     Davidson diagonalization with overlap
     ethr =  4.55E-04,  avg # of iterations =  2.8

     negative rho (up, down):  2.079E+00 0.000E+00

     total cpu time spent up to now is    16286.7 secs

     total energy              =  -12784.34105142 Ry
     Harris-Foulkes estimate   =  -12784.83230122 Ry
     estimated scf accuracy    <       6.52465668 Ry

     iteration # 22     ecut=    80.00 Ry     beta=0.70
     Davidson diagonalization with overlap
     ethr =  4.55E-04,  avg # of iterations =  4.3

     negative rho (up, down):  1.789E+00 0.000E+00

     total cpu time spent up to now is    16693.7 secs

     total energy              =  -12783.67379901 Ry
     Harris-Foulkes estimate   =  -12784.50881862 Ry
     estimated scf accuracy    <       4.76904139 Ry

     iteration # 23     ecut=    80.00 Ry     beta=0.70
     Davidson diagonalization with overlap
     ethr =  3.65E-04,  avg # of iterations =  1.0

     negative rho (up, down):  1.196E+00 0.000E+00

     total cpu time spent up to now is    17023.6 secs

     total energy              =  -12783.06498058 Ry
     Harris-Foulkes estimate   =  -12783.78610761 Ry
     estimated scf accuracy    <       3.31731105 Ry

     iteration # 24     ecut=    80.00 Ry     beta=0.70
     Davidson diagonalization with overlap
     ethr =  2.54E-04,  avg # of iterations =  1.0

     negative rho (up, down):  3.570E-01 0.000E+00

     total cpu time spent up to now is    17354.5 secs

     total energy              =  -12782.05735064 Ry
     Harris-Foulkes estimate   =  -12783.18410054 Ry
     estimated scf accuracy    <       2.36923738 Ry

     iteration # 25     ecut=    80.00 Ry     beta=0.70
     Davidson diagonalization with overlap
     ethr =  1.81E-04,  avg # of iterations =  9.3

     negative rho (up, down):  5.120E-01 0.000E+00

     total cpu time spent up to now is    17892.1 secs

     total energy              =  -12781.92127499 Ry
     Harris-Foulkes estimate   =  -12782.15754530 Ry
     estimated scf accuracy    <       1.19282274 Ry

     iteration # 26     ecut=    80.00 Ry     beta=0.70
     Davidson diagonalization with overlap
     ethr =  9.12E-05,  avg # of iterations =  7.3

     negative rho (up, down):  4.048E-01 0.000E+00

     total cpu time spent up to now is    18387.6 secs

     total energy              =  -12781.90990852 Ry
     Harris-Foulkes estimate   =  -12781.96500197 Ry
     estimated scf accuracy    <       0.26870029 Ry

     iteration # 27     ecut=    80.00 Ry     beta=0.70
     Davidson diagonalization with overlap
     ethr =  2.05E-05,  avg # of iterations =  9.5

     negative rho (up, down):  2.450E-01 0.000E+00

     total cpu time spent up to now is    18916.9 secs

     total energy              =  -12781.90304899 Ry
     Harris-Foulkes estimate   =  -12781.93415046 Ry
     estimated scf accuracy    <       0.16402596 Ry

     iteration # 28     ecut=    80.00 Ry     beta=0.70
     Davidson diagonalization with overlap
     ethr =  1.25E-05,  avg # of iterations =  8.0

     negative rho (up, down):  1.130E-01 0.000E+00

     total cpu time spent up to now is    19428.7 secs

     total energy              =  -12781.90800597 Ry
     Harris-Foulkes estimate   =  -12781.91467621 Ry
     estimated scf accuracy    <       0.04705434 Ry

     iteration # 29     ecut=    80.00 Ry     beta=0.70
     Davidson diagonalization with overlap
     c_bands:  2 eigenvalues not converged
     ethr =  3.60E-06,  avg # of iterations = 12.3

     negative rho (up, down):  8.254E-02 0.000E+00

     total cpu time spent up to now is    20055.6 secs

     total energy              =  -12781.90987305 Ry
     Harris-Foulkes estimate   =  -12781.91433619 Ry
     estimated scf accuracy    <       0.03039303 Ry

     iteration # 30     ecut=    80.00 Ry     beta=0.70
     Davidson diagonalization with overlap
     ethr =  2.32E-06,  avg # of iterations =  8.7

     negative rho (up, down):  2.979E-02 0.000E+00

     total cpu time spent up to now is    20569.4 secs

     total energy              =  -12781.91092053 Ry
     Harris-Foulkes estimate   =  -12781.91310795 Ry
     estimated scf accuracy    <       0.01328931 Ry

     iteration # 31     ecut=    80.00 Ry     beta=0.70
     Davidson diagonalization with overlap
     ethr =  1.02E-06,  avg # of iterations = 10.7

     negative rho (up, down):  2.347E-02 0.000E+00

     total cpu time spent up to now is    21162.8 secs

     total energy              =  -12781.91139270 Ry
     Harris-Foulkes estimate   =  -12781.91232294 Ry
     estimated scf accuracy    <       0.00578171 Ry

     iteration # 32     ecut=    80.00 Ry     beta=0.70
     Davidson diagonalization with overlap
     c_bands:  1 eigenvalues not converged
     ethr =  4.42E-07,  avg # of iterations =  7.5

     negative rho (up, down):  1.233E-02 0.000E+00

     total cpu time spent up to now is    21658.5 secs

     total energy              =  -12781.91149597 Ry
     Harris-Foulkes estimate   =  -12781.91221850 Ry
     estimated scf accuracy    <       0.00439852 Ry

     iteration # 33     ecut=    80.00 Ry     beta=0.70
     Davidson diagonalization with overlap
     c_bands:  1 eigenvalues not converged
     ethr =  3.36E-07,  avg # of iterations = 14.3

     negative rho (up, down):  5.355E-03 0.000E+00

     total cpu time spent up to now is    22313.0 secs

     total energy              =  -12781.91163525 Ry
     Harris-Foulkes estimate   =  -12781.91175115 Ry
     estimated scf accuracy    <       0.00080464 Ry

     iteration # 34     ecut=    80.00 Ry     beta=0.70
     Davidson diagonalization with overlap
     c_bands:  1 eigenvalues not converged
     ethr =  6.15E-08,  avg # of iterations = 11.8

     negative rho (up, down):  1.409E-03 0.000E+00

     total cpu time spent up to now is    22932.5 secs

     total energy              =  -12781.91173765 Ry
     Harris-Foulkes estimate   =  -12781.91171753 Ry
     estimated scf accuracy    <       0.00044517 Ry

     iteration # 35     ecut=    80.00 Ry     beta=0.70
     Davidson diagonalization with overlap
     c_bands:  1 eigenvalues not converged
     ethr =  3.40E-08,  avg # of iterations = 12.5

     negative rho (up, down):  1.495E-03 0.000E+00

     total cpu time spent up to now is    23548.7 secs

     total energy              =  -12781.91178532 Ry
     Harris-Foulkes estimate   =  -12781.91178216 Ry
     estimated scf accuracy    <       0.00013005 Ry

     iteration # 36     ecut=    80.00 Ry     beta=0.70
     Davidson diagonalization with overlap
     ethr =  9.94E-09,  avg # of iterations =  7.0

     negative rho (up, down):  1.873E-03 0.000E+00

     total cpu time spent up to now is    24049.5 secs

     total energy              =  -12781.91182371 Ry
     Harris-Foulkes estimate   =  -12781.91180325 Ry
     estimated scf accuracy    <       0.00005176 Ry

     iteration # 37     ecut=    80.00 Ry     beta=0.70
     Davidson diagonalization with overlap
     ethr =  3.96E-09,  avg # of iterations =  7.7

     negative rho (up, down):  1.512E-03 0.000E+00

     total cpu time spent up to now is    24550.7 secs

     total energy              =  -12781.91183205 Ry
     Harris-Foulkes estimate   =  -12781.91183039 Ry
     estimated scf accuracy    <       0.00001121 Ry

     iteration # 38     ecut=    80.00 Ry     beta=0.70
     Davidson diagonalization with overlap
     ethr =  8.57E-10,  avg # of iterations =  2.8

     negative rho (up, down):  1.505E-03 0.000E+00

     total cpu time spent up to now is    24935.3 secs

     total energy              =  -12781.91183749 Ry
     Harris-Foulkes estimate   =  -12781.91183331 Ry
     estimated scf accuracy    <       0.00000364 Ry

     iteration # 39     ecut=    80.00 Ry     beta=0.70
     Davidson diagonalization with overlap
     ethr =  2.78E-10,  avg # of iterations =  5.5

     negative rho (up, down):  1.506E-03 0.000E+00

     total cpu time spent up to now is    25426.1 secs

     total energy              =  -12781.91183796 Ry
     Harris-Foulkes estimate   =  -12781.91183808 Ry
     estimated scf accuracy    <       0.00000105 Ry

     iteration # 40     ecut=    80.00 Ry     beta=0.70
     Davidson diagonalization with overlap
     ethr =  8.06E-11,  avg # of iterations =  2.0

     negative rho (up, down):  1.553E-03 0.000E+00

     total cpu time spent up to now is    25804.0 secs

     total energy              =  -12781.91183796 Ry
     Harris-Foulkes estimate   =  -12781.91183809 Ry
     estimated scf accuracy    <       0.00000045 Ry

     iteration # 41     ecut=    80.00 Ry     beta=0.70
     Davidson diagonalization with overlap
     ethr =  3.41E-11,  avg # of iterations =  3.0

     negative rho (up, down):  1.579E-03 0.000E+00

     total cpu time spent up to now is    26195.4 secs

     total energy              =  -12781.91183784 Ry
     Harris-Foulkes estimate   =  -12781.91183801 Ry
     estimated scf accuracy    <       0.00000025 Ry

     iteration # 42     ecut=    80.00 Ry     beta=0.70
     Davidson diagonalization with overlap
     ethr =  1.89E-11,  avg # of iterations =  2.0

     negative rho (up, down):  1.640E-03 0.000E+00

     total cpu time spent up to now is    26559.8 secs

     total energy              =  -12781.91183778 Ry
     Harris-Foulkes estimate   =  -12781.91183786 Ry
     estimated scf accuracy    <       0.00000008 Ry

     iteration # 43     ecut=    80.00 Ry     beta=0.70
     Davidson diagonalization with overlap
     ethr =  6.38E-12,  avg # of iterations =  2.8

     negative rho (up, down):  1.649E-03 0.000E+00

     total cpu time spent up to now is    26944.9 secs

     total energy              =  -12781.91183780 Ry
     Harris-Foulkes estimate   =  -12781.91183779 Ry
     estimated scf accuracy    <       0.00000002 Ry

     iteration # 44     ecut=    80.00 Ry     beta=0.70
     Davidson diagonalization with overlap
     ethr =  1.60E-12,  avg # of iterations =  3.0

     negative rho (up, down):  1.663E-03 0.000E+00

     total cpu time spent up to now is    27468.7 secs

     total energy              =  -12781.91183780 Ry
     Harris-Foulkes estimate   =  -12781.91183780 Ry
     estimated scf accuracy    <       0.00000001 Ry

     iteration # 45     ecut=    80.00 Ry     beta=0.70
     Davidson diagonalization with overlap
     ethr =  9.54E-13,  avg # of iterations =  2.8

     negative rho (up, down):  1.659E-03 0.000E+00

     total cpu time spent up to now is    27833.6 secs

     End of self-consistent calculation

          k = 0.0000 0.0000 0.0000 (256287 PWs)   bands (ev):

   -22.0701 -19.7116 -15.9101 -15.5592 -15.5211 -14.4659 -14.4549 -13.9494
   -13.9411 -13.6151 -13.5965 -13.5674 -13.5627 -12.7174 -12.6981 -12.5547
   -12.5493 -12.5388 -12.5268 -10.9084 -10.8976 -10.8895 -10.8809 -10.8108
    -9.6384  -9.1302  -9.1183  -8.9567  -8.9346  -8.2138  -8.0802  -8.0575
    -8.0542  -7.8923  -7.2191  -7.2077  -7.0270  -7.0214  -7.0143  -7.0079
    -6.9818  -6.9775  -6.4576  -5.9409  -5.8282  -5.5752  -5.5163  -5.4882
    -5.4655  -5.4454  -5.4077  -5.4014  -5.3976  -5.3821  -5.3608  -5.3023
    -4.8284  -4.3258  -4.3200  -4.2644  -4.2576  -4.0984  -4.0241  -3.9903
    -3.9100  -3.9072  -3.6101  -3.4195  -3.3308  -3.3277  -3.1799  -3.1722
    -3.1675  -3.1621  -3.1507  -2.9501  -2.9457  -2.9402  -2.9344  -2.9289
    -2.9258  -2.9080  -2.9048  -2.7905  -2.7647  -2.7025  -2.4708  -2.4460
    -2.4437  -2.4324  -2.4275  -2.3559  -2.3284  -2.3175  -2.3104  -2.2859
    -2.2266  -2.2250  -2.2212  -2.2176  -2.1274  -2.1243  -2.0965  -2.0943
    -2.0908  -2.0897  -1.9616  -1.9603  -1.9574  -1.9516  -1.9324  -1.9116
    -1.8368  -1.7951  -1.7432  -1.7198  -1.6855  -1.6769  -1.6734  -1.6732
    -1.6589  -1.6570  -1.6363  -1.6206  -1.5976  -1.5847  -1.5748  -1.5585
    -1.5340  -1.5282  -1.5166  -1.5103  -1.5025  -1.4911  -1.4720  -1.4677
    -1.4631  -1.4598  -1.4543  -1.4414  -1.3951  -1.3900  -1.3795  -1.3651
    -1.3533  -1.2976  -1.2765  -1.2453  -1.2403  -1.2333  -1.2280  -1.2261
    -1.2040  -1.2006  -1.1830  -1.1588  -1.1523  -1.1382  -1.1318  -1.1157
    -1.0971  -1.0685  -1.0400  -1.0125  -0.9971  -0.9954  -0.9928  -0.9907
    -0.9846  -0.9793  -0.9727  -0.9705  -0.9664  -0.9623  -0.9602  -0.9566
    -0.9462  -0.9459  -0.9412  -0.9368  -0.9330  -0.9190  -0.8910  -0.8855
    -0.8815  -0.8599  -0.8566  -0.8536  -0.8462  -0.8179  -0.8124  -0.8028
    -0.8006  -0.7987  -0.7976  -0.7954  -0.7931  -0.7930  -0.7884  -0.7857
    -0.7832  -0.7825  -0.7815  -0.7806  -0.7734  -0.7720  -0.7083  -0.6350
    -0.6312  -0.6300  -0.6262  -0.5988  -0.5922  -0.5889  -0.5790  -0.5754
    -0.5650  -0.5621  -0.5606  -0.5560  -0.5477  -0.5391  -0.5336  -0.5122
    -0.5106  -0.5036  -0.5015  -0.4941  -0.4900  -0.4859  -0.4822  -0.4334
    -0.4294  -0.4273  -0.3989  -0.3889  -0.3861  -0.3789  -0.3725  -0.3665
    -0.3632  -0.3607  -0.3592  -0.3544  -0.3538  -0.3505  -0.3484  -0.3468
    -0.3443  -0.3401  -0.3359  -0.3287  -0.3261  -0.3095  -0.2994  -0.2877
    -0.2832  -0.2788  -0.2580  -0.2495  -0.2427  -0.2404  -0.2356  -0.2338
    -0.2316  -0.2304  -0.2128  -0.2115  -0.2106  -0.2049  -0.1988  -0.1974
    -0.1947  -0.1925  -0.1921  -0.1847  -0.1832  -0.1778  -0.1718  -0.1681
    -0.1623  -0.1573  -0.1554  -0.1452  -0.1424  -0.1377  -0.1342  -0.1310
    -0.1286  -0.1202  -0.1133  -0.0901  -0.0836  -0.0776  -0.0724  -0.0653
    -0.0634  -0.0375  -0.0315  -0.0245  -0.0143  -0.0066  -0.0025  -0.0013
     0.0006   0.0062   0.0108   0.0155   0.0228   0.0370   0.0379   0.0452
     0.0502   0.0535   0.0581   0.0659   0.0735   0.0767   0.0912   0.0922
     0.0958   0.0982   0.1031   0.1098   0.1110   0.1119   0.1159   0.1184
     0.1237   0.1383   0.1436   0.1551   0.1571   0.1636   0.1723   0.1862
     0.1871   0.2100   0.2149   0.2172   0.2201   0.2314   0.2376   0.2493
     0.2620   0.2679   0.2903   0.2961   0.3029   0.3143   0.3221   0.3344
     0.3415   0.3427   0.3436   0.3460   0.3541   0.3568   0.3824   0.3852
     0.4039   0.4081   0.4106   0.4118   0.4212   0.4255   0.4292   0.4355
     0.4390   0.4432   0.4481   0.4672   0.4698   0.4759   0.4825   0.4881
     0.5021   0.5038   0.5122   0.5146   0.5202   0.5248   0.5297   0.5319
     0.5459   0.5492   0.5575   0.5618   0.5684   0.5746   0.5801   0.5822
     0.5838   0.5884   0.5983   0.6009   0.6019   0.6035   0.6043   0.6083
     0.6103   0.6122   0.6203   0.6211   0.6233   0.6288   0.6456   0.6500
     0.6531   0.6571   0.6754   0.6820   0.6875   0.6881   0.6967   0.7001
     0.7034   0.7104   0.7112   0.7165   0.7242   0.7257   0.7272   0.7286
     0.7296   0.7308   0.7366   0.7433   0.7468   0.7616   0.7633   0.7709
     0.7724   0.7742   0.7765   0.7874   0.7875   0.7878   0.7909   0.7980
     0.8054   0.8104   0.8109   0.8127   0.8223   0.8272   0.8445   0.8569
     0.8618   0.8631   0.8715   0.8799   0.8898   0.8965   0.9015   0.9033
     0.9116   0.9132   0.9183   0.9201   0.9338   0.9353   0.9367   0.9407
     0.9436   0.9551   0.9634   0.9677   0.9686   0.9711   0.9758   0.9777
     0.9828   0.9839   0.9851   0.9890   0.9898   1.0086   1.0291   1.0292
     1.0328   1.0357   1.0433   1.0467   1.0517   1.0532   1.0586   1.0632
     1.0669   1.0690   1.0723   1.0796   1.0806   1.0824   1.0873   1.0917
     1.0975   1.1012   1.1050   1.1094   1.1201   1.1279   1.1330   1.1351
     1.1404   1.1458   1.1468   1.1488   1.1529   1.1571   1.1577   1.1604
     1.1613   1.1669   1.1683   1.1719   1.1739   1.1773   1.1801   1.1897
     1.1968   1.1991   1.2023   1.2114   1.2165   1.2209   1.2246   1.2319
     1.2379   1.2507   1.2543   1.2562   1.2645   1.2679   1.2743   1.2806
     1.2838   1.2882   1.2920   1.2954   1.3009   1.3035   1.3091   1.3143
     1.3154   1.3196   1.3212   1.3231   1.3276   1.3293   1.3330   1.3371
     1.3389   1.3463   1.3506   1.3509   1.3516   1.3528   1.3565   1.3585
     1.3607   1.3656   1.3715   1.3768   1.3804   1.3836   1.3905   1.3943
     1.3954   1.4040   1.4079   1.4135   1.4214   1.4231   1.4277   1.4400
     1.4436   1.4437   1.4449   1.4499   1.4511   1.4518   1.4624   1.4645
     1.4687   1.4707   1.4709   1.4726   1.4748   1.4757   1.4794   1.4898
     1.4921   1.4970   1.5015   1.5048   1.5072   1.5098   1.5114   1.5158
     1.5183   1.5195   1.5217   1.5234   1.5397   1.5507   1.5562   1.5636
     1.5667   1.5850   1.5921   1.5969   1.6004   1.6095   1.6166   1.6272
     1.6316   1.6371   1.6570   1.6639   1.6690   1.6692   1.6721   1.6782
     1.6936   1.7005   1.7106   1.7261   1.9695   1.9953   2.1108   2.1175
     2.1386   2.1494   2.2384   2.2430   2.2440   2.2479   2.2498   2.2572
     2.2642   2.2668   2.3915   2.3984   2.4507   2.4634   2.4760   2.5027
     2.5140   2.5821   2.6785   2.7307   2.7433   2.7775   2.8366   3.1446
     3.4226   3.4317   3.5008   3.5216   3.5391   3.7910   3.8018   3.8264
     3.8498   3.8577   3.8796   3.8887   3.8932   3.9617   3.9868   4.0056
     4.0224   4.0351   4.0455   4.0529   4.0619   4.1118   4.1740   4.1940
     4.2134   4.3653   4.5098   4.6296   4.8192   5.0855   5.2104   5.3482
     5.3652   5.3716   5.3840   5.3901   5.4242   5.5562   5.6460   5.6619
     5.8209   5.9346   5.9685   5.9858   6.2343   6.2384   6.4053   6.4099
     6.4730   6.5129   6.5342   6.5527   6.6901   6.7148   6.7738   6.7939
     6.9638   6.9684   6.9795   7.0076   7.1263   7.1446   7.1862   7.1909
     7.2145   7.2306   7.2796   7.3120   7.4103   7.4371   7.4873   7.5817
     7.6776   7.7050   7.7169   7.7860   7.8424   8.1250   8.1301   8.1585
     8.1707   8.1880   8.2038   8.2256   8.3477   8.3557   8.3653   8.3799
     8.3849   8.5204   8.5327   8.5913   8.6043   8.6122   8.6615   8.6844
     8.8053   8.8180   8.8507   8.8608   8.8631   8.8700   8.8817   8.8987
     8.9249   8.9928   9.0490   9.0675   9.1253   9.1320   9.2604   9.3095
     9.3690   9.4348   9.4964   9.5533   9.5957   9.6208   9.6478   9.6771
     9.6854   9.7978   9.8181   9.8771  10.0884  10.0887  10.2226  10.2491
    10.2509

          k = 0.0000-0.2165 0.0000 (256176 PWs)   bands (ev):

   -22.0701 -19.7116 -15.8438 -15.7881 -15.0933 -15.0830 -13.8812 -13.8801
   -13.8390 -13.8167 -13.6672 -13.6558 -13.1632 -13.1521 -13.1418 -13.1316
   -11.7948 -11.7883 -11.7838 -11.7708 -11.6422 -11.6160  -9.9452  -9.9320
    -9.9210  -9.9146  -8.7082  -8.6816  -8.5091  -8.4720  -8.4636  -8.4435
    -8.0020  -7.6081  -7.6046  -7.6020  -7.5658  -6.5321  -6.4980  -6.4958
    -6.4621  -6.4118  -6.3341  -6.3154  -6.3014  -6.2648  -5.8185  -5.8092
    -5.7693  -5.6395  -5.5881  -5.4213  -4.7622  -4.7552  -4.7369  -4.7313
    -4.7256  -4.6820  -4.6766  -4.6512  -4.2162  -4.2004  -4.1967  -4.1949
    -4.0860  -3.7469  -3.7068  -3.6931  -3.2311  -3.2308  -3.2285  -3.2195
    -3.1810  -3.0520  -3.0317  -2.9604  -2.9552  -2.9520  -2.7280  -2.6787
    -2.6445  -2.6407  -2.6005  -2.5902  -2.5167  -2.5152  -2.5116  -2.5075
    -2.4913  -2.4868  -2.4788  -2.4630  -2.4398  -2.4352  -2.3944  -2.3940
    -2.3647  -2.3527  -2.2493  -2.2191  -2.1328  -2.1259  -2.0828  -2.0681
    -2.0598  -2.0545  -2.0347  -2.0153  -1.9243  -1.9236  -1.9061  -1.9049
    -1.8868  -1.8532  -1.8227  -1.8078  -1.8010  -1.7573  -1.7243  -1.7070
    -1.6967  -1.6880  -1.6758  -1.6724  -1.6576  -1.6560  -1.6085  -1.6051
    -1.6036  -1.5956  -1.5937  -1.5812  -1.5379  -1.5010  -1.4379  -1.4369
    -1.4235  -1.4201  -1.3750  -1.3188  -1.3097  -1.2898  -1.2748  -1.2669
    -1.2546  -1.2450  -1.2276  -1.2225  -1.2217  -1.2200  -1.2151  -1.2073
    -1.1986  -1.1887  -1.1855  -1.1710  -1.1648  -1.1527  -1.1514  -1.1432
    -1.1388  -1.1374  -1.1335  -1.1213  -1.0531  -1.0329  -1.0302  -1.0205
    -1.0016  -0.9950  -0.9923  -0.9887  -0.9866  -0.9420  -0.9346  -0.9320
    -0.9248  -0.9227  -0.9199  -0.9189  -0.9156  -0.9142  -0.8952  -0.8769
    -0.8695  -0.8680  -0.8624  -0.8593  -0.8586  -0.8505  -0.8422  -0.8361
    -0.8289  -0.8256  -0.8212  -0.7882  -0.7846  -0.7698  -0.7645  -0.7611
    -0.7581  -0.7563  -0.7425  -0.7322  -0.7305  -0.7246  -0.7061  -0.6995
    -0.6969  -0.6904  -0.6881  -0.6441  -0.6187  -0.6103  -0.5840  -0.5805
    -0.5779  -0.5765  -0.5576  -0.5553  -0.5520  -0.5506  -0.5503  -0.5485
    -0.5345  -0.5109  -0.4843  -0.4793  -0.4775  -0.4760  -0.4747  -0.4706
    -0.4602  -0.4546  -0.4427  -0.4419  -0.4366  -0.4335  -0.4051  -0.4041
    -0.4022  -0.4010  -0.3931  -0.3917  -0.3880  -0.3831  -0.3515  -0.3506
    -0.3321  -0.3299  -0.3160  -0.3122  -0.2769  -0.2750  -0.2620  -0.2588
    -0.2576  -0.2557  -0.2544  -0.2514  -0.2398  -0.2380  -0.2301  -0.2216
    -0.2094  -0.2053  -0.2045  -0.2010  -0.1974  -0.1941  -0.1930  -0.1922
    -0.1900  -0.1745  -0.1616  -0.1596  -0.1531  -0.1509  -0.1483  -0.1478
    -0.1187  -0.1123  -0.1019  -0.1009  -0.0966  -0.0955  -0.0914  -0.0854
    -0.0814  -0.0781  -0.0731  -0.0659  -0.0457  -0.0428  -0.0378  -0.0365
    -0.0346  -0.0289  -0.0246  -0.0211  -0.0187  -0.0171  -0.0166  -0.0025
     0.0178   0.0251   0.0326   0.0391   0.0417   0.0451   0.0496   0.0563
     0.0576   0.0688   0.0740   0.0793   0.0825   0.0867   0.0995   0.1008
     0.1066   0.1101   0.1160   0.1239   0.1296   0.1317   0.1363   0.1492
     0.1533   0.1609   0.1623   0.1642   0.1742   0.1814   0.1838   0.1977
     0.1994   0.2050   0.2118   0.2201   0.2368   0.2383   0.2489   0.2502
     0.2536   0.2625   0.2676   0.2744   0.2810   0.2911   0.3016   0.3050
     0.3122   0.3309   0.3367   0.3384   0.3566   0.3955   0.4030   0.4054
     0.4289   0.4419   0.4468   0.4546   0.4652   0.4693   0.4713   0.4736
     0.4749   0.4785   0.4808   0.4827   0.4876   0.4915   0.4965   0.5051
     0.5117   0.5189   0.5240   0.5278   0.5311   0.5351   0.5377   0.5418
     0.5444   0.5479   0.5514   0.5556   0.5620   0.5650   0.5718   0.5752
     0.5757   0.5785   0.5839   0.5867   0.5891   0.5977   0.5989   0.6020
     0.6041   0.6117   0.6162   0.6212   0.6244   0.6282   0.6296   0.6313
     0.6370   0.6412   0.6418   0.6479   0.6483   0.6524   0.6550   0.6725
     0.6737   0.6781   0.6854   0.6870   0.6925   0.7008   0.7023   0.7104
     0.7150   0.7174   0.7225   0.7311   0.7336   0.7351   0.7355   0.7377
     0.7409   0.7442   0.7620   0.7679   0.7690   0.7834   0.7892   0.7937
     0.7975   0.8007   0.8054   0.8088   0.8098   0.8195   0.8326   0.8371
     0.8406   0.8417   0.8431   0.8482   0.8762   0.8821   0.9242   0.9279
     0.9413   0.9430   0.9462   0.9511   0.9528   0.9555   0.9588   0.9633
     0.9636   0.9669   0.9685   0.9710   0.9728   0.9745   0.9808   0.9829
     0.9877   0.9965   1.0001   1.0047   1.0051   1.0067   1.0088   1.0155
     1.0164   1.0172   1.0204   1.0209   1.0251   1.0260   1.0278   1.0339
     1.0366   1.0375   1.0414   1.0431   1.0478   1.0505   1.0597   1.0629
     1.0686   1.0729   1.0771   1.0780   1.0824   1.0854   1.0863   1.0884
     1.0903   1.0918   1.0955   1.0980   1.1295   1.1330   1.1379   1.1386
     1.1672   1.1685   1.1723   1.1893   1.2095   1.2106   1.2147   1.2201
     1.2216   1.2300   1.2314   1.2323   1.2349   1.2375   1.2411   1.2432
     1.2462   1.2472   1.2494   1.2523   1.2549   1.2562   1.2578   1.2641
     1.2668   1.2697   1.2724   1.2740   1.2765   1.2792   1.2855   1.2886
     1.2928   1.2974   1.3029   1.3052   1.3113   1.3132   1.3207   1.3225
     1.3305   1.3330   1.3345   1.3397   1.3447   1.3487   1.3496   1.3523
     1.3586   1.3601   1.3682   1.3749   1.3774   1.3779   1.3796   1.3884
     1.3997   1.4074   1.4084   1.4118   1.4186   1.4201   1.4244   1.4261
     1.4274   1.4288   1.4321   1.4402   1.4409   1.4469   1.4475   1.4648
     1.4715   1.4736   1.4778   1.4846   1.4878   1.4890   1.4904   1.4916
     1.4921   1.5002   1.5079   1.5089   1.5217   1.5235   1.5270   1.5300
     1.5337   1.5385   1.5441   1.5483   1.5543   1.5551   1.5582   1.5613
     1.5644   1.5749   1.5985   1.6105   1.6127   1.6139   1.6284   1.6581
     1.6865   1.6999   1.7074   1.7220   1.8006   1.8057   1.8076   1.8083
     1.8122   1.8303   1.8396   1.8611   1.8644   1.8680   1.8712   1.8780
     1.8879   1.9101   2.1352   2.3927   2.3966   2.4424   2.4506   2.4631
     2.4691   2.4782   2.5434   2.5464   2.5675   2.5755   2.6198   2.6344
     2.6393   2.6441   2.7339   2.7480   2.7572   2.7632   2.8259   2.8374
     2.9656   2.9695   3.1199   3.1816   3.2099   3.2100   3.2424   3.2601
     3.6001   3.7154   3.7348   3.9907   3.9988   4.0748   4.1315   4.1369
     4.3234   4.3459   4.3860   4.4042   4.4369   4.4478   4.4568   4.4619
     4.5353   4.5855   4.6318   4.6814   4.7573   5.1063   5.1426   5.1635
     5.2561   5.3125   5.3934   5.4040   5.4116   5.4349   5.5130   5.7383
     5.8422   5.9166   6.2320   6.2430   6.2616   6.2756   6.2816   6.2852
     6.3034   6.3687   6.4313   6.4486   6.5945   6.6287   6.6991   6.7648
     6.7848   6.8202   6.9943   7.0171   7.0522   7.0792   7.0913   7.1520
     7.1627   7.1878   7.2052   7.2271   7.3288   7.3602   7.3890   7.4099
     7.7251   7.7815   7.8142   7.8731   8.0324   8.0525   8.0754   8.1086
     8.1351   8.1426   8.2430   8.2500   8.3984   8.4151   8.4640   8.4891
     8.4916   8.5339   8.7036   8.7135   8.7286   8.7387   8.7530   8.7702
     8.7753   8.7881   8.8035   8.8690   8.8901   8.9005   9.0297   9.1031
     9.1452   9.1604   9.3226   9.3433   9.3504   9.3885   9.3914   9.3951
     9.4120   9.4183   9.4725   9.4988   9.5046   9.5116   9.5231   9.5266
     9.5420   9.6005   9.8264   9.8367   9.8479   9.9312   9.9416   9.9614
    10.1880

          k = 0.2500 0.0000 0.0000 (256240 PWs)   bands (ev):

   -22.0701 -19.7117 -15.7858 -15.4358 -15.3974 -14.7981 -14.4545 -14.4149
   -14.3434 -14.3309 -13.3788 -13.3679 -12.8678 -12.6003 -12.5825 -12.5329
   -12.4969 -11.6776 -11.6597 -11.5186 -11.5089 -10.7056 -10.2454 -10.2201
   -10.1699  -9.8588  -9.5332  -9.2695  -9.2510  -8.8391  -8.6032  -8.5796
    -8.1980  -7.9829  -7.1440  -7.1323  -7.0768  -7.0532  -6.9586  -6.9458
    -6.4879  -6.4225  -6.1186  -5.8289  -5.7569  -5.6853  -5.4995  -5.4176
    -5.4030  -5.3829  -5.3331  -5.2330  -5.2229  -4.7605  -4.7470  -4.6568
    -4.3861  -4.1825  -4.1676  -4.1617  -4.0398  -4.0209  -3.9273  -3.9202
    -3.9126  -3.8727  -3.8507  -3.7640  -3.7609  -3.4750  -3.3793  -3.3302
    -3.3078  -3.2520  -3.2396  -3.1384  -3.1289  -3.0462  -3.0308  -3.0278
    -3.0096  -3.0034  -2.9568  -2.9432  -2.8425  -2.8384  -2.7910  -2.7323
    -2.7315  -2.7206  -2.6414  -2.5956  -2.4073  -2.3374  -2.3294  -2.2744
    -2.2440  -2.2416  -2.1598  -2.0365  -2.0338  -2.0220  -2.0115  -1.9857
    -1.9473  -1.9327  -1.8818  -1.8563  -1.8077  -1.7460  -1.7445  -1.7411
    -1.7397  -1.7385  -1.7348  -1.7211  -1.7081  -1.7039  -1.6879  -1.6727
    -1.6459  -1.6333  -1.6164  -1.6052  -1.5787  -1.5641  -1.5452  -1.5251
    -1.5189  -1.5144  -1.5092  -1.5039  -1.4971  -1.4902  -1.4603  -1.4527
    -1.4467  -1.4429  -1.4264  -1.4101  -1.3094  -1.2921  -1.2731  -1.2643
    -1.2588  -1.2508  -1.2444  -1.2330  -1.1907  -1.1865  -1.1835  -1.1810
    -1.1656  -1.1544  -1.1436  -1.1354  -1.1307  -1.1262  -1.1243  -1.1172
    -1.1143  -1.0890  -1.0813  -1.0761  -1.0756  -1.0590  -1.0543  -1.0506
    -1.0471  -1.0393  -1.0332  -1.0215  -0.9877  -0.9768  -0.9657  -0.9614
    -0.9599  -0.9545  -0.9523  -0.9498  -0.9475  -0.9412  -0.9371  -0.9358
    -0.9297  -0.9237  -0.9217  -0.9158  -0.9123  -0.9100  -0.9001  -0.8951
    -0.8845  -0.8722  -0.8432  -0.8313  -0.8209  -0.7961  -0.7931  -0.7598
    -0.7558  -0.7519  -0.7388  -0.7255  -0.7165  -0.7147  -0.7006  -0.6919
    -0.6884  -0.6857  -0.6725  -0.6634  -0.6602  -0.6404  -0.5946  -0.5640
    -0.5563  -0.5542  -0.5306  -0.5252  -0.5191  -0.5129  -0.5101  -0.4984
    -0.4976  -0.4950  -0.4918  -0.4855  -0.4724  -0.4689  -0.4673  -0.4627
    -0.4449  -0.4356  -0.4328  -0.4313  -0.4270  -0.4246  -0.4175  -0.4130
    -0.4118  -0.4055  -0.3981  -0.3548  -0.3527  -0.3498  -0.3397  -0.3343
    -0.3314  -0.3253  -0.3219  -0.3193  -0.3013  -0.2979  -0.2924  -0.2905
    -0.2883  -0.2829  -0.2622  -0.2572  -0.2509  -0.2466  -0.2418  -0.2373
    -0.2342  -0.2311  -0.2261  -0.2181  -0.2073  -0.2053  -0.1988  -0.1975
    -0.1824  -0.1815  -0.1722  -0.1567  -0.1481  -0.1461  -0.1436  -0.1370
    -0.1298  -0.1237  -0.1228  -0.1131  -0.1121  -0.1108  -0.0868  -0.0820
    -0.0663  -0.0649  -0.0622  -0.0518  -0.0487  -0.0343  -0.0225  -0.0209
    -0.0148  -0.0126   0.0017   0.0119   0.0202   0.0244   0.0255   0.0306
     0.0344   0.0406   0.0427   0.0437   0.0480   0.0614   0.0630   0.0656
     0.0674   0.0709   0.0753   0.0803   0.0827   0.0857   0.0889   0.0920
     0.0959   0.1030   0.1058   0.1168   0.1236   0.1383   0.1391   0.1450
     0.1584   0.1633   0.1660   0.1706   0.1767   0.1820   0.1854   0.1879
     0.1900   0.2055   0.2096   0.2165   0.2244   0.2644   0.2758   0.2933
     0.2964   0.3017   0.3119   0.3148   0.3217   0.3308   0.3328   0.3344
     0.3369   0.3401   0.3412   0.3433   0.3459   0.3488   0.3532   0.3674
     0.3700   0.3724   0.3793   0.3821   0.3856   0.3925   0.3994   0.4132
     0.4158   0.4254   0.4281   0.4326   0.4457   0.4549   0.4659   0.4797
     0.4856   0.4898   0.4948   0.4988   0.5006   0.5068   0.5147   0.5208
     0.5233   0.5245   0.5337   0.5459   0.5482   0.5497   0.5518   0.5542
     0.5554   0.5571   0.5576   0.5682   0.5819   0.5900   0.5966   0.6000
     0.6013   0.6111   0.6145   0.6170   0.6216   0.6245   0.6300   0.6392
     0.6415   0.6436   0.6482   0.6558   0.6603   0.6654   0.6714   0.6764
     0.6785   0.6806   0.6831   0.6864   0.6890   0.6946   0.7005   0.7035
     0.7079   0.7121   0.7196   0.7233   0.7348   0.7477   0.7502   0.7536
     0.7634   0.7741   0.7846   0.7891   0.7938   0.7970   0.8034   0.8077
     0.8105   0.8138   0.8161   0.8212   0.8250   0.8328   0.8337   0.8375
     0.8403   0.8700   0.8756   0.8785   0.8864   0.8943   0.8966   0.9002
     0.9034   0.9068   0.9225   0.9253   0.9270   0.9276   0.9326   0.9359
     0.9369   0.9416   0.9443   0.9491   0.9509   0.9547   0.9584   0.9737
     0.9819   0.9844   0.9950   1.0036   1.0133   1.0159   1.0297   1.0312
     1.0355   1.0388   1.0463   1.0480   1.0539   1.0574   1.0586   1.0605
     1.0625   1.0640   1.0665   1.0699   1.0734   1.0782   1.0857   1.0893
     1.0908   1.0931   1.0968   1.1009   1.1045   1.1092   1.1122   1.1152
     1.1191   1.1204   1.1281   1.1305   1.1332   1.1339   1.1396   1.1493
     1.1538   1.1582   1.1617   1.1640   1.1672   1.1686   1.1718   1.1729
     1.1751   1.1799   1.1868   1.1886   1.1984   1.2041   1.2056   1.2179
     1.2203   1.2333   1.2347   1.2378   1.2395   1.2441   1.2556   1.2661
     1.2697   1.2721   1.2844   1.2933   1.2959   1.2974   1.2991   1.3028
     1.3037   1.3064   1.3095   1.3181   1.3197   1.3252   1.3298   1.3310
     1.3345   1.3369   1.3440   1.3465   1.3481   1.3516   1.3536   1.3556
     1.3589   1.3618   1.3643   1.3695   1.3703   1.3740   1.3837   1.3853
     1.3915   1.3929   1.3943   1.4008   1.4085   1.4136   1.4212   1.4240
     1.4269   1.4376   1.4491   1.4527   1.4565   1.4582   1.4599   1.4637
     1.4664   1.4691   1.4717   1.4751   1.4766   1.4779   1.4792   1.4843
     1.4892   1.4947   1.4959   1.4981   1.5019   1.5066   1.5113   1.5180
     1.5198   1.5242   1.5248   1.5265   1.5310   1.5331   1.5381   1.5441
     1.5449   1.5465   1.5619   1.5652   1.5752   1.5878   1.6031   1.6052
     1.6169   1.6275   1.6614   1.6637   1.6693   1.6757   1.6927   1.7283
     1.7637   1.7841   1.8071   1.8129   1.8211   1.8505   1.8768   1.8780
     2.0546   2.0756   2.0793   2.0802   2.0858   2.1158   2.1614   2.2104
     2.2387   2.3313   2.4203   2.5895   2.5988   2.6033   2.6320   2.9697
     3.0202   3.0214   3.0990   3.2250   3.2411   3.2451   3.2604   3.2612
     3.3186   3.4357   3.4714   3.5612   3.5959   3.6621   3.6851   3.7126
     3.7237   3.7367   3.7944   3.8242   3.8652   3.8945   3.9403   3.9914
     4.0682   4.3058   4.3281   4.3450   4.4113   4.5838   4.6405   4.6984
     4.8476   4.8572   4.9308   4.9941   5.0736   5.1503   5.2517   5.2679
     5.2859   5.3112   5.4448   5.4480   5.4946   5.5315   5.5409   5.5704
     5.6137   5.6676   5.7065   5.7269   5.8024   5.8478   5.8827   6.0467
     6.0495   6.0571   6.0856   6.1497   6.2687   6.3635   6.6871   6.7244
     6.7454   6.7878   6.7964   6.9006   6.9921   7.0036   7.0787   7.0943
     7.1043   7.1194   7.1476   7.1641   7.1828   7.1932   7.2166   7.2924
     7.3134   7.3565   7.5411   7.5733   7.6088   7.6555   7.7724   7.8403
     7.8945   7.9389   8.0239   8.0493   8.1043   8.1379   8.1847   8.2749
     8.3055   8.3174   8.3281   8.3523   8.4591   8.5184   8.5264   8.5821
     8.6070   8.6507   8.6669   8.7327   8.9939   9.0165   9.0324   9.0390
     9.1243   9.1520   9.1624   9.1663   9.1824   9.2376   9.2607   9.2921
     9.3192   9.4164   9.4698   9.4811   9.5391   9.6199   9.6540   9.6720
     9.7296   9.7385   9.7572   9.7681   9.8543   9.8814   9.9580   9.9852
    10.0053

          k = 0.2500-0.2165 0.0000 (256316 PWs)   bands (ev):

   -22.0701 -19.7117 -15.7196 -15.6642 -14.9708 -14.9605 -14.7326 -14.6770
   -13.9944 -13.9838 -13.5475 -13.5374 -12.8041 -12.7537 -12.5990 -12.5882
   -12.0966 -12.0855 -11.5307 -11.5055 -10.8300 -10.8225 -10.6488 -10.6246
   -10.1604 -10.1211  -9.1200  -9.1027  -8.7043  -8.6825  -8.6059  -8.5814
    -8.1249  -8.0161  -7.9389  -7.8840  -7.8128  -6.4862  -6.2450  -6.2247
    -6.1440  -6.1228  -5.9833  -5.9356  -5.8604  -5.8229  -5.7297  -5.6319
    -5.6181  -5.5956  -5.5409  -5.4059  -4.6608  -4.6393  -4.5992  -4.5910
    -4.5627  -4.4923  -4.4165  -4.4040  -4.2723  -4.2620  -3.9413  -3.7754
    -3.7580  -3.7456  -3.7186  -3.6232  -3.5689  -3.5581  -3.3891  -3.3807
    -3.3057  -3.2502  -3.2488  -3.1935  -3.1415  -3.1009  -3.0373  -2.9214
    -2.8971  -2.8726  -2.8362  -2.8338  -2.8213  -2.8129  -2.7857  -2.6257
    -2.6202  -2.5681  -2.5380  -2.5293  -2.5179  -2.4750  -2.2495  -2.2466
    -2.2376  -2.2197  -2.1783  -2.1533  -2.1110  -2.1092  -2.0918  -2.0862
    -1.9963  -1.9560  -1.9467  -1.9390  -1.9075  -1.8728  -1.8042  -1.7580
    -1.7529  -1.7519  -1.7414  -1.7165  -1.6682  -1.6531  -1.6502  -1.6486
    -1.6366  -1.6246  -1.6217  -1.6167  -1.6128  -1.6105  -1.6076  -1.5890
    -1.5773  -1.5529  -1.5370  -1.5256  -1.5137  -1.4596  -1.4067  -1.3984
    -1.3840  -1.3535  -1.2908  -1.2781  -1.2748  -1.2613  -1.2486  -1.2320
    -1.2303  -1.2197  -1.2133  -1.2096  -1.2057  -1.2015  -1.1900  -1.1835
    -1.1815  -1.1808  -1.1724  -1.1691  -1.1634  -1.1544  -1.1482  -1.1450
    -1.1402  -1.1217  -1.1142  -1.1129  -1.1074  -1.0811  -1.0774  -1.0751
    -1.0621  -1.0588  -1.0534  -1.0492  -1.0390  -1.0133  -1.0017  -0.9818
    -0.9774  -0.9674  -0.9533  -0.9446  -0.9418  -0.9324  -0.9250  -0.9194
    -0.9137  -0.9043  -0.9024  -0.8998  -0.8971  -0.8917  -0.8869  -0.8819
    -0.8660  -0.8599  -0.8544  -0.8477  -0.8268  -0.8058  -0.8040  -0.7882
    -0.7429  -0.7375  -0.7066  -0.7029  -0.6995  -0.6979  -0.6646  -0.6541
    -0.6534  -0.6496  -0.6438  -0.6397  -0.6344  -0.6307  -0.6245  -0.5862
    -0.5815  -0.5646  -0.5573  -0.5506  -0.5411  -0.5304  -0.5190  -0.5128
    -0.5094  -0.4927  -0.4879  -0.4771  -0.4716  -0.4490  -0.4480  -0.4401
    -0.4387  -0.4358  -0.4290  -0.4256  -0.4140  -0.4035  -0.3992  -0.3739
    -0.3717  -0.3670  -0.3579  -0.3547  -0.3481  -0.3460  -0.3416  -0.3411
    -0.3293  -0.3264  -0.3173  -0.3146  -0.3123  -0.3111  -0.3047  -0.2977
    -0.2894  -0.2873  -0.2841  -0.2722  -0.2635  -0.2626  -0.2576  -0.2532
    -0.2438  -0.2374  -0.2256  -0.2210  -0.2113  -0.2063  -0.1927  -0.1893
    -0.1873  -0.1863  -0.1814  -0.1745  -0.1628  -0.1463  -0.1325  -0.1283
    -0.1243  -0.1195  -0.0856  -0.0817  -0.0639  -0.0578  -0.0561  -0.0530
    -0.0504  -0.0473  -0.0382  -0.0341  -0.0276  -0.0259  -0.0243  -0.0197
    -0.0152  -0.0103   0.0036   0.0080   0.0142   0.0209   0.0231   0.0296
     0.0332   0.0369   0.0412   0.0458   0.0467   0.0479   0.0510   0.0573
     0.0597   0.0639   0.0661   0.0700   0.0746   0.0782   0.0833   0.0868
     0.0915   0.1048   0.1152   0.1192   0.1229   0.1248   0.1368   0.1516
     0.1532   0.1682   0.1703   0.1770   0.1838   0.1885   0.1950   0.1994
     0.2088   0.2119   0.2147   0.2187   0.2203   0.2259   0.2295   0.2351
     0.2442   0.2617   0.2890   0.2928   0.3054   0.3205   0.3257   0.3294
     0.3310   0.3376   0.3433   0.3491   0.3505   0.3639   0.3653   0.3683
     0.3739   0.3795   0.3862   0.3885   0.3912   0.3951   0.4024   0.4163
     0.4203   0.4216   0.4290   0.4342   0.4420   0.4451   0.4475   0.4541
     0.4645   0.4754   0.4810   0.4870   0.4920   0.4980   0.5056   0.5080
     0.5185   0.5243   0.5314   0.5340   0.5430   0.5456   0.5503   0.5521
     0.5560   0.5604   0.5695   0.5768   0.5802   0.5864   0.5918   0.5963
     0.6272   0.6299   0.6324   0.6354   0.6433   0.6473   0.6550   0.6596
     0.6622   0.6646   0.6665   0.6693   0.6748   0.6796   0.6835   0.6952
     0.6984   0.7027   0.7065   0.7089   0.7122   0.7173   0.7202   0.7245
     0.7252   0.7300   0.7331   0.7365   0.7404   0.7422   0.7487   0.7504
     0.7543   0.7574   0.7582   0.7605   0.7641   0.7705   0.7751   0.7795
     0.7898   0.7992   0.8032   0.8053   0.8057   0.8134   0.8440   0.8536
     0.8567   0.8634   0.8709   0.8720   0.8791   0.8826   0.8869   0.8891
     0.8927   0.8932   0.8999   0.9040   0.9044   0.9069   0.9095   0.9116
     0.9148   0.9214   0.9315   0.9366   0.9492   0.9514   0.9546   0.9605
     0.9618   0.9674   0.9699   0.9714   0.9804   0.9839   0.9915   1.0016
     1.0040   1.0081   1.0163   1.0184   1.0231   1.0424   1.0439   1.0536
     1.0605   1.0633   1.0775   1.0931   1.0969   1.1028   1.1150   1.1238
     1.1256   1.1283   1.1313   1.1323   1.1360   1.1389   1.1409   1.1418
     1.1433   1.1460   1.1480   1.1497   1.1510   1.1551   1.1593   1.1632
     1.1712   1.1765   1.1843   1.1892   1.1934   1.1944   1.1990   1.2038
     1.2075   1.2108   1.2159   1.2209   1.2227   1.2249   1.2266   1.2299
     1.2363   1.2402   1.2430   1.2440   1.2494   1.2505   1.2573   1.2584
     1.2647   1.2684   1.2706   1.2710   1.2723   1.2751   1.2773   1.2849
     1.2893   1.2920   1.2960   1.3033   1.3065   1.3115   1.3133   1.3221
     1.3246   1.3303   1.3422   1.3456   1.3522   1.3552   1.3568   1.3626
     1.3704   1.3736   1.3762   1.3794   1.3813   1.3840   1.3890   1.3930
     1.3977   1.4027   1.4069   1.4084   1.4152   1.4188   1.4212   1.4221
     1.4263   1.4298   1.4328   1.4375   1.4448   1.4527   1.4557   1.4567
     1.4583   1.4604   1.4626   1.4638   1.4680   1.4745   1.4775   1.4799
     1.4816   1.4854   1.4924   1.4957   1.4969   1.4989   1.5008   1.5031
     1.5113   1.5147   1.5213   1.5239   1.5306   1.5463   1.5480   1.5495
     1.5554   1.5627   1.5723   1.5813   1.5898   1.5909   1.5992   1.6048
     1.6221   1.6310   1.6451   1.6838   1.7045   1.7233   1.7601   1.7650
     1.7787   1.7857   1.7896   1.7970   1.8070   1.8119   1.8161   1.8192
     1.8896   1.9610   2.1044   2.1323   2.1695   2.1718   2.2000   2.2094
     2.2928   2.3592   2.6238   2.6265   2.7745   2.7777   2.7941   2.8123
     2.8211   2.8284   2.8435   2.8569   3.0054   3.0207   3.0274   3.0645
     3.2702   3.4996   3.5164   3.5432   3.5760   3.6490   3.8208   3.8761
     3.8795   3.8970   3.9184   4.0209   4.0501   4.1222   4.1484   4.1724
     4.2082   4.3134   4.4190   4.4529   4.5393   4.5587   4.6768   4.7082
     4.7352   4.7763   4.8306   4.8491   4.8771   5.0667   5.0833   5.1235
     5.2017   5.2742   5.2920   5.3189   5.3554   5.3785   5.4476   5.4735
     5.5384   5.5931   5.7098   5.7940   5.8258   5.8371   5.8462   5.9052
     6.0141   6.1444   6.4300   6.4856   6.4966   6.5362   6.6226   6.6525
     6.7383   6.7438   6.8135   6.8433   6.8730   6.9688   7.0268   7.0449
     7.1746   7.1972   7.2297   7.2768   7.3109   7.3645   7.4003   7.4563
     7.4600   7.4759   7.4959   7.5414   7.5770   7.6427   7.7456   7.7627
     7.8010   7.8508   7.9471   7.9686   7.9927   8.1317   8.1568   8.2381
     8.2888   8.4210   8.5690   8.5761   8.6066   8.6284   8.6336   8.6680
     8.6839   8.7052   8.7220   8.7568   8.8654   8.8769   8.9216   8.9447
     8.9651   8.9955   9.1133   9.1602   9.1796   9.2277   9.2342   9.2630
     9.2785   9.3013   9.3259   9.3565   9.4162   9.4310   9.4646   9.5545
     9.5704   9.5860   9.6346   9.6449   9.6713   9.6929   9.9496   9.9678
     9.9804

          k =-0.5000 0.0000 0.0000 (256496 PWs)   bands (ev):

   -22.0701 -19.7117 -15.4204 -15.4083 -15.0812 -15.0519 -15.0290 -15.0228
   -13.9897 -13.9757 -13.9718 -13.9613 -12.2614 -12.2415 -12.2378 -12.2278
   -11.5965 -11.5860 -11.3013 -11.2710 -11.2436 -11.2422 -10.6462 -10.6358
   -10.3930 -10.3819  -9.6567  -9.6366  -9.2477  -9.2234  -8.4998  -8.4506
    -8.4420  -8.4365  -7.9841  -7.0449  -7.0392  -6.9570  -6.9452  -6.9437
    -6.9349  -6.4691  -5.7703  -5.4988  -5.3901  -5.3483  -5.2276  -5.2259
    -4.7301  -4.7257  -4.7224  -4.7117  -4.6037  -4.5933  -4.2622  -4.2584
    -4.2471  -4.2420  -4.2032  -4.1948  -4.1896  -4.1787  -4.1571  -4.1504
    -3.9801  -3.9650  -3.9547  -3.9474  -3.7210  -3.7050  -3.7020  -3.6939
    -3.5204  -3.4851  -3.3488  -3.3469  -3.3460  -3.3403  -3.1481  -3.0690
    -3.0541  -2.9998  -2.9860  -2.9257  -2.9140  -2.8874  -2.8810  -2.7829
    -2.6038  -2.5968  -2.5788  -2.5715  -2.5689  -2.5645  -2.3463  -2.3321
    -2.3091  -2.3060  -2.3027  -2.2950  -2.2847  -2.2212  -1.9684  -1.8828
    -1.8502  -1.8241  -1.8225  -1.8201  -1.8164  -1.8146  -1.8133  -1.8119
    -1.7386  -1.7180  -1.7148  -1.6430  -1.6139  -1.5926  -1.5904  -1.5855
    -1.5691  -1.5462  -1.5427  -1.5386  -1.5189  -1.4687  -1.4587  -1.4394
    -1.4321  -1.3798  -1.3632  -1.3595  -1.3555  -1.3528  -1.3471  -1.3183
    -1.3078  -1.3013  -1.2974  -1.2947  -1.2889  -1.2881  -1.2830  -1.2749
    -1.2679  -1.2528  -1.2436  -1.2424  -1.2351  -1.2288  -1.2238  -1.2178
    -1.2082  -1.2053  -1.2041  -1.1865  -1.1548  -1.1545  -1.1326  -1.1248
    -1.1226  -1.1186  -1.1174  -1.1152  -1.1127  -1.1034  -1.0960  -1.0895
    -1.0825  -1.0765  -1.0710  -1.0630  -1.0531  -1.0525  -1.0506  -1.0481
    -1.0414  -1.0231  -1.0213  -1.0107  -1.0069  -1.0029  -0.9485  -0.9429
    -0.9305  -0.9253  -0.9220  -0.9169  -0.9069  -0.9045  -0.9010  -0.8933
    -0.8732  -0.8701  -0.8694  -0.8638  -0.8579  -0.8572  -0.8559  -0.8437
    -0.8329  -0.8307  -0.7757  -0.7720  -0.7633  -0.7630  -0.7358  -0.7344
    -0.6581  -0.6553  -0.6534  -0.6522  -0.6271  -0.6134  -0.6120  -0.6118
    -0.6109  -0.6092  -0.6071  -0.6034  -0.5739  -0.5643  -0.5604  -0.5544
    -0.5484  -0.5464  -0.5449  -0.5439  -0.5415  -0.5331  -0.5240  -0.5213
    -0.5194  -0.5159  -0.4091  -0.4023  -0.4007  -0.3833  -0.3782  -0.3738
    -0.3679  -0.3617  -0.3605  -0.3578  -0.3561  -0.3537  -0.3501  -0.3369
    -0.3218  -0.3190  -0.3168  -0.3126  -0.2932  -0.2836  -0.2799  -0.2744
    -0.2712  -0.2687  -0.2628  -0.2505  -0.2455  -0.2453  -0.2421  -0.2415
    -0.2399  -0.2339  -0.2319  -0.2283  -0.2020  -0.1988  -0.1909  -0.1904
    -0.1834  -0.1549  -0.1540  -0.1534  -0.1480  -0.0988  -0.0977  -0.0948
    -0.0923  -0.0876  -0.0861  -0.0807  -0.0757  -0.0445  -0.0399  -0.0383
    -0.0285  -0.0107   0.0044   0.0067   0.0087   0.0186   0.0217   0.0235
     0.0240   0.0273   0.0287   0.0309   0.0361   0.0372   0.0378   0.0695
     0.0785   0.0887   0.1022   0.1090   0.1127   0.1154   0.1175   0.1206
     0.1220   0.1254   0.1278   0.1310   0.1329   0.1342   0.1367   0.1376
     0.1388   0.1410   0.1433   0.1458   0.1485   0.1546   0.1559   0.1649
     0.1674   0.1720   0.1743   0.1744   0.1765   0.1786   0.1799   0.1829
     0.1910   0.1973   0.2050   0.2074   0.2103   0.2124   0.2360   0.2391
     0.2409   0.2444   0.2973   0.2992   0.3165   0.3222   0.3411   0.3436
     0.3467   0.3504   0.3523   0.3615   0.3661   0.3762   0.3775   0.3832
     0.3888   0.3940   0.4004   0.4084   0.4160   0.4179   0.4191   0.4219
     0.4304   0.4323   0.4348   0.4358   0.4388   0.4419   0.4458   0.4476
     0.4517   0.4551   0.4559   0.4578   0.4708   0.5209   0.5329   0.5366
     0.5389   0.5506   0.5559   0.5580   0.5607   0.5704   0.5710   0.5769
     0.5803   0.5831   0.5836   0.5867   0.5875   0.5892   0.5909   0.5949
     0.5990   0.6014   0.6040   0.6057   0.6093   0.6130   0.6160   0.6174
     0.6212   0.6424   0.6461   0.6502   0.6514   0.6609   0.6700   0.6754
     0.6797   0.6814   0.6864   0.6866   0.6909   0.6946   0.6963   0.6989
     0.7014   0.7042   0.7071   0.7079   0.7093   0.7139   0.7219   0.7316
     0.7374   0.7428   0.7527   0.7630   0.7647   0.7721   0.7749   0.7775
     0.7816   0.7841   0.7850   0.8055   0.8127   0.8250   0.8300   0.8361
     0.8463   0.8538   0.8571   0.8719   0.8736   0.8757   0.8764   0.8780
     0.8809   0.8860   0.8892   0.8916   0.8929   0.9012   0.9029   0.9046
     0.9159   0.9168   0.9195   0.9328   0.9342   0.9366   0.9393   0.9471
     0.9524   0.9559   0.9589   0.9616   0.9634   0.9692   0.9738   0.9774
     0.9798   0.9857   0.9975   1.0241   1.0470   1.0546   1.0571   1.0578
     1.0639   1.0697   1.0702   1.0831   1.0888   1.0970   1.1066   1.1094
     1.1111   1.1160   1.1223   1.1238   1.1297   1.1355   1.1389   1.1455
     1.1515   1.1550   1.1565   1.1577   1.1617   1.1643   1.1664   1.1679
     1.1719   1.1756   1.1793   1.1826   1.1841   1.1852   1.1865   1.1905
     1.1933   1.1979   1.2003   1.2046   1.2129   1.2146   1.2176   1.2225
     1.2264   1.2460   1.2496   1.2528   1.2563   1.2608   1.2622   1.2664
     1.2699   1.2723   1.2763   1.2796   1.2817   1.2828   1.2834   1.2842
     1.2880   1.2917   1.2934   1.3011   1.3033   1.3165   1.3387   1.3400
     1.3427   1.3431   1.3440   1.3452   1.3509   1.3512   1.3547   1.3564
     1.3577   1.3592   1.3616   1.3662   1.3720   1.3733   1.3766   1.3785
     1.3811   1.3821   1.3845   1.3853   1.3874   1.3910   1.3938   1.3958
     1.3962   1.3992   1.4041   1.4072   1.4104   1.4154   1.4312   1.4420
     1.4448   1.4464   1.4491   1.4536   1.4541   1.4565   1.4573   1.4621
     1.4705   1.4768   1.4788   1.4809   1.4850   1.4853   1.4860   1.4906
     1.4984   1.5004   1.5051   1.5074   1.5160   1.5266   1.5286   1.5326
     1.5332   1.5364   1.5426   1.5434   1.5508   1.5521   1.5525   1.5552
     1.5660   1.5718   1.5806   1.5902   1.6096   1.6125   1.6195   1.6361
     1.6474   1.6490   1.6610   1.6755   1.7046   1.7262   2.0317   2.0343
     2.0685   2.0749   2.2362   2.2508   2.2783   2.2876   2.3321   2.3336
     2.3348   2.3372   2.5615   2.5665   2.6080   2.6422   2.8595   2.8667
     2.8740   2.8790   3.2267   3.2274   3.2356   3.2404   3.2827   3.5039
     3.5137   3.6764   3.7123   3.7607   3.8066   3.8749   3.9352   3.9560
     3.9815   4.0696   4.1029   4.1118   4.1268   4.1599   4.2355   4.2961
     4.5903   4.6465   4.7196   4.8232   4.8487   4.8586   4.8775   4.9171
     4.9467   4.9768   5.0387   5.0602   5.0667   5.0717   5.0750   5.0882
     5.0994   5.1183   5.1278   5.1562   5.2007   5.2292   5.4673   5.4685
     5.4852   5.4998   5.5545   5.5738   5.6609   5.7064   5.7182   5.7518
     5.9493   5.9799   5.9994   6.0137   6.0416   6.0514   6.0635   6.1230
     6.2241   6.2294   6.2601   6.2869   6.3630   6.6170   6.8211   6.8480
     6.8610   6.9791   7.0697   7.0778   7.0920   7.1116   7.1989   7.2234
     7.5505   7.5845   7.6003   7.6147   7.6160   7.6200   7.6672   7.7139
     7.8299   7.8484   7.8870   7.8911   7.9331   7.9487   7.9805   7.9982
     8.0276   8.0357   8.0465   8.1011   8.3225   8.3557   8.4249   8.5756
     8.7973   8.8084   8.8212   8.8236   8.8337   8.8375   8.8448   8.8764
     9.0295   9.0309   9.0374   9.0385   9.1234   9.2114   9.3105   9.3226
     9.4345   9.4385   9.4943   9.5116   9.5172   9.5288   9.5307   9.5318
     9.6111   9.6210   9.6724   9.6893   9.7035   9.7303   9.8709   9.9117
    10.0398

          k =-0.5000-0.2165 0.0000 (256328 PWs)   bands (ev):

   -22.0701 -19.7117 -15.3487 -15.3481 -15.3084 -15.2770 -14.6135 -14.5982
   -14.5945 -14.5828 -13.2001 -13.1856 -13.1810 -13.1731 -11.5317 -11.5311
   -11.4981 -11.4688 -11.2004 -11.1925 -11.1807 -11.1622 -10.9228 -10.9108
   -10.8949 -10.8834  -9.2663  -9.2546  -9.2304  -9.2016  -8.3848  -8.3315
    -8.3267  -8.3013  -7.9787  -7.5966  -7.5943  -7.5538  -7.5357  -6.4742
    -5.8316  -5.5779  -5.5365  -5.5258  -5.4829  -5.4102  -5.1079  -5.1040
    -5.0969  -5.0879  -4.8671  -4.8607  -4.8244  -4.8092  -4.5308  -4.5264
    -4.4710  -4.4527  -4.1256  -4.1248  -4.1194  -4.1137  -4.0727  -4.0694
    -4.0119  -3.9947  -3.6951  -3.6837  -3.6762  -3.6716  -3.5139  -3.5101
    -3.3755  -3.3020  -3.2962  -3.2411  -3.2289  -3.2149  -3.1999  -3.1940
    -3.1825  -3.1763  -3.1655  -3.1578  -3.1541  -3.0931  -2.6427  -2.6023
    -2.5861  -2.5185  -2.5161  -2.5137  -2.5118  -2.4977  -2.4855  -2.4705
    -2.4674  -2.3351  -2.0135  -2.0117  -2.0113  -2.0090  -2.0058  -1.9978
    -1.9975  -1.9615  -1.9596  -1.9475  -1.9366  -1.9328  -1.7526  -1.7452
    -1.7419  -1.7386  -1.6164  -1.5976  -1.5935  -1.5662  -1.5570  -1.5420
    -1.5341  -1.5289  -1.5165  -1.4700  -1.4426  -1.4381  -1.4358  -1.4337
    -1.4320  -1.4295  -1.4076  -1.3955  -1.3829  -1.3806  -1.3704  -1.3689
    -1.3398  -1.3301  -1.3267  -1.3234  -1.3193  -1.3162  -1.3135  -1.3126
    -1.3030  -1.3012  -1.3008  -1.2990  -1.2544  -1.2529  -1.2273  -1.2152
    -1.2044  -1.2004  -1.1854  -1.1688  -1.1507  -1.1475  -1.1307  -1.1270
    -1.1155  -1.1058  -1.0962  -1.0934  -1.0917  -1.0866  -1.0862  -1.0783
    -1.0759  -1.0740  -1.0705  -1.0626  -1.0592  -1.0578  -1.0550  -1.0337
    -1.0154  -1.0120  -1.0030  -0.9977  -0.9893  -0.9862  -0.9780  -0.9766
    -0.9726  -0.9699  -0.9675  -0.9603  -0.9508  -0.9083  -0.8952  -0.8324
    -0.8142  -0.8129  -0.8108  -0.8081  -0.8015  -0.7980  -0.7967  -0.7910
    -0.7263  -0.7218  -0.7173  -0.7151  -0.7115  -0.7025  -0.7016  -0.6985
    -0.6981  -0.6962  -0.6904  -0.6854  -0.6834  -0.6783  -0.6467  -0.6458
    -0.6433  -0.6414  -0.6410  -0.6300  -0.6251  -0.6199  -0.6188  -0.6153
    -0.6122  -0.5908  -0.5801  -0.5775  -0.5041  -0.5023  -0.4986  -0.4903
    -0.4821  -0.4817  -0.4807  -0.4682  -0.4441  -0.4395  -0.4388  -0.4372
    -0.3956  -0.3947  -0.3929  -0.3893  -0.3763  -0.3725  -0.3704  -0.3661
    -0.3453  -0.3436  -0.3358  -0.3339  -0.3240  -0.3190  -0.3112  -0.3048
    -0.2695  -0.2576  -0.2462  -0.2410  -0.2360  -0.2326  -0.2194  -0.2141
    -0.2042  -0.2034  -0.1987  -0.1980  -0.1881  -0.1857  -0.1809  -0.1765
    -0.1288  -0.1234  -0.1222  -0.1193  -0.1123  -0.1116  -0.1101  -0.1085
    -0.0987  -0.0960  -0.0920  -0.0911  -0.0755  -0.0739  -0.0712  -0.0705
    -0.0580  -0.0503  -0.0459  -0.0437  -0.0407  -0.0385  -0.0375  -0.0350
     0.0131   0.0144   0.0220   0.0274   0.0283   0.0362   0.0696   0.0777
     0.0861   0.0888   0.0990   0.1027   0.1045   0.1050   0.1084   0.1097
     0.1185   0.1211   0.1257   0.1337   0.1387   0.1419   0.1463   0.1503
     0.1516   0.1527   0.1557   0.1612   0.1618   0.1644   0.1663   0.1671
     0.1691   0.1706   0.1714   0.1789   0.1954   0.1981   0.2015   0.2092
     0.2131   0.2211   0.2242   0.2253   0.2477   0.2517   0.2543   0.2547
     0.2591   0.2668   0.2689   0.2847   0.2875   0.2960   0.2983   0.3006
     0.3037   0.3382   0.3523   0.3670   0.3701   0.3751   0.3785   0.3899
     0.3917   0.4042   0.4070   0.4158   0.4187   0.4269   0.4308   0.4431
     0.4444   0.4478   0.4509   0.4544   0.4563   0.4855   0.4912   0.4967
     0.5053   0.5087   0.5096   0.5117   0.5135   0.5147   0.5172   0.5174
     0.5191   0.5208   0.5298   0.5379   0.5430   0.5498   0.5507   0.5576
     0.5609   0.5633   0.5678   0.5847   0.5874   0.5902   0.5959   0.6001
     0.6037   0.6088   0.6181   0.6193   0.6252   0.6262   0.6274   0.6313
     0.6338   0.6437   0.6497   0.6555   0.6579   0.6607   0.6663   0.6706
     0.6713   0.6736   0.6793   0.6843   0.6927   0.6959   0.6984   0.7146
     0.7187   0.7222   0.7245   0.7266   0.7300   0.7329   0.7383   0.7427
     0.7441   0.7535   0.7552   0.7723   0.7745   0.7754   0.7773   0.7783
     0.7826   0.7862   0.7881   0.7916   0.7943   0.7970   0.8025   0.8263
     0.8279   0.8319   0.8341   0.8563   0.8566   0.8626   0.8683   0.8856
     0.8956   0.9021   0.9086   0.9116   0.9135   0.9168   0.9175   0.9226
     0.9478   0.9650   0.9680   0.9740   0.9764   0.9813   0.9825   0.9915
     1.0065   1.0172   1.0215   1.0224   1.0244   1.0311   1.0356   1.0406
     1.0471   1.0545   1.0558   1.0595   1.0627   1.0652   1.0712   1.0738
     1.0780   1.0796   1.0814   1.0837   1.0848   1.0870   1.0872   1.0897
     1.0936   1.0953   1.0974   1.1013   1.1020   1.1072   1.1157   1.1173
     1.1218   1.1253   1.1300   1.1334   1.1403   1.1410   1.1469   1.1496
     1.1532   1.1591   1.1626   1.1641   1.1660   1.1718   1.1741   1.1776
     1.1806   1.1882   1.1909   1.1968   1.1986   1.2054   1.2171   1.2243
     1.2277   1.2389   1.2394   1.2417   1.2453   1.2511   1.2534   1.2561
     1.2593   1.2598   1.2620   1.2658   1.2674   1.2691   1.2702   1.2717
     1.2763   1.2873   1.3002   1.3134   1.3193   1.3206   1.3218   1.3227
     1.3237   1.3261   1.3275   1.3296   1.3298   1.3361   1.3414   1.3436
     1.3739   1.3776   1.3795   1.3853   1.3923   1.3933   1.3954   1.3962
     1.3978   1.3996   1.4009   1.4014   1.4046   1.4060   1.4086   1.4114
     1.4142   1.4168   1.4184   1.4210   1.4221   1.4270   1.4298   1.4320
     1.4326   1.4341   1.4370   1.4395   1.4442   1.4455   1.4500   1.4511
     1.4590   1.4593   1.4740   1.4797   1.4840   1.4855   1.4871   1.4884
     1.4897   1.5006   1.5017   1.5092   1.5194   1.5262   1.5345   1.5379
     1.5425   1.5441   1.5464   1.5518   1.5739   1.5795   1.5819   1.5949
     1.6102   1.6124   1.6161   1.6178   1.6214   1.6238   1.6339   1.6406
     1.6470   1.6555   1.6607   1.6622   1.6632   1.6667   1.7255   1.7373
     1.8701   1.8752   1.8782   1.8921   2.2836   2.2853   2.3650   2.3839
     2.5932   2.5937   2.6150   2.6208   2.7781   2.7911   2.8027   2.8277
     2.9418   3.0385   3.0476   3.1265   3.4789   3.4967   3.4984   3.5016
     3.5422   3.6500   3.6516   3.7109   3.7313   3.9694   3.9748   3.9797
     3.9861   4.0827   4.1814   4.1976   4.2579   4.2679   4.2737   4.2827
     4.3226   4.4089   4.5423   4.5809   4.6210   4.7048   4.7170   4.7234
     4.7469   4.8026   5.0897   5.0963   5.1557   5.1605   5.1777   5.1913
     5.2367   5.2410   5.2649   5.2995   5.3054   5.3342   5.3735   5.4024
     5.4283   5.4800   5.5489   5.5683   5.6370   5.6414   5.6455   5.7595
     5.7743   5.7801   5.7876   5.8082   5.8278   6.0094   6.0179   6.0818
     6.1056   6.3564   6.7116   6.7238   6.9608   6.9719   7.0443   7.0471
     7.0901   7.1127   7.1185   7.1194   7.1417   7.1558   7.1663   7.1996
     7.2695   7.2768   7.3853   7.4060   7.4222   7.4255   7.4958   7.5056
     7.6520   7.7822   7.9088   7.9352   8.1059   8.1515   8.1760   8.2415
     8.3253   8.3281   8.3452   8.3980   8.4391   8.4420   8.4568   8.4912
     8.5209   8.5646   8.8585   8.8732   8.8760   8.8839   8.9404   8.9456
     8.9540   8.9754   8.9946   9.0250   9.0539   9.0689   9.1390   9.1402
     9.1790   9.1863   9.4103   9.4188   9.4263   9.4373   9.4593   9.4691
     9.4732   9.4832   9.4897   9.5620   9.7274   9.7432   9.9487  10.0174
    10.0404

     the Fermi energy is     3.3591 ev

!    total energy              =  -12781.91183784 Ry
     Harris-Foulkes estimate   =  -12781.91183780 Ry
     estimated scf accuracy    <          4.9E-09 Ry

     The total energy is the sum of the following terms:

     one-electron contribution = -100736.28745962 Ry
     hartree contribution      =   51741.45460315 Ry
     xc contribution           =   -4463.87590039 Ry
     ewald contribution        =   40683.01455584 Ry
     Dispersion Correction     =      -2.81437964 Ry
     smearing contrib. (-TS)   =      -3.40325718 Ry

     convergence has been achieved in  45 iterations

     Writing output data file gc.save
 
     init_run     :    192.78s CPU    205.50s WALL (       1 calls)
     electrons    :  25982.81s CPU  27627.90s WALL (       1 calls)

     Called by init_run:
     wfcinit      :    190.01s CPU    202.06s WALL (       1 calls)
     potinit      :      0.83s CPU      0.93s WALL (       1 calls)

     Called by electrons:
     c_bands      :  23748.97s CPU  25217.66s WALL (      45 calls)
     sum_band     :   1775.30s CPU   1884.67s WALL (      45 calls)
     v_of_rho     :      5.72s CPU      7.15s WALL (      46 calls)
     newd         :     15.90s CPU     29.57s WALL (      46 calls)
     mix_rho      :    436.98s CPU    489.07s WALL (      45 calls)

     Called by c_bands:
     init_us_2    :     81.90s CPU     83.40s WALL (     546 calls)
     cegterg      :  23414.07s CPU  24868.98s WALL (     280 calls)

     Called by sum_band:
     sum_band:bec :      4.96s CPU      5.67s WALL (     270 calls)
     addusdens    :     22.87s CPU     35.00s WALL (      45 calls)

     Called by *egterg:
     h_psi        :   8453.40s CPU   9095.92s WALL (    1992 calls)
     s_psi        :   2078.00s CPU   2091.01s WALL (    1992 calls)
     g_psi        :     22.03s CPU     22.05s WALL (    1706 calls)
     cdiaghg      :   6723.41s CPU   7059.85s WALL (    1977 calls)

     Called by h_psi:
     add_vuspsi   :   2083.07s CPU   2097.57s WALL (    1992 calls)

     General routines
     calbec       :   2842.10s CPU   2864.60s WALL (    2262 calls)
     fft          :      4.65s CPU      5.72s WALL (     597 calls)
     ffts         :    191.43s CPU    229.11s WALL (   27898 calls)
     fftw         :   4185.15s CPU   4826.08s WALL ( 1374990 calls)
     davcio       :      0.32s CPU      6.26s WALL (       6 calls)
 
     Parallel routines
     fft_scatter  :   2173.61s CPU   2480.11s WALL ( 1403485 calls)
 
     PWSCF        :     7h17m CPU        7h44m WALL

 
   This run was terminated on:   1:24: 4  17Sep2017            

=------------------------------------------------------------------------------=
   JOB DONE.
=------------------------------------------------------------------------------=
