
     Program PWSCF v.5.4.0 starts on 26Mar2017 at 15:45:30 

     This program is part of the open-source Quantum ESPRESSO suite
     for quantum simulation of materials; please cite
         "P. Giannozzi et al., J. Phys.:Condens. Matter 21 395502 (2009);
          URL http://www.quantum-espresso.org", 
     in publications or presentations arising from this work. More details at
     http://www.quantum-espresso.org/quote

     Parallel version (MPI & OpenMP), running on      56 processor cores
     Number of MPI processes:                56
     Threads/MPI process:                     1
     R & G space division:  proc/nbgrp/npool/nimage =      56
     Waiting for input...
     Reading input from standard input

     Current dimensions of program PWSCF are:
     Max number of different atomic species (ntypx) = 10
     Max number of k-points (npk) =  40000
     Max angular momentum in pseudopotentials (lmaxx) =  3

     -------------------------------------
     Parameters for Dispersion Correction:
     -------------------------------------
       atom      VdW radius       C_6     

        Cu         2.952        374.666
        C          2.744         60.710
        H          1.892          4.857

     Subspace diagonalization in iterative solution of the eigenvalue problem:
     one sub-group per band group will be used
     scalapack distributed-memory algorithm (size of sub-group:  5*  5 procs)

 
     Parallelization info
     --------------------
     sticks:   dense  smooth     PW     G-vecs:    dense   smooth      PW
     Min         204     204     54                36612    36612    4962
     Max         205     205     55                36617    36617    4968
     Sum       11433   11433   3039              2050409  2050409  278033
 


     bravais-lattice index     =            0
     lattice parameter (alat)  =      13.9425  a.u.
     unit-cell volume          =   21209.0878 (a.u.)^3
     number of atoms/cell      =          151
     number of atomic types    =            3
     number of electrons       =      1298.00
     number of Kohn-Sham states=          779
     kinetic-energy cutoff     =      80.0000  Ry
     charge density cutoff     =     320.0000  Ry
     convergence threshold     =      1.0E-08
     mixing beta               =       0.7000
     number of iterations used =            8  local-TF  mixing
     Exchange-correlation      =  SLA  PW   PBE  PBE ( 1  4  3  4 0 0)
     nstep                     =           50


     celldm(1)=  13.942539  celldm(2)=   0.000000  celldm(3)=   0.000000
     celldm(4)=   0.000000  celldm(5)=   0.000000  celldm(6)=   0.000000

     crystal axes: (cart. coord. in units of alat)
               a(1) = (   1.000000   0.000000   0.000000 )  
               a(2) = (   0.000000   2.309401   0.000000 )  
               a(3) = (   0.000000   0.000000   3.388418 )  

     reciprocal axes: (cart. coord. in units 2 pi/alat)
               b(1) = (  1.000000  0.000000  0.000000 )  
               b(2) = (  0.000000  0.433013  0.000000 )  
               b(3) = (  0.000000  0.000000  0.295123 )  


     PseudoPot. # 1 for Cu read from file:
     /home/549/hxw549/Short/pseudopotentials/Cu.pbe-n-van_ak.UPF
     MD5 check sum: 601f7c30f7467666bec936e0661ce3e1
     Pseudo is Ultrasoft + core correction, Zval = 11.0
     Generated by new atomic code, or converted to UPF format
     Using radial grid of  867 points,  6 beta functions with: 
                l(1) =   0
                l(2) =   0
                l(3) =   1
                l(4) =   1
                l(5) =   2
                l(6) =   2
     Q(r) pseudized with  8 coefficients,  rinner =    1.400   1.400   1.400
                                                       1.400   1.400

     PseudoPot. # 2 for C  read from file:
     /home/549/hxw549/Short/pseudopotentials/C.pbe-mt_gipaw.UPF
     MD5 check sum: 5ac2f21f2c440b14befe521540822c15
     Pseudo is Norm-conserving, Zval =  4.0
     Generated by new atomic code, or converted to UPF format
     Using radial grid of 1073 points,  1 beta functions with: 
                l(1) =   0

     PseudoPot. # 3 for H  read from file:
     /home/549/hxw549/Short/pseudopotentials/H.pbe-van_ak.UPF
     MD5 check sum: 077eb6d537518a38cb46c6de387227b7
     Pseudo is Ultrasoft, Zval =  1.0
     Generated by new atomic code, or converted to UPF format
     Using radial grid of  615 points,  1 beta functions with: 
                l(1) =   0
     Q(r) pseudized with  8 coefficients,  rinner =    0.800

     atomic species   valence    mass     pseudopotential
        Cu            11.00    63.54600     Cu( 1.00)
        C              4.00    12.01070     C ( 1.00)
        H              1.00     1.00783     H ( 1.00)

     No symmetry found



   Cartesian axes

     site n.     atom                  positions (alat units)
         1           Cu  tau(   1) = (   0.0004990  -0.0024010   0.9903739  )
         2           Cu  tau(   2) = (   0.2510610   0.2271573   0.9919331  )
         3           Cu  tau(   3) = (   0.4997397  -0.0040251   0.9915655  )
         4           Cu  tau(   4) = (   0.7495162   0.2268568   0.9920056  )
         5           Cu  tau(   5) = (   0.0002875   0.4586080   0.9935799  )
         6           Cu  tau(   6) = (   0.2509883   0.6909611   0.9950305  )
         7           Cu  tau(   7) = (   0.5010472   0.4586042   0.9928559  )
         8           Cu  tau(   8) = (   0.7512777   0.6909886   0.9951074  )
         9           Cu  tau(   9) = (   0.0014466   0.9233204   0.9958144  )
        10           Cu  tau(  10) = (   0.2507252   1.1561409   0.9942421  )
        11           Cu  tau(  11) = (   0.5010000   0.9232445   0.9962335  )
        12           Cu  tau(  12) = (   0.7517556   1.1559770   0.9948265  )
        13           Cu  tau(  13) = (   0.0006101   1.3902208   0.9912610  )
        14           Cu  tau(  14) = (   0.2517693   1.6217400   0.9893994  )
        15           Cu  tau(  15) = (   0.5009342   1.3893816   0.9910482  )
        16           Cu  tau(  16) = (   0.7489803   1.6218879   0.9886872  )
        17           Cu  tau(  17) = (   0.0002164   1.8495004   0.9902238  )
        18           Cu  tau(  18) = (   0.2486877   2.0780066   0.9900486  )
        19           Cu  tau(  19) = (   0.5001383   1.8510866   0.9882385  )
        20           Cu  tau(  20) = (   0.7514763   2.0781645   0.9898728  )
        21           Cu  tau(  21) = (   0.0008292   0.2268907   1.2407096  )
        22           Cu  tau(  22) = (   0.2509580  -0.0024401   1.2418416  )
        23           Cu  tau(  23) = (   0.5008023   0.2276596   1.2412615  )
        24           Cu  tau(  24) = (   0.7498819  -0.0029361   1.2414712  )
        25           Cu  tau(  25) = (   0.0022524   0.6901450   1.2417013  )
        26           Cu  tau(  26) = (   0.2512992   0.4578492   1.2408160  )
        27           Cu  tau(  27) = (   0.5021454   0.6900336   1.2415069  )
        28           Cu  tau(  28) = (   0.7518665   0.4575733   1.2407798  )
        29           Cu  tau(  29) = (   0.0030083   1.1595765   1.2391510  )
        30           Cu  tau(  30) = (   0.2523754   0.9239375   1.2412497  )
        31           Cu  tau(  31) = (   0.5022802   1.1576754   1.2399464  )
        32           Cu  tau(  32) = (   0.7531041   0.9236023   1.2417990  )
        33           Cu  tau(  33) = (   0.0015053   1.6198430   1.2399760  )
        34           Cu  tau(  34) = (   0.2520373   1.3902652   1.2385255  )
        35           Cu  tau(  35) = (   0.5010455   1.6215977   1.2384171  )
        36           Cu  tau(  36) = (   0.7520599   1.3914578   1.2372551  )
        37           Cu  tau(  37) = (   0.0003699   2.0777734   1.2429301  )
        38           Cu  tau(  38) = (   0.2506460   1.8487242   1.2413647  )
        39           Cu  tau(  39) = (   0.5004686   2.0763127   1.2410107  )
        40           Cu  tau(  40) = (   0.7507484   1.8483202   1.2407673  )
        41           Cu  tau(  41) = (   0.0009052  -0.0020416   1.4932952  )
        42           Cu  tau(  42) = (   0.2515975   0.2267281   1.4913581  )
        43           Cu  tau(  43) = (   0.5011311  -0.0033081   1.4912742  )
        44           Cu  tau(  44) = (   0.7514365   0.2270977   1.4910061  )
        45           Cu  tau(  45) = (   0.0020843   0.4572161   1.4899776  )
        46           Cu  tau(  46) = (   0.2532117   0.6902282   1.4887049  )
        47           Cu  tau(  47) = (   0.5025494   0.4593884   1.4916305  )
        48           Cu  tau(  48) = (   0.7540017   0.6889712   1.4881470  )
        49           Cu  tau(  49) = (   0.0070621   0.9265856   1.4862563  )
        50           Cu  tau(  50) = (   0.2542636   1.1584543   1.4878444  )
        51           Cu  tau(  51) = (   0.5041992   0.9233387   1.4870988  )
        52           Cu  tau(  52) = (   0.7558147   1.1615653   1.4837110  )
        53           Cu  tau(  53) = (   0.0050651   1.3905324   1.4898266  )
        54           Cu  tau(  54) = (   0.2527129   1.6194216   1.4916931  )
        55           Cu  tau(  55) = (   0.5037777   1.3931894   1.4857592  )
        56           Cu  tau(  56) = (   0.7541784   1.6194955   1.4914558  )
        57           Cu  tau(  57) = (   0.0021709   1.8473906   1.4944202  )
        58           Cu  tau(  58) = (   0.2508536   2.0776313   1.4933608  )
        59           Cu  tau(  59) = (   0.5022380   1.8482638   1.4927978  )
        60           Cu  tau(  60) = (   0.7516065   2.0767272   1.4941165  )
        61           Cu  tau(  61) = (   0.0016663   0.2289441   1.7407963  )
        62           Cu  tau(  62) = (   0.2507783  -0.0023270   1.7446510  )
        63           Cu  tau(  63) = (   0.5011048   0.2255838   1.7407603  )
        64           Cu  tau(  64) = (   0.7521853  -0.0010765   1.7430064  )
        65           Cu  tau(  65) = (   0.0049522   0.6894900   1.7354953  )
        66           Cu  tau(  66) = (   0.2537550   0.4588390   1.7374968  )
        67           Cu  tau(  67) = (   0.5057534   0.6963949   1.7425746  )
        68           Cu  tau(  68) = (   0.7505951   0.4583302   1.7385911  )
        69           Cu  tau(  69) = (   0.0112881   1.1603494   1.7388938  )
        70           Cu  tau(  70) = (   0.2574164   0.9215515   1.7383187  )
        71           Cu  tau(  71) = (   0.5064082   1.1619315   1.7250911  )
        72           Cu  tau(  72) = (   0.7628486   0.9295672   1.7252238  )
        73           Cu  tau(  73) = (   0.0065961   1.6176218   1.7436617  )
        74           Cu  tau(  74) = (   0.2584436   1.3902348   1.7400110  )
        75           Cu  tau(  75) = (   0.5069002   1.6187071   1.7423613  )
        76           Cu  tau(  76) = (   0.7573728   1.3875781   1.7380155  )
        77           Cu  tau(  77) = (   0.0021659   2.0773713   1.7462254  )
        78           Cu  tau(  78) = (   0.2536812   1.8482705   1.7432363  )
        79           Cu  tau(  79) = (   0.5031257   2.0781692   1.7439046  )
        80           Cu  tau(  80) = (   0.7562117   1.8464366   1.7456838  )
        81           Cu  tau(  81) = (   0.0032606   0.0029400   1.9893254  )
        82           Cu  tau(  82) = (   0.2515079   0.2325274   1.9907302  )
        83           Cu  tau(  83) = (   0.4997084  -0.0008815   1.9917877  )
        84           Cu  tau(  84) = (   0.7493241   0.2279345   1.9898844  )
        85           Cu  tau(  85) = (  -0.0035770   0.4541148   1.9908166  )
        86           Cu  tau(  86) = (   0.2412343   0.6805212   1.9832250  )
        87           Cu  tau(  87) = (   0.5035329   0.4578209   1.9849585  )
        88           Cu  tau(  88) = (   0.7574366   0.6879207   1.9833838  )
        89           Cu  tau(  89) = (  -0.0032472   0.9229780   1.9790494  )
        90           Cu  tau(  90) = (   0.2601014   1.1516243   1.9804056  )
        91           Cu  tau(  91) = (   0.5544368   0.9532248   1.9642333  )
        92           Cu  tau(  92) = (   0.7810953   1.1790112   1.9980045  )
        93           Cu  tau(  93) = (   0.0267240   1.3960426   1.9943557  )
        94           Cu  tau(  94) = (   0.2632893   1.6239556   1.9905975  )
        95           Cu  tau(  95) = (   0.5055002   1.3844339   1.9863909  )
        96           Cu  tau(  96) = (   0.7584649   1.6087605   1.9907872  )
        97           Cu  tau(  97) = (   0.0017908   1.8441613   1.9936236  )
        98           Cu  tau(  98) = (   0.2520487   2.0748574   1.9915878  )
        99           Cu  tau(  99) = (   0.5121172   1.8482333   1.9893350  )
       100           Cu  tau( 100) = (   0.7555141   2.0816666   1.9913946  )
       101           C   tau( 101) = (  -0.0050967   0.0962231   2.3894878  )
       102           C   tau( 102) = (  -0.0058862   0.2881597   2.4069347  )
       103           C   tau( 103) = (   0.1615824   0.0000604   2.3832234  )
       104           C   tau( 104) = (   0.1603746   0.3845670   2.4182340  )
       105           C   tau( 105) = (   0.3279923   0.0967858   2.3856963  )
       106           C   tau( 106) = (   0.3271421   0.2886025   2.4039901  )
       107           C   tau( 107) = (   0.4947421   0.0000994   2.3766382  )
       108           C   tau( 108) = (   0.4935638   0.3858631   2.4099335  )
       109           C   tau( 109) = (   0.6614685   0.0970011   2.3827907  )
       110           C   tau( 110) = (   0.6607450   0.2891587   2.3977792  )
       111           C   tau( 111) = (   0.8279911   0.0002984   2.3811291  )
       112           C   tau( 112) = (   0.8273882   0.3845849   2.4125415  )
       113           C   tau( 113) = (  -0.0071459   0.6728500   2.4416680  )
       114           C   tau( 114) = (  -0.0082420   0.8651961   2.4442076  )
       115           C   tau( 115) = (   0.1595954   0.5755527   2.4436421  )
       116           C   tau( 116) = (   0.1582304   0.9616016   2.4519829  )
       117           C   tau( 117) = (   0.3255061   0.6721651   2.4535405  )
       118           C   tau( 118) = (   0.3228526   0.8637341   2.4596346  )
       119           C   tau( 119) = (   0.4927771   0.5765691   2.4300785  )
       120           C   tau( 120) = (   0.4859889   0.9563389   2.3814483  )
       121           C   tau( 121) = (   0.4230500   0.9115621   2.1782891  )
       122           H   tau( 122) = (   0.4276803   0.7595003   2.1662041  )
       123           H   tau( 123) = (   0.2769985   0.9502726   2.1688950  )
       124           C   tau( 124) = (   0.6604468   0.6734018   2.4248776  )
       125           C   tau( 125) = (   0.6613083   0.8633132   2.4153161  )
       126           C   tau( 126) = (   0.8273048   0.5765326   2.4256473  )
       127           C   tau( 127) = (   0.8249354   0.9601444   2.4209790  )
       128           C   tau( 128) = (  -0.0069494   1.2488847   2.4072864  )
       129           C   tau( 129) = (  -0.0061031   1.4423028   2.3949845  )
       130           C   tau( 130) = (   0.1593960   1.1533554   2.4228162  )
       131           C   tau( 131) = (   0.1606202   1.5392270   2.3944410  )
       132           C   tau( 132) = (   0.3267706   1.2503989   2.4081508  )
       133           C   tau( 133) = (   0.3271973   1.4430680   2.3990455  )
       134           C   tau( 134) = (   0.4920173   1.1558700   2.4033819  )
       135           C   tau( 135) = (   0.4936966   1.5395089   2.3937854  )
       136           C   tau( 136) = (   0.6581673   1.2496161   2.3989629  )
       137           C   tau( 137) = (   0.6598366   1.4430000   2.3947039  )
       138           C   tau( 138) = (   0.8261222   1.1531293   2.4052337  )
       139           C   tau( 139) = (   0.8270357   1.5389340   2.3911045  )
       140           C   tau( 140) = (  -0.0050153   1.8284137   2.3804681  )
       141           C   tau( 141) = (  -0.0049471   2.0209999   2.3780464  )
       142           C   tau( 142) = (   0.1615205   1.7320389   2.3870717  )
       143           C   tau( 143) = (   0.1619768   2.1171327   2.3781148  )
       144           C   tau( 144) = (   0.3282816   1.8282300   2.3838434  )
       145           C   tau( 145) = (   0.3285514   2.0206589   2.3774490  )
       146           C   tau( 146) = (   0.4945655   1.7323271   2.3859981  )
       147           C   tau( 147) = (   0.4951625   2.1169272   2.3752855  )
       148           C   tau( 148) = (   0.6614341   1.8281332   2.3815400  )
       149           C   tau( 149) = (   0.6615601   2.0207043   2.3761830  )
       150           C   tau( 150) = (   0.8279469   1.7319579   2.3844095  )
       151           C   tau( 151) = (   0.8286093   2.1172506   2.3758601  )

     number of k points=     6  gaussian smearing, width (Ry)=  0.1000
                       cart. coord. in units 2pi/alat
        k(    1) = (   0.0000000   0.0000000   0.0000000), wk =   0.2500000
        k(    2) = (   0.0000000  -0.2165064   0.0000000), wk =   0.2500000
        k(    3) = (   0.2500000   0.0000000   0.0000000), wk =   0.5000000
        k(    4) = (   0.2500000  -0.2165064   0.0000000), wk =   0.5000000
        k(    5) = (  -0.5000000   0.0000000   0.0000000), wk =   0.2500000
        k(    6) = (  -0.5000000  -0.2165064   0.0000000), wk =   0.2500000

     Dense  grid:  2050409 G-vectors     FFT dimensions: (  80, 192, 270)

     Largest allocated arrays     est. size (Mb)     dimensions
        Kohn-Sham Wavefunctions        54.73 Mb     (    4604,  779)
        NL pseudopotentials           130.04 Mb     (    4604, 1851)
        Each V/rho on FFT grid          1.17 Mb     (   76800)
        Each G-vector array             0.28 Mb     (   36616)
        G-vector shells                 0.14 Mb     (   17932)
     Largest temporary arrays     est. size (Mb)     dimensions
        Auxiliary wavefunctions       218.90 Mb     (    4604, 3116)
        Each subspace H/S matrix        5.92 Mb     (     623,  623)
        Each <psi_i|beta_j> matrix     22.00 Mb     (    1851,  779)
        Arrays for rho mixing           9.38 Mb     (   76800,    8)

     Initial potential from superposition of free atoms
     Check: negative starting charge=   -0.001830

     starting charge 1272.31749, renormalised to 1298.00000

     negative rho (up, down):  1.867E-03 0.000E+00
     Starting wfc are 1294 randomized atomic wfcs

     total cpu time spent up to now is      107.3 secs

     Self-consistent Calculation

     iteration #  1     ecut=    80.00 Ry     beta=0.70
     Davidson diagonalization with overlap
     c_bands:  5 eigenvalues not converged
     c_bands:  4 eigenvalues not converged
     ethr =  1.00E-04,  avg # of iterations = 27.3

     negative rho (up, down):  2.894E+01 0.000E+00

     total cpu time spent up to now is     2034.9 secs

     total energy              =   -9250.72550809 Ry
     Harris-Foulkes estimate   =  -17336.88652386 Ry
     estimated scf accuracy    <  186213.23307088 Ry

     iteration #  2     ecut=    80.00 Ry     beta=0.70
     Davidson diagonalization with overlap
     ethr =  1.00E-02,  avg # of iterations = 13.0

     negative rho (up, down):  3.202E+01 0.000E+00

     total cpu time spent up to now is     2982.2 secs

     total energy              =  -12188.73888166 Ry
     Harris-Foulkes estimate   =  -13706.79592828 Ry
     estimated scf accuracy    <   22763.41277817 Ry

     iteration #  3     ecut=    80.00 Ry     beta=0.70
     Davidson diagonalization with overlap
     ethr =  1.00E-02,  avg # of iterations =  7.0

     negative rho (up, down):  3.348E+01 0.000E+00

     total cpu time spent up to now is     3518.7 secs

     total energy              =  -12456.44627618 Ry
     Harris-Foulkes estimate   =  -13432.24642227 Ry
     estimated scf accuracy    <    6583.43896693 Ry

     iteration #  4     ecut=    80.00 Ry     beta=0.70
     Davidson diagonalization with overlap
     ethr =  1.00E-02,  avg # of iterations =  5.3

     negative rho (up, down):  2.744E+01 0.000E+00

     total cpu time spent up to now is     3993.2 secs

     total energy              =  -12834.89702372 Ry
     Harris-Foulkes estimate   =  -13150.74490359 Ry
     estimated scf accuracy    <    3931.24025148 Ry

     iteration #  5     ecut=    80.00 Ry     beta=0.70
     Davidson diagonalization with overlap
     ethr =  1.00E-02,  avg # of iterations =  5.0

     negative rho (up, down):  1.844E+01 0.000E+00

     total cpu time spent up to now is     4326.1 secs

     total energy              =  -12877.74416364 Ry
     Harris-Foulkes estimate   =  -13034.43340966 Ry
     estimated scf accuracy    <    1105.66257498 Ry

     iteration #  6     ecut=    80.00 Ry     beta=0.70
     Davidson diagonalization with overlap
     ethr =  1.00E-02,  avg # of iterations =  2.0

     negative rho (up, down):  1.027E+01 0.000E+00

     total cpu time spent up to now is     4545.6 secs

     total energy              =  -12824.11900115 Ry
     Harris-Foulkes estimate   =  -12909.01127823 Ry
     estimated scf accuracy    <     512.12254476 Ry

     iteration #  7     ecut=    80.00 Ry     beta=0.70
     Davidson diagonalization with overlap
     ethr =  1.00E-02,  avg # of iterations =  2.0

     negative rho (up, down):  8.635E+00 0.000E+00

     total cpu time spent up to now is     4741.5 secs

     total energy              =  -12818.27528337 Ry
     Harris-Foulkes estimate   =  -12851.75057788 Ry
     estimated scf accuracy    <    1094.45322962 Ry

     iteration #  8     ecut=    80.00 Ry     beta=0.70
     Davidson diagonalization with overlap
     ethr =  1.00E-02,  avg # of iterations =  1.0

     negative rho (up, down):  8.231E+00 0.000E+00

     total cpu time spent up to now is     4909.1 secs

     total energy              =  -12821.57756095 Ry
     Harris-Foulkes estimate   =  -12830.83120871 Ry
     estimated scf accuracy    <     499.28255667 Ry

     iteration #  9     ecut=    80.00 Ry     beta=0.70
     Davidson diagonalization with overlap
     ethr =  1.00E-02,  avg # of iterations =  1.0

     negative rho (up, down):  7.555E+00 0.000E+00

     total cpu time spent up to now is     5075.9 secs

     total energy              =  -12814.22141187 Ry
     Harris-Foulkes estimate   =  -12823.94825182 Ry
     estimated scf accuracy    <     272.60495066 Ry

     iteration # 10     ecut=    80.00 Ry     beta=0.70
     Davidson diagonalization with overlap
     ethr =  1.00E-02,  avg # of iterations =  1.0

     negative rho (up, down):  2.167E+00 0.000E+00

     total cpu time spent up to now is     5242.6 secs

     total energy              =  -12765.49028519 Ry
     Harris-Foulkes estimate   =  -12817.54272033 Ry
     estimated scf accuracy    <     389.37497613 Ry

     iteration # 11     ecut=    80.00 Ry     beta=0.70
     Davidson diagonalization with overlap
     ethr =  1.00E-02,  avg # of iterations =  2.7

     negative rho (up, down):  1.737E+00 0.000E+00

     total cpu time spent up to now is     5448.1 secs

     total energy              =  -12754.16893897 Ry
     Harris-Foulkes estimate   =  -12800.18592275 Ry
     estimated scf accuracy    <    1584.19541266 Ry

     iteration # 12     ecut=    80.00 Ry     beta=0.70
     Davidson diagonalization with overlap
     ethr =  1.00E-02,  avg # of iterations =  1.5

     negative rho (up, down):  1.772E+00 0.000E+00

     total cpu time spent up to now is     5620.4 secs

     total energy              =  -12735.47212850 Ry
     Harris-Foulkes estimate   =  -12771.13162380 Ry
     estimated scf accuracy    <     598.26818090 Ry

     iteration # 13     ecut=    80.00 Ry     beta=0.70
     Davidson diagonalization with overlap
     ethr =  1.00E-02,  avg # of iterations =  2.0

     negative rho (up, down):  2.480E+00 0.000E+00

     total cpu time spent up to now is     5799.4 secs

     total energy              =  -12734.79634369 Ry
     Harris-Foulkes estimate   =  -12750.55174373 Ry
     estimated scf accuracy    <     176.42486239 Ry

     iteration # 14     ecut=    80.00 Ry     beta=0.70
     Davidson diagonalization with overlap
     ethr =  1.00E-02,  avg # of iterations =  1.3

     negative rho (up, down):  1.108E+00 0.000E+00

     total cpu time spent up to now is     5970.2 secs

     total energy              =  -12733.92080551 Ry
     Harris-Foulkes estimate   =  -12741.72703785 Ry
     estimated scf accuracy    <     134.28511392 Ry

     iteration # 15     ecut=    80.00 Ry     beta=0.70
     Davidson diagonalization with overlap
     ethr =  1.00E-02,  avg # of iterations =  1.0

     negative rho (up, down):  3.775E+00 0.000E+00

     total cpu time spent up to now is     6137.9 secs

     total energy              =  -12721.88018181 Ry
     Harris-Foulkes estimate   =  -12737.07985305 Ry
     estimated scf accuracy    <     104.63219590 Ry

     iteration # 16     ecut=    80.00 Ry     beta=0.70
     Davidson diagonalization with overlap
     ethr =  8.06E-03,  avg # of iterations =  2.3

     negative rho (up, down):  8.227E+00 0.000E+00

     total cpu time spent up to now is     6320.8 secs

     total energy              =  -12702.69740809 Ry
     Harris-Foulkes estimate   =  -12732.37030690 Ry
     estimated scf accuracy    <     202.01330155 Ry

     iteration # 17     ecut=    80.00 Ry     beta=0.70
     Davidson diagonalization with overlap
     ethr =  8.06E-03,  avg # of iterations =  2.0

     negative rho (up, down):  2.723E+00 0.000E+00

     total cpu time spent up to now is     6511.3 secs

     total energy              =  -12720.98915635 Ry
     Harris-Foulkes estimate   =  -12728.58765452 Ry
     estimated scf accuracy    <      91.03656701 Ry

     iteration # 18     ecut=    80.00 Ry     beta=0.70
     Davidson diagonalization with overlap
     ethr =  7.01E-03,  avg # of iterations =  1.2

     negative rho (up, down):  5.234E+00 0.000E+00

     total cpu time spent up to now is     6680.1 secs

     total energy              =  -12719.70229194 Ry
     Harris-Foulkes estimate   =  -12723.00043421 Ry
     estimated scf accuracy    <      45.38142327 Ry

     iteration # 19     ecut=    80.00 Ry     beta=0.70
     Davidson diagonalization with overlap
     ethr =  3.50E-03,  avg # of iterations =  2.8

     negative rho (up, down):  3.599E+00 0.000E+00

     total cpu time spent up to now is     6869.1 secs

     total energy              =  -12718.82957036 Ry
     Harris-Foulkes estimate   =  -12721.07378510 Ry
     estimated scf accuracy    <      24.34283207 Ry

     iteration # 20     ecut=    80.00 Ry     beta=0.70
     Davidson diagonalization with overlap
     ethr =  1.88E-03,  avg # of iterations =  2.7

     negative rho (up, down):  2.075E+00 0.000E+00

     total cpu time spent up to now is     7055.9 secs

     total energy              =  -12716.89940339 Ry
     Harris-Foulkes estimate   =  -12719.20265177 Ry
     estimated scf accuracy    <      16.00669611 Ry

     iteration # 21     ecut=    80.00 Ry     beta=0.70
     Davidson diagonalization with overlap
     ethr =  1.23E-03,  avg # of iterations =  2.7

     negative rho (up, down):  2.532E+00 0.000E+00

     total cpu time spent up to now is     7241.3 secs

     total energy              =  -12717.25713167 Ry
     Harris-Foulkes estimate   =  -12717.32985819 Ry
     estimated scf accuracy    <      15.12179490 Ry

     iteration # 22     ecut=    80.00 Ry     beta=0.70
     Davidson diagonalization with overlap
     ethr =  1.17E-03,  avg # of iterations =  2.3

     negative rho (up, down):  2.601E+00 0.000E+00

     total cpu time spent up to now is     7422.5 secs

     total energy              =  -12716.86332952 Ry
     Harris-Foulkes estimate   =  -12717.65090548 Ry
     estimated scf accuracy    <       9.18852903 Ry

     iteration # 23     ecut=    80.00 Ry     beta=0.70
     Davidson diagonalization with overlap
     ethr =  7.08E-04,  avg # of iterations =  6.5

     negative rho (up, down):  1.990E+00 0.000E+00

     total cpu time spent up to now is     7654.8 secs

     total energy              =  -12714.97284753 Ry
     Harris-Foulkes estimate   =  -12716.97599120 Ry
     estimated scf accuracy    <       7.19937823 Ry

     iteration # 24     ecut=    80.00 Ry     beta=0.70
     Davidson diagonalization with overlap
     ethr =  5.55E-04,  avg # of iterations =  4.5

     negative rho (up, down):  1.706E+00 0.000E+00

     total cpu time spent up to now is     7866.5 secs

     total energy              =  -12713.73457433 Ry
     Harris-Foulkes estimate   =  -12715.21877576 Ry
     estimated scf accuracy    <       6.67062355 Ry

     iteration # 25     ecut=    80.00 Ry     beta=0.70
     Davidson diagonalization with overlap
     ethr =  5.14E-04,  avg # of iterations =  5.2

     negative rho (up, down):  1.677E+00 0.000E+00

     total cpu time spent up to now is     8089.8 secs

     total energy              =  -12712.85278722 Ry
     Harris-Foulkes estimate   =  -12713.97522270 Ry
     estimated scf accuracy    <      14.04344897 Ry

     iteration # 26     ecut=    80.00 Ry     beta=0.70
     Davidson diagonalization with overlap
     ethr =  5.14E-04,  avg # of iterations =  4.0

     negative rho (up, down):  1.267E+00 0.000E+00

     total cpu time spent up to now is     8292.1 secs

     total energy              =  -12712.57828065 Ry
     Harris-Foulkes estimate   =  -12713.58123349 Ry
     estimated scf accuracy    <       3.30441163 Ry

     iteration # 27     ecut=    80.00 Ry     beta=0.70
     Davidson diagonalization with overlap
     ethr =  2.55E-04,  avg # of iterations =  7.0

     negative rho (up, down):  1.220E+00 0.000E+00

     total cpu time spent up to now is     8546.2 secs

     total energy              =  -12712.50842247 Ry
     Harris-Foulkes estimate   =  -12712.72956507 Ry
     estimated scf accuracy    <       1.20416547 Ry

     iteration # 28     ecut=    80.00 Ry     beta=0.70
     Davidson diagonalization with overlap
     ethr =  9.28E-05,  avg # of iterations =  6.3

     negative rho (up, down):  6.752E-01 0.000E+00

     total cpu time spent up to now is     8807.2 secs

     total energy              =  -12712.44640167 Ry
     Harris-Foulkes estimate   =  -12712.56189431 Ry
     estimated scf accuracy    <       0.58644340 Ry

     iteration # 29     ecut=    80.00 Ry     beta=0.70
     Davidson diagonalization with overlap
     ethr =  4.52E-05,  avg # of iterations = 12.5

     negative rho (up, down):  6.293E-01 0.000E+00

     total cpu time spent up to now is     9124.8 secs

     total energy              =  -12712.45753550 Ry
     Harris-Foulkes estimate   =  -12712.47511121 Ry
     estimated scf accuracy    <       0.17297806 Ry

     iteration # 30     ecut=    80.00 Ry     beta=0.70
     Davidson diagonalization with overlap
     ethr =  1.33E-05,  avg # of iterations =  7.7

     negative rho (up, down):  3.678E-01 0.000E+00

     total cpu time spent up to now is     9393.4 secs

     total energy              =  -12712.44240172 Ry
     Harris-Foulkes estimate   =  -12712.46815303 Ry
     estimated scf accuracy    <       0.10274754 Ry

     iteration # 31     ecut=    80.00 Ry     beta=0.70
     Davidson diagonalization with overlap
     c_bands:  1 eigenvalues not converged
     ethr =  7.92E-06,  avg # of iterations = 15.5

     negative rho (up, down):  8.252E-02 0.000E+00

     total cpu time spent up to now is     9759.7 secs

     total energy              =  -12712.43506500 Ry
     Harris-Foulkes estimate   =  -12712.44996730 Ry
     estimated scf accuracy    <       0.07501237 Ry

     iteration # 32     ecut=    80.00 Ry     beta=0.70
     Davidson diagonalization with overlap
     c_bands:  1 eigenvalues not converged
     c_bands:  1 eigenvalues not converged
     ethr =  5.78E-06,  avg # of iterations = 16.5

     negative rho (up, down):  6.351E-02 0.000E+00

     total cpu time spent up to now is    10161.8 secs

     total energy              =  -12712.43597260 Ry
     Harris-Foulkes estimate   =  -12712.43843638 Ry
     estimated scf accuracy    <       0.02627362 Ry

     iteration # 33     ecut=    80.00 Ry     beta=0.70
     Davidson diagonalization with overlap
     c_bands:  1 eigenvalues not converged
     ethr =  2.02E-06,  avg # of iterations = 13.7

     negative rho (up, down):  4.053E-02 0.000E+00

     total cpu time spent up to now is    10500.4 secs

     total energy              =  -12712.43577209 Ry
     Harris-Foulkes estimate   =  -12712.43691237 Ry
     estimated scf accuracy    <       0.00561233 Ry

     iteration # 34     ecut=    80.00 Ry     beta=0.70
     Davidson diagonalization with overlap
     ethr =  4.32E-07,  avg # of iterations = 11.0

     negative rho (up, down):  1.892E-02 0.000E+00

     total cpu time spent up to now is    10805.5 secs

     total energy              =  -12712.43555428 Ry
     Harris-Foulkes estimate   =  -12712.43613723 Ry
     estimated scf accuracy    <       0.00105178 Ry

     iteration # 35     ecut=    80.00 Ry     beta=0.70
     Davidson diagonalization with overlap
     c_bands:  2 eigenvalues not converged
     c_bands:  1 eigenvalues not converged
     ethr =  8.10E-08,  avg # of iterations = 12.8

     negative rho (up, down):  1.851E-02 0.000E+00

     total cpu time spent up to now is    11143.3 secs

     total energy              =  -12712.43556683 Ry
     Harris-Foulkes estimate   =  -12712.43564212 Ry
     estimated scf accuracy    <       0.00040364 Ry

     iteration # 36     ecut=    80.00 Ry     beta=0.70
     Davidson diagonalization with overlap
     ethr =  3.11E-08,  avg # of iterations =  8.7

     negative rho (up, down):  1.165E-02 0.000E+00

     total cpu time spent up to now is    11416.2 secs

     total energy              =  -12712.43545235 Ry
     Harris-Foulkes estimate   =  -12712.43559878 Ry
     estimated scf accuracy    <       0.00010400 Ry

     iteration # 37     ecut=    80.00 Ry     beta=0.70
     Davidson diagonalization with overlap
     ethr =  8.01E-09,  avg # of iterations =  7.2

     negative rho (up, down):  5.401E-03 0.000E+00

     total cpu time spent up to now is    11668.9 secs

     total energy              =  -12712.43534857 Ry
     Harris-Foulkes estimate   =  -12712.43545933 Ry
     estimated scf accuracy    <       0.00002967 Ry

     iteration # 38     ecut=    80.00 Ry     beta=0.70
     Davidson diagonalization with overlap
     c_bands:  1 eigenvalues not converged
     c_bands:  2 eigenvalues not converged
     ethr =  2.29E-09,  avg # of iterations = 12.5

     negative rho (up, down):  3.620E-03 0.000E+00

     total cpu time spent up to now is    11995.2 secs

     total energy              =  -12712.43532167 Ry
     Harris-Foulkes estimate   =  -12712.43535148 Ry
     estimated scf accuracy    <       0.00001186 Ry

     iteration # 39     ecut=    80.00 Ry     beta=0.70
     Davidson diagonalization with overlap
     ethr =  9.14E-10,  avg # of iterations =  9.7

     negative rho (up, down):  2.548E-03 0.000E+00

     total cpu time spent up to now is    12289.3 secs

     total energy              =  -12712.43531699 Ry
     Harris-Foulkes estimate   =  -12712.43532354 Ry
     estimated scf accuracy    <       0.00000650 Ry

     iteration # 40     ecut=    80.00 Ry     beta=0.70
     Davidson diagonalization with overlap
     ethr =  5.01E-10,  avg # of iterations =  4.3

     negative rho (up, down):  1.886E-03 0.000E+00

     total cpu time spent up to now is    12502.0 secs

     total energy              =  -12712.43531716 Ry
     Harris-Foulkes estimate   =  -12712.43531746 Ry
     estimated scf accuracy    <       0.00000199 Ry

     iteration # 41     ecut=    80.00 Ry     beta=0.70
     Davidson diagonalization with overlap
     ethr =  1.53E-10,  avg # of iterations =  2.0

     negative rho (up, down):  1.760E-03 0.000E+00

     total cpu time spent up to now is    12688.7 secs

     total energy              =  -12712.43531792 Ry
     Harris-Foulkes estimate   =  -12712.43531731 Ry
     estimated scf accuracy    <       0.00000105 Ry

     iteration # 42     ecut=    80.00 Ry     beta=0.70
     Davidson diagonalization with overlap
     ethr =  8.08E-11,  avg # of iterations =  2.8

     negative rho (up, down):  1.805E-03 0.000E+00

     total cpu time spent up to now is    12885.4 secs

     total energy              =  -12712.43531828 Ry
     Harris-Foulkes estimate   =  -12712.43531800 Ry
     estimated scf accuracy    <       0.00000025 Ry

     iteration # 43     ecut=    80.00 Ry     beta=0.70
     Davidson diagonalization with overlap
     ethr =  1.95E-11,  avg # of iterations =  3.0

     negative rho (up, down):  1.829E-03 0.000E+00

     total cpu time spent up to now is    13087.6 secs

     total energy              =  -12712.43531842 Ry
     Harris-Foulkes estimate   =  -12712.43531831 Ry
     estimated scf accuracy    <       0.00000007 Ry

     iteration # 44     ecut=    80.00 Ry     beta=0.70
     Davidson diagonalization with overlap
     ethr =  5.18E-12,  avg # of iterations =  3.3

     negative rho (up, down):  1.856E-03 0.000E+00

     total cpu time spent up to now is    13352.2 secs

     total energy              =  -12712.43531846 Ry
     Harris-Foulkes estimate   =  -12712.43531843 Ry
     estimated scf accuracy    <       0.00000003 Ry

     iteration # 45     ecut=    80.00 Ry     beta=0.70
     Davidson diagonalization with overlap
     ethr =  2.67E-12,  avg # of iterations =  3.0

     negative rho (up, down):  1.839E-03 0.000E+00

     total cpu time spent up to now is    13543.2 secs

     End of self-consistent calculation

          k = 0.0000 0.0000 0.0000 (256287 PWs)   bands (ev):

   -16.0064 -15.6746 -15.5888 -14.5685 -14.4942 -14.0645 -14.0203 -13.7717
   -13.6564 -13.6357 -13.6282 -12.8072 -12.7018 -12.6337 -12.5996 -12.5853
   -12.5602 -11.0737 -10.9134 -10.8943 -10.8813 -10.7345  -9.7509  -9.6054
    -9.0316  -9.0152  -8.9990  -8.8163  -8.1478  -8.1120  -8.1021  -8.0542
    -7.1695  -7.1432  -7.0887  -7.0687  -7.0477  -7.0393  -7.0326  -6.9810
    -5.6772  -5.5805  -5.5331  -5.5068  -5.4774  -5.3865  -5.3564  -5.3438
    -5.3226  -5.1548  -5.1267  -4.6784  -4.3409  -4.2971  -4.2611  -4.2151
    -4.0022  -3.9751  -3.9267  -3.8033  -3.7627  -3.7072  -3.6171  -3.5726
    -3.2058  -3.1332  -3.0738  -3.0660  -3.0618  -3.0375  -3.0036  -2.9512
    -2.9122  -2.8613  -2.8180  -2.7447  -2.7070  -2.6786  -2.6761  -2.6525
    -2.6451  -2.5667  -2.5156  -2.4840  -2.4427  -2.3766  -2.3144  -2.2679
    -2.2601  -2.2480  -2.2289  -2.2123  -2.0915  -2.0391  -2.0030  -1.9942
    -1.9661  -1.9289  -1.8710  -1.8544  -1.8433  -1.8188  -1.8169  -1.8146
    -1.8114  -1.7710  -1.6917  -1.6852  -1.6803  -1.6737  -1.6393  -1.6194
    -1.6004  -1.5344  -1.5054  -1.4435  -1.4274  -1.4105  -1.4031  -1.3942
    -1.3901  -1.3664  -1.3467  -1.3340  -1.3223  -1.3164  -1.2909  -1.2709
    -1.2448  -1.2364  -1.2312  -1.2152  -1.2049  -1.2020  -1.1929  -1.1840
    -1.1769  -1.1672  -1.1492  -1.1309  -1.0906  -1.0724  -1.0170  -1.0092
    -1.0021  -0.9855  -0.9607  -0.9496  -0.9255  -0.9225  -0.9092  -0.8887
    -0.8805  -0.8750  -0.8653  -0.8536  -0.8471  -0.8301  -0.8229  -0.7971
    -0.7511  -0.7397  -0.7288  -0.7271  -0.7202  -0.7132  -0.7080  -0.7049
    -0.6985  -0.6912  -0.6871  -0.6810  -0.6793  -0.6667  -0.6603  -0.6579
    -0.6485  -0.6254  -0.6091  -0.6072  -0.6021  -0.5930  -0.5842  -0.5768
    -0.5693  -0.5508  -0.5398  -0.5336  -0.5276  -0.5255  -0.5203  -0.5198
    -0.5178  -0.5142  -0.5102  -0.5088  -0.5076  -0.5049  -0.5023  -0.4989
    -0.4976  -0.4939  -0.4665  -0.4494  -0.4416  -0.4158  -0.3601  -0.3539
    -0.3478  -0.3454  -0.3383  -0.3320  -0.3201  -0.3055  -0.2994  -0.2953
    -0.2879  -0.2729  -0.2648  -0.2627  -0.2544  -0.2415  -0.2393  -0.2301
    -0.2256  -0.2222  -0.2179  -0.2114  -0.2077  -0.2032  -0.1943  -0.1843
    -0.1554  -0.1494  -0.1229  -0.1207  -0.1121  -0.1058  -0.0953  -0.0899
    -0.0854  -0.0777  -0.0742  -0.0711  -0.0677  -0.0655  -0.0623  -0.0618
    -0.0538  -0.0503  -0.0501  -0.0471  -0.0368  -0.0290  -0.0175  -0.0101
     0.0056   0.0287   0.0332   0.0363   0.0427   0.0456   0.0566   0.0690
     0.0707   0.0749   0.0798   0.0815   0.0860   0.0910   0.0920   0.0980
     0.1026   0.1041   0.1094   0.1158   0.1183   0.1241   0.1331   0.1373
     0.1403   0.1445   0.1466   0.1547   0.1610   0.1652   0.1810   0.1962
     0.2062   0.2097   0.2207   0.2291   0.2359   0.2422   0.2576   0.2634
     0.2696   0.2735   0.2775   0.2805   0.2836   0.2863   0.2952   0.3110
     0.3154   0.3201   0.3310   0.3363   0.3406   0.3458   0.3526   0.3595
     0.3621   0.3654   0.3720   0.3724   0.3806   0.3846   0.3872   0.3914
     0.3924   0.3996   0.4051   0.4058   0.4193   0.4202   0.4267   0.4314
     0.4423   0.4449   0.4538   0.4671   0.4728   0.4797   0.4859   0.4888
     0.5058   0.5144   0.5159   0.5311   0.5480   0.5554   0.5599   0.5639
     0.5806   0.5840   0.5922   0.5941   0.6009   0.6071   0.6174   0.6210
     0.6246   0.6341   0.6532   0.6670   0.6715   0.6778   0.6798   0.6853
     0.6888   0.6997   0.7096   0.7149   0.7195   0.7225   0.7288   0.7389
     0.7485   0.7533   0.7583   0.7697   0.7743   0.7794   0.7863   0.7934
     0.7949   0.8069   0.8132   0.8260   0.8268   0.8308   0.8333   0.8418
     0.8489   0.8532   0.8558   0.8633   0.8677   0.8707   0.8750   0.8800
     0.8817   0.8847   0.8932   0.8946   0.8967   0.8983   0.9014   0.9052
     0.9115   0.9224   0.9228   0.9411   0.9418   0.9513   0.9617   0.9642
     0.9715   0.9793   0.9813   0.9875   0.9911   0.9989   1.0027   1.0045
     1.0098   1.0129   1.0154   1.0166   1.0246   1.0255   1.0269   1.0292
     1.0363   1.0406   1.0470   1.0494   1.0574   1.0666   1.0716   1.0776
     1.0803   1.0833   1.0837   1.0851   1.0893   1.0959   1.1002   1.1046
     1.1056   1.1108   1.1263   1.1388   1.1445   1.1473   1.1539   1.1579
     1.1626   1.1682   1.1804   1.1830   1.1861   1.1904   1.1957   1.2057
     1.2120   1.2184   1.2205   1.2280   1.2295   1.2359   1.2425   1.2468
     1.2539   1.2567   1.2644   1.2705   1.2732   1.2788   1.2812   1.2920
     1.2957   1.3000   1.3067   1.3098   1.3173   1.3192   1.3200   1.3240
     1.3281   1.3330   1.3370   1.3419   1.3433   1.3533   1.3554   1.3611
     1.3667   1.3675   1.3733   1.3749   1.3768   1.3824   1.3849   1.3942
     1.4020   1.4064   1.4087   1.4125   1.4179   1.4211   1.4270   1.4349
     1.4405   1.4421   1.4489   1.4524   1.4540   1.4543   1.4555   1.4591
     1.4597   1.4652   1.4664   1.4717   1.4772   1.4905   1.4981   1.5060
     1.5105   1.5190   1.5242   1.5281   1.5354   1.5380   1.5426   1.5444
     1.5507   1.5518   1.5557   1.5629   1.5680   1.5701   1.5741   1.5794
     1.5830   1.5872   1.5887   1.5921   1.5951   1.5979   1.5993   1.6063
     1.6064   1.6141   1.6164   1.6203   1.6245   1.6312   1.6353   1.6377
     1.6399   1.6446   1.6458   1.6476   1.6515   1.6529   1.6583   1.6624
     1.6668   1.6810   1.6855   1.6903   1.6907   1.6916   1.6929   1.6992
     1.7040   1.7047   1.7163   1.7209   1.7263   1.7290   1.7342   1.7376
     1.7441   1.7450   1.7488   1.7585   1.7598   1.7620   1.7628   1.7638
     1.7663   1.7683   1.7711   1.7751   1.7769   1.7824   1.7850   1.7895
     1.7938   1.7983   1.8018   1.8057   1.8113   1.8149   1.8158   1.8219
     1.8339   1.8553   1.8577   1.8641   1.8676   1.8835   1.8912   1.9006
     1.9064   1.9170   1.9223   1.9264   1.9448   1.9480   1.9492   1.9586
     1.9636   1.9758   1.9832   1.9869   1.9906   2.0019   2.2077   2.2773
     2.2935   2.4277   2.4535   2.4588   2.4985   2.5121   2.5351   2.5385
     2.5403   2.5520   2.5603   2.5661   2.5874   2.7072   2.7238   2.7473
     2.7668   2.7777   2.7923   2.8328   2.8545   3.0182   3.0279   3.0910
     3.1085   3.2843   3.4402   3.4807   3.5022   3.5494   3.8439   3.9189
     4.1102   4.1161   4.1551   4.1695   4.1834   4.1926   4.2143   4.2607
     4.2959   4.3215   4.3268   4.3293   4.3383   4.3723   4.3872   4.4131
     4.4514   4.5240   4.5529   4.6217   4.7493   5.0446   5.0985   5.1722
     5.3206   5.3424   5.3836   5.6132   5.6304   5.7086   5.7707   5.9915
     6.0148   6.0673   6.0882   6.2374   6.2596   6.3073   6.6022   6.6333
     6.6960   6.7396   6.7487   6.7639   6.8152   6.8645   6.9015   7.0051
     7.0322   7.0757   7.1015   7.1377   7.1417   7.1972   7.2131   7.2439
     7.3506   7.3541   7.4165   7.4388   7.4999   7.6764   7.6986   7.7055
     7.8150   7.9048   7.9183   7.9558   7.9798   7.9858   8.0044   8.0356
     8.2100   8.2416   8.4263   8.4500   8.5218   8.5293   8.5326   8.5500
     8.5958   8.6061   8.6512   8.6715   8.6780   8.7255   8.8048   8.8312
     8.8655   8.9017   8.9150   8.9244   8.9287   9.0032   9.0243   9.0400
     9.0960   9.1507   9.1811   9.3102   9.3293   9.3351   9.3389   9.3435
     9.3597   9.4086   9.4250   9.4481   9.5283   9.5527   9.5818   9.6473
     9.7554   9.8581   9.8980  10.0541  10.0805  10.0858  10.0902  10.1496
    10.1981  10.2917  10.3498

          k = 0.0000-0.2165 0.0000 (256176 PWs)   bands (ev):

   -15.9330 -15.8927 -15.2044 -15.1325 -14.0162 -13.9708 -13.9690 -13.8710
   -13.7272 -13.6755 -13.2908 -13.2184 -13.2018 -13.1745 -11.9556 -11.8254
   -11.8009 -11.7862 -11.6180 -11.6037 -10.1916  -9.9310  -9.9081  -9.8959
    -9.3781  -8.6604  -8.6315  -8.5177  -8.4969  -8.4789  -8.3639  -7.6829
    -7.6550  -7.6492  -7.6042  -6.5251  -6.5151  -6.4713  -6.4158  -6.3825
    -6.3507  -6.3182  -6.2799  -5.5685  -5.5582  -5.5277  -5.5109  -4.7683
    -4.7315  -4.7211  -4.6573  -4.6419  -4.5185  -4.5115  -4.4036  -4.2424
    -4.1748  -4.1450  -4.1379  -4.1207  -4.0292  -3.8111  -3.4899  -3.4413
    -3.3835  -3.2106  -2.9843  -2.9723  -2.9515  -2.9411  -2.8669  -2.8488
    -2.8260  -2.7632  -2.7086  -2.6862  -2.6654  -2.6083  -2.5943  -2.5461
    -2.5113  -2.4584  -2.4001  -2.3857  -2.3273  -2.3162  -2.2632  -2.2617
    -2.2492  -2.2449  -2.2418  -2.2325  -2.2203  -2.1352  -2.0992  -2.0870
    -2.0779  -1.9430  -1.9263  -1.9219  -1.9162  -1.8893  -1.8679  -1.8266
    -1.8013  -1.7912  -1.7693  -1.7355  -1.6659  -1.6550  -1.6459  -1.6241
    -1.6217  -1.5686  -1.5556  -1.5164  -1.4980  -1.4454  -1.4332  -1.4241
    -1.4058  -1.4049  -1.3977  -1.3862  -1.3769  -1.3726  -1.3601  -1.3357
    -1.3105  -1.2963  -1.2814  -1.2528  -1.1629  -1.1474  -1.1442  -1.1430
    -1.1030  -1.0874  -1.0472  -1.0377  -1.0200  -1.0034  -0.9880  -0.9715
    -0.9561  -0.9431  -0.9398  -0.9361  -0.9317  -0.9306  -0.9241  -0.9104
    -0.9038  -0.8936  -0.8874  -0.8832  -0.8805  -0.8655  -0.8542  -0.8419
    -0.8358  -0.8142  -0.8061  -0.7908  -0.7648  -0.7518  -0.7496  -0.7413
    -0.7221  -0.7113  -0.7096  -0.7058  -0.6755  -0.6672  -0.6638  -0.6501
    -0.6452  -0.6404  -0.6363  -0.6263  -0.6231  -0.5941  -0.5923  -0.5896
    -0.5785  -0.5774  -0.5753  -0.5681  -0.5521  -0.5321  -0.5218  -0.5163
    -0.5020  -0.4895  -0.4835  -0.4793  -0.4765  -0.4700  -0.4640  -0.4590
    -0.4516  -0.4448  -0.4239  -0.4209  -0.4124  -0.4058  -0.3777  -0.3286
    -0.3233  -0.3094  -0.3080  -0.2967  -0.2951  -0.2760  -0.2718  -0.2712
    -0.2661  -0.2648  -0.2633  -0.2485  -0.2449  -0.2282  -0.2260  -0.2162
    -0.2079  -0.2028  -0.1945  -0.1925  -0.1835  -0.1703  -0.1681  -0.1618
    -0.1495  -0.1484  -0.1449  -0.1299  -0.1237  -0.1196  -0.1111  -0.1075
    -0.1005  -0.0899  -0.0874  -0.0741  -0.0558  -0.0541  -0.0387  -0.0322
    -0.0114  -0.0042   0.0076   0.0161   0.0178   0.0251   0.0356   0.0383
     0.0397   0.0420   0.0481   0.0529   0.0554   0.0597   0.0677   0.0722
     0.0742   0.0808   0.0841   0.0891   0.0924   0.0940   0.0948   0.1030
     0.1163   0.1196   0.1255   0.1296   0.1361   0.1395   0.1418   0.1563
     0.1685   0.1801   0.1856   0.1890   0.1928   0.1988   0.2034   0.2102
     0.2134   0.2183   0.2253   0.2309   0.2428   0.2479   0.2503   0.2542
     0.2568   0.2583   0.2618   0.2641   0.2710   0.2802   0.2852   0.3022
     0.3098   0.3154   0.3221   0.3233   0.3336   0.3366   0.3448   0.3469
     0.3515   0.3569   0.3570   0.3629   0.3696   0.3716   0.3779   0.3895
     0.3930   0.3999   0.4088   0.4122   0.4142   0.4189   0.4261   0.4317
     0.4334   0.4391   0.4416   0.4492   0.4602   0.4661   0.4698   0.4718
     0.4750   0.4834   0.4990   0.5031   0.5090   0.5203   0.5250   0.5374
     0.5413   0.5460   0.5565   0.5639   0.5689   0.5878   0.5988   0.6101
     0.6233   0.6252   0.6334   0.6614   0.6711   0.6776   0.6980   0.7127
     0.7205   0.7254   0.7327   0.7401   0.7460   0.7489   0.7538   0.7632
     0.7693   0.7715   0.7794   0.7885   0.7933   0.7953   0.7977   0.8014
     0.8047   0.8071   0.8136   0.8181   0.8227   0.8288   0.8325   0.8349
     0.8498   0.8512   0.8546   0.8563   0.8646   0.8673   0.8715   0.8730
     0.8769   0.8790   0.8809   0.8839   0.8912   0.8941   0.8981   0.9050
     0.9073   0.9108   0.9141   0.9157   0.9215   0.9263   0.9310   0.9339
     0.9372   0.9436   0.9460   0.9541   0.9643   0.9721   0.9796   0.9905
     0.9909   0.9930   0.9968   1.0005   1.0027   1.0079   1.0139   1.0201
     1.0216   1.0243   1.0260   1.0275   1.0472   1.0494   1.0518   1.0594
     1.0648   1.0665   1.0730   1.0781   1.0823   1.0894   1.0929   1.1005
     1.1069   1.1133   1.1153   1.1181   1.1287   1.1317   1.1512   1.1529
     1.1736   1.1830   1.1980   1.2094   1.2191   1.2217   1.2297   1.2312
     1.2370   1.2386   1.2415   1.2480   1.2492   1.2518   1.2548   1.2643
     1.2672   1.2703   1.2735   1.2780   1.2816   1.2903   1.2930   1.2959
     1.2993   1.3003   1.3020   1.3032   1.3067   1.3096   1.3133   1.3169
     1.3198   1.3226   1.3236   1.3254   1.3273   1.3300   1.3326   1.3342
     1.3376   1.3423   1.3552   1.3581   1.3598   1.3659   1.3683   1.3702
     1.3732   1.3765   1.3770   1.3824   1.3910   1.3961   1.4065   1.4210
     1.4270   1.4374   1.4430   1.4578   1.4628   1.4705   1.4758   1.4812
     1.4883   1.4903   1.4929   1.4999   1.5048   1.5120   1.5138   1.5149
     1.5198   1.5230   1.5248   1.5276   1.5291   1.5311   1.5371   1.5398
     1.5431   1.5490   1.5536   1.5560   1.5581   1.5604   1.5620   1.5674
     1.5682   1.5764   1.5780   1.5876   1.5925   1.5939   1.5965   1.6004
     1.6050   1.6094   1.6121   1.6185   1.6237   1.6248   1.6277   1.6345
     1.6351   1.6371   1.6467   1.6489   1.6497   1.6560   1.6604   1.6650
     1.6671   1.6700   1.6722   1.6847   1.6934   1.7002   1.7026   1.7049
     1.7098   1.7138   1.7156   1.7206   1.7229   1.7279   1.7317   1.7389
     1.7434   1.7443   1.7505   1.7592   1.7615   1.7668   1.7727   1.7763
     1.7773   1.7822   1.7864   1.7884   1.7911   1.7961   1.8029   1.8070
     1.8186   1.8205   1.8236   1.8266   1.8362   1.8463   1.8505   1.8533
     1.8558   1.8567   1.8588   1.8697   1.8762   1.8815   1.8950   1.9075
     1.9132   1.9185   1.9264   2.0019   2.0159   2.0338   2.0389   2.0583
     2.0770   2.0896   2.0953   2.1050   2.1063   2.1269   2.1362   2.1435
     2.1466   2.1751   2.1775   2.2011   2.2079   2.4005   2.4936   2.5151
     2.5625   2.7263   2.7294   2.7504   2.8086   2.8272   2.8378   2.8646
     2.8983   2.9161   2.9205   2.9292   3.0239   3.0410   3.0461   3.0830
     3.0909   3.1360   3.2524   3.2558   3.3542   3.4975   3.4981   3.5257
     3.5871   3.6208   3.6740   3.8704   4.0268   4.0543   4.3213   4.3441
     4.3547   4.4389   4.4540   4.4693   4.5231   4.6105   4.6451   4.6679
     4.7736   4.8257   4.8695   4.9350   5.0153   5.0716   5.2128   5.2991
     5.4030   5.4275   5.5441   5.6133   5.6706   5.6889   5.6997   5.7186
     5.8712   5.8788   6.0088   6.0727   6.1855   6.2265   6.2456   6.6020
     6.6268   6.6808   6.6948   6.7153   6.8124   6.8395   6.9248   6.9795
     6.9910   7.0827   7.1131   7.1372   7.2791   7.3595   7.3691   7.3760
     7.4100   7.4289   7.4384   7.4688   7.5050   7.5256   7.5431   7.5782
     7.6294   7.6654   7.6916   7.7540   7.7713   8.0530   8.0786   8.0903
     8.1245   8.1440   8.4344   8.4602   8.4874   8.5270   8.5435   8.6322
     8.6584   8.6652   8.6730   8.6916   8.7313   8.8407   8.8751   8.9517
     8.9792   8.9992   9.0081   9.0315   9.0448   9.0726   9.0895   9.1459
     9.1786   9.1832   9.1882   9.2626   9.3345   9.4030   9.4132   9.4701
     9.5268   9.5349   9.6346   9.6449   9.6578   9.7284   9.7391   9.7521
     9.7635   9.7803   9.8357   9.9557   9.9621   9.9822  10.0874  10.1157
    10.1955  10.2048  10.2153

          k = 0.2500 0.0000 0.0000 (256240 PWs)   bands (ev):

   -15.8830 -15.5546 -15.4651 -14.8933 -14.5843 -14.4827 -14.4111 -14.3705
   -13.4727 -13.4085 -12.9661 -12.7071 -12.5933 -12.5792 -12.5653 -11.7571
   -11.6676 -11.5900 -11.5518 -10.6906 -10.3789 -10.3124 -10.2406  -9.8702
    -9.5979  -9.4744  -9.2707  -9.0781  -8.8667  -8.6166  -8.5364  -8.0529
    -7.0975  -7.0841  -7.0539  -7.0436  -6.9728  -6.9245  -6.4746  -6.2016
    -5.6765  -5.5000  -5.4755  -5.4572  -5.4273  -5.4077  -4.9843  -4.9595
    -4.7471  -4.7123  -4.5190  -4.2887  -4.1800  -4.1515  -4.1176  -4.0286
    -3.9688  -3.9197  -3.8921  -3.8487  -3.7158  -3.6732  -3.6598  -3.6275
    -3.5899  -3.5116  -3.4622  -3.3972  -3.2766  -3.2164  -3.1606  -3.1373
    -3.0843  -3.0644  -3.0248  -2.9906  -2.9759  -2.8933  -2.8529  -2.8261
    -2.7558  -2.6831  -2.6418  -2.5858  -2.5387  -2.4886  -2.4659  -2.4517
    -2.3943  -2.3387  -2.2554  -2.2171  -2.0833  -2.0491  -2.0008  -1.9754
    -1.9569  -1.8832  -1.7666  -1.7601  -1.7525  -1.7353  -1.7061  -1.6559
    -1.6394  -1.5813  -1.5579  -1.5169  -1.5045  -1.4855  -1.4728  -1.4648
    -1.4607  -1.4556  -1.4509  -1.4350  -1.4164  -1.4077  -1.3802  -1.3674
    -1.3335  -1.3102  -1.3010  -1.2697  -1.2612  -1.2493  -1.2429  -1.2396
    -1.2353  -1.2314  -1.2204  -1.1963  -1.1824  -1.1735  -1.1651  -1.1587
    -1.1553  -1.1362  -1.0746  -1.0325  -1.0077  -0.9983  -0.9762  -0.9500
    -0.9375  -0.9184  -0.9084  -0.9034  -0.8980  -0.8937  -0.8859  -0.8684
    -0.8619  -0.8542  -0.8478  -0.8429  -0.8366  -0.8292  -0.8128  -0.7997
    -0.7951  -0.7907  -0.7813  -0.7794  -0.7710  -0.7669  -0.7424  -0.7388
    -0.7271  -0.7154  -0.7100  -0.7026  -0.6888  -0.6868  -0.6837  -0.6797
    -0.6748  -0.6634  -0.6565  -0.6518  -0.6465  -0.6439  -0.6403  -0.6389
    -0.6366  -0.6321  -0.6267  -0.6201  -0.6064  -0.5896  -0.5732  -0.5651
    -0.5626  -0.5469  -0.5231  -0.5167  -0.5113  -0.4970  -0.4905  -0.4796
    -0.4743  -0.4616  -0.4555  -0.4526  -0.4364  -0.4310  -0.4264  -0.4187
    -0.4130  -0.4071  -0.4039  -0.4003  -0.3872  -0.3706  -0.3418  -0.2783
    -0.2702  -0.2671  -0.2513  -0.2423  -0.2328  -0.2267  -0.2179  -0.2140
    -0.2113  -0.2062  -0.1930  -0.1895  -0.1886  -0.1792  -0.1668  -0.1613
    -0.1568  -0.1540  -0.1473  -0.1409  -0.1356  -0.1277  -0.1236  -0.1193
    -0.1103  -0.0744  -0.0710  -0.0646  -0.0629  -0.0572  -0.0539  -0.0522
    -0.0434  -0.0377  -0.0265  -0.0190  -0.0082  -0.0026   0.0046   0.0079
     0.0218   0.0289   0.0357   0.0385   0.0415   0.0443   0.0480   0.0569
     0.0675   0.0717   0.0780   0.0870   0.0904   0.0995   0.1036   0.1101
     0.1209   0.1262   0.1339   0.1411   0.1455   0.1491   0.1552   0.1593
     0.1686   0.1789   0.1829   0.1938   0.1979   0.2039   0.2140   0.2172
     0.2206   0.2300   0.2356   0.2494   0.2614   0.2663   0.2720   0.2779
     0.2967   0.2978   0.3042   0.3070   0.3110   0.3172   0.3230   0.3256
     0.3279   0.3312   0.3329   0.3360   0.3439   0.3506   0.3529   0.3558
     0.3613   0.3687   0.3704   0.3734   0.3783   0.3848   0.3887   0.3912
     0.3983   0.4067   0.4176   0.4276   0.4354   0.4445   0.4466   0.4518
     0.4595   0.4618   0.4736   0.4751   0.4817   0.4849   0.4937   0.5021
     0.5127   0.5190   0.5389   0.5525   0.5669   0.5829   0.5891   0.5987
     0.6013   0.6059   0.6101   0.6140   0.6199   0.6214   0.6253   0.6272
     0.6332   0.6345   0.6372   0.6415   0.6444   0.6473   0.6574   0.6628
     0.6656   0.6666   0.6740   0.6766   0.6810   0.6840   0.6896   0.7039
     0.7150   0.7264   0.7320   0.7368   0.7468   0.7485   0.7616   0.7700
     0.7738   0.7770   0.7855   0.7867   0.7929   0.8011   0.8072   0.8105
     0.8135   0.8212   0.8251   0.8316   0.8364   0.8423   0.8438   0.8524
     0.8527   0.8609   0.8685   0.8767   0.8802   0.8835   0.8902   0.8936
     0.8978   0.9022   0.9051   0.9134   0.9186   0.9212   0.9248   0.9307
     0.9393   0.9432   0.9469   0.9490   0.9539   0.9579   0.9661   0.9712
     0.9787   0.9836   0.9872   0.9910   0.9942   0.9995   1.0048   1.0094
     1.0184   1.0255   1.0304   1.0423   1.0471   1.0550   1.0626   1.0755
     1.0794   1.0832   1.0867   1.0924   1.0992   1.1050   1.1071   1.1099
     1.1153   1.1195   1.1221   1.1259   1.1395   1.1469   1.1509   1.1608
     1.1656   1.1712   1.1757   1.1867   1.1905   1.1951   1.1999   1.2055
     1.2100   1.2168   1.2208   1.2277   1.2300   1.2338   1.2372   1.2425
     1.2462   1.2549   1.2601   1.2641   1.2705   1.2724   1.2769   1.2886
     1.2938   1.2973   1.3027   1.3127   1.3148   1.3187   1.3217   1.3288
     1.3330   1.3372   1.3408   1.3482   1.3497   1.3512   1.3550   1.3569
     1.3604   1.3633   1.3685   1.3713   1.3759   1.3768   1.3829   1.3860
     1.3881   1.3946   1.3987   1.3998   1.4021   1.4057   1.4073   1.4137
     1.4189   1.4262   1.4297   1.4331   1.4371   1.4454   1.4475   1.4521
     1.4561   1.4645   1.4653   1.4669   1.4689   1.4777   1.4823   1.4867
     1.4944   1.4957   1.5065   1.5081   1.5140   1.5198   1.5222   1.5266
     1.5332   1.5387   1.5573   1.5596   1.5664   1.5747   1.5763   1.5802
     1.5838   1.5898   1.5909   1.5958   1.5965   1.6035   1.6076   1.6097
     1.6124   1.6165   1.6178   1.6226   1.6288   1.6316   1.6371   1.6378
     1.6394   1.6411   1.6437   1.6489   1.6502   1.6547   1.6586   1.6607
     1.6655   1.6710   1.6753   1.6800   1.6878   1.6897   1.6928   1.6961
     1.7006   1.7072   1.7104   1.7155   1.7184   1.7239   1.7309   1.7340
     1.7367   1.7448   1.7516   1.7529   1.7574   1.7591   1.7609   1.7663
     1.7680   1.7715   1.7756   1.7783   1.7801   1.7834   1.7877   1.7931
     1.7943   1.7958   1.8005   1.8031   1.8108   1.8174   1.8197   1.8242
     1.8278   1.8337   1.8400   1.8420   1.8462   1.8525   1.8573   1.8590
     1.8782   1.8873   1.8932   1.9106   1.9152   1.9511   1.9565   1.9607
     1.9678   1.9828   1.9952   2.0537   2.0723   2.0956   2.1039   2.1115
     2.1236   2.1546   2.1739   2.3147   2.3353   2.3609   2.3824   2.4102
     2.4315   2.4719   2.5127   2.5543   2.5959   2.8050   2.8767   2.8837
     2.9189   3.0539   3.3057   3.3103   3.3619   3.5093   3.5179   3.5506
     3.5533   3.5614   3.5987   3.6975   3.7416   3.8061   3.8736   3.9282
     3.9705   3.9842   4.0107   4.0331   4.0469   4.1095   4.1322   4.1845
     4.2533   4.2926   4.3744   4.4297   4.4891   4.6105   4.6361   4.7191
     4.8289   4.8726   5.0307   5.0594   5.1538   5.1883   5.3540   5.4621
     5.5362   5.5483   5.5976   5.6552   5.6980   5.7496   5.7939   5.8211
     5.8448   5.8634   5.8867   5.9473   5.9884   6.0388   6.0889   6.1009
     6.1545   6.2207   6.3048   6.3389   6.3702   6.3929   6.5028   6.6805
     6.9391   7.0311   7.0571   7.0765   7.0809   7.1193   7.1584   7.1807
     7.2601   7.2918   7.3141   7.3654   7.3800   7.4098   7.4870   7.5500
     7.5825   7.6166   7.7094   7.7484   7.7975   7.8340   7.8678   7.9231
     8.0249   8.0395   8.0835   8.0939   8.1722   8.1902   8.2898   8.3032
     8.3698   8.3829   8.4604   8.4742   8.5690   8.5972   8.6340   8.6596
     8.6992   8.7017   8.7205   8.7773   8.9177   8.9492   8.9645   9.0201
     9.1768   9.2308   9.2811   9.3746   9.4120   9.4412   9.4485   9.4637
     9.4790   9.4931   9.4984   9.5078   9.5253   9.5575   9.5690   9.5758
     9.6198   9.6462   9.6824   9.7339   9.8092   9.8133   9.9660  10.0181
    10.0865  10.0952  10.1338

          k = 0.2500-0.2165 0.0000 (256316 PWs)   bands (ev):

   -15.8089 -15.7711 -15.0904 -15.0102 -14.8223 -14.7658 -14.1037 -14.0340
   -13.6211 -13.5564 -12.8962 -12.8666 -12.6689 -12.6075 -12.2078 -12.1381
   -11.5402 -11.4961 -10.9465 -10.8564 -10.6639 -10.6171 -10.2754 -10.2294
    -9.5532  -9.1495  -9.0395  -8.6597  -8.5947  -8.5397  -8.4851  -8.0101
    -7.9848  -7.9010  -7.8653  -6.2312  -6.2111  -6.1722  -6.1307  -6.0577
    -5.9797  -5.8443  -5.7803  -5.5229  -5.4849  -5.3783  -5.3420  -4.7472
    -4.6935  -4.4936  -4.4149  -4.3859  -4.3538  -4.3357  -4.2723  -4.0569
    -4.0253  -3.9945  -3.9589  -3.9167  -3.7725  -3.7085  -3.6884  -3.6077
    -3.5135  -3.4027  -3.3623  -3.2790  -3.2417  -3.2011  -3.1338  -3.1228
    -3.1054  -3.0827  -3.0200  -2.9385  -2.8743  -2.8131  -2.7496  -2.6925
    -2.6271  -2.6160  -2.6068  -2.5797  -2.5584  -2.5470  -2.4958  -2.4248
    -2.3932  -2.3245  -2.2662  -2.1708  -2.1024  -2.0339  -1.9866  -1.9751
    -1.9253  -1.8732  -1.8611  -1.8328  -1.8302  -1.8083  -1.7348  -1.6793
    -1.6697  -1.6565  -1.6301  -1.5855  -1.5066  -1.4983  -1.4837  -1.4762
    -1.4730  -1.4426  -1.4113  -1.4024  -1.3855  -1.3766  -1.3688  -1.3671
    -1.3606  -1.3541  -1.3472  -1.3430  -1.3381  -1.3310  -1.3158  -1.3083
    -1.2835  -1.2690  -1.2461  -1.2391  -1.1940  -1.1368  -1.1267  -1.0642
    -1.0333  -0.9995  -0.9870  -0.9811  -0.9607  -0.9522  -0.9438  -0.9400
    -0.9343  -0.9288  -0.9245  -0.9125  -0.9047  -0.8984  -0.8939  -0.8907
    -0.8885  -0.8785  -0.8708  -0.8694  -0.8623  -0.8544  -0.8400  -0.8389
    -0.8266  -0.8016  -0.7928  -0.7872  -0.7851  -0.7792  -0.7736  -0.7696
    -0.7636  -0.7571  -0.7271  -0.7089  -0.7049  -0.6968  -0.6893  -0.6845
    -0.6802  -0.6669  -0.6608  -0.6557  -0.6468  -0.6390  -0.6285  -0.6249
    -0.6212  -0.6191  -0.6151  -0.5959  -0.5868  -0.5841  -0.5780  -0.5554
    -0.5387  -0.5327  -0.5238  -0.5193  -0.5085  -0.4890  -0.4550  -0.4493
    -0.4416  -0.4371  -0.4307  -0.4249  -0.4055  -0.3943  -0.3754  -0.3743
    -0.3706  -0.3644  -0.3605  -0.3529  -0.3475  -0.3274  -0.3218  -0.3115
    -0.2926  -0.2818  -0.2767  -0.2679  -0.2563  -0.2374  -0.2285  -0.2250
    -0.2217  -0.2087  -0.2028  -0.1941  -0.1873  -0.1793  -0.1713  -0.1684
    -0.1615  -0.1492  -0.1434  -0.1289  -0.1232  -0.1139  -0.1063  -0.0985
    -0.0870  -0.0817  -0.0727  -0.0685  -0.0617  -0.0574  -0.0515  -0.0404
    -0.0367  -0.0308  -0.0280  -0.0252  -0.0239  -0.0212  -0.0152  -0.0073
    -0.0014   0.0056   0.0094   0.0144   0.0269   0.0386   0.0466   0.0503
     0.0545   0.0683   0.0770   0.0827   0.0895   0.0955   0.0973   0.0999
     0.1083   0.1128   0.1166   0.1258   0.1387   0.1528   0.1638   0.1714
     0.1761   0.1945   0.2119   0.2194   0.2251   0.2291   0.2327   0.2376
     0.2479   0.2499   0.2537   0.2651   0.2683   0.2709   0.2743   0.2790
     0.2870   0.2928   0.2957   0.3005   0.3037   0.3112   0.3162   0.3196
     0.3243   0.3278   0.3318   0.3377   0.3415   0.3440   0.3451   0.3467
     0.3531   0.3568   0.3589   0.3626   0.3679   0.3791   0.3906   0.3962
     0.4041   0.4087   0.4125   0.4274   0.4318   0.4473   0.4541   0.4624
     0.4668   0.4722   0.4784   0.4844   0.4865   0.4886   0.4932   0.4977
     0.5042   0.5078   0.5131   0.5195   0.5242   0.5417   0.5462   0.5715
     0.5870   0.5964   0.6055   0.6091   0.6164   0.6210   0.6256   0.6271
     0.6349   0.6376   0.6408   0.6444   0.6508   0.6584   0.6611   0.6661
     0.6712   0.6731   0.6769   0.6819   0.6889   0.6935   0.7015   0.7103
     0.7196   0.7292   0.7327   0.7359   0.7441   0.7505   0.7561   0.7604
     0.7798   0.7870   0.7907   0.7953   0.8016   0.8058   0.8143   0.8167
     0.8192   0.8231   0.8252   0.8300   0.8324   0.8418   0.8452   0.8594
     0.8610   0.8721   0.8795   0.8904   0.8983   0.9043   0.9083   0.9133
     0.9183   0.9256   0.9339   0.9384   0.9420   0.9466   0.9507   0.9562
     0.9631   0.9643   0.9691   0.9716   0.9753   0.9806   0.9856   0.9948
     0.9975   0.9988   1.0010   1.0032   1.0051   1.0095   1.0120   1.0141
     1.0192   1.0232   1.0287   1.0320   1.0368   1.0403   1.0442   1.0460
     1.0534   1.0552   1.0578   1.0607   1.0708   1.0821   1.0850   1.0945
     1.0998   1.1022   1.1065   1.1224   1.1313   1.1361   1.1469   1.1499
     1.1577   1.1640   1.1682   1.1713   1.1744   1.1853   1.1866   1.1891
     1.1912   1.1935   1.1972   1.2012   1.2052   1.2078   1.2218   1.2280
     1.2310   1.2368   1.2418   1.2489   1.2532   1.2596   1.2642   1.2733
     1.2766   1.2811   1.2856   1.2956   1.2987   1.3050   1.3059   1.3084
     1.3177   1.3203   1.3230   1.3303   1.3365   1.3471   1.3538   1.3636
     1.3656   1.3716   1.3821   1.3894   1.3968   1.4070   1.4114   1.4128
     1.4161   1.4212   1.4226   1.4237   1.4267   1.4293   1.4303   1.4324
     1.4350   1.4391   1.4436   1.4462   1.4525   1.4610   1.4687   1.4736
     1.4825   1.4861   1.4947   1.4958   1.4997   1.5027   1.5065   1.5117
     1.5133   1.5163   1.5192   1.5232   1.5262   1.5297   1.5307   1.5336
     1.5352   1.5400   1.5411   1.5438   1.5472   1.5506   1.5555   1.5603
     1.5631   1.5687   1.5745   1.5788   1.5804   1.5893   1.5971   1.6020
     1.6051   1.6080   1.6142   1.6151   1.6183   1.6271   1.6355   1.6394
     1.6434   1.6460   1.6522   1.6555   1.6598   1.6648   1.6696   1.6717
     1.6764   1.6801   1.6812   1.6838   1.6906   1.6939   1.6979   1.7010
     1.7047   1.7102   1.7136   1.7158   1.7197   1.7204   1.7244   1.7281
     1.7307   1.7340   1.7391   1.7425   1.7456   1.7493   1.7559   1.7580
     1.7640   1.7667   1.7706   1.7735   1.7743   1.7764   1.7791   1.7817
     1.7840   1.7881   1.7921   1.8003   1.8129   1.8148   1.8200   1.8266
     1.8330   1.8362   1.8384   1.8466   1.8500   1.8600   1.8681   1.8818
     1.8853   1.8870   1.8949   1.9116   1.9199   1.9332   1.9681   1.9785
     2.0009   2.0081   2.0468   2.0743   2.0811   2.0921   2.0950   2.1046
     2.1084   2.1148   2.1397   2.1474   2.1764   2.2599   2.4548   2.4576
     2.4858   2.5019   2.5731   2.6081   2.7848   2.9117   2.9173   3.0879
     3.1067   3.1088   3.1184   3.1269   3.1308   3.1879   3.2440   3.3208
     3.3305   3.3773   3.5270   3.6733   3.8330   3.8650   3.9041   3.9291
     3.9727   4.0990   4.1467   4.1608   4.1967   4.2997   4.3367   4.3795
     4.4003   4.4747   4.4990   4.5376   4.6989   4.7048   4.7310   4.8503
     4.8693   4.9427   4.9772   5.0001   5.0688   5.1209   5.1725   5.2073
     5.2502   5.2962   5.3464   5.4565   5.5243   5.6308   5.6523   5.6825
     5.7201   5.7664   5.7938   5.8642   5.9869   6.0687   6.0964   6.1366
     6.2029   6.2218   6.3305   6.3774   6.4398   6.8187   6.8600   6.8973
     6.9264   6.9565   7.0399   7.0743   7.1416   7.1833   7.2578   7.2730
     7.3145   7.3752   7.3997   7.4603   7.5031   7.5496   7.5651   7.5901
     7.6154   7.6696   7.6934   7.7121   7.7235   7.7440   7.7503   7.7653
     7.9061   7.9377   8.0167   8.0955   8.1777   8.2166   8.2988   8.3130
     8.4254   8.4566   8.4980   8.5173   8.5552   8.6948   8.7090   8.7289
     8.7860   8.8582   8.8868   8.9276   8.9938   9.0091   9.0289   9.0496
     9.0714   9.1150   9.1442   9.1532   9.1914   9.2292   9.2974   9.3548
     9.3586   9.3792   9.3903   9.4176   9.4673   9.5056   9.5301   9.5700
     9.5904   9.6225   9.6412   9.6633   9.6912   9.7064   9.7356   9.7762
    10.0379  10.0874  10.1140

          k =-0.5000 0.0000 0.0000 (256496 PWs)   bands (ev):

   -15.5463 -15.4843 -15.2439 -15.1047 -15.1003 -15.0870 -14.1251 -14.0184
   -14.0120 -13.9955 -12.3901 -12.2442 -12.2412 -12.2210 -11.7318 -11.6690
   -11.4821 -11.3422 -11.3147 -11.3077 -10.7627 -10.6940 -10.4128 -10.2740
    -9.8128  -9.6687  -9.3405  -9.2739  -9.1611  -8.4598  -8.4366  -8.4258
    -8.3229  -6.9781  -6.9455  -6.9221  -6.8992  -6.8758  -6.8453  -5.4517
    -5.4224  -4.9801  -4.9628  -4.7602  -4.7034  -4.5205  -4.4816  -4.4734
    -4.4707  -4.4256  -4.3573  -4.2776  -4.2746  -4.2581  -4.2282  -4.2240
    -4.2071  -4.0799  -4.0270  -4.0097  -3.9435  -3.9365  -3.9008  -3.7409
    -3.6977  -3.6512  -3.6107  -3.5782  -3.3935  -3.3533  -3.3250  -3.2146
    -3.1744  -3.1302  -3.0976  -3.0808  -3.0387  -3.0126  -2.9439  -2.9240
    -2.9035  -2.8855  -2.8490  -2.7662  -2.6549  -2.4571  -2.3777  -2.3298
    -2.3209  -2.3144  -2.2931  -2.2813  -2.2309  -2.2151  -2.1902  -2.0421
    -2.0185  -2.0020  -1.9920  -1.9861  -1.8382  -1.8217  -1.5889  -1.5478
    -1.5429  -1.5407  -1.5385  -1.5301  -1.4657  -1.4510  -1.4320  -1.4247
    -1.4198  -1.3166  -1.3137  -1.3069  -1.2894  -1.2718  -1.2694  -1.2614
    -1.2484  -1.2071  -1.2000  -1.1849  -1.1597  -1.1558  -1.1393  -1.1003
    -1.0967  -1.0862  -1.0770  -1.0724  -1.0688  -1.0599  -1.0375  -1.0276
    -1.0237  -1.0232  -1.0195  -1.0169  -1.0154  -1.0016  -0.9981  -0.9971
    -0.9910  -0.9705  -0.9614  -0.9591  -0.9570  -0.9528  -0.9375  -0.9306
    -0.9268  -0.9159  -0.8892  -0.8763  -0.8721  -0.8638  -0.8542  -0.8444
    -0.8384  -0.8312  -0.8253  -0.8152  -0.8120  -0.8083  -0.8040  -0.7810
    -0.7795  -0.7759  -0.7675  -0.7543  -0.7488  -0.7451  -0.7377  -0.7187
    -0.7102  -0.6824  -0.6646  -0.6506  -0.6484  -0.6424  -0.6410  -0.6313
    -0.6265  -0.6224  -0.6150  -0.6044  -0.6016  -0.5932  -0.5891  -0.5866
    -0.5843  -0.5821  -0.5768  -0.5708  -0.5592  -0.5403  -0.5309  -0.5143
    -0.5119  -0.5010  -0.4877  -0.4569  -0.4413  -0.4100  -0.3826  -0.3798
    -0.3722  -0.3656  -0.3518  -0.3365  -0.3334  -0.3281  -0.3217  -0.3189
    -0.3063  -0.3004  -0.2921  -0.2895  -0.2870  -0.2820  -0.2770  -0.2767
    -0.2705  -0.2556  -0.2511  -0.2395  -0.2308  -0.2172  -0.1870  -0.1451
    -0.1387  -0.1341  -0.1279  -0.1231  -0.1179  -0.1113  -0.1071  -0.0902
    -0.0762  -0.0736  -0.0722  -0.0668  -0.0563  -0.0450  -0.0388  -0.0348
    -0.0304  -0.0263  -0.0142  -0.0133  -0.0070  -0.0028   0.0045   0.0123
     0.0223   0.0261   0.0371   0.0417   0.0503   0.0517   0.0600   0.0771
     0.0859   0.0873   0.0894   0.0960   0.1050   0.1108   0.1129   0.1240
     0.1327   0.1502   0.1599   0.1788   0.1809   0.1947   0.1957   0.2035
     0.2054   0.2076   0.2124   0.2182   0.2393   0.2401   0.2507   0.2581
     0.2694   0.2892   0.2954   0.3015   0.3055   0.3079   0.3121   0.3149
     0.3159   0.3182   0.3225   0.3227   0.3302   0.3329   0.3515   0.3663
     0.3717   0.3765   0.3817   0.3933   0.3967   0.3989   0.4043   0.4063
     0.4109   0.4132   0.4149   0.4160   0.4214   0.4247   0.4252   0.4295
     0.4328   0.4422   0.4471   0.4478   0.4484   0.4518   0.4590   0.4603
     0.4643   0.4648   0.4662   0.4701   0.4736   0.4751   0.4811   0.4880
     0.4891   0.4905   0.4966   0.4996   0.5021   0.5160   0.5221   0.5371
     0.5611   0.6036   0.6221   0.6290   0.6304   0.6382   0.6468   0.6488
     0.6543   0.6573   0.6622   0.6655   0.6730   0.6761   0.6793   0.6820
     0.6865   0.6869   0.6885   0.6905   0.6969   0.6996   0.7024   0.7078
     0.7080   0.7115   0.7125   0.7177   0.7203   0.7233   0.7265   0.7346
     0.7378   0.7415   0.7425   0.7527   0.7715   0.7887   0.8041   0.8174
     0.8250   0.8297   0.8314   0.8346   0.8424   0.8480   0.8487   0.8564
     0.8636   0.8637   0.8668   0.8685   0.8714   0.8741   0.8759   0.8802
     0.8827   0.8842   0.8865   0.8882   0.8914   0.8955   0.9035   0.9104
     0.9148   0.9218   0.9243   0.9362   0.9451   0.9480   0.9515   0.9583
     0.9622   0.9648   0.9705   0.9715   0.9724   0.9757   0.9816   0.9878
     0.9892   0.9926   0.9927   0.9978   0.9983   1.0047   1.0117   1.0152
     1.0210   1.0399   1.0455   1.0491   1.0507   1.0545   1.0585   1.0645
     1.0705   1.0828   1.0938   1.1013   1.1041   1.1085   1.1155   1.1352
     1.1385   1.1503   1.1602   1.1680   1.1708   1.1725   1.1738   1.1752
     1.1793   1.1817   1.1818   1.1865   1.1971   1.1993   1.2023   1.2059
     1.2107   1.2207   1.2221   1.2226   1.2264   1.2283   1.2374   1.2406
     1.2466   1.2506   1.2519   1.2612   1.2630   1.2686   1.2786   1.2885
     1.3035   1.3191   1.3320   1.3462   1.3472   1.3505   1.3551   1.3607
     1.3720   1.3800   1.3816   1.3861   1.3939   1.3949   1.3990   1.4007
     1.4115   1.4155   1.4186   1.4240   1.4282   1.4366   1.4422   1.4440
     1.4459   1.4540   1.4554   1.4573   1.4624   1.4629   1.4649   1.4686
     1.4716   1.4739   1.4778   1.4808   1.4850   1.4868   1.4915   1.5025
     1.5116   1.5137   1.5173   1.5236   1.5272   1.5325   1.5405   1.5411
     1.5473   1.5499   1.5548   1.5629   1.5680   1.5713   1.5745   1.5753
     1.5770   1.5776   1.5785   1.5818   1.5860   1.5879   1.5973   1.6010
     1.6094   1.6198   1.6227   1.6280   1.6369   1.6394   1.6431   1.6457
     1.6468   1.6486   1.6511   1.6521   1.6543   1.6563   1.6569   1.6593
     1.6617   1.6630   1.6657   1.6673   1.6706   1.6732   1.6751   1.6765
     1.6786   1.6814   1.6868   1.6876   1.6948   1.7005   1.7055   1.7066
     1.7094   1.7162   1.7199   1.7269   1.7302   1.7399   1.7464   1.7484
     1.7529   1.7559   1.7605   1.7649   1.7652   1.7703   1.7734   1.7750
     1.7775   1.7831   1.7872   1.7892   1.7962   1.8001   1.8036   1.8064
     1.8111   1.8126   1.8158   1.8191   1.8231   1.8269   1.8353   1.8424
     1.8473   1.8494   1.8505   1.8524   1.8537   1.8696   1.8791   1.8870
     1.9026   1.9179   1.9346   1.9391   1.9394   1.9417   1.9598   1.9738
     2.2558   2.3366   2.3692   2.3829   2.4766   2.5508   2.5669   2.5813
     2.6154   2.6215   2.6306   2.6394   2.7382   2.8973   2.9242   2.9711
     3.1247   3.1506   3.1782   3.1898   3.2799   3.4946   3.5032   3.5172
     3.5328   3.6691   3.8038   3.8694   4.0265   4.0593   4.0991   4.1722
     4.2158   4.2196   4.2389   4.3074   4.3728   4.3946   4.4076   4.4199
     4.4902   4.6977   4.8164   4.8933   4.9453   4.9847   5.0385   5.0610
     5.0830   5.1390   5.1585   5.1993   5.2205   5.2400   5.3213   5.3313
     5.3448   5.3586   5.3754   5.3809   5.3957   5.4159   5.5101   5.5325
     5.5566   5.6400   5.6815   5.8058   5.8240   5.8676   5.8793   5.9751
     5.9944   6.0297   6.2289   6.2531   6.2760   6.2969   6.3163   6.3530
     6.3697   6.4002   6.5214   6.6032   6.6225   6.6944   6.7332   6.8319
     6.8652   6.8865   6.9309   7.3456   7.3695   7.3965   7.4485   7.4632
     7.5554   7.7709   7.8697   7.8975   7.9090   7.9139   7.9192   7.9316
     8.0650   8.0838   8.0929   8.1227   8.1500   8.1574   8.1704   8.1954
     8.2477   8.2887   8.3313   8.3399   8.3517   8.3827   8.4036   8.4433
     8.5047   8.5850   8.5855   8.5907   8.6917   8.7009   8.7842   9.1062
     9.1247   9.1411   9.1560   9.1867   9.2206   9.2224   9.2240   9.2464
     9.3234   9.3490   9.4335   9.4977   9.5102   9.5348   9.5636   9.6124
     9.7190   9.7436   9.7492   9.7975   9.8057   9.8300   9.8481   9.8647
     9.9789   9.9833   9.9856

          k =-0.5000-0.2165 0.0000 (256328 PWs)   bands (ev):

   -15.4720 -15.4389 -15.4337 -15.3279 -14.7611 -14.6543 -14.6477 -14.6288
   -13.3296 -13.2087 -13.2049 -13.1874 -11.7324 -11.6235 -11.6233 -11.5321
   -11.2951 -11.1696 -11.1601 -11.1208 -11.0250 -10.9755 -10.9587 -10.9297
    -9.6815  -9.2973  -9.2652  -9.2030  -8.9470  -8.3191  -8.2844  -8.2714
    -8.2673  -7.5729  -7.5569  -7.5066  -7.4598  -5.5324  -5.4842  -5.4662
    -5.4529  -4.8933  -4.8828  -4.8703  -4.8525  -4.8502  -4.8332  -4.8125
    -4.7997  -4.6611  -4.6325  -4.6310  -4.5382  -4.1406  -4.0213  -3.9962
    -3.9216  -3.8829  -3.8750  -3.8545  -3.8477  -3.7818  -3.7437  -3.7233
    -3.6842  -3.6342  -3.5473  -3.5370  -3.5252  -3.4561  -3.2911  -3.2439
    -3.2388  -3.2202  -3.2089  -3.1788  -3.1591  -3.0565  -3.0341  -3.0098
    -2.8771  -2.8448  -2.8070  -2.6725  -2.6647  -2.5242  -2.2793  -2.2428
    -2.2416  -2.2355  -2.2220  -2.2193  -2.1983  -2.1245  -2.0219  -1.9375
    -1.8785  -1.8712  -1.8269  -1.7673  -1.7507  -1.7322  -1.7215  -1.7023
    -1.7005  -1.6876  -1.6643  -1.6040  -1.5832  -1.5232  -1.4854  -1.4697
    -1.4692  -1.4597  -1.4356  -1.3232  -1.3078  -1.2669  -1.2440  -1.2007
    -1.1788  -1.1611  -1.1541  -1.1494  -1.1446  -1.1391  -1.1337  -1.1113
    -1.1077  -1.1063  -1.0916  -1.0883  -1.0865  -1.0685  -1.0563  -1.0494
    -1.0465  -1.0457  -1.0453  -1.0389  -1.0363  -1.0285  -1.0260  -1.0222
    -1.0194  -1.0173  -0.9803  -0.9785  -0.9626  -0.9525  -0.9211  -0.9168
    -0.9094  -0.8754  -0.8648  -0.8632  -0.8561  -0.8520  -0.8413  -0.8391
    -0.8247  -0.8090  -0.8010  -0.7964  -0.7888  -0.7869  -0.7825  -0.7792
    -0.7784  -0.7721  -0.7612  -0.7596  -0.7500  -0.7300  -0.7240  -0.7193
    -0.7152  -0.7117  -0.7083  -0.7067  -0.7041  -0.7021  -0.6991  -0.6914
    -0.6911  -0.6607  -0.6543  -0.6140  -0.5975  -0.5580  -0.5536  -0.5488
    -0.5377  -0.5240  -0.5222  -0.5177  -0.5135  -0.5063  -0.4906  -0.4618
    -0.4491  -0.4373  -0.4348  -0.4314  -0.4282  -0.4227  -0.4198  -0.4181
    -0.4141  -0.4068  -0.3900  -0.3785  -0.3678  -0.3634  -0.3575  -0.3542
    -0.3499  -0.3388  -0.3361  -0.3347  -0.3325  -0.3166  -0.3076  -0.2624
    -0.2504  -0.2409  -0.2366  -0.2225  -0.2212  -0.2148  -0.1946  -0.1719
    -0.1654  -0.1615  -0.1496  -0.1397  -0.1206  -0.1134  -0.1113  -0.1019
    -0.0958  -0.0924  -0.0892  -0.0843  -0.0787  -0.0719  -0.0670  -0.0640
    -0.0579  -0.0472  -0.0393  -0.0359  -0.0182  -0.0073   0.0217   0.0415
     0.0568   0.0649   0.0663   0.0736   0.0777   0.0795   0.0815   0.0857
     0.0942   0.0993   0.1013   0.1319   0.1461   0.1532   0.1652   0.1676
     0.1749   0.1779   0.1794   0.1807   0.1857   0.1937   0.1989   0.2071
     0.2109   0.2167   0.2207   0.2239   0.2278   0.2308   0.2347   0.2392
     0.2456   0.2474   0.2549   0.2601   0.2714   0.2855   0.3005   0.3069
     0.3161   0.3210   0.3438   0.3517   0.3535   0.3623   0.3768   0.3823
     0.3869   0.3925   0.3950   0.4014   0.4039   0.4088   0.4106   0.4137
     0.4153   0.4176   0.4255   0.4271   0.4318   0.4358   0.4381   0.4429
     0.4445   0.4450   0.4463   0.4513   0.4539   0.4558   0.4595   0.4607
     0.4629   0.4675   0.4849   0.4851   0.4894   0.4917   0.4967   0.5023
     0.5045   0.5118   0.5163   0.5309   0.5366   0.5447   0.5535   0.5555
     0.5586   0.5746   0.5780   0.5854   0.6047   0.6349   0.6402   0.6421
     0.6556   0.6578   0.6689   0.6726   0.6802   0.6840   0.6880   0.6911
     0.6930   0.6977   0.7016   0.7029   0.7069   0.7077   0.7096   0.7143
     0.7193   0.7211   0.7317   0.7333   0.7358   0.7380   0.7422   0.7545
     0.7594   0.7634   0.7787   0.7807   0.7920   0.7946   0.7984   0.8022
     0.8050   0.8059   0.8092   0.8134   0.8239   0.8310   0.8352   0.8387
     0.8430   0.8505   0.8550   0.8591   0.8658   0.8680   0.8726   0.8747
     0.8804   0.8852   0.8945   0.9024   0.9033   0.9058   0.9091   0.9143
     0.9163   0.9182   0.9201   0.9221   0.9250   0.9297   0.9334   0.9368
     0.9399   0.9435   0.9512   0.9563   0.9607   0.9696   0.9843   0.9983
     1.0014   1.0086   1.0112   1.0159   1.0182   1.0244   1.0299   1.0320
     1.0341   1.0392   1.0472   1.0516   1.0524   1.0561   1.0577   1.0658
     1.0668   1.0695   1.0714   1.0789   1.0841   1.0923   1.1034   1.1114
     1.1190   1.1232   1.1337   1.1451   1.1495   1.1534   1.1560   1.1663
     1.1687   1.1751   1.1784   1.1869   1.1885   1.1972   1.2005   1.2040
     1.2145   1.2244   1.2423   1.2459   1.2577   1.2669   1.2750   1.2797
     1.2940   1.2981   1.2994   1.3192   1.3211   1.3355   1.3412   1.3481
     1.3514   1.3526   1.3560   1.3601   1.3645   1.3656   1.3710   1.3731
     1.3751   1.3772   1.3795   1.3811   1.3826   1.3845   1.3870   1.3906
     1.3951   1.3987   1.4005   1.4046   1.4078   1.4132   1.4140   1.4195
     1.4224   1.4279   1.4305   1.4339   1.4380   1.4450   1.4519   1.4528
     1.4568   1.4599   1.4627   1.4648   1.4652   1.4727   1.4737   1.4749
     1.4802   1.4838   1.4937   1.5105   1.5200   1.5236   1.5255   1.5304
     1.5352   1.5355   1.5427   1.5446   1.5480   1.5538   1.5590   1.5686
     1.5700   1.5747   1.5825   1.5872   1.5910   1.5937   1.5978   1.6027
     1.6060   1.6131   1.6136   1.6145   1.6180   1.6191   1.6213   1.6278
     1.6309   1.6364   1.6493   1.6530   1.6687   1.6727   1.6756   1.6812
     1.6864   1.6873   1.6885   1.6919   1.6933   1.6968   1.6987   1.7013
     1.7014   1.7057   1.7059   1.7105   1.7118   1.7137   1.7166   1.7191
     1.7220   1.7245   1.7265   1.7284   1.7323   1.7334   1.7382   1.7400
[...]
     atom   70 type  1   force =    -0.00018752   -0.00011501   -0.00203004
     atom   71 type  1   force =     0.00131382   -0.00137439    0.00159864
     atom   72 type  1   force =    -0.00015922   -0.00041305    0.00060771
     atom   73 type  1   force =     0.00068610   -0.00105875    0.00033842
     atom   74 type  1   force =     0.00079888   -0.00002334   -0.00000953
     atom   75 type  1   force =     0.00094906   -0.00000626   -0.00037637
     atom   76 type  1   force =    -0.00039915   -0.00039970    0.00047068
     atom   77 type  1   force =     0.00040928   -0.00005286   -0.00023358
     atom   78 type  1   force =     0.00050496    0.00100502   -0.00028257
     atom   79 type  1   force =     0.00062661   -0.00033351   -0.00048552
     atom   80 type  1   force =    -0.00030624    0.00018860    0.00024949
     atom   81 type  1   force =     0.00036831   -0.00015231    0.00086407
     atom   82 type  1   force =     0.00009010    0.00030664    0.00007152
     atom   83 type  1   force =    -0.00028841   -0.00051511    0.00011117
     atom   84 type  1   force =    -0.00004867    0.00109295    0.00034362
     atom   85 type  1   force =     0.00115619    0.00279399   -0.00125129
     atom   86 type  1   force =    -0.00147168   -0.00301692    0.00083056
     atom   87 type  1   force =    -0.00019369   -0.00033023   -0.00032704
     atom   88 type  1   force =     0.00198916   -0.00098243    0.00005649
     atom   89 type  1   force =     0.00045554    0.00017429   -0.00045719
     atom   90 type  1   force =    -0.00112352    0.00257977   -0.00069995
     atom   91 type  1   force =     0.00262016    0.00157091   -0.00021145
     atom   92 type  1   force =     0.00035801    0.00007707   -0.00095298
     atom   93 type  1   force =    -0.00090472   -0.00180205   -0.00064443
     atom   94 type  1   force =     0.00055600    0.00055682   -0.00014770
     atom   95 type  1   force =     0.00003630    0.00003653    0.00036031
     atom   96 type  1   force =     0.00008338   -0.00051663    0.00032010
     atom   97 type  1   force =     0.00022434    0.00038605    0.00083182
     atom   98 type  1   force =     0.00047768    0.00034431    0.00004948
     atom   99 type  1   force =     0.00094476    0.00033948   -0.00031890
     atom  100 type  1   force =    -0.00005263   -0.00058087    0.00003482
     atom  101 type  2   force =    -0.00099632   -0.00053868    0.00048702
     atom  102 type  2   force =     0.00009008   -0.00157925    0.00174669
     atom  103 type  2   force =     0.00100369   -0.00115891   -0.00025823
     atom  104 type  2   force =    -0.00067853   -0.00007204   -0.00093378
     atom  105 type  2   force =    -0.00012596   -0.00075168    0.00019275
     atom  106 type  2   force =     0.00009678   -0.00116364    0.00002269
     atom  107 type  2   force =    -0.00067203   -0.00089371    0.00013555
     atom  108 type  2   force =     0.00031596    0.00054920   -0.00031112
     atom  109 type  2   force =     0.00050518    0.00020334    0.00090385
     atom  110 type  2   force =    -0.00148997   -0.00069975   -0.00160056
     atom  111 type  2   force =    -0.00076425   -0.00085954    0.00123542
     atom  112 type  2   force =     0.00028377    0.00031267    0.00296343
     atom  113 type  2   force =    -0.00142512   -0.00095721    0.00072268
     atom  114 type  2   force =    -0.00040816    0.00007838   -0.00088090
     atom  115 type  2   force =     0.00009976    0.00064756    0.00222647
     atom  116 type  2   force =    -0.00036277   -0.00202167   -0.00220580
     atom  117 type  2   force =    -0.00093851    0.00016856   -0.00304563
     atom  118 type  2   force =     0.00022292    0.00086147    0.00399553
     atom  119 type  2   force =    -0.00075172    0.00042817    0.00069385
     atom  120 type  2   force =    -0.00192891   -0.00128468    0.00038650
     atom  121 type  2   force =    -0.00225961   -0.00018164   -0.00423081
     atom  122 type  3   force =    -0.00107977    0.00064781    0.00360357
     atom  123 type  3   force =    -0.00074940    0.00067855    0.00147405
     atom  124 type  2   force =    -0.00121811   -0.00025330    0.00184467
     atom  125 type  2   force =    -0.00073199    0.00081371    0.00042055
     atom  126 type  2   force =    -0.00023252    0.00093199   -0.00262866
     atom  127 type  2   force =    -0.00303202   -0.00174960    0.00108196
     atom  128 type  2   force =    -0.00057963   -0.00152189    0.00188505
     atom  129 type  2   force =    -0.00023304   -0.00141660   -0.00056570
     atom  130 type  2   force =    -0.00069414   -0.00172955    0.00205934
     atom  131 type  2   force =     0.00059314   -0.00043532   -0.00003925
     atom  132 type  2   force =    -0.00017712   -0.00213270   -0.00103215
     atom  133 type  2   force =    -0.00002668    0.00034038   -0.00061596
     atom  134 type  2   force =     0.00039052   -0.00148459    0.00191953
     atom  135 type  2   force =    -0.00054215    0.00001213    0.00160941
     atom  136 type  2   force =    -0.00224995   -0.00141766    0.00065759
     atom  137 type  2   force =     0.00006015   -0.00041863   -0.00125400
     atom  138 type  2   force =     0.00025656   -0.00184566    0.00099196
     atom  139 type  2   force =    -0.00012495    0.00065324    0.00150098
     atom  140 type  2   force =    -0.00039248    0.00102341   -0.00135346
     atom  141 type  2   force =     0.00005750    0.00123401   -0.00115569
     atom  142 type  2   force =    -0.00035387    0.00163872    0.00111506
     atom  143 type  2   force =    -0.00110381   -0.00024357    0.00133355
     atom  144 type  2   force =    -0.00033942    0.00068402   -0.00035948
     atom  145 type  2   force =    -0.00041242    0.00121610   -0.00098941
     atom  146 type  2   force =    -0.00042380    0.00221802   -0.00135612
     atom  147 type  2   force =    -0.00042248   -0.00041074   -0.00197290
     atom  148 type  2   force =    -0.00066437    0.00075268   -0.00109542
     atom  149 type  2   force =    -0.00062586    0.00107532   -0.00044081
     atom  150 type  2   force =     0.00010082    0.00109960    0.00181231
     atom  151 type  2   force =    -0.00145982   -0.00003939   -0.00082671

     Total force =     0.020103     Total SCF correction =     0.000180

     number of scf cycles    =  14
     number of bfgs steps    =  13

     energy   old            =  -12712.4418138990 Ry
     energy   new            =  -12712.4424492551 Ry

     CASE: energy  _new < energy  _old

     new trust radius        =       0.0836264951 bohr
     new conv_thr            =       0.0000000100 Ry


ATOMIC_POSITIONS (angstrom)
Cu       0.017486539   0.004081108   7.313718529
Cu       1.861446345   1.695579372   7.323957857
Cu       3.707700291   0.001102722   7.315227075
Cu       5.551272674   1.696785254   7.322237418
Cu       0.018721929   3.395101668   7.324022361
Cu       1.867411745   5.102320117   7.323309469
Cu       3.708852630   3.392983249   7.327591197
Cu       5.554895107   5.102532731   7.321969351
Cu       0.024557330   6.813892873   7.314672240
Cu       1.871417572   8.522879909   7.316295647
Cu       3.711990392   6.815618800   7.320442327
Cu       5.557507669   8.521609674   7.317995820
Cu       0.023039906  10.235257131   7.306322518
Cu       1.867888377  11.948260157   7.304105185
Cu       3.715398877  10.237952654   7.318729182
Cu       5.556227485  11.950154110   7.301431354
Cu       0.023427715  13.648002646   7.305758511
Cu       1.864557821  15.349167606   7.304633671
Cu       3.708438792  13.653799802   7.294978370
Cu       5.552607048  15.347535256   7.309266563
Cu       0.021923541   1.692799328   9.157718128
Cu       1.867228583  -0.004797556   9.155617914
Cu       3.712070055   1.692757782   9.158098914
Cu       5.555897766  -0.001758309   9.159076634
Cu       0.027648883   5.102138926   9.140202744
Cu       1.869978903   3.393841142   9.150724809
Cu       3.714642778   5.102447788   9.142999948
Cu       5.556950894   3.389632183   9.143588651
Cu       0.032477087   8.535306440   9.124010975
Cu       1.874007498   6.815075588   9.139863609
Cu       3.719266131   8.528926954   9.143066954
Cu       5.566606303   6.811787061   9.144363917
Cu       0.030662932  11.947543517   9.140063882
Cu       1.871721543  10.246889931   9.125781908
Cu       3.715574078  11.961094356   9.122452654
Cu       5.567349090  10.251425796   9.122994187
Cu       0.024186478  15.342646218   9.155360434
Cu       1.868052382  13.647218601   9.147675195
Cu       3.714379855  15.340746449   9.148681631
Cu       5.563092661  13.647490682   9.142861850
Cu       0.028543446  -0.009787713  11.008169169
Cu       1.875251466   1.679588810  10.988952116
Cu       3.724144712  -0.004485892  11.005044815
Cu       5.568471820   1.690835890  11.000420054
Cu       0.029330807   3.386692737  10.986425989
Cu       1.880163187   5.098499813  10.977455947
Cu       3.724238901   3.393079474  10.990589370
Cu       5.573325628   5.090214671  10.973708197
Cu       0.052337346   6.826710641  10.961946865
Cu       1.877656291   8.546106270  10.960421418
Cu       3.727917596   6.806848179  10.965581135
Cu       5.591743073   8.554331086  10.941160211
Cu       0.045530108  10.246428477  10.982197955
Cu       1.872464814  11.947776807  10.985779701
Cu       3.726949091  10.282673131  10.932690945
Cu       5.584100487  11.953498632  10.981272354
Cu       0.037105609  13.652667619  10.999595563
Cu       1.876480046  15.342265714  11.004232292
Cu       3.724139865  13.644072323  10.993664858
Cu       5.566014921  15.340089747  11.007827327
Cu       0.035350268   1.701565974  12.839461225
Cu       1.882117929   0.001059085  12.858318311
Cu       3.731481803   1.684955793  12.846539389
Cu       5.578624196  -0.000671034  12.854418693
Cu       0.039635493   5.087987514  12.805265127
Cu       1.894045328   3.376493957  12.799540341
Cu       3.744453897   5.129147592  12.844455628
Cu       5.560111653   3.390844585  12.835393934
Cu       0.088686836   8.550620414  12.841511330
Cu       1.906138815   6.812437008  12.798571960
Cu       3.742452013   8.582544504  12.696956118
Cu       5.646904112   6.852429798  12.715357533
Cu       0.055898566  11.938996624  12.830733851
Cu       1.911768613  10.246249812  12.825033053
Cu       3.752872634  11.942346371  12.818995339
Cu       5.604235614  10.231240847  12.803979675
Cu       0.045886537  15.338505607  12.861966736
Cu       1.894659390  13.639636000  12.835913728
Cu       3.731787590  15.344666008  12.852670032
Cu       5.588526742  13.640175285  12.846792912
Cu       0.060567931   0.027946074  14.666877872
Cu       1.902033395   1.720162078  14.681566971
Cu       3.719360498  -0.005615394  14.686893042
Cu       5.552328323   1.685924878  14.687404921
Cu       0.015503271   3.352615739  14.707222814
Cu       1.809739681   5.043548559  14.567461928
Cu       3.731617264   3.396250991  14.665340568
Cu       5.605432691   5.072568292  14.640663371
Cu      -0.014961047   6.808041994  14.611936088
Cu       1.961807188   8.491160986  14.614897911
Cu       4.084343854   7.025719728  14.500701923
Cu       5.765369633   8.704398940  14.739776003
Cu       0.203309632  10.294439653  14.704764151
Cu       1.966207201  11.980848389  14.659677792
Cu       3.754861814  10.226661695  14.622459934
Cu       5.611102360  11.891766894  14.646447498
Cu       0.044253072  13.610754206  14.665899826
Cu       1.885231656  15.316119202  14.667481160
Cu       3.786857320  13.641761481  14.649979686
Cu       5.603954351  15.358280478  14.671874828
C       -0.076561344   0.696767674  17.626898486
C       -0.077619216   2.113590232  17.754294324
C        1.152971041  -0.015727246  17.596043599
C        1.148450930   2.819087331  17.870712554
C        2.380299112   0.697068132  17.636912718
C        2.378235817   2.112067527  17.772401033
C        3.611760287  -0.014372016  17.576055894
C        3.608284792   2.826246857  17.815098108
C        4.843515543   0.698878058  17.610412220
C        4.840854628   2.116211494  17.724713719
C        6.072047345  -0.013876141  17.574138319
C        6.071332857   2.821611267  17.811224265
C       -0.083648504   4.944753769  18.061448006
C       -0.090205403   6.366989203  18.105189750
C        1.145646556   4.227882775  18.065805312
C        1.137283146   7.081451824  18.163018552
C        2.370669651   4.937867081  18.149457376
C        2.349904871   6.353801017  18.181311401
C        3.603790764   4.235067741  17.963179281
C        3.561753469   7.050937015  17.629872558
C        3.110873928   6.816419807  16.122023697
H        3.028435821   5.704576890  15.978225833
H        2.064441188   7.203620065  16.070633540
C        4.842116513   4.949255704  17.938158298
C        4.852349523   6.353593234  17.881138202
C        6.072180798   4.235750094  17.946670616
C        6.057956890   7.069458556  17.932978096
C       -0.080268149   9.199452752  17.786544605
C       -0.078104292  10.622301300  17.652633458
C        1.144156326   8.499244455  17.942458897
C        1.150684597  11.337095280  17.645350913
C        2.379615008   9.215800969  17.842222085
C        2.379269861  10.632152706  17.722149762
C        3.602000221   8.523258402  17.808934371
C        3.608957422  11.335758927  17.648259285
C        4.827973060   9.205370048  17.741085556
C        4.836772481  10.627470435  17.666405821
C        6.067055850   8.492541529  17.794256393
C        6.068208396  11.331912266  17.597414391
C       -0.076577632  13.466342795  17.524951129
C       -0.074941495  14.888678502  17.528884177
C        1.154085020  12.756487652  17.567673247
C        1.154065019  15.601291567  17.540560069
C        2.383940435  13.467077240  17.574097602
C        2.385340713  14.889147511  17.552941849
C        3.611564216  12.756822194  17.589776120
C        3.614108282  15.601805096  17.559545599
C        4.840901175  13.466131473  17.552175330
C        4.842179244  14.888993220  17.540008837
C        6.069785350  12.753049293  17.538051281
C        6.073595216  15.602132249  17.528473835



     Writing output data file gc.save
     Check: negative starting charge=   -0.001829
     NEW-OLD atomic charge density approx. for the potential
     Check: negative starting charge=   -0.001827

     negative rho (up, down):  1.838E-03 0.000E+00

     total cpu time spent up to now is    51265.8 secs

     Self-consistent Calculation

     iteration #  1     ecut=    80.00 Ry     beta=0.70
     Davidson diagonalization with overlap
     c_bands:  1 eigenvalues not converged
     ethr =  1.00E-06,  avg # of iterations =  7.7

     negative rho (up, down):  2.763E-03 0.000E+00

     total cpu time spent up to now is    51852.4 secs

     total energy              =  -12712.44174962 Ry
     Harris-Foulkes estimate   =  -12712.44751226 Ry
     estimated scf accuracy    <       0.06740038 Ry

     iteration #  2     ecut=    80.00 Ry     beta=0.70
     Davidson diagonalization with overlap
     ethr =  5.19E-06,  avg # of iterations =  1.5

     negative rho (up, down):  3.434E-03 0.000E+00

     total cpu time spent up to now is    52040.0 secs

     total energy              =  -12712.44198426 Ry
     Harris-Foulkes estimate   =  -12712.44486299 Ry
     estimated scf accuracy    <       0.01252743 Ry

     iteration #  3     ecut=    80.00 Ry     beta=0.70
     Davidson diagonalization with overlap
     ethr =  9.65E-07,  avg # of iterations =  4.2

     negative rho (up, down):  4.755E-03 0.000E+00

     total cpu time spent up to now is    52255.8 secs

     total energy              =  -12712.44258581 Ry
     Harris-Foulkes estimate   =  -12712.44404349 Ry
     estimated scf accuracy    <       0.01715883 Ry

     iteration #  4     ecut=    80.00 Ry     beta=0.70
     Davidson diagonalization with overlap
     ethr =  9.65E-07,  avg # of iterations =  7.5

     negative rho (up, down):  4.897E-03 0.000E+00

     total cpu time spent up to now is    52506.4 secs

     total energy              =  -12712.44327176 Ry
     Harris-Foulkes estimate   =  -12712.44331195 Ry
     estimated scf accuracy    <       0.00087514 Ry

     iteration #  5     ecut=    80.00 Ry     beta=0.70
     Davidson diagonalization with overlap
     ethr =  6.74E-08,  avg # of iterations =  3.0

     negative rho (up, down):  4.668E-03 0.000E+00

     total cpu time spent up to now is    52707.7 secs

     total energy              =  -12712.44325933 Ry
     Harris-Foulkes estimate   =  -12712.44331072 Ry
     estimated scf accuracy    <       0.00057022 Ry

     iteration #  6     ecut=    80.00 Ry     beta=0.70
     Davidson diagonalization with overlap
     ethr =  4.39E-08,  avg # of iterations =  1.8

     negative rho (up, down):  4.036E-03 0.000E+00

     total cpu time spent up to now is    52891.3 secs

     total energy              =  -12712.44326354 Ry
     Harris-Foulkes estimate   =  -12712.44328453 Ry
     estimated scf accuracy    <       0.00012500 Ry

     iteration #  7     ecut=    80.00 Ry     beta=0.70
     Davidson diagonalization with overlap
     ethr =  9.63E-09,  avg # of iterations =  2.0

     negative rho (up, down):  3.222E-03 0.000E+00

     total cpu time spent up to now is    53076.0 secs

     total energy              =  -12712.44326399 Ry
     Harris-Foulkes estimate   =  -12712.44327322 Ry
     estimated scf accuracy    <       0.00002759 Ry

     iteration #  8     ecut=    80.00 Ry     beta=0.70
     Davidson diagonalization with overlap
     ethr =  2.13E-09,  avg # of iterations =  5.2

     negative rho (up, down):  2.647E-03 0.000E+00

     total cpu time spent up to now is    53306.6 secs

     total energy              =  -12712.44326360 Ry
     Harris-Foulkes estimate   =  -12712.44326669 Ry
     estimated scf accuracy    <       0.00000955 Ry

     iteration #  9     ecut=    80.00 Ry     beta=0.70
     Davidson diagonalization with overlap
     ethr =  7.36E-10,  avg # of iterations =  4.7

     negative rho (up, down):  2.211E-03 0.000E+00

     total cpu time spent up to now is    53526.6 secs

     total energy              =  -12712.44326388 Ry
     Harris-Foulkes estimate   =  -12712.44326441 Ry
     estimated scf accuracy    <       0.00000300 Ry

     iteration # 10     ecut=    80.00 Ry     beta=0.70
     Davidson diagonalization with overlap
     ethr =  2.31E-10,  avg # of iterations =  2.0

     negative rho (up, down):  2.088E-03 0.000E+00

     total cpu time spent up to now is    53718.7 secs

     total energy              =  -12712.44326424 Ry
     Harris-Foulkes estimate   =  -12712.44326417 Ry
     estimated scf accuracy    <       0.00000071 Ry

     iteration # 11     ecut=    80.00 Ry     beta=0.70
     Davidson diagonalization with overlap
     ethr =  5.43E-11,  avg # of iterations =  2.3

     negative rho (up, down):  1.950E-03 0.000E+00

     total cpu time spent up to now is    53953.1 secs

     total energy              =  -12712.44326458 Ry
     Harris-Foulkes estimate   =  -12712.44326438 Ry
     estimated scf accuracy    <       0.00000049 Ry

     iteration # 12     ecut=    80.00 Ry     beta=0.70
     Davidson diagonalization with overlap
     ethr =  3.80E-11,  avg # of iterations =  2.5

     negative rho (up, down):  1.880E-03 0.000E+00

     total cpu time spent up to now is    54149.2 secs

     total energy              =  -12712.44326478 Ry
     Harris-Foulkes estimate   =  -12712.44326461 Ry
     estimated scf accuracy    <       0.00000024 Ry

     iteration # 13     ecut=    80.00 Ry     beta=0.70
     Davidson diagonalization with overlap
     ethr =  1.83E-11,  avg # of iterations =  2.7

     negative rho (up, down):  1.854E-03 0.000E+00

     total cpu time spent up to now is    54346.7 secs

     total energy              =  -12712.44326487 Ry
     Harris-Foulkes estimate   =  -12712.44326479 Ry
     estimated scf accuracy    <       0.00000005 Ry

     iteration # 14     ecut=    80.00 Ry     beta=0.70
     Davidson diagonalization with overlap
