
     Program PWSCF v.5.4.0 starts on  9Apr2017 at 10:40:44 

     This program is part of the open-source Quantum ESPRESSO suite
     for quantum simulation of materials; please cite
         "P. Giannozzi et al., J. Phys.:Condens. Matter 21 395502 (2009);
          URL http://www.quantum-espresso.org", 
     in publications or presentations arising from this work. More details at
     http://www.quantum-espresso.org/quote

     Parallel version (MPI & OpenMP), running on      56 processor cores
     Number of MPI processes:                56
     Threads/MPI process:                     1
     R & G space division:  proc/nbgrp/npool/nimage =      56
     Waiting for input...
     Reading input from standard input
Warning: card &IONS ignored
Warning: card / ignored

     Current dimensions of program PWSCF are:
     Max number of different atomic species (ntypx) = 10
     Max number of k-points (npk) =  40000
     Max angular momentum in pseudopotentials (lmaxx) =  3
     WARNING: atomic wfc #  2 for atom type 4 has zero norm
     WARNING: atomic wfc #  4 for atom type 4 has zero norm
     WARNING: atomic wfc #  5 for atom type 4 has zero norm

     -------------------------------------
     Parameters for Dispersion Correction:
     -------------------------------------
       atom      VdW radius       C_6     

        Cu         2.952        374.666
        C_h        2.744         60.710
        C          2.744         60.710
        O          2.536         24.284

     Subspace diagonalization in iterative solution of the eigenvalue problem:
     one sub-group per band group will be used
     scalapack distributed-memory algorithm (size of sub-group:  5*  5 procs)

 
     Parallelization info
     --------------------
     sticks:   dense  smooth     PW     G-vecs:    dense   smooth      PW
     Min         204     204     54                36612    36612    4962
     Max         205     205     55                36617    36617    4968
     Sum       11433   11433   3039              2050409  2050409  278033
 
     Generating pointlists ...
     new r_m :   0.1382 (alat units)  1.9275 (a.u.) for type    1
     new r_m :   0.0787 (alat units)  1.0967 (a.u.) for type    2
     new r_m :   0.0786 (alat units)  1.0964 (a.u.) for type    3
     new r_m :   0.0791 (alat units)  1.1028 (a.u.) for type    4


     bravais-lattice index     =            0
     lattice parameter (alat)  =      13.9425  a.u.
     unit-cell volume          =   21209.0878 (a.u.)^3
     number of atoms/cell      =          149
     number of atomic types    =            4
     number of electrons       =      1298.00
     number of Kohn-Sham states=          779
     kinetic-energy cutoff     =      80.0000  Ry
     charge density cutoff     =     320.0000  Ry
     convergence threshold     =      1.0E-08
     mixing beta               =       0.7000
     number of iterations used =            8  local-TF  mixing
     Exchange-correlation      =  SLA  PW   PBX  PBC ( 1  4  3  4 0 0)

     celldm(1)=  13.942539  celldm(2)=   0.000000  celldm(3)=   0.000000
     celldm(4)=   0.000000  celldm(5)=   0.000000  celldm(6)=   0.000000

     crystal axes: (cart. coord. in units of alat)
               a(1) = (   1.000000   0.000000   0.000000 )  
               a(2) = (   0.000000   2.309401   0.000000 )  
               a(3) = (   0.000000   0.000000   3.388418 )  

     reciprocal axes: (cart. coord. in units 2 pi/alat)
               b(1) = (  1.000000  0.000000  0.000000 )  
               b(2) = (  0.000000  0.433013  0.000000 )  
               b(3) = (  0.000000  0.000000  0.295123 )  


     PseudoPot. # 1 for Cu read from file:
     /home/549/hxw549/Short/pseudopotentials/Cu.pbe-n-van_ak.UPF
     MD5 check sum: 601f7c30f7467666bec936e0661ce3e1
     Pseudo is Ultrasoft + core correction, Zval = 11.0
     Generated by new atomic code, or converted to UPF format
     Using radial grid of  867 points,  6 beta functions with: 
                l(1) =   0
                l(2) =   0
                l(3) =   1
                l(4) =   1
                l(5) =   2
                l(6) =   2
     Q(r) pseudized with  8 coefficients,  rinner =    1.400   1.400   1.400
                                                       1.400   1.400

     PseudoPot. # 2 for C  read from file:
     /home/549/hxw549/Short/pseudopotentials/C.star1s-pbe-mt_gipaw.UPF
     MD5 check sum: ef0cb3dee31bd9e4ba2a832a2c716264
     Pseudo is Norm-conserving, Zval =  5.0
     Generated by new atomic code, or converted to UPF format
     Using radial grid of 1073 points,  1 beta functions with: 
                l(1) =   0

     PseudoPot. # 3 for C  read from file:
     /home/549/hxw549/Short/pseudopotentials/C.pbe-mt_gipaw.UPF
     MD5 check sum: 5ac2f21f2c440b14befe521540822c15
     Pseudo is Norm-conserving, Zval =  4.0
     Generated by new atomic code, or converted to UPF format
     Using radial grid of 1073 points,  1 beta functions with: 
                l(1) =   0

     PseudoPot. # 4 for O  read from file:
     /home/549/hxw549/Short/pseudopotentials/O.pbe-van_gipaw.UPF
     MD5 check sum: 5ce2a047509d4f331db576c963e74b29
     Pseudo is Ultrasoft, Zval =  6.0
     Generated by new atomic code, or converted to UPF format
     Using radial grid of 1095 points,  4 beta functions with: 
                l(1) =   0
                l(2) =   0
                l(3) =   1
                l(4) =   1
     Q(r) pseudized with 0 coefficients 


     atomic species   valence    mass     pseudopotential
        Cu            11.00    63.54600     Cu( 1.00)
        C_h            5.00    12.01070     C ( 1.00)
        C              4.00    12.01070     C ( 1.00)
        O              6.00    15.99940     O ( 1.00)

     Starting magnetic structure 
     atomic species   magnetization
        Cu           0.000
        C_h          0.000
        C            0.000
        O            1.000

     No symmetry found



   Cartesian axes

     site n.     atom                  positions (alat units)
         1           Cu  tau(   1) = (   0.0001178   0.0001751   0.9991399  )
         2           Cu  tau(   2) = (   0.2500647   0.2315788   0.9992879  )
         3           Cu  tau(   3) = (   0.5001090   0.0002824   0.9991514  )
         4           Cu  tau(   4) = (   0.7501448   0.2315979   0.9993693  )
         5           Cu  tau(   5) = (   0.0000932   0.4624661   0.9992448  )
         6           Cu  tau(   6) = (   0.2501040   0.6930408   0.9987587  )
         7           Cu  tau(   7) = (   0.5001044   0.4624308   0.9992470  )
         8           Cu  tau(   8) = (   0.7500909   0.6930451   0.9988127  )
         9           Cu  tau(   9) = (   0.0000907   0.9236195   0.9983746  )
        10           Cu  tau(  10) = (   0.2501315   1.1542013   0.9984774  )
        11           Cu  tau(  11) = (   0.5001085   0.9236121   0.9984107  )
        12           Cu  tau(  12) = (   0.7500776   1.1542041   0.9985334  )
        13           Cu  tau(  13) = (   0.0001210   1.3847107   0.9989336  )
        14           Cu  tau(  14) = (   0.2501076   1.6153136   0.9993453  )
        15           Cu  tau(  15) = (   0.5001016   1.3847235   0.9991112  )
        16           Cu  tau(  16) = (   0.7501325   1.6152607   0.9994161  )
        17           Cu  tau(  17) = (   0.0000836   1.8463185   0.9992677  )
        18           Cu  tau(  18) = (   0.2501939   2.0778557   0.9990932  )
        19           Cu  tau(  19) = (   0.5001665   1.8462421   0.9993297  )
        20           Cu  tau(  20) = (   0.7500499   2.0778858   0.9990886  )
        21           Cu  tau(  21) = (   0.0001201   0.2315510   1.2474060  )
        22           Cu  tau(  22) = (   0.2501297   0.0000932   1.2468084  )
        23           Cu  tau(  23) = (   0.5000985   0.2315859   1.2474013  )
        24           Cu  tau(  24) = (   0.7501392   0.0000369   1.2467986  )
        25           Cu  tau(  25) = (   0.0000837   0.6935790   1.2476031  )
        26           Cu  tau(  26) = (   0.2500834   0.4627990   1.2476878  )
        27           Cu  tau(  27) = (   0.5000729   0.6935238   1.2475645  )
        28           Cu  tau(  28) = (   0.7500921   0.4627963   1.2477406  )
        29           Cu  tau(  29) = (   0.0001043   1.1538633   1.2473903  )
        30           Cu  tau(  30) = (   0.2500740   0.9237755   1.2473144  )
        31           Cu  tau(  31) = (   0.5000779   1.1537741   1.2475188  )
        32           Cu  tau(  32) = (   0.7500848   0.9237806   1.2473699  )
        33           Cu  tau(  33) = (   0.0001394   1.6150341   1.2477604  )
        34           Cu  tau(  34) = (   0.2501124   1.3841605   1.2478282  )
        35           Cu  tau(  35) = (   0.5001301   1.6150934   1.2478863  )
        36           Cu  tau(  36) = (   0.7501066   1.3841739   1.2478487  )
        37           Cu  tau(  37) = (   0.0001703   2.0778855   1.2466178  )
        38           Cu  tau(  38) = (   0.2501557   1.8463742   1.2472016  )
        39           Cu  tau(  39) = (   0.5001379   2.0779082   1.2466660  )
        40           Cu  tau(  40) = (   0.7501553   1.8464101   1.2472347  )
        41           Cu  tau(  41) = (   0.0001561  -0.0004210   1.4957109  )
        42           Cu  tau(  42) = (   0.2501545   0.2312899   1.4963241  )
        43           Cu  tau(  43) = (   0.5001223  -0.0003473   1.4956858  )
        44           Cu  tau(  44) = (   0.7500415   0.2311756   1.4962428  )
        45           Cu  tau(  45) = (   0.0000797   0.4629130   1.4969910  )
        46           Cu  tau(  46) = (   0.2500644   0.6939574   1.4977027  )
        47           Cu  tau(  47) = (   0.5000448   0.4629913   1.4971228  )
        48           Cu  tau(  48) = (   0.7500213   0.6939388   1.4976647  )
        49           Cu  tau(  49) = (   0.0000772   0.9240249   1.4981269  )
        50           Cu  tau(  50) = (   0.2500138   1.1533268   1.4981828  )
        51           Cu  tau(  51) = (   0.4999981   0.9236958   1.4981756  )
        52           Cu  tau(  52) = (   0.7500898   1.1534051   1.4980997  )
        53           Cu  tau(  53) = (   0.0000854   1.3837290   1.4977758  )
        54           Cu  tau(  54) = (   0.2500811   1.6151223   1.4969711  )
        55           Cu  tau(  55) = (   0.5000715   1.3836600   1.4977194  )
        56           Cu  tau(  56) = (   0.7501512   1.6151612   1.4969707  )
        57           Cu  tau(  57) = (   0.0001647   1.8467653   1.4961187  )
        58           Cu  tau(  58) = (   0.2501492   2.0780074   1.4956995  )
        59           Cu  tau(  59) = (   0.5001483   1.8469374   1.4962451  )
        60           Cu  tau(  60) = (   0.7501797   2.0780088   1.4957512  )
        61           Cu  tau(  61) = (   0.0001434   0.2303911   1.7440553  )
        62           Cu  tau(  62) = (   0.2502640  -0.0007400   1.7447773  )
        63           Cu  tau(  63) = (   0.5000564   0.2301922   1.7446801  )
        64           Cu  tau(  64) = (   0.7499969  -0.0007135   1.7448307  )
        65           Cu  tau(  65) = (   0.0000745   0.6935765   1.7472176  )
        66           Cu  tau(  66) = (   0.2505720   0.4624882   1.7457398  )
        67           Cu  tau(  67) = (   0.5000325   0.6937721   1.7485044  )
        68           Cu  tau(  68) = (   0.7495773   0.4622837   1.7454788  )
        69           Cu  tau(  69) = (   0.0000649   1.1534345   1.7495728  )
        70           Cu  tau(  70) = (   0.2503992   0.9235614   1.7498004  )
        71           Cu  tau(  71) = (   0.5000004   1.1529972   1.7490166  )
        72           Cu  tau(  72) = (   0.7496815   0.9236872   1.7494164  )
        73           Cu  tau(  73) = (   0.0000855   1.6159662   1.7455781  )
        74           Cu  tau(  74) = (   0.2497537   1.3839283   1.7470177  )
        75           Cu  tau(  75) = (   0.5000619   1.6158775   1.7448370  )
        76           Cu  tau(  76) = (   0.7503425   1.3839909   1.7469833  )
        77           Cu  tau(  77) = (   0.0000998   2.0779821   1.7452386  )
        78           Cu  tau(  78) = (   0.2499195   1.8474556   1.7449487  )
        79           Cu  tau(  79) = (   0.5001760   2.0783808   1.7453206  )
        80           Cu  tau(  80) = (   0.7503055   1.8474368   1.7450066  )
        81           Cu  tau(  81) = (   0.0000913  -0.0001846   1.9906150  )
        82           Cu  tau(  82) = (   0.2499008   0.2299686   1.9899715  )
        83           Cu  tau(  83) = (   0.5001755  -0.0003051   1.9924353  )
        84           Cu  tau(  84) = (   0.7503545   0.2299454   1.9900033  )
        85           Cu  tau(  85) = (   0.0000150   0.4609338   1.9884698  )
        86           Cu  tau(  86) = (   0.2526326   0.6910888   1.9945534  )
        87           Cu  tau(  87) = (   0.5002257   0.4585509   1.9920995  )
        88           Cu  tau(  88) = (   0.7476506   0.6911566   1.9938358  )
        89           Cu  tau(  89) = (   0.0000269   0.9212800   1.9947875  )
        90           Cu  tau(  90) = (   0.2501613   1.1549799   1.9964917  )
        91           Cu  tau(  91) = (   0.5001528   0.9243607   2.0003832  )
        92           Cu  tau(  92) = (   0.7499540   1.1549185   1.9962842  )
        93           Cu  tau(  93) = (  -0.0000171   1.3864821   1.9936837  )
        94           Cu  tau(  94) = (   0.2496421   1.6167895   1.9902549  )
        95           Cu  tau(  95) = (   0.5001156   1.3865848   1.9912321  )
        96           Cu  tau(  96) = (   0.7504721   1.6169147   1.9903198  )
        97           Cu  tau(  97) = (   0.0001452   1.8476448   1.9922626  )
        98           Cu  tau(  98) = (   0.2502472   2.0782997   1.9914950  )
        99           Cu  tau(  99) = (   0.5000204   1.8469043   1.9903178  )
       100           Cu  tau( 100) = (   0.7499866   2.0781930   1.9916427  )
       101           C   tau( 101) = (  -0.0000031   0.0971043   2.3879420  )
       102           C   tau( 102) = (  -0.0000524   0.2892846   2.3845655  )
       103           C   tau( 103) = (   0.1666660   0.0010496   2.3880821  )
       104           C   tau( 104) = (   0.1662983   0.3853857   2.3800619  )
       105           C   tau( 105) = (   0.3331661   0.0971851   2.3854343  )
       106           C   tau( 106) = (   0.3330371   0.2894063   2.3808165  )
       107           C   tau( 107) = (   0.5000001   0.0008852   2.3858518  )
       108           C   tau( 108) = (   0.4998997   0.3862011   2.3779419  )
       109           C   tau( 109) = (   0.6668162   0.0971870   2.3857123  )
       110           C   tau( 110) = (   0.6668276   0.2894144   2.3811848  )
       111           C   tau( 111) = (   0.8333307   0.0010413   2.3884541  )
       112           C   tau( 112) = (   0.8335336   0.3853915   2.3804495  )
       113           C   tau( 113) = (  -0.0001756   0.6740120   2.3734364  )
       114           C   tau( 114) = (  -0.0002095   0.8665229   2.3686346  )
       115           C   tau( 115) = (   0.1660471   0.5775765   2.3741779  )
       116           C   tau( 116) = (   0.1667453   0.9625008   2.3748476  )
       117           C   tau( 117) = (   0.3324872   0.6745332   2.3738281  )
       118           C   tau( 118) = (   0.3307487   0.8654330   2.3798499  )
       119           C   tau( 119) = (   0.4998391   0.5778621   2.3760650  )
       120           C   tau( 120) = (   0.4996895   0.9621637   2.4356682  )
       121           O   tau( 121) = (   0.4987041   0.9573919   2.6273532  )
       122           C   tau( 122) = (   0.6671796   0.6745385   2.3743426  )
       123           C   tau( 123) = (   0.6688087   0.8654535   2.3800444  )
       124           C   tau( 124) = (   0.8336398   0.5775636   2.3746523  )
       125           C   tau( 125) = (   0.8328414   0.9625091   2.3750327  )
       126           C   tau( 126) = (  -0.0001226   1.2514969   2.3780858  )
       127           C   tau( 127) = (  -0.0000580   1.4446335   2.3767340  )
       128           C   tau( 128) = (   0.1665618   1.1557680   2.3784869  )
       129           C   tau( 129) = (   0.1667114   1.5410833   2.3789669  )
       130           C   tau( 130) = (   0.3338787   1.2526757   2.3819609  )
       131           C   tau( 131) = (   0.3334272   1.4452607   2.3812252  )
       132           C   tau( 132) = (   0.4998303   1.1589812   2.3878147  )
       133           C   tau( 133) = (   0.4999354   1.5412396   2.3843628  )
       134           C_h tau( 134) = (   0.6658220   1.2526489   2.3820371  )
       135           C   tau( 135) = (   0.6664446   1.4452600   2.3811871  )
       136           C   tau( 136) = (   0.8331461   1.1557891   2.3786206  )
       137           C   tau( 137) = (   0.8331791   1.5411000   2.3788400  )
       138           C   tau( 138) = (   0.0000179   1.8297592   2.3820829  )
       139           C   tau( 139) = (   0.0000276   2.0220587   2.3867410  )
       140           C   tau( 140) = (   0.1668445   1.7334918   2.3820555  )
       141           C   tau( 141) = (   0.1666563   2.1181397   2.3871975  )
       142           C   tau( 142) = (   0.3333905   1.8295594   2.3863147  )
       143           C   tau( 143) = (   0.3334142   2.0218884   2.3874303  )
       144           C   tau( 144) = (   0.4999921   1.7335804   2.3866084  )
       145           C   tau( 145) = (   0.5000164   2.1179819   2.3890180  )
       146           C   tau( 146) = (   0.6666062   1.8295781   2.3867473  )
       147           C   tau( 147) = (   0.6665755   2.0218860   2.3882889  )
       148           C   tau( 148) = (   0.8331746   1.7335137   2.3821733  )
       149           C   tau( 149) = (   0.8333866   2.1181027   2.3878917  )

     number of k points=     6  gaussian smearing, width (Ry)=  0.1000
                       cart. coord. in units 2pi/alat
        k(    1) = (   0.0000000   0.0000000   0.0000000), wk =   0.1250000
        k(    2) = (   0.0000000  -0.2165064   0.0000000), wk =   0.1250000
        k(    3) = (   0.2500000   0.0000000   0.0000000), wk =   0.2500000
        k(    4) = (   0.2500000  -0.2165064   0.0000000), wk =   0.2500000
        k(    5) = (  -0.5000000   0.0000000   0.0000000), wk =   0.1250000
        k(    6) = (  -0.5000000  -0.2165064   0.0000000), wk =   0.1250000

     Dense  grid:  2050409 G-vectors     FFT dimensions: (  80, 192, 270)

     Largest allocated arrays     est. size (Mb)     dimensions
        Kohn-Sham Wavefunctions        54.73 Mb     (    4604,  779)
        NL pseudopotentials           130.39 Mb     (    4604, 1856)
        Each V/rho on FFT grid          2.34 Mb     (   76800,   2)
        Each G-vector array             0.28 Mb     (   36616)
        G-vector shells                 0.14 Mb     (   17932)
     Largest temporary arrays     est. size (Mb)     dimensions
        Auxiliary wavefunctions       218.90 Mb     (    4604, 3116)
        Each subspace H/S matrix        5.92 Mb     (     623,  623)
        Each <psi_i|beta_j> matrix     22.06 Mb     (    1856,  779)
        Arrays for rho mixing           9.38 Mb     (   76800,    8)

     Initial potential from superposition of free atoms
     Check: negative starting charge=(component1):   -0.000885
     Check: negative starting charge=(component2):   -0.000926

     starting charge 1272.81751, renormalised to 1298.00000

     negative rho (up, down):  9.023E-04 9.445E-04
     Starting wfc are 1288 randomized atomic wfcs

     total cpu time spent up to now is      211.7 secs

     Self-consistent Calculation

     iteration #  1     ecut=    80.00 Ry     beta=0.70
     Davidson diagonalization with overlap
     c_bands:  5 eigenvalues not converged
     c_bands:  1 eigenvalues not converged
     c_bands:  4 eigenvalues not converged
     c_bands:  1 eigenvalues not converged
     c_bands:  2 eigenvalues not converged
     c_bands:  2 eigenvalues not converged
     c_bands:  2 eigenvalues not converged
     ethr =  1.00E-04,  avg # of iterations = 29.2

     negative rho (up, down):  1.204E+01 1.344E+01

     total cpu time spent up to now is     3917.9 secs

     total energy              =   -9856.35863101 Ry
     Harris-Foulkes estimate   =  -17265.13966793 Ry
     estimated scf accuracy    <  176483.78466685 Ry

     total magnetization       =     2.89 Bohr mag/cell
     absolute magnetization    =     3.69 Bohr mag/cell

     iteration #  2     ecut=    80.00 Ry     beta=0.70
     Davidson diagonalization with overlap
     ethr =  1.00E-02,  avg # of iterations = 11.2

     negative rho (up, down):  1.468E+01 1.493E+01

     total cpu time spent up to now is     5698.8 secs

     total energy              =  -12323.87074196 Ry
     Harris-Foulkes estimate   =  -13640.93692218 Ry
     estimated scf accuracy    <   21962.98899210 Ry

     total magnetization       =     0.28 Bohr mag/cell
     absolute magnetization    =     1.14 Bohr mag/cell

     iteration #  3     ecut=    80.00 Ry     beta=0.70
     Davidson diagonalization with overlap
     ethr =  1.00E-02,  avg # of iterations =  7.0

     negative rho (up, down):  1.512E+01 1.505E+01

     total cpu time spent up to now is     6755.6 secs

     total energy              =  -12458.06857378 Ry
     Harris-Foulkes estimate   =  -13378.60514164 Ry
     estimated scf accuracy    <    5997.37488864 Ry

     total magnetization       =     0.06 Bohr mag/cell
     absolute magnetization    =     0.32 Bohr mag/cell

     iteration #  4     ecut=    80.00 Ry     beta=0.70
     Davidson diagonalization with overlap
     ethr =  1.00E-02,  avg # of iterations =  5.5

     negative rho (up, down):  1.115E+01 1.111E+01

     total cpu time spent up to now is     7900.0 secs

     total energy              =  -12845.71785639 Ry
     Harris-Foulkes estimate   =  -13089.08776313 Ry
     estimated scf accuracy    <    2090.88469872 Ry

     total magnetization       =     0.05 Bohr mag/cell
     absolute magnetization    =     0.14 Bohr mag/cell

     iteration #  5     ecut=    80.00 Ry     beta=0.70
     Davidson diagonalization with overlap
     ethr =  1.00E-02,  avg # of iterations =  3.5

     negative rho (up, down):  8.405E+00 8.392E+00

     total cpu time spent up to now is     8449.9 secs

     total energy              =  -12857.60121560 Ry
     Harris-Foulkes estimate   =  -12977.97777144 Ry
     estimated scf accuracy    <    1157.74557032 Ry

     total magnetization       =    -0.10 Bohr mag/cell
     absolute magnetization    =     0.18 Bohr mag/cell

     iteration #  6     ecut=    80.00 Ry     beta=0.70
     Davidson diagonalization with overlap
     ethr =  1.00E-02,  avg # of iterations =  3.0

     negative rho (up, down):  5.682E+00 5.693E+00

     total cpu time spent up to now is     8850.6 secs

     total energy              =  -12849.25955277 Ry
     Harris-Foulkes estimate   =  -12916.97032765 Ry
     estimated scf accuracy    <     547.48364962 Ry

     total magnetization       =    -0.04 Bohr mag/cell
     absolute magnetization    =     0.11 Bohr mag/cell

     iteration #  7     ecut=    80.00 Ry     beta=0.70
     Davidson diagonalization with overlap
     ethr =  1.00E-02,  avg # of iterations =  2.0

     negative rho (up, down):  4.159E+00 4.170E+00

     total cpu time spent up to now is     9211.5 secs

     total energy              =  -12826.89241763 Ry
     Harris-Foulkes estimate   =  -12862.12523774 Ry
     estimated scf accuracy    <     366.40024331 Ry

     total magnetization       =     0.00 Bohr mag/cell
     absolute magnetization    =     0.05 Bohr mag/cell

     iteration #  8     ecut=    80.00 Ry     beta=0.70
     Davidson diagonalization with overlap
     ethr =  1.00E-02,  avg # of iterations =  1.2

     negative rho (up, down):  3.118E+00 3.118E+00

     total cpu time spent up to now is     9546.4 secs

     total energy              =  -12806.21503937 Ry
     Harris-Foulkes estimate   =  -12838.55349232 Ry
     estimated scf accuracy    <     436.62506272 Ry

     total magnetization       =    -0.00 Bohr mag/cell
     absolute magnetization    =     0.06 Bohr mag/cell

     iteration #  9     ecut=    80.00 Ry     beta=0.70
     Davidson diagonalization with overlap
     ethr =  1.00E-02,  avg # of iterations =  1.5

     negative rho (up, down):  2.716E+00 2.716E+00

     total cpu time spent up to now is     9887.4 secs

     total energy              =  -12805.95143301 Ry
     Harris-Foulkes estimate   =  -12817.49500730 Ry
     estimated scf accuracy    <     227.93022050 Ry

     total magnetization       =     0.06 Bohr mag/cell
     absolute magnetization    =     0.12 Bohr mag/cell

     iteration # 10     ecut=    80.00 Ry     beta=0.70
     Davidson diagonalization with overlap
     ethr =  1.00E-02,  avg # of iterations =  1.1

     negative rho (up, down):  1.155E+00 1.155E+00

     total cpu time spent up to now is    10220.6 secs

     total energy              =  -12778.55299474 Ry
     Harris-Foulkes estimate   =  -12809.01163528 Ry
     estimated scf accuracy    <     138.53754885 Ry

     total magnetization       =     0.11 Bohr mag/cell
     absolute magnetization    =     0.16 Bohr mag/cell

     iteration # 11     ecut=    80.00 Ry     beta=0.70
     Davidson diagonalization with overlap
     ethr =  1.00E-02,  avg # of iterations =  1.8

     negative rho (up, down):  3.417E-01 3.423E-01

     total cpu time spent up to now is    10573.8 secs

     total energy              =  -12762.11090697 Ry
     Harris-Foulkes estimate   =  -12786.57109839 Ry
     estimated scf accuracy    <     210.95428385 Ry

     total magnetization       =     0.23 Bohr mag/cell
     absolute magnetization    =     0.29 Bohr mag/cell

     iteration # 12     ecut=    80.00 Ry     beta=0.70
     Davidson diagonalization with overlap
     ethr =  1.00E-02,  avg # of iterations =  2.0

     negative rho (up, down):  3.319E-01 3.336E-01

     total cpu time spent up to now is    10930.6 secs

     total energy              =  -12756.44550606 Ry
     Harris-Foulkes estimate   =  -12771.80536183 Ry
     estimated scf accuracy    <     286.54076907 Ry

     total magnetization       =     0.47 Bohr mag/cell
     absolute magnetization    =     0.53 Bohr mag/cell

     iteration # 13     ecut=    80.00 Ry     beta=0.70
     Davidson diagonalization with overlap
     ethr =  1.00E-02,  avg # of iterations =  1.5

     negative rho (up, down):  1.580E+00 1.583E+00

     total cpu time spent up to now is    11273.1 secs

     total energy              =  -12744.80822396 Ry
     Harris-Foulkes estimate   =  -12766.94276291 Ry
     estimated scf accuracy    <     245.23132339 Ry

     total magnetization       =     0.62 Bohr mag/cell
     absolute magnetization    =     0.68 Bohr mag/cell

     iteration # 14     ecut=    80.00 Ry     beta=0.70
     Davidson diagonalization with overlap
     ethr =  1.00E-02,  avg # of iterations =  1.8

     negative rho (up, down):  2.183E+00 2.185E+00

     total cpu time spent up to now is    11622.5 secs

     total energy              =  -12750.81918992 Ry
     Harris-Foulkes estimate   =  -12755.12849248 Ry
     estimated scf accuracy    <      46.77319654 Ry

     total magnetization       =     0.81 Bohr mag/cell
     absolute magnetization    =     0.89 Bohr mag/cell

     iteration # 15     ecut=    80.00 Ry     beta=0.70
     Davidson diagonalization with overlap
     ethr =  3.60E-03,  avg # of iterations =  4.4

     negative rho (up, down):  2.768E+00 2.769E+00

     total cpu time spent up to now is    12034.7 secs

     total energy              =  -12748.57856166 Ry
     Harris-Foulkes estimate   =  -12752.22051367 Ry
     estimated scf accuracy    <      31.36544157 Ry

     total magnetization       =     0.49 Bohr mag/cell
     absolute magnetization    =     0.60 Bohr mag/cell

     iteration # 16     ecut=    80.00 Ry     beta=0.70
     Davidson diagonalization with overlap
     ethr =  2.42E-03,  avg # of iterations =  4.0

     negative rho (up, down):  3.183E+00 3.184E+00

     total cpu time spent up to now is    12434.6 secs

     total energy              =  -12746.92462606 Ry
     Harris-Foulkes estimate   =  -12749.22707950 Ry
     estimated scf accuracy    <      23.43087560 Ry

     total magnetization       =     0.78 Bohr mag/cell
     absolute magnetization    =     0.86 Bohr mag/cell

     iteration # 17     ecut=    80.00 Ry     beta=0.70
     Davidson diagonalization with overlap
     ethr =  1.81E-03,  avg # of iterations =  5.7

     negative rho (up, down):  2.153E+00 2.153E+00

     total cpu time spent up to now is    12876.7 secs

     total energy              =  -12745.43276244 Ry
     Harris-Foulkes estimate   =  -12747.49570945 Ry
     estimated scf accuracy    <      15.18273608 Ry

     total magnetization       =     0.13 Bohr mag/cell
     absolute magnetization    =     0.29 Bohr mag/cell

     iteration # 18     ecut=    80.00 Ry     beta=0.70
     Davidson diagonalization with overlap
     ethr =  1.17E-03,  avg # of iterations =  4.4

     negative rho (up, down):  1.348E+00 1.347E+00

     total cpu time spent up to now is    13286.8 secs

     total energy              =  -12743.37482148 Ry
     Harris-Foulkes estimate   =  -12745.63924514 Ry
     estimated scf accuracy    <       9.96172089 Ry

     total magnetization       =     0.28 Bohr mag/cell
     absolute magnetization    =     0.36 Bohr mag/cell

     iteration # 19     ecut=    80.00 Ry     beta=0.70
     Davidson diagonalization with overlap
     ethr =  7.67E-04,  avg # of iterations =  6.0

     negative rho (up, down):  1.384E+00 1.383E+00

     total cpu time spent up to now is    13739.0 secs

     total energy              =  -12743.21370737 Ry
     Harris-Foulkes estimate   =  -12743.86484718 Ry
     estimated scf accuracy    <      10.17192163 Ry

     total magnetization       =     0.15 Bohr mag/cell
     absolute magnetization    =     0.19 Bohr mag/cell

     iteration # 20     ecut=    80.00 Ry     beta=0.70
     Davidson diagonalization with overlap
     ethr =  7.67E-04,  avg # of iterations =  1.9

     negative rho (up, down):  4.631E-01 4.633E-01

     total cpu time spent up to now is    14092.4 secs

     total energy              =  -12741.35834315 Ry
     Harris-Foulkes estimate   =  -12743.46011104 Ry
     estimated scf accuracy    <       7.04612253 Ry

     total magnetization       =     0.13 Bohr mag/cell
     absolute magnetization    =     0.17 Bohr mag/cell

     iteration # 21     ecut=    80.00 Ry     beta=0.70
     Davidson diagonalization with overlap
     ethr =  5.43E-04,  avg # of iterations =  5.7

     negative rho (up, down):  7.604E-01 7.603E-01

     total cpu time spent up to now is    14535.6 secs

     total energy              =  -12741.38030590 Ry
     Harris-Foulkes estimate   =  -12742.06799911 Ry
     estimated scf accuracy    <      20.06516695 Ry

     total magnetization       =     0.01 Bohr mag/cell
     absolute magnetization    =     0.02 Bohr mag/cell

     iteration # 22     ecut=    80.00 Ry     beta=0.70
     Davidson diagonalization with overlap
     ethr =  5.43E-04,  avg # of iterations =  2.2

     negative rho (up, down):  1.133E+00 1.133E+00

     total cpu time spent up to now is    14896.8 secs

     total energy              =  -12742.11955882 Ry
     Harris-Foulkes estimate   =  -12741.96640464 Ry
     estimated scf accuracy    <      10.63289590 Ry

     total magnetization       =     0.06 Bohr mag/cell
     absolute magnetization    =     0.08 Bohr mag/cell

     iteration # 23     ecut=    80.00 Ry     beta=0.70
     Davidson diagonalization with overlap
     ethr =  5.43E-04,  avg # of iterations =  2.0

     negative rho (up, down):  4.914E-01 4.913E-01

     total cpu time spent up to now is    15252.6 secs

     total energy              =  -12740.47292734 Ry
     Harris-Foulkes estimate   =  -12742.90629934 Ry
     estimated scf accuracy    <       5.54865593 Ry

     total magnetization       =     0.13 Bohr mag/cell
     absolute magnetization    =     0.16 Bohr mag/cell

     iteration # 24     ecut=    80.00 Ry     beta=0.70
     Davidson diagonalization with overlap
     c_bands:  2 eigenvalues not converged
     ethr =  4.27E-04,  avg # of iterations =  7.3

     negative rho (up, down):  3.371E-01 3.370E-01

     total cpu time spent up to now is    15737.0 secs

     total energy              =  -12739.72449242 Ry
     Harris-Foulkes estimate   =  -12740.73703900 Ry
     estimated scf accuracy    <       7.40427605 Ry

     total magnetization       =    -0.01 Bohr mag/cell
     absolute magnetization    =     0.02 Bohr mag/cell

     iteration # 25     ecut=    80.00 Ry     beta=0.70
     Davidson diagonalization with overlap
     ethr =  4.27E-04,  avg # of iterations =  3.9

     negative rho (up, down):  3.954E-01 3.954E-01

     total cpu time spent up to now is    16135.4 secs

     total energy              =  -12739.07341645 Ry
     Harris-Foulkes estimate   =  -12739.85123467 Ry
     estimated scf accuracy    <       5.75493753 Ry

     total magnetization       =    -0.04 Bohr mag/cell
     absolute magnetization    =     0.06 Bohr mag/cell

     iteration # 26     ecut=    80.00 Ry     beta=0.70
     Davidson diagonalization with overlap
     ethr =  4.27E-04,  avg # of iterations =  5.6

     negative rho (up, down):  4.799E-01 4.798E-01

     total cpu time spent up to now is    16580.0 secs

     total energy              =  -12739.03235596 Ry
     Harris-Foulkes estimate   =  -12739.33724231 Ry
     estimated scf accuracy    <       1.96728298 Ry

     total magnetization       =    -0.03 Bohr mag/cell
     absolute magnetization    =     0.05 Bohr mag/cell

     iteration # 27     ecut=    80.00 Ry     beta=0.70
     Davidson diagonalization with overlap
     ethr =  1.52E-04,  avg # of iterations =  8.0

     negative rho (up, down):  3.709E-01 3.709E-01

     total cpu time spent up to now is    17089.0 secs

     total energy              =  -12738.91033464 Ry
     Harris-Foulkes estimate   =  -12739.11904046 Ry
     estimated scf accuracy    <       0.83895556 Ry

     total magnetization       =    -0.02 Bohr mag/cell
     absolute magnetization    =     0.04 Bohr mag/cell

     iteration # 28     ecut=    80.00 Ry     beta=0.70
     Davidson diagonalization with overlap
     ethr =  6.46E-05,  avg # of iterations =  8.6

     negative rho (up, down):  3.388E-01 3.388E-01

     total cpu time spent up to now is    17618.9 secs

     total energy              =  -12738.87119208 Ry
     Harris-Foulkes estimate   =  -12738.95550852 Ry
     estimated scf accuracy    <       0.34023381 Ry

     total magnetization       =    -0.00 Bohr mag/cell
     absolute magnetization    =     0.01 Bohr mag/cell

     iteration # 29     ecut=    80.00 Ry     beta=0.70
     Davidson diagonalization with overlap
     ethr =  2.62E-05,  avg # of iterations =  8.9

     negative rho (up, down):  1.970E-01 1.970E-01

     total cpu time spent up to now is    18172.5 secs

     total energy              =  -12738.85043716 Ry
     Harris-Foulkes estimate   =  -12738.89273528 Ry
     estimated scf accuracy    <       0.15983743 Ry

     total magnetization       =     0.01 Bohr mag/cell
     absolute magnetization    =     0.01 Bohr mag/cell

     iteration # 30     ecut=    80.00 Ry     beta=0.70
     Davidson diagonalization with overlap
     ethr =  1.23E-05,  avg # of iterations =  8.2

     negative rho (up, down):  1.323E-01 1.323E-01

     total cpu time spent up to now is    18707.2 secs

     total energy              =  -12738.84580242 Ry
     Harris-Foulkes estimate   =  -12738.85888925 Ry
     estimated scf accuracy    <       0.11985658 Ry

     total magnetization       =     0.02 Bohr mag/cell
     absolute magnetization    =     0.02 Bohr mag/cell

     iteration # 31     ecut=    80.00 Ry     beta=0.70
     Davidson diagonalization with overlap
     ethr =  9.23E-06,  avg # of iterations =  4.8

     negative rho (up, down):  4.353E-02 4.353E-02

     total cpu time spent up to now is    19139.0 secs

     total energy              =  -12738.84249625 Ry
     Harris-Foulkes estimate   =  -12738.84945449 Ry
     estimated scf accuracy    <       0.04583308 Ry

     total magnetization       =     0.02 Bohr mag/cell
     absolute magnetization    =     0.02 Bohr mag/cell

     iteration # 32     ecut=    80.00 Ry     beta=0.70
     Davidson diagonalization with overlap
     c_bands:  1 eigenvalues not converged
     c_bands:  3 eigenvalues not converged
     c_bands:  2 eigenvalues not converged
     c_bands:  2 eigenvalues not converged
     c_bands:  2 eigenvalues not converged
     ethr =  3.53E-06,  avg # of iterations = 16.0

     negative rho (up, down):  3.163E-02 3.163E-02

     total cpu time spent up to now is    19913.1 secs

     total energy              =  -12738.84429272 Ry
     Harris-Foulkes estimate   =  -12738.84598649 Ry
     estimated scf accuracy    <       0.00809799 Ry

     total magnetization       =     0.02 Bohr mag/cell
     absolute magnetization    =     0.02 Bohr mag/cell

     iteration # 33     ecut=    80.00 Ry     beta=0.70
     Davidson diagonalization with overlap
     c_bands:  2 eigenvalues not converged
     c_bands:  1 eigenvalues not converged
     c_bands:  1 eigenvalues not converged
     c_bands:  1 eigenvalues not converged
     ethr =  6.24E-07,  avg # of iterations = 11.8

     negative rho (up, down):  1.531E-02 1.531E-02

     total cpu time spent up to now is    20533.3 secs

     total energy              =  -12738.84359561 Ry
     Harris-Foulkes estimate   =  -12738.84512246 Ry
     estimated scf accuracy    <       0.00374416 Ry

     total magnetization       =     0.01 Bohr mag/cell
     absolute magnetization    =     0.02 Bohr mag/cell

     iteration # 34     ecut=    80.00 Ry     beta=0.70
     Davidson diagonalization with overlap
     c_bands:  1 eigenvalues not converged
     c_bands:  2 eigenvalues not converged
     c_bands:  1 eigenvalues not converged
     c_bands:  2 eigenvalues not converged
     ethr =  2.88E-07,  avg # of iterations = 16.9

     negative rho (up, down):  1.048E-02 1.048E-02

     total cpu time spent up to now is    21274.1 secs

     total energy              =  -12738.84346026 Ry
     Harris-Foulkes estimate   =  -12738.84390684 Ry
     estimated scf accuracy    <       0.00105837 Ry

     total magnetization       =     0.01 Bohr mag/cell
     absolute magnetization    =     0.01 Bohr mag/cell

     iteration # 35     ecut=    80.00 Ry     beta=0.70
     Davidson diagonalization with overlap
     c_bands:  1 eigenvalues not converged
     ethr =  8.15E-08,  avg # of iterations = 10.3

     negative rho (up, down):  5.383E-03 5.382E-03

     total cpu time spent up to now is    21880.9 secs

     total energy              =  -12738.84336478 Ry
     Harris-Foulkes estimate   =  -12738.84366669 Ry
     estimated scf accuracy    <       0.00088361 Ry

     total magnetization       =     0.01 Bohr mag/cell
     absolute magnetization    =     0.01 Bohr mag/cell

     iteration # 36     ecut=    80.00 Ry     beta=0.70
     Davidson diagonalization with overlap
     ethr =  6.81E-08,  avg # of iterations = 10.6

     negative rho (up, down):  2.666E-03 2.666E-03

     total cpu time spent up to now is    22457.3 secs

     total energy              =  -12738.84336294 Ry
     Harris-Foulkes estimate   =  -12738.84344791 Ry
     estimated scf accuracy    <       0.00021623 Ry

     total magnetization       =     0.00 Bohr mag/cell
     absolute magnetization    =     0.01 Bohr mag/cell

     iteration # 37     ecut=    80.00 Ry     beta=0.70
     Davidson diagonalization with overlap
     c_bands:  1 eigenvalues not converged
     c_bands:  1 eigenvalues not converged
     ethr =  1.67E-08,  avg # of iterations =  7.2

     negative rho (up, down):  1.081E-03 1.080E-03

     total cpu time spent up to now is    22951.5 secs

     total energy              =  -12738.84340217 Ry
     Harris-Foulkes estimate   =  -12738.84338298 Ry
     estimated scf accuracy    <       0.00004222 Ry

     total magnetization       =     0.00 Bohr mag/cell
     absolute magnetization    =     0.00 Bohr mag/cell

     iteration # 38     ecut=    80.00 Ry     beta=0.70
     Davidson diagonalization with overlap
     c_bands:  1 eigenvalues not converged
     c_bands:  1 eigenvalues not converged
     c_bands:  1 eigenvalues not converged
     c_bands:  1 eigenvalues not converged
     ethr =  3.25E-09,  avg # of iterations = 13.6

     negative rho (up, down):  1.050E-03 1.050E-03

     total cpu time spent up to now is    23609.5 secs

     total energy              =  -12738.84342115 Ry
     Harris-Foulkes estimate   =  -12738.84340610 Ry
     estimated scf accuracy    <       0.00001747 Ry

     total magnetization       =     0.00 Bohr mag/cell
     absolute magnetization    =     0.00 Bohr mag/cell

     iteration # 39     ecut=    80.00 Ry     beta=0.70
     Davidson diagonalization with overlap
     c_bands:  1 eigenvalues not converged
     c_bands:  2 eigenvalues not converged
     c_bands:  1 eigenvalues not converged
     c_bands:  2 eigenvalues not converged
     ethr =  1.35E-09,  avg # of iterations =  8.3

     negative rho (up, down):  9.986E-04 9.986E-04

     total cpu time spent up to now is    24115.4 secs

     total energy              =  -12738.84342829 Ry
     Harris-Foulkes estimate   =  -12738.84342215 Ry
     estimated scf accuracy    <       0.00000547 Ry

     total magnetization       =     0.00 Bohr mag/cell
     absolute magnetization    =     0.00 Bohr mag/cell

     iteration # 40     ecut=    80.00 Ry     beta=0.70
     Davidson diagonalization with overlap
     c_bands:  2 eigenvalues not converged
     c_bands:  3 eigenvalues not converged
     ethr =  4.21E-10,  avg # of iterations =  5.9

     negative rho (up, down):  1.127E-03 1.127E-03

     total cpu time spent up to now is    24579.1 secs

     total energy              =  -12738.84343429 Ry
     Harris-Foulkes estimate   =  -12738.84342900 Ry
     estimated scf accuracy    <       0.00000489 Ry

     total magnetization       =     0.00 Bohr mag/cell
     absolute magnetization    =     0.00 Bohr mag/cell

     iteration # 41     ecut=    80.00 Ry     beta=0.70
     Davidson diagonalization with overlap
     c_bands:  1 eigenvalues not converged
     ethr =  3.77E-10,  avg # of iterations =  8.6

     negative rho (up, down):  1.117E-03 1.117E-03

     total cpu time spent up to now is    25096.5 secs

     total energy              =  -12738.84343494 Ry
     Harris-Foulkes estimate   =  -12738.84343455 Ry
     estimated scf accuracy    <       0.00000125 Ry

     total magnetization       =     0.00 Bohr mag/cell
     absolute magnetization    =     0.00 Bohr mag/cell

     iteration # 42     ecut=    80.00 Ry     beta=0.70
     Davidson diagonalization with overlap
     c_bands:  1 eigenvalues not converged
     ethr =  9.61E-11,  avg # of iterations =  3.5

     negative rho (up, down):  1.131E-03 1.131E-03

     total cpu time spent up to now is    25492.5 secs

     total energy              =  -12738.84343504 Ry
     Harris-Foulkes estimate   =  -12738.84343502 Ry
     estimated scf accuracy    <       0.00000064 Ry

     total magnetization       =     0.00 Bohr mag/cell
     absolute magnetization    =     0.00 Bohr mag/cell

     iteration # 43     ecut=    80.00 Ry     beta=0.70
     Davidson diagonalization with overlap
     ethr =  4.96E-11,  avg # of iterations =  2.2

     negative rho (up, down):  1.124E-03 1.124E-03

     total cpu time spent up to now is    25862.4 secs

     total energy              =  -12738.84343497 Ry
     Harris-Foulkes estimate   =  -12738.84343508 Ry
     estimated scf accuracy    <       0.00000032 Ry

     total magnetization       =     0.00 Bohr mag/cell
     absolute magnetization    =     0.00 Bohr mag/cell

     iteration # 44     ecut=    80.00 Ry     beta=0.70
     Davidson diagonalization with overlap
     ethr =  2.45E-11,  avg # of iterations =  1.8

     negative rho (up, down):  1.091E-03 1.091E-03

     total cpu time spent up to now is    26220.0 secs

     total energy              =  -12738.84343470 Ry
     Harris-Foulkes estimate   =  -12738.84343498 Ry
     estimated scf accuracy    <       0.00000017 Ry

     total magnetization       =     0.00 Bohr mag/cell
     absolute magnetization    =     0.00 Bohr mag/cell

     iteration # 45     ecut=    80.00 Ry     beta=0.70
     Davidson diagonalization with overlap
     ethr =  1.29E-11,  avg # of iterations =  2.2

     negative rho (up, down):  1.062E-03 1.062E-03

     total cpu time spent up to now is    26590.2 secs

     total energy              =  -12738.84343442 Ry
     Harris-Foulkes estimate   =  -12738.84343471 Ry
     estimated scf accuracy    <       0.00000007 Ry

     total magnetization       =     0.00 Bohr mag/cell
     absolute magnetization    =     0.00 Bohr mag/cell

     iteration # 46     ecut=    80.00 Ry     beta=0.70
     Davidson diagonalization with overlap
     ethr =  5.47E-12,  avg # of iterations =  2.2

     negative rho (up, down):  1.051E-03 1.051E-03

     total cpu time spent up to now is    26960.6 secs

     total energy              =  -12738.84343431 Ry
     Harris-Foulkes estimate   =  -12738.84343443 Ry
     estimated scf accuracy    <       0.00000002 Ry

     total magnetization       =    -0.00 Bohr mag/cell
     absolute magnetization    =     0.00 Bohr mag/cell

     iteration # 47     ecut=    80.00 Ry     beta=0.70
     Davidson diagonalization with overlap
     ethr =  1.40E-12,  avg # of iterations =  2.5

     negative rho (up, down):  1.039E-03 1.039E-03
 
     Magnetic moment per site:
     atom:    1    charge:    9.5915    magn:    0.0000    constr:    0.0000
     atom:    2    charge:    9.5920    magn:    0.0000    constr:    0.0000
     atom:    3    charge:    9.5915    magn:    0.0000    constr:    0.0000
     atom:    4    charge:    9.5920    magn:    0.0000    constr:    0.0000
     atom:    5    charge:    9.5926    magn:   -0.0000    constr:    0.0000
     atom:    6    charge:    9.5925    magn:    0.0000    constr:    0.0000
     atom:    7    charge:    9.5926    magn:   -0.0000    constr:    0.0000
     atom:    8    charge:    9.5925    magn:   -0.0000    constr:    0.0000
     atom:    9    charge:    9.5924    magn:    0.0000    constr:    0.0000
     atom:   10    charge:    9.5926    magn:   -0.0000    constr:    0.0000
     atom:   11    charge:    9.5925    magn:    0.0000    constr:    0.0000
     atom:   12    charge:    9.5926    magn:    0.0000    constr:    0.0000
     atom:   13    charge:    9.5927    magn:    0.0000    constr:    0.0000
     atom:   14    charge:    9.5923    magn:   -0.0000    constr:    0.0000
     atom:   15    charge:    9.5928    magn:    0.0000    constr:    0.0000
     atom:   16    charge:    9.5925    magn:    0.0000    constr:    0.0000
     atom:   17    charge:    9.5917    magn:    0.0000    constr:    0.0000
     atom:   18    charge:    9.5911    magn:   -0.0000    constr:    0.0000
     atom:   19    charge:    9.5919    magn:    0.0000    constr:    0.0000
     atom:   20    charge:    9.5912    magn:   -0.0000    constr:    0.0000
     atom:   21    charge:    9.6679    magn:   -0.0000    constr:    0.0000
     atom:   22    charge:    9.6683    magn:   -0.0000    constr:    0.0000
     atom:   23    charge:    9.6680    magn:   -0.0000    constr:    0.0000
     atom:   24    charge:    9.6684    magn:    0.0000    constr:    0.0000
     atom:   25    charge:    9.6682    magn:   -0.0000    constr:    0.0000
     atom:   26    charge:    9.6680    magn:   -0.0000    constr:    0.0000
     atom:   27    charge:    9.6684    magn:   -0.0000    constr:    0.0000
     atom:   28    charge:    9.6680    magn:   -0.0000    constr:    0.0000
     atom:   29    charge:    9.6687    magn:   -0.0000    constr:    0.0000
     atom:   30    charge:    9.6688    magn:   -0.0000    constr:    0.0000
     atom:   31    charge:    9.6687    magn:   -0.0000    constr:    0.0000
     atom:   32    charge:    9.6688    magn:   -0.0000    constr:    0.0000
     atom:   33    charge:    9.6678    magn:   -0.0000    constr:    0.0000
     atom:   34    charge:    9.6682    magn:    0.0000    constr:    0.0000
     atom:   35    charge:    9.6677    magn:   -0.0000    constr:    0.0000
     atom:   36    charge:    9.6683    magn:   -0.0000    constr:    0.0000
     atom:   37    charge:    9.6683    magn:   -0.0000    constr:    0.0000
     atom:   38    charge:    9.6681    magn:    0.0000    constr:    0.0000
     atom:   39    charge:    9.6683    magn:   -0.0000    constr:    0.0000
     atom:   40    charge:    9.6681    magn:   -0.0000    constr:    0.0000
     atom:   41    charge:    9.6705    magn:   -0.0000    constr:    0.0000
     atom:   42    charge:    9.6699    magn:   -0.0000    constr:    0.0000
     atom:   43    charge:    9.6708    magn:   -0.0000    constr:    0.0000
     atom:   44    charge:    9.6699    magn:   -0.0000    constr:    0.0000
     atom:   45    charge:    9.6697    magn:    0.0000    constr:    0.0000
     atom:   46    charge:    9.6694    magn:    0.0000    constr:    0.0000
     atom:   47    charge:    9.6694    magn:   -0.0000    constr:    0.0000
     atom:   48    charge:    9.6695    magn:    0.0000    constr:    0.0000
     atom:   49    charge:    9.6696    magn:   -0.0000    constr:    0.0000
     atom:   50    charge:    9.6696    magn:    0.0000    constr:    0.0000
     atom:   51    charge:    9.6699    magn:    0.0000    constr:    0.0000
     atom:   52    charge:    9.6697    magn:    0.0000    constr:    0.0000
     atom:   53    charge:    9.6692    magn:    0.0000    constr:    0.0000
     atom:   54    charge:    9.6693    magn:    0.0000    constr:    0.0000
     atom:   55    charge:    9.6691    magn:    0.0000    constr:    0.0000
     atom:   56    charge:    9.6693    magn:    0.0000    constr:    0.0000
     atom:   57    charge:    9.6704    magn:    0.0000    constr:    0.0000
     atom:   58    charge:    9.6708    magn:   -0.0000    constr:    0.0000
     atom:   59    charge:    9.6703    magn:   -0.0000    constr:    0.0000
     atom:   60    charge:    9.6707    magn:    0.0000    constr:    0.0000
     atom:   61    charge:    9.6745    magn:    0.0000    constr:    0.0000
     atom:   62    charge:    9.6735    magn:    0.0000    constr:    0.0000
     atom:   63    charge:    9.6738    magn:   -0.0000    constr:    0.0000
     atom:   64    charge:    9.6734    magn:    0.0000    constr:    0.0000
     atom:   65    charge:    9.6723    magn:    0.0000    constr:    0.0000
     atom:   66    charge:    9.6729    magn:    0.0000    constr:    0.0000
     atom:   67    charge:    9.6706    magn:    0.0000    constr:    0.0000
     atom:   68    charge:    9.6731    magn:    0.0000    constr:    0.0000
     atom:   69    charge:    9.6706    magn:    0.0000    constr:    0.0000
     atom:   70    charge:    9.6701    magn:   -0.0000    constr:    0.0000
     atom:   71    charge:    9.6706    magn:    0.0000    constr:    0.0000
     atom:   72    charge:    9.6706    magn:   -0.0000    constr:    0.0000
     atom:   73    charge:    9.6729    magn:   -0.0000    constr:    0.0000
     atom:   74    charge:    9.6721    magn:    0.0000    constr:    0.0000
     atom:   75    charge:    9.6739    magn:   -0.0000    constr:    0.0000
     atom:   76    charge:    9.6720    magn:   -0.0000    constr:    0.0000
     atom:   77    charge:    9.6730    magn:    0.0000    constr:    0.0000
     atom:   78    charge:    9.6732    magn:    0.0000    constr:    0.0000
     atom:   79    charge:    9.6729    magn:    0.0000    constr:    0.0000
     atom:   80    charge:    9.6732    magn:   -0.0000    constr:    0.0000
     atom:   81    charge:    9.6085    magn:   -0.0000    constr:    0.0000
     atom:   82    charge:    9.6106    magn:    0.0000    constr:    0.0000
     atom:   83    charge:    9.6057    magn:    0.0000    constr:    0.0000
     atom:   84    charge:    9.6108    magn:    0.0000    constr:    0.0000
     atom:   85    charge:    9.6115    magn:    0.0000    constr:    0.0000
     atom:   86    charge:    9.6053    magn:    0.0000    constr:    0.0000
     atom:   87    charge:    9.6111    magn:   -0.0000    constr:    0.0000
     atom:   88    charge:    9.6065    magn:    0.0000    constr:    0.0000
     atom:   89    charge:    9.6061    magn:   -0.0000    constr:    0.0000
     atom:   90    charge:    9.6027    magn:   -0.0000    constr:    0.0000
     atom:   91    charge:    9.5997    magn:    0.0000    constr:    0.0000
     atom:   92    charge:    9.6081    magn:   -0.0000    constr:    0.0000
     atom:   93    charge:    9.6089    magn:    0.0000    constr:    0.0000
     atom:   94    charge:    9.6113    magn:    0.0000    constr:    0.0000
     atom:   95    charge:    9.6127    magn:   -0.0000    constr:    0.0000
     atom:   96    charge:    9.6115    magn:    0.0000    constr:    0.0000
     atom:   97    charge:    9.6071    magn:   -0.0000    constr:    0.0000
     atom:   98    charge:    9.6070    magn:   -0.0000    constr:    0.0000
     atom:   99    charge:    9.6087    magn:   -0.0000    constr:    0.0000
     atom:  100    charge:    9.6068    magn:   -0.0000    constr:    0.0000
     atom:  101    charge:    1.6832    magn:   -0.0000    constr:    0.0000
     atom:  102    charge:    1.6854    magn:    0.0000    constr:    0.0000
     atom:  103    charge:    1.6813    magn:   -0.0000    constr:    0.0000
     atom:  104    charge:    1.6816    magn:   -0.0000    constr:    0.0000
     atom:  105    charge:    1.6803    magn:   -0.0000    constr:    0.0000
     atom:  106    charge:    1.6794    magn:    0.0000    constr:    0.0000
     atom:  107    charge:    1.6821    magn:    0.0000    constr:    0.0000
     atom:  108    charge:    1.6790    magn:   -0.0000    constr:    0.0000
     atom:  109    charge:    1.6802    magn:   -0.0000    constr:    0.0000
     atom:  110    charge:    1.6795    magn:    0.0000    constr:    0.0000
     atom:  111    charge:    1.6810    magn:    0.0000    constr:    0.0000
     atom:  112    charge:    1.6817    magn:   -0.0000    constr:    0.0000
     atom:  113    charge:    1.6839    magn:   -0.0000    constr:    0.0000
     atom:  114    charge:    1.6796    magn:    0.0000    constr:    0.0000
     atom:  115    charge:    1.6812    magn:    0.0000    constr:    0.0000
     atom:  116    charge:    1.6805    magn:   -0.0000    constr:    0.0000
     atom:  117    charge:    1.6801    magn:   -0.0000    constr:    0.0000
     atom:  118    charge:    1.6664    magn:    0.0000    constr:    0.0000
     atom:  119    charge:    1.6792    magn:    0.0000    constr:    0.0000
     atom:  120    charge:    1.6321    magn:   -0.0000    constr:    0.0000
     atom:  121    charge:    3.6979    magn:   -0.0000    constr:    0.0000
     atom:  122    charge:    1.6801    magn:   -0.0000    constr:    0.0000
     atom:  123    charge:    1.6666    magn:    0.0000    constr:    0.0000
     atom:  124    charge:    1.6812    magn:    0.0000    constr:    0.0000
     atom:  125    charge:    1.6804    magn:   -0.0000    constr:    0.0000
     atom:  126    charge:    1.6778    magn:    0.0000    constr:    0.0000
     atom:  127    charge:    1.6782    magn:   -0.0000    constr:    0.0000
     atom:  128    charge:    1.6742    magn:   -0.0000    constr:    0.0000
     atom:  129    charge:    1.6784    magn:    0.0000    constr:    0.0000
     atom:  130    charge:    1.6812    magn:   -0.0000    constr:    0.0000
     atom:  131    charge:    1.6806    magn:   -0.0000    constr:    0.0000
     atom:  132    charge:    1.6407    magn:    0.0000    constr:    0.0000
     atom:  133    charge:    1.6837    magn:   -0.0000    constr:    0.0000
     atom:  134    charge:    2.5919    magn:   -0.0000    constr:    0.0000
     atom:  135    charge:    1.6520    magn:    0.0000    constr:    0.0000
     atom:  136    charge:    1.6471    magn:    0.0000    constr:    0.0000
     atom:  137    charge:    1.6785    magn:   -0.0000    constr:    0.0000
     atom:  138    charge:    1.6810    magn:    0.0000    constr:    0.0000
     atom:  139    charge:    1.6828    magn:   -0.0000    constr:    0.0000
     atom:  140    charge:    1.6802    magn:   -0.0000    constr:    0.0000
     atom:  141    charge:    1.6805    magn:    0.0000    constr:    0.0000
     atom:  142    charge:    1.6813    magn:   -0.0000    constr:    0.0000
     atom:  143    charge:    1.6808    magn:    0.0000    constr:    0.0000
     atom:  144    charge:    1.6834    magn:    0.0000    constr:    0.0000
     atom:  145    charge:    1.6822    magn:   -0.0000    constr:    0.0000
     atom:  146    charge:    1.6812    magn:   -0.0000    constr:    0.0000
     atom:  147    charge:    1.6807    magn:    0.0000    constr:    0.0000
     atom:  148    charge:    1.6795    magn:    0.0000    constr:    0.0000
     atom:  149    charge:    1.6801    magn:   -0.0000    constr:    0.0000

     total cpu time spent up to now is    27326.3 secs

     End of self-consistent calculation

 ------ SPIN UP ------------


          k = 0.0000 0.0000 0.0000 (256287 PWs)   bands (ev):

   -17.4528 -16.6273 -16.3344 -15.9193 -15.4498 -14.9827 -14.8075 -14.5331
   -14.3531 -14.2678 -14.1932 -13.9656 -13.4690 -13.3061 -13.2102 -13.1856
   -13.1294 -12.6723 -11.6802 -11.5763 -11.5256 -11.3435 -11.0522 -10.3708
    -9.8023  -9.7894  -9.6697  -9.4491  -9.0540  -8.8261  -8.7032  -8.5778
    -8.0635  -7.9596  -7.8021  -7.6961  -7.6079  -7.6016  -7.5893  -7.5143
    -6.4166  -6.4014  -6.1654  -6.1558  -6.0729  -5.9938  -5.9034  -5.8946
    -5.8890  -5.6282  -5.6182  -5.3322  -4.9950  -4.9156  -4.8330  -4.7283
    -4.6967  -4.6942  -4.4916  -4.3639  -4.2155  -4.1258  -4.1227  -4.0309
    -3.9767  -3.7523  -3.6314  -3.6038  -3.5553  -3.5436  -3.5289  -3.4880
    -3.4268  -3.3653  -3.3021  -3.2307  -3.1811  -3.1484  -3.1441  -3.1402
    -3.1263  -3.0840  -2.9548  -2.9304  -2.9227  -2.8699  -2.8673  -2.8488
    -2.8350  -2.7817  -2.7600  -2.6521  -2.5403  -2.5135  -2.5097  -2.4649
    -2.4571  -2.3298  -2.3275  -2.3119  -2.2880  -2.2869  -2.2863  -2.2859
    -2.2788  -2.2600  -2.2308  -2.1996  -2.1581  -2.1581  -2.1537  -2.1536
    -2.0892  -2.0276  -1.9747  -1.9120  -1.8929  -1.8773  -1.8729  -1.8718
    -1.8479  -1.8246  -1.8071  -1.7946  -1.7934  -1.7855  -1.7395  -1.7281
    -1.7192  -1.6983  -1.6966  -1.6890  -1.6866  -1.6721  -1.6586  -1.6504
    -1.6483  -1.6428  -1.6268  -1.5778  -1.5659  -1.5507  -1.5405  -1.5172
    -1.5106  -1.4951  -1.4872  -1.4335  -1.4196  -1.3985  -1.3970  -1.3854
    -1.3465  -1.3452  -1.3276  -1.3267  -1.3231  -1.3018  -1.2978  -1.2826
    -1.2548  -1.2461  -1.2261  -1.1849  -1.1816  -1.1757  -1.1661  -1.1638
    -1.1576  -1.1569  -1.1560  -1.1538  -1.1510  -1.1497  -1.1363  -1.1334
    -1.1189  -1.0961  -1.0872  -1.0741  -1.0671  -1.0638  -1.0544  -1.0541
    -1.0513  -1.0278  -0.9979  -0.9947  -0.9914  -0.9906  -0.9903  -0.9897
    -0.9885  -0.9854  -0.9843  -0.9829  -0.9824  -0.9822  -0.9786  -0.9769
    -0.9762  -0.9718  -0.9600  -0.9593  -0.9274  -0.9182  -0.8946  -0.8249
    -0.8245  -0.8179  -0.8178  -0.7957  -0.7954  -0.7769  -0.7767  -0.7557
    -0.7546  -0.7473  -0.7434  -0.7350  -0.7339  -0.7228  -0.7051  -0.6993
    -0.6942  -0.6940  -0.6906  -0.6885  -0.6883  -0.6774  -0.6764  -0.6278
    -0.6274  -0.5737  -0.5736  -0.5637  -0.5633  -0.5602  -0.5581  -0.5528
    -0.5438  -0.5420  -0.5393  -0.5382  -0.5377  -0.5354  -0.5353  -0.5350
    -0.5193  -0.5193  -0.5128  -0.5094  -0.5048  -0.4863  -0.4860  -0.4370
    -0.4338  -0.4315  -0.4254  -0.4253  -0.4064  -0.3998  -0.3997  -0.3961
    -0.3960  -0.3828  -0.3817  -0.3767  -0.3766  -0.3691  -0.3567  -0.3544
    -0.3527  -0.3490  -0.3479  -0.3475  -0.3464  -0.3457  -0.3437  -0.3387
    -0.3253  -0.3249  -0.3211  -0.3208  -0.3037  -0.2839  -0.2557  -0.2529
    -0.2525  -0.2489  -0.2477  -0.2074  -0.2046  -0.2044  -0.2038  -0.2004
    -0.1966  -0.1957  -0.1955  -0.1948  -0.1882  -0.1765  -0.1612  -0.1517
    -0.1439  -0.1433  -0.1388  -0.1375  -0.1342  -0.1154  -0.1149  -0.1096
    -0.1077  -0.1055  -0.1007  -0.0904  -0.0885  -0.0875  -0.0869  -0.0860
    -0.0809  -0.0710  -0.0707  -0.0699  -0.0697  -0.0611  -0.0565  -0.0537
    -0.0496  -0.0316  -0.0296   0.0007   0.0016   0.0160   0.0324   0.0363
     0.0547   0.0647   0.0726   0.0980   0.0993   0.1007   0.1085   0.1107
     0.1127   0.1358   0.1369   0.1387   0.1389   0.1395   0.1459   0.1478
     0.1481   0.1936   0.2075   0.2080   0.2083   0.2141   0.2155   0.2173
     0.2427   0.2463   0.2482   0.2501   0.2516   0.2661   0.2695   0.2841
     0.2853   0.2900   0.2958   0.3046   0.3068   0.3079   0.3155   0.3454
     0.3502   0.3588   0.3602   0.3634   0.3660   0.3668   0.3728   0.3881
     0.3892   0.3944   0.3991   0.4002   0.4012   0.4024   0.4058   0.4065
     0.4096   0.4143   0.4173   0.4226   0.4245   0.4262   0.4320   0.4335
     0.4617   0.4725   0.4729   0.4755   0.4862   0.4990   0.5134   0.5140
     0.5164   0.5200   0.5202   0.5211   0.5223   0.5241   0.5267   0.5358
     0.5406   0.5443   0.5467   0.5477   0.5542   0.5544   0.5623   0.5671
     0.5690   0.5771   0.5870   0.5887   0.5921   0.5973   0.6026   0.6044
     0.6083   0.6149   0.6162   0.6162   0.6192   0.6219   0.6230   0.6258
     0.6335   0.6412   0.6535   0.6722   0.6730   0.6854   0.6884   0.6887
     0.6897   0.6906   0.6908   0.7219   0.7226   0.7372   0.7388   0.7430
     0.7433   0.7565   0.7568   0.7656   0.7672   0.7685   0.7691   0.7743
     0.7856   0.8024   0.8053   0.8060   0.8074   0.8092   0.8098   0.8246
     0.8301   0.8426   0.8427   0.8507   0.8527   0.8539   0.8640   0.8742
     0.8778   0.8785   0.8792   0.8804   0.8810   0.8829   0.8867   0.8928
     0.8933   0.8949   0.8953   0.8959   0.9120   0.9124   0.9232   0.9281
     0.9297   0.9345   0.9362   0.9421   0.9650   0.9694   0.9701   0.9738
     0.9772   0.9798   0.9806   0.9841   0.9857   0.9868   0.9879   0.9890
     0.9895   0.9911   1.0029   1.0034   1.0177   1.0449   1.0503   1.0560
     1.0650   1.0670   1.0693   1.0705   1.0713   1.0743   1.0762   1.0825
     1.0914   1.0989   1.1030   1.1047   1.1064   1.1071   1.1100   1.1102
     1.1118   1.1125   1.1214   1.1391   1.1399   1.1409   1.1412   1.1428
     1.1444   1.1447   1.1469   1.1598   1.1605   1.1610   1.1622   1.1676
     1.1772   1.1773   1.1784   1.1789   1.1815   1.1861   1.1923   1.1969
     1.2110   1.2121   1.2198   1.2206   1.2215   1.2228   1.2281   1.2324
     1.2456   1.2486   1.2548   1.2556   1.2582   1.2696   1.2810   1.2812
     1.2820   1.2889   1.2908   1.2915   1.2967   1.3009   1.3014   1.3017
     1.3020   1.3048   1.3051   1.3061   1.3174   1.3176   1.3186   1.3319
     1.3335   1.3340   1.3356   1.3358   1.3466   1.3505   1.3544   1.3692
     1.3803   1.3884   1.3886   1.4235   1.4244   1.4300   1.4332   1.4466
     1.4478   1.4506   1.4521   1.4561   1.4726   1.4955   1.4996   1.5009
     1.5023   1.5038   1.5096   1.5112   1.5119   1.7611   1.8235   1.8410
     1.9164   1.9830   1.9924   2.0003   2.0354   2.0544   2.0725   2.0750
     2.0760   2.0833   2.0900   2.0962   2.1176   2.1341   2.2815   2.2842
     2.3335   2.3451   2.3475   2.3550   2.3569   2.3695   2.5657   2.5943
     2.5988   2.6123   2.7485   3.0183   3.0292   3.0822   3.4051   3.4094
     3.5766   3.6877   3.6984   3.7184   3.7294   3.7338   3.7542   3.8045
     3.8320   3.8705   3.8757   3.8792   3.8868   3.8933   3.9021   3.9052
     3.9236   4.1248   4.1366   4.1452   4.1656   4.3400   4.5090   4.6198
     4.6350   4.7938   4.8515   5.1692   5.2823   5.3094   5.3444   5.4511
     5.5966   5.6111   5.6239   5.6457   5.7937   5.8008   6.1433   6.2542
     6.2648   6.2778   6.3026   6.3681   6.3751   6.3825   6.3909   6.4959
     6.5371   6.5799   6.6043   6.6773   6.6806   6.7101   6.7448   6.8590
     6.9232   6.9280   6.9763   6.9927   7.0139   7.2244   7.2317   7.4606
     7.4733   7.4785   7.5754   7.5801   7.5869   7.6078   7.7142   7.9864
     8.0687   8.1196   8.1659   8.2041   8.2052   8.2147   8.2353   8.2366
     8.2734   8.2779   8.2966   8.3057   8.3630   8.4268   8.4527   8.4768
     8.5046   8.5568   8.5600   8.5666   8.5774   8.7135   8.7143   8.7328
     8.7389   8.8002   8.8166   8.9666   9.0063   9.0169   9.0198   9.0224
     9.0292   9.1253   9.2120   9.2207   9.2676   9.2824   9.4494   9.4514
     9.6969   9.7042   9.7319   9.7593   9.7642   9.8463   9.8684   9.9105
     9.9112  10.0439  10.0550

          k = 0.0000-0.2165 0.0000 (256176 PWs)   bands (ev):

   -17.4524 -16.6467 -16.2788 -15.9585 -15.4701 -15.0903 -14.5874 -14.4448
   -14.3967 -14.3089 -14.0626 -13.9089 -13.8262 -13.7662 -13.3741 -12.6119
   -12.4630 -12.4302 -12.2693 -12.1541 -11.8343 -10.6783 -10.6106 -10.5504
   -10.2781  -9.4851  -9.4420  -9.2861  -9.1426  -9.0726  -8.9333  -8.4768
    -8.3417  -8.2308  -8.1392  -7.5226  -7.3567  -7.0607  -7.0337  -6.9758
    -6.9250  -6.8766  -6.8422  -6.2341  -6.1183  -6.0229  -6.0195  -5.5733
    -5.4340  -5.3262  -5.2504  -5.1957  -5.0923  -4.9798  -4.9751  -4.9724
    -4.8121  -4.7360  -4.6772  -4.6690  -4.5619  -4.2752  -4.1311  -3.8680
    -3.8372  -3.6980  -3.6485  -3.4526  -3.4407  -3.4399  -3.4366  -3.3300
    -3.3241  -3.2134  -3.1988  -3.1840  -3.1667  -3.1635  -3.1430  -3.0736
    -2.9902  -2.9593  -2.9572  -2.9210  -2.9001  -2.8468  -2.7820  -2.7704
    -2.7414  -2.7155  -2.7144  -2.7142  -2.7117  -2.7104  -2.6425  -2.5736
    -2.4909  -2.4526  -2.4202  -2.3771  -2.3687  -2.3655  -2.3446  -2.2837
    -2.2817  -2.2808  -2.2784  -2.1995  -2.1598  -2.1215  -2.1214  -2.0954
    -2.0953  -2.0106  -1.9976  -1.9888  -1.9792  -1.9328  -1.9119  -1.9017
    -1.8997  -1.8853  -1.8845  -1.8759  -1.8758  -1.8595  -1.8546  -1.7824
    -1.7769  -1.7611  -1.7588  -1.7316  -1.6901  -1.6097  -1.6009  -1.5954
    -1.5930  -1.5868  -1.5214  -1.5178  -1.5062  -1.5046  -1.4520  -1.4502
    -1.4201  -1.4151  -1.4128  -1.4097  -1.4090  -1.4077  -1.4036  -1.3915
    -1.3794  -1.3682  -1.3607  -1.3599  -1.3576  -1.3483  -1.3445  -1.3141
    -1.2957  -1.2793  -1.2700  -1.2675  -1.2480  -1.2228  -1.2227  -1.1850
    -1.1849  -1.1818  -1.1817  -1.1445  -1.1408  -1.1213  -1.1208  -1.1183
    -1.1153  -1.1136  -1.1125  -1.0784  -1.0633  -1.0617  -1.0540  -1.0534
    -1.0451  -1.0449  -1.0344  -1.0289  -1.0285  -1.0187  -0.9653  -0.9627
    -0.9600  -0.9540  -0.9535  -0.9471  -0.9461  -0.9322  -0.9317  -0.9236
    -0.9145  -0.9075  -0.8901  -0.8898  -0.8835  -0.8762  -0.7932  -0.7930
    -0.7846  -0.7845  -0.7727  -0.7673  -0.7672  -0.7431  -0.7405  -0.7388
    -0.7383  -0.7351  -0.7351  -0.7124  -0.7085  -0.6799  -0.6780  -0.6766
    -0.6759  -0.6754  -0.6743  -0.6701  -0.6688  -0.6604  -0.6393  -0.6387
    -0.6215  -0.6175  -0.6175  -0.6123  -0.5838  -0.5831  -0.5814  -0.5786
    -0.5748  -0.5717  -0.5669  -0.5668  -0.5559  -0.5169  -0.4969  -0.4965
    -0.4865  -0.4862  -0.4621  -0.4600  -0.4408  -0.4373  -0.4364  -0.4322
    -0.4313  -0.4284  -0.4218  -0.4093  -0.4059  -0.4010  -0.3993  -0.3966
    -0.3890  -0.3854  -0.3842  -0.3805  -0.3786  -0.3781  -0.3780  -0.3761
    -0.3741  -0.3699  -0.3661  -0.3420  -0.3412  -0.3374  -0.3371  -0.3266
    -0.2815  -0.2757  -0.2742  -0.2732  -0.2669  -0.2665  -0.2613  -0.2595
    -0.2588  -0.2490  -0.2360  -0.2300  -0.2269  -0.2225  -0.2221  -0.2166
    -0.2129  -0.2121  -0.2107  -0.2092  -0.2086  -0.2062  -0.1910  -0.1637
    -0.1519  -0.1514  -0.1508  -0.1476  -0.1391  -0.1283  -0.1272  -0.1268
    -0.1245  -0.1197  -0.1183  -0.1081  -0.1071  -0.1008  -0.0979  -0.0936
    -0.0796  -0.0735  -0.0730  -0.0585  -0.0583  -0.0568  -0.0562  -0.0398
    -0.0377  -0.0229  -0.0228  -0.0138  -0.0122  -0.0015   0.0002   0.0015
     0.0020   0.0412   0.0414   0.0521   0.0530   0.0597   0.0667   0.0675
     0.0676   0.0937   0.0947   0.1239   0.1295   0.1329   0.1347   0.1591
     0.1742   0.1900   0.2041   0.2347   0.2480   0.2483   0.2559   0.2563
     0.2755   0.2767   0.2768   0.2778   0.2876   0.3073   0.3159   0.3176
     0.3188   0.3194   0.3218   0.3229   0.3246   0.3247   0.3271   0.3395
     0.3425   0.3435   0.3445   0.3476   0.3510   0.3525   0.3545   0.3807
     0.3823   0.3837   0.3934   0.3937   0.3943   0.3947   0.4036   0.4036
     0.4198   0.4209   0.4216   0.4243   0.4251   0.4267   0.4276   0.4288
     0.4371   0.4434   0.4452   0.4459   0.4495   0.4502   0.4514   0.4547
     0.4557   0.4644   0.4731   0.5118   0.5125   0.5234   0.5237   0.5274
     0.5324   0.5338   0.5346   0.5387   0.5399   0.5417   0.5471   0.5492
     0.5496   0.5505   0.5527   0.5844   0.5907   0.5915   0.5916   0.5944
     0.6043   0.6084   0.6089   0.6091   0.6107   0.6272   0.6312   0.6400
     0.6403   0.6421   0.6467   0.6494   0.6502   0.6999   0.7012   0.7473
     0.7508   0.7532   0.7555   0.7579   0.7599   0.7649   0.7707   0.7752
     0.7765   0.7781   0.7831   0.7835   0.7874   0.7897   0.7907   0.7911
     0.8010   0.8059   0.8076   0.8086   0.8092   0.8131   0.8227   0.8277
     0.8327   0.8340   0.8341   0.8342   0.8345   0.8368   0.8396   0.8432
     0.8512   0.8569   0.8570   0.8574   0.8605   0.8618   0.8623   0.8745
     0.8784   0.8811   0.8876   0.8909   0.8929   0.8964   0.8970   0.9044
     0.9048   0.9053   0.9055   0.9062   0.9085   0.9461   0.9559   0.9663
     0.9870   0.9939   0.9942   1.0043   1.0105   1.0140   1.0166   1.0187
     1.0212   1.0358   1.0375   1.0466   1.0472   1.0538   1.0577   1.0587
     1.0605   1.0649   1.0661   1.0676   1.0684   1.0687   1.0687   1.0701
     1.0715   1.0766   1.0770   1.0841   1.0895   1.0964   1.0985   1.0997
     1.1020   1.1062   1.1070   1.1225   1.1346   1.1350   1.1374   1.1421
     1.1434   1.1442   1.1461   1.1548   1.1617   1.1661   1.1667   1.1692
     1.1773   1.1780   1.1799   1.1802   1.1823   1.1956   1.1969   1.1992
     1.2003   1.2056   1.2156   1.2157   1.2194   1.2375   1.2413   1.2445
     1.2459   1.2469   1.2478   1.2574   1.2591   1.2615   1.2617   1.2675
     1.2781   1.2782   1.2914   1.2928   1.2931   1.2935   1.3119   1.3133
     1.3139   1.3152   1.3174   1.3176   1.3189   1.3193   1.3452   1.3465
     1.3546   1.3550   1.3584   1.3658   1.3721   1.3854   1.3855   1.3863
     1.3886   1.3908   1.4004   1.4035   1.4057   1.4116   1.4527   1.4565
     1.4585   1.4639   1.5576   1.5598   1.5686   1.5855   1.5921   1.5965
     1.6022   1.6288   1.6507   1.6539   1.6580   1.6649   1.6728   1.6810
     1.6826   1.6972   1.7184   1.7228   1.7520   1.8193   1.9145   2.1521
     2.2508   2.2862   2.2944   2.2995   2.3167   2.3643   2.3668   2.4254
     2.4366   2.4435   2.4457   2.4565   2.4732   2.5733   2.5769   2.6359
     2.6454   2.6518   2.6612   2.7851   2.7902   2.8259   3.0377   3.0378
     3.0559   3.0962   3.3050   3.3373   3.5369   3.5478   3.6824   3.8643
     3.8813   3.9613   3.9800   4.0125   4.0269   4.1997   4.2121   4.2133
     4.2154   4.3787   4.3847   4.5303   4.5904   4.6247   4.6758   4.7338
     4.9324   4.9676   4.9761   5.0199   5.2211   5.2290   5.2308   5.2329
     5.2709   5.3212   5.4497   5.5336   5.6046   5.6957   5.7144   6.2091
     6.3140   6.3149   6.3297   6.3487   6.3505   6.3900   6.4328   6.5161
     6.5368   6.5400   6.7107   6.7185   6.8841   6.8997   6.9127   6.9486
     6.9567   6.9744   6.9924   7.0087   7.0163   7.0341   7.1675   7.2334
     7.2510   7.2979   7.3081   7.3902   7.4737   7.6879   7.7260   7.7426
     8.0184   8.0204   8.0301   8.0809   8.2119   8.2298   8.2918   8.3486
     8.3540   8.3831   8.3912   8.3989   8.4372   8.5720   8.5791   8.5873
     8.5916   8.5996   8.6321   8.6387   8.8081   8.8244   8.8614   8.8815
     8.9028   8.9824   9.0340   9.0454   9.0571   9.1511   9.1598   9.2452
     9.2467   9.2641   9.2674   9.3426   9.3883   9.3944   9.4159   9.4187
     9.4298   9.4488   9.5017   9.5591   9.5686   9.6538   9.6559   9.7561
     9.7566   9.8143  10.1186

          k = 0.2500 0.0000 0.0000 (256240 PWs)   bands (ev):

   -17.4099 -16.6071 -16.2220 -15.8842 -15.5851 -15.2281 -15.0372 -14.9819
   -14.6292 -14.1401 -13.8743 -13.6864 -13.3105 -13.2104 -13.1149 -12.8505
   -12.3789 -12.2645 -12.2041 -11.9118 -11.2164 -11.0396 -10.8385 -10.7529
   -10.3753 -10.2346  -9.9583  -9.8358  -9.5208  -9.3193  -9.1415  -8.7146
    -8.0286  -7.8161  -7.7253  -7.6205  -7.5718  -7.4727  -7.1181  -7.0014
    -6.3765  -6.2660  -6.1034  -6.0210  -5.9760  -5.9442  -5.5088  -5.4598
    -5.4451  -5.3426  -5.1841  -4.9790  -4.8363  -4.6951  -4.6059  -4.5921
    -4.5759  -4.5523  -4.5039  -4.4257  -4.2783  -4.2476  -4.1371  -4.1335
    -4.0709  -3.9880  -3.9771  -3.9740  -3.9128  -3.8388  -3.7153  -3.6695
    -3.6498  -3.5993  -3.5594  -3.4984  -3.4764  -3.3805  -3.3577  -3.3240
    -3.2606  -3.2100  -3.1533  -3.0714  -2.9940  -2.9341  -2.9338  -2.9011
    -2.8375  -2.7533  -2.7399  -2.7171  -2.6002  -2.5362  -2.4892  -2.4703
    -2.4429  -2.2657  -2.2345  -2.2328  -2.2172  -2.2166  -2.1787  -2.1478
    -2.1243  -2.0820  -2.0306  -2.0233  -1.9727  -1.9528  -1.9366  -1.9365
    -1.9284  -1.9279  -1.9087  -1.8956  -1.8798  -1.8695  -1.8518  -1.8455
    -1.8178  -1.7967  -1.7829  -1.7732  -1.7385  -1.7298  -1.7188  -1.7149
    -1.7140  -1.7136  -1.7129  -1.6882  -1.6593  -1.6438  -1.6390  -1.6363
    -1.6249  -1.6216  -1.5169  -1.5048  -1.4655  -1.4608  -1.4472  -1.4125
    -1.4038  -1.3820  -1.3794  -1.3774  -1.3725  -1.3608  -1.3580  -1.3433
    -1.3366  -1.3220  -1.3202  -1.3164  -1.3130  -1.2918  -1.2799  -1.2710
    -1.2674  -1.2665  -1.2617  -1.2486  -1.2459  -1.2443  -1.2297  -1.2087
    -1.2071  -1.1871  -1.1856  -1.1841  -1.1798  -1.1575  -1.1498  -1.1485
    -1.1450  -1.1416  -1.1365  -1.1300  -1.1251  -1.1169  -1.1154  -1.1141
    -1.1130  -1.1106  -1.1097  -1.1060  -1.0990  -1.0812  -1.0788  -1.0688
    -1.0471  -1.0398  -1.0365  -1.0313  -1.0083  -0.9890  -0.9864  -0.9504
    -0.9500  -0.9318  -0.9292  -0.9226  -0.9059  -0.9053  -0.8911  -0.8908
    -0.8880  -0.8831  -0.8787  -0.8753  -0.8582  -0.7532  -0.7410  -0.7365
    -0.7359  -0.7185  -0.7034  -0.7022  -0.7002  -0.6853  -0.6849  -0.6839
    -0.6834  -0.6721  -0.6622  -0.6620  -0.6612  -0.6567  -0.6458  -0.6231
    -0.6227  -0.6200  -0.6195  -0.6174  -0.6146  -0.5947  -0.5946  -0.5934
    -0.5731  -0.5368  -0.5337  -0.5335  -0.5318  -0.5271  -0.5228  -0.5149
    -0.5101  -0.4968  -0.4919  -0.4913  -0.4739  -0.4674  -0.4664  -0.4616
    -0.4498  -0.4292  -0.4284  -0.4266  -0.4250  -0.4178  -0.4151  -0.4096
    -0.4033  -0.4006  -0.3938  -0.3865  -0.3787  -0.3648  -0.3606  -0.3415
    -0.3337  -0.3325  -0.3309  -0.3285  -0.3186  -0.3157  -0.3146  -0.3141
    -0.2989  -0.2859  -0.2856  -0.2769  -0.2734  -0.2696  -0.2532  -0.2483
    -0.2456  -0.2446  -0.2126  -0.1999  -0.1974  -0.1961  -0.1912  -0.1888
    -0.1770  -0.1558  -0.1535  -0.1514  -0.1471  -0.1440  -0.1419  -0.1397
    -0.1347  -0.1303  -0.1290  -0.1273  -0.1270  -0.1244  -0.1211  -0.1076
    -0.1024  -0.0996  -0.0988  -0.0948  -0.0924  -0.0801  -0.0748  -0.0734
    -0.0593  -0.0559  -0.0357  -0.0218  -0.0210  -0.0178  -0.0172  -0.0152
     0.0012   0.0052   0.0059   0.0077   0.0095   0.0103   0.0401   0.0453
     0.0545   0.0755   0.1159   0.1185   0.1196   0.1230   0.1343   0.1363
     0.1370   0.1385   0.1404   0.1460   0.1468   0.1521   0.1527   0.1553
     0.1561   0.1638   0.1712   0.1734   0.1739   0.1762   0.1847   0.1872
     0.1915   0.1968   0.1984   0.2028   0.2032   0.2201   0.2286   0.2327
     0.2530   0.2672   0.2718   0.2779   0.2876   0.2887   0.3081   0.3088
     0.3094   0.3135   0.3194   0.3290   0.3434   0.3459   0.3484   0.3504
     0.3507   0.3576   0.3579   0.3608   0.3625   0.3808   0.3834   0.3915
     0.4010   0.4046   0.4077   0.4096   0.4111   0.4145   0.4177   0.4208
     0.4223   0.4392   0.4448   0.4457   0.4511   0.4551   0.4579   0.4616
     0.4633   0.4661   0.4761   0.4773   0.4822   0.4831   0.4845   0.5024
     0.5049   0.5222   0.5254   0.5296   0.5324   0.5358   0.5370   0.5428
     0.5526   0.5686   0.5718   0.5896   0.5934   0.6061   0.6066   0.6093
     0.6102   0.6123   0.6188   0.6313   0.6362   0.6416   0.6445   0.6458
     0.6530   0.6575   0.6683   0.6699   0.6796   0.6844   0.6865   0.6893
     0.6895   0.7069   0.7196   0.7225   0.7238   0.7257   0.7446   0.7464
     0.7550   0.7570   0.7584   0.7606   0.7614   0.7658   0.7679   0.7731
     0.7749   0.7873   0.8053   0.8155   0.8178   0.8210   0.8219   0.8239
     0.8348   0.8376   0.8557   0.8578   0.8582   0.8595   0.8644   0.8649
     0.8683   0.8797   0.8838   0.8844   0.8855   0.8866   0.8867   0.8879
     0.8890   0.8907   0.8954   0.8990   0.8995   0.9040   0.9088   0.9127
     0.9239   0.9259   0.9303   0.9328   0.9366   0.9367   0.9412   0.9426
     0.9566   0.9575   0.9642   0.9706   0.9736   0.9746   0.9771   0.9796
     0.9893   1.0008   1.0032   1.0059   1.0092   1.0163   1.0182   1.0215
     1.0241   1.0276   1.0336   1.0426   1.0515   1.0560   1.0589   1.0610
     1.0937   1.1017   1.1040   1.1088   1.1108   1.1125   1.1169   1.1194
     1.1199   1.1208   1.1263   1.1289   1.1358   1.1433   1.1453   1.1459
     1.1522   1.1570   1.1660   1.1667   1.1672   1.1701   1.1720   1.1766
     1.1794   1.1801   1.1834   1.1850   1.1872   1.1878   1.1902   1.2008
     1.2051   1.2138   1.2150   1.2178   1.2228   1.2255   1.2257   1.2267
     1.2303   1.2443   1.2464   1.2476   1.2480   1.2668   1.2677   1.2750
     1.2794   1.2856   1.2882   1.2892   1.2902   1.2934   1.2939   1.2976
     1.2992   1.3002   1.3015   1.3090   1.3102   1.3253   1.3308   1.3317
     1.3331   1.3342   1.3354   1.3364   1.3485   1.3501   1.3518   1.3577
     1.3619   1.3721   1.3747   1.3752   1.3809   1.3844   1.3877   1.4025
     1.4131   1.4196   1.4431   1.4483   1.4852   1.4899   1.4926   1.4967
     1.5295   1.5398   1.6089   1.6218   1.6297   1.6324   1.6436   1.6522
     1.6736   1.7041   1.7208   1.8962   1.9000   1.9318   1.9523   1.9559
     1.9638   2.0096   2.0615   2.1090   2.1413   2.1703   2.4258   2.4298
     2.4355   2.4437   2.6872   2.8417   2.8426   2.9016   3.0586   3.0598
     3.0848   3.0849   3.1566   3.1748   3.3390   3.3777   3.4582   3.4724
     3.4913   3.5057   3.5553   3.5769   3.5889   3.5971   3.6288   3.7361
     3.7503   3.7957   3.8598   3.8753   4.0633   4.0911   4.1074   4.1428
     4.1961   4.3481   4.4970   4.6240   4.6966   4.7000   4.7378   5.0553
     5.0910   5.0924   5.0973   5.1342   5.2407   5.3281   5.3548   5.3626
     5.3816   5.4503   5.4839   5.5217   5.5830   5.6058   5.6156   5.6287
     5.6693   5.7330   5.7371   5.8725   5.8752   5.8945   5.9128   6.0997
     6.3846   6.5604   6.5762   6.5901   6.6155   6.6267   6.6814   6.7850
     6.8096   6.8897   6.9061   6.9246   6.9280   6.9414   7.0880   7.1416
     7.1703   7.2191   7.2966   7.4207   7.4312   7.4470   7.4626   7.6520
     7.6873   7.6997   7.7690   7.8758   7.8829   7.8942   7.9269   7.9634
     8.0171   8.1472   8.1839   8.1901   8.1961   8.2757   8.2936   8.3322
     8.3688   8.4484   8.5165   8.5209   8.6166   8.8140   8.8195   8.8608
     8.9710   8.9894   9.0080   9.0559   9.0661   9.0880   9.1346   9.1493
     9.1607   9.1986   9.2045   9.3032   9.3247   9.3286   9.3389   9.4307
     9.5868   9.5969   9.6586   9.6977   9.8052   9.8580   9.8671   9.8889
     9.9031   9.9152   9.9232

          k = 0.2500-0.2165 0.0000 (256316 PWs)   bands (ev):

   -17.4096 -16.6157 -16.1978 -15.8957 -15.5284 -15.3590 -15.1606 -14.7704
   -14.4913 -14.2534 -13.9888 -13.6090 -13.3442 -13.2851 -13.0680 -12.8407
   -12.5775 -12.1261 -11.9396 -11.5426 -11.4460 -11.2740 -11.1235 -10.8637
   -10.6971  -9.9167  -9.6862  -9.4255  -9.3557  -9.1590  -9.0713  -8.7193
    -8.6396  -8.5193  -8.4096  -7.3072  -7.0478  -6.8605  -6.7217  -6.6628
    -6.5435  -6.5008  -6.3592  -6.1351  -6.0693  -5.8454  -5.8415  -5.4828
[...]
     1.0937   1.0994   1.1073   1.1105   1.1109   1.1170   1.1354   1.1374
     1.1441   1.1446   1.1569   1.1596   1.1642   1.1673   1.1758   1.1766
     1.1820   1.1891   1.1936   1.1966   1.1983   1.1999   1.2003   1.2030
     1.2121   1.2131   1.2140   1.2194   1.2239   1.2263   1.2348   1.2407
     1.2471   1.2480   1.2486   1.2492   1.2508   1.2529   1.2592   1.2602
     1.2684   1.2690   1.2719   1.2756   1.2810   1.2851   1.2883   1.2927
     1.3016   1.3039   1.3042   1.3047   1.3090   1.3090   1.3099   1.3117
     1.3177   1.3198   1.3200   1.3448   1.3449   1.3480   1.3523   1.3552
     1.3667   1.3689   1.3858   1.3895   1.3931   1.3944   1.4110   1.4172
     1.4191   1.4241   1.4247   1.4487   1.4536   1.4979   1.5111   1.5360
     1.5382   1.5656   1.6180   1.6223   1.6346   1.6476   1.6539   1.6572
     1.6606   1.6635   1.6881   1.7189   1.7299   1.9829   1.9881   1.9985
     2.0182   2.0355   2.0897   2.1568   2.1898   2.4439   2.4501   2.5325
     2.6517   2.6561   2.6599   2.6676   2.6757   2.7086   2.7203   2.7872
     2.8510   2.8561   2.9586   2.9759   3.4033   3.4155   3.4861   3.5010
     3.5631   3.5928   3.6963   3.7076   3.7151   3.7182   3.8227   3.8722
     3.9007   3.9341   4.0033   4.0315   4.0693   4.2412   4.2456   4.3172
     4.4303   4.4335   4.5118   4.5321   4.5463   4.6235   4.6722   4.8234
     4.8270   4.9178   4.9372   4.9838   5.0154   5.1434   5.1762   5.2507
     5.3008   5.3234   5.3273   5.3343   5.3390   5.4852   5.6238   5.6321
     5.7603   5.7823   5.8042   5.8284   5.8687   6.2311   6.4552   6.4744
     6.5295   6.5426   6.6224   6.6360   6.7240   6.7638   6.8049   6.9459
     6.9608   6.9714   6.9786   6.9924   7.0156   7.0807   7.0896   7.1235
     7.1915   7.2028   7.2122   7.2503   7.2854   7.3135   7.3180   7.5423
     7.5568   7.6328   7.6793   7.7880   7.8935   7.9079   7.9459   8.0588
     8.0770   8.1258   8.1366   8.1936   8.2189   8.4634   8.4695   8.5263
     8.5293   8.5700   8.5820   8.5930   8.6064   8.6793   8.8114   8.8323
     8.8336   8.8623   9.0020   9.0162   9.0310   9.0442   9.0599   9.0789
     9.0958   9.1336   9.1430   9.1671   9.1818   9.2214   9.2275   9.2361
     9.3104   9.3401   9.5051   9.5295   9.5914   9.6140   9.6846   9.8197
     9.8271   9.8683   9.9097

          k =-0.5000 0.0000 0.0000 (256496 PWs)   bands (ev):

   -17.3603 -16.5981 -15.9988 -15.8416 -15.6826 -15.6564 -15.3343 -14.8302
   -14.5873 -14.5812 -14.1381 -13.1358 -12.9109 -12.8267 -12.7047 -12.4779
   -12.2223 -12.0084 -11.9536 -11.8317 -11.7285 -11.2964 -11.2601 -10.9629
   -10.7069 -10.3316 -10.1947 -10.0853  -9.7978  -9.2149  -9.1116  -8.9957
    -8.9615  -7.8391  -7.6677  -7.6166  -7.4421  -7.4217  -7.3849  -6.2967
    -6.2526  -5.8869  -5.4530  -5.4450  -5.3568  -5.2112  -5.0683  -5.0420
    -4.9444  -4.9412  -4.9350  -4.9313  -4.9016  -4.8424  -4.8295  -4.7871
    -4.7356  -4.7215  -4.6402  -4.5702  -4.5567  -4.4679  -4.4293  -4.3756
    -4.1548  -4.1453  -4.0941  -4.0837  -4.0501  -3.8045  -3.7610  -3.7029
    -3.6826  -3.6493  -3.6071  -3.5580  -3.5559  -3.5547  -3.5524  -3.4763
    -3.4689  -3.4440  -3.4217  -3.1158  -3.0091  -2.9899  -2.9436  -2.9159
    -2.8628  -2.8502  -2.8433  -2.7506  -2.7279  -2.6622  -2.5638  -2.5474
    -2.5347  -2.4367  -2.4284  -2.4263  -2.4211  -2.0157  -2.0147  -2.0136
    -2.0135  -2.0120  -2.0109  -1.9707  -1.9484  -1.9068  -1.8901  -1.8785
    -1.8425  -1.8020  -1.7862  -1.7859  -1.7853  -1.7823  -1.7378  -1.7371
    -1.7366  -1.7356  -1.6729  -1.6411  -1.6310  -1.6220  -1.6216  -1.5806
    -1.5633  -1.5620  -1.5588  -1.5560  -1.5423  -1.5409  -1.5372  -1.5237
    -1.4940  -1.4937  -1.4890  -1.4867  -1.4856  -1.4768  -1.4762  -1.4713
    -1.4666  -1.4560  -1.4275  -1.4261  -1.4247  -1.4226  -1.4039  -1.4029
    -1.4028  -1.4005  -1.3390  -1.3388  -1.3213  -1.3184  -1.3162  -1.3161
    -1.3086  -1.2910  -1.2891  -1.2878  -1.2839  -1.2826  -1.2818  -1.2535
    -1.2433  -1.2415  -1.2410  -1.2405  -1.2209  -1.2202  -1.1924  -1.1905
    -1.1903  -1.1451  -1.1445  -1.1176  -1.1169  -1.1151  -1.1133  -1.1107
    -1.0965  -1.0869  -1.0852  -1.0847  -1.0827  -1.0809  -1.0745  -1.0673
    -1.0671  -1.0637  -1.0626  -1.0499  -1.0394  -1.0386  -0.9809  -0.9769
    -0.9750  -0.9741  -0.9361  -0.9301  -0.9295  -0.8473  -0.8466  -0.8453
    -0.8446  -0.8332  -0.8110  -0.8089  -0.8078  -0.8074  -0.8067  -0.8003
    -0.7932  -0.7803  -0.7695  -0.7672  -0.7669  -0.7633  -0.7586  -0.7541
    -0.7413  -0.7347  -0.7318  -0.7156  -0.6992  -0.6505  -0.6373  -0.6273
    -0.6132  -0.6103  -0.6012  -0.5918  -0.5916  -0.5768  -0.5647  -0.5467
    -0.5422  -0.5414  -0.5409  -0.5386  -0.5375  -0.5314  -0.5170  -0.5029
    -0.5022  -0.5012  -0.5004  -0.4823  -0.4651  -0.4644  -0.4638  -0.4633
    -0.4359  -0.4302  -0.4299  -0.4294  -0.4286  -0.4190  -0.4185  -0.3857
    -0.3856  -0.3834  -0.3828  -0.3747  -0.3680  -0.3595  -0.3482  -0.3405
    -0.3316  -0.3171  -0.2720  -0.2702  -0.2693  -0.2687  -0.2641  -0.2633
    -0.2619  -0.2611  -0.2376  -0.2246  -0.2242  -0.2200  -0.2113  -0.1883
    -0.1873  -0.1595  -0.1585  -0.1570  -0.1570  -0.1561  -0.1561  -0.1546
    -0.1542  -0.1540  -0.1530  -0.1521  -0.1516  -0.0887  -0.0803  -0.0723
    -0.0720  -0.0706  -0.0677  -0.0662  -0.0644  -0.0634  -0.0616  -0.0596
    -0.0576  -0.0549  -0.0540  -0.0510  -0.0489  -0.0482  -0.0474  -0.0391
    -0.0320  -0.0319  -0.0167  -0.0163  -0.0153  -0.0150  -0.0147  -0.0144
    -0.0091  -0.0068  -0.0064  -0.0059  -0.0027   0.0070   0.0078   0.0194
     0.0196   0.0203   0.0206   0.0356   0.0418   0.0491   0.0508   0.1202
     0.1493   0.1496   0.1519   0.1531   0.1533   0.1836   0.1844   0.1855
     0.1859   0.1966   0.1993   0.2027   0.2039   0.2083   0.2089   0.2105
     0.2111   0.2147   0.2149   0.2178   0.2182   0.2203   0.2246   0.2353
     0.2373   0.2382   0.2449   0.2507   0.2527   0.2533   0.2587   0.2635
     0.2639   0.2696   0.2716   0.2992   0.3099   0.3489   0.3544   0.3580
     0.3584   0.3701   0.3717   0.3841   0.3855   0.3901   0.3909   0.3919
     0.3938   0.3959   0.3978   0.3993   0.3999   0.4004   0.4038   0.4043
     0.4049   0.4092   0.4102   0.4124   0.4138   0.4302   0.4341   0.4495
     0.4498   0.4528   0.4628   0.4662   0.4756   0.4844   0.4855   0.4868
     0.4902   0.4955   0.4959   0.4962   0.4994   0.5000   0.5019   0.5127
     0.5157   0.5186   0.5189   0.5326   0.5342   0.5350   0.5358   0.5656
     0.5701   0.5712   0.5719   0.5753   0.5781   0.5868   0.5920   0.6038
     0.6179   0.6268   0.6284   0.6302   0.6314   0.6331   0.6342   0.6354
     0.6697   0.7013   0.7026   0.7068   0.7071   0.7079   0.7082   0.7121
     0.7128   0.7163   0.7166   0.7192   0.7208   0.7294   0.7304   0.7490
     0.7504   0.7533   0.7540   0.7550   0.7698   0.7702   0.7709   0.7712
     0.7735   0.7738   0.7740   0.8119   0.8132   0.8144   0.8157   0.8254
     0.8616   0.8772   0.8786   0.8801   0.8805   0.8924   0.9092   0.9107
     0.9114   0.9133   0.9160   0.9277   0.9294   0.9399   0.9424   0.9451
     0.9490   0.9583   0.9664   0.9751   0.9772   0.9826   0.9830   0.9838
     0.9851   0.9865   0.9885   0.9918   0.9935   0.9996   1.0011   1.0017
     1.0020   1.0023   1.0037   1.0055   1.0065   1.0402   1.0427   1.0429
     1.0457   1.0470   1.0604   1.0699   1.0762   1.0781   1.0793   1.0798
     1.0832   1.0916   1.0956   1.0981   1.1072   1.1076   1.1082   1.1091
     1.1172   1.1184   1.1189   1.1222   1.1235   1.1290   1.1380   1.1451
     1.1496   1.1645   1.1657   1.1744   1.1791   1.1812   1.1816   1.1823
     1.1824   1.1829   1.1830   1.1905   1.1938   1.1953   1.1957   1.1968
     1.1983   1.1985   1.1998   1.2038   1.2075   1.2076   1.2083   1.2086
     1.2120   1.2145   1.2152   1.2295   1.2309   1.2453   1.2529   1.2542
     1.2557   1.2568   1.2579   1.2592   1.2624   1.2675   1.2757   1.2802
     1.2810   1.2816   1.2944   1.2946   1.3019   1.3037   1.3149   1.3160
     1.3162   1.3172   1.3329   1.3343   1.3383   1.3409   1.3416   1.3432
     1.3439   1.3440   1.3448   1.3513   1.3614   1.3641   1.3661   1.3794
     1.3797   1.3801   1.3805   1.3809   1.3876   1.3936   1.3999   1.4394
     1.4426   1.4508   1.4724   1.4727   1.4762   1.4783   1.5054   1.8785
     1.8925   1.9032   1.9064   1.9603   2.0398   2.0894   2.1184   2.1298
     2.1478   2.1491   2.1501   2.1597   2.1735   2.4363   2.5008   2.5059
     2.5160   2.5988   2.6945   2.7018   2.7051   2.7624   3.0487   3.0503
     3.0542   3.0551   3.3421   3.3471   3.6217   3.6439   3.6466   3.6504
     3.7653   3.7933   3.7990   3.8073   3.9191   3.9365   3.9394   3.9421
     4.0367   4.0921   4.1149   4.3176   4.4355   4.5859   4.6480   4.6553
     4.6601   4.6619   4.6908   4.6924   4.6988   4.7647   4.8349   4.8827
     4.8831   4.9147   4.9209   4.9221   4.9258   4.9461   4.9481   4.9744
     4.9906   5.0519   5.1402   5.2810   5.3609   5.4186   5.4585   5.5208
     5.5925   5.6157   5.7086   5.8583   5.8610   5.8756   5.8810   5.9095
     5.9287   5.9376   5.9525   6.0473   6.1790   6.3350   6.3566   6.3635
     6.3778   6.3938   6.4138   6.9433   6.9788   6.9811   6.9954   7.0020
     7.0103   7.3368   7.4677   7.4713   7.4735   7.4753   7.4782   7.4869
     7.5257   7.6482   7.6802   7.7039   7.7604   7.7668   7.7727   7.8142
     7.9290   7.9329   7.9477   7.9844   8.0359   8.0509   8.0657   8.2450
     8.3525   8.3923   8.7069   8.7080   8.7128   8.7155   8.8255   8.8785
     8.8852   8.9436   8.9572   8.9607   8.9670   8.9689   8.9889   9.0200
     9.1284   9.1321   9.2496   9.3346   9.3379   9.3982   9.4072   9.4151
     9.4201   9.4264   9.4287   9.4767   9.4792   9.4877   9.5199   9.8857
     9.9048   9.9152   9.9224

          k =-0.5000-0.2165 0.0000 (256328 PWs)   bands (ev):

   -17.3602 -16.5991 -15.9716 -15.9019 -15.7562 -15.4492 -15.2215 -15.2107
   -14.7739 -14.0299 -13.7983 -13.7747 -13.4607 -12.6857 -12.3297 -12.0889
   -12.0589 -11.9205 -11.7796 -11.7260 -11.6479 -11.6038 -11.5154 -11.4441
   -11.1946 -10.0846  -9.8804  -9.8059  -9.7714  -9.2323  -8.9233  -8.8389
    -8.7775  -8.2875  -8.2444  -8.0629  -8.0453  -6.5697  -6.3501  -6.1451
    -5.9921  -5.8722  -5.6731  -5.4255  -5.3905  -5.3768  -5.3245  -5.3182
    -5.3169  -5.3142  -5.2484  -5.1060  -5.0849  -4.9202  -4.5852  -4.5171
    -4.4658  -4.4365  -4.4093  -4.3404  -4.3374  -4.3343  -4.3306  -4.2976
    -4.2613  -4.2057  -4.1326  -4.0162  -3.9867  -3.9488  -3.9144  -3.8617
    -3.8227  -3.7689  -3.7495  -3.7035  -3.6805  -3.6582  -3.5795  -3.5490
    -3.5084  -3.2857  -3.1773  -3.1748  -3.1124  -2.7187  -2.7178  -2.7145
    -2.7139  -2.7082  -2.6719  -2.6550  -2.6502  -2.6401  -2.6335  -2.5164
    -2.4359  -2.3605  -2.2532  -2.2396  -2.2334  -2.2225  -2.2099  -2.1746
    -2.1555  -2.1432  -2.1380  -2.1305  -2.0992  -2.0099  -1.9403  -1.9393
    -1.9364  -1.9346  -1.9304  -1.8580  -1.8440  -1.7132  -1.6848  -1.6331
    -1.6286  -1.6281  -1.6278  -1.6277  -1.6237  -1.5907  -1.5891  -1.5864
    -1.5797  -1.5680  -1.5666  -1.5658  -1.5656  -1.5218  -1.5206  -1.5204
    -1.5195  -1.5189  -1.5186  -1.5127  -1.5113  -1.4927  -1.4926  -1.4924
    -1.4922  -1.4471  -1.4457  -1.4421  -1.4416  -1.3902  -1.3799  -1.3704
    -1.3634  -1.3582  -1.3255  -1.3253  -1.3249  -1.3247  -1.3201  -1.3087
    -1.3084  -1.3075  -1.2838  -1.2600  -1.2553  -1.2549  -1.2541  -1.2504
    -1.2501  -1.2500  -1.2480  -1.2386  -1.2198  -1.2153  -1.1957  -1.1954
    -1.1881  -1.1873  -1.1783  -1.1780  -1.1734  -1.1723  -1.1719  -1.1709
    -1.1707  -1.1703  -1.1648  -1.1443  -1.1110  -1.0425  -1.0200  -1.0194
    -1.0178  -1.0171  -0.9879  -0.9875  -0.9869  -0.9867  -0.9247  -0.9068
    -0.9062  -0.9050  -0.9038  -0.8989  -0.8978  -0.8970  -0.8962  -0.8955
    -0.8934  -0.8682  -0.8379  -0.8346  -0.8337  -0.8318  -0.8262  -0.8244
    -0.8233  -0.8217  -0.8071  -0.8042  -0.8006  -0.7976  -0.7593  -0.7115
    -0.7087  -0.7073  -0.7044  -0.7038  -0.7013  -0.6982  -0.6358  -0.6341
    -0.6334  -0.6315  -0.6065  -0.5838  -0.5830  -0.5822  -0.5781  -0.5634
    -0.5633  -0.5627  -0.5625  -0.5363  -0.5341  -0.5331  -0.5247  -0.5245
    -0.5229  -0.5222  -0.5045  -0.4895  -0.4876  -0.4860  -0.4338  -0.4106
    -0.4104  -0.4060  -0.4057  -0.3920  -0.3916  -0.3911  -0.3907  -0.3749
    -0.3745  -0.3745  -0.3701  -0.2919  -0.2910  -0.2902  -0.2899  -0.2882
    -0.2871  -0.2868  -0.2860  -0.2843  -0.2840  -0.2822  -0.2802  -0.2458
    -0.2457  -0.2456  -0.2455  -0.2346  -0.2345  -0.2343  -0.2341  -0.2296
    -0.2290  -0.2285  -0.2276  -0.1615  -0.1611  -0.1610  -0.1592  -0.1370
    -0.1365  -0.1343  -0.1331  -0.0918  -0.0876  -0.0821  -0.0814  -0.0742
    -0.0587  -0.0565  -0.0541  -0.0532  -0.0514  -0.0504  -0.0471  -0.0462
    -0.0455  -0.0429  -0.0420  -0.0410  -0.0406  -0.0352  -0.0346  -0.0344
    -0.0324  -0.0286  -0.0270  -0.0264  -0.0245  -0.0244  -0.0114  -0.0108
    -0.0105  -0.0088   0.0166   0.0170   0.0176   0.0178   0.0255   0.0262
     0.0273   0.0294   0.0516   0.0762   0.0768   0.0771   0.0779   0.1084
     0.1091   0.1098   0.1104   0.1508   0.1767   0.1873   0.1889   0.1911
     0.1936   0.1967   0.1981   0.2047   0.2082   0.2090   0.2105   0.2146
     0.2185   0.2207   0.2225   0.2233   0.2302   0.2308   0.2319   0.2347
     0.2352   0.2367   0.2380   0.2413   0.2464   0.2533   0.2564   0.2716
     0.2741   0.3139   0.3149   0.3172   0.3202   0.3206   0.3219   0.3248
     0.3267   0.3361   0.3366   0.3368   0.3376   0.3663   0.3708   0.3738
     0.3748   0.3754   0.3761   0.3816   0.3819   0.4126   0.4178   0.4184
     0.4200   0.4225   0.4274   0.4323   0.4328   0.4330   0.4344   0.4358
     0.4370   0.4406   0.4409   0.4412   0.4444   0.4549   0.4553   0.4574
     0.4586   0.4590   0.4689   0.4746   0.4757   0.5284   0.5354   0.5404
     0.5434   0.5460   0.5471   0.5484   0.5491   0.5503   0.5511   0.5563
     0.5579   0.5626   0.5690   0.5749   0.5823   0.5940   0.5945   0.5953
     0.5962   0.5966   0.5974   0.5975   0.6002   0.6365   0.6437   0.6489
     0.6496   0.6706   0.6763   0.6776   0.6793   0.6803   0.6902   0.6996
     0.7071   0.7128   0.7139   0.7143   0.7159   0.7382   0.7396   0.7414
     0.7439   0.7896   0.7909   0.7914   0.7922   0.8215   0.8230   0.8237
     0.8244   0.8395   0.8672   0.8748   0.8760   0.8781   0.8826   0.8932
     0.8967   0.8991   0.9033   0.9048   0.9065   0.9099   0.9106   0.9106
     0.9111   0.9120   0.9140   0.9150   0.9167   0.9174   0.9227   0.9296
     0.9406   0.9419   0.9439   0.9458   0.9467   0.9484   0.9492   0.9521
     0.9553   0.9562   0.9631   0.9651   0.9665   0.9858   0.9878   0.9903
     0.9923   0.9948   0.9980   1.0013   1.0047   1.0087   1.0115   1.0125
     1.0149   1.0436   1.0502   1.0565   1.0581   1.0609   1.0618   1.0634
     1.0666   1.0855   1.0871   1.0881   1.0883   1.0919   1.1037   1.1059
     1.1095   1.1133   1.1174   1.1287   1.1304   1.1338   1.1359   1.1364
     1.1370   1.1443   1.1453   1.1460   1.1473   1.1514   1.1531   1.1538
     1.1543   1.1912   1.2172   1.2177   1.2179   1.2183   1.2197   1.2198
     1.2209   1.2210   1.2259   1.2296   1.2311   1.2338   1.2352   1.2395
     1.2402   1.2447   1.2486   1.2500   1.2503   1.2515   1.2546   1.2553
     1.2570   1.2603   1.2605   1.2621   1.2626   1.2633   1.2712   1.2738
     1.2787   1.2807   1.2824   1.2826   1.2838   1.3153   1.3160   1.3161
     1.3163   1.3285   1.3308   1.3312   1.3329   1.3372   1.3438   1.3457
     1.3481   1.3600   1.3666   1.3680   1.3695   1.3928   1.4163   1.4241
     1.4316   1.4386   1.4388   1.4396   1.4400   1.4657   1.4684   1.4696
     1.4711   1.4781   1.4796   1.4801   1.4823   1.4833   1.4845   1.4857
     1.4887   1.6967   1.6992   1.7018   1.7026   1.9583   2.0604   2.1983
     2.2231   2.2250   2.2499   2.3860   2.4233   2.4256   2.4347   2.5213
     2.6638   2.6726   2.6744   2.7440   2.9681   2.9789   2.9855   3.0048
     3.3165   3.3180   3.3196   3.3231   3.5033   3.5110   3.5174   3.5185
     3.7852   3.7943   3.7950   3.7961   4.0083   4.0896   4.0949   4.0985
     4.1182   4.2236   4.2324   4.2505   4.2647   4.4376   4.4403   4.4449
     4.4479   4.4707   4.4899   4.5067   4.5810   4.7707   4.8101   4.8348
     4.8611   4.9464   4.9766   5.0380   5.0414   5.0455   5.0544   5.0937
     5.1352   5.1530   5.2182   5.2469   5.2552   5.2600   5.2718   5.3580
     5.4963   5.6145   5.6180   5.6197   5.6212   5.6425   5.7109   5.7644
     5.7955   5.7986   5.8360   6.5971   6.6328   6.6608   6.6668   6.6707
     6.9845   6.9945   6.9989   7.0087   7.0269   7.0343   7.0393   7.0735
     7.1788   7.1966   7.2017   7.2184   7.2363   7.2411   7.2448   7.2681
     7.4466   7.5274   7.5368   7.5877   7.6106   7.8293   7.8700   7.8818
     7.8849   7.8954   7.9323   8.0949   8.1036   8.1101   8.1349   8.3939
     8.4120   8.6193   8.7028   8.7632   8.7661   8.7692   8.7700   8.7973
     8.8027   8.8077   8.8176   8.8356   8.8396   8.8404   8.8426   8.9749
     9.0830   9.0838   9.1166   9.1317   9.4113   9.4167   9.4381   9.4565
     9.4702   9.4797   9.4866   9.5056   9.5407   9.5762   9.5889   9.8593
     9.9482   9.9647   9.9813

     the Fermi energy is     3.1881 ev

!    total energy              =  -12738.84343418 Ry
     Harris-Foulkes estimate   =  -12738.84343431 Ry
     estimated scf accuracy    <          5.4E-09 Ry

     The total energy is the sum of the following terms:

     one-electron contribution = -109350.51063086 Ry
     hartree contribution      =   56034.39621454 Ry
     xc contribution           =   -4454.68910737 Ry
     ewald contribution        =   45038.36796466 Ry
     Dispersion Correction     =      -3.00718000 Ry
     smearing contrib. (-TS)   =      -3.40069515 Ry

     total magnetization       =    -0.00 Bohr mag/cell
     absolute magnetization    =     0.00 Bohr mag/cell

     convergence has been achieved in  47 iterations

     Writing output data file gc.save
 
     init_run     :    197.36s CPU    210.80s WALL (       1 calls)
     electrons    :  25406.63s CPU  27115.12s WALL (       1 calls)

     Called by init_run:
     wfcinit      :    193.90s CPU    206.95s WALL (       1 calls)
     potinit      :      0.52s CPU      0.58s WALL (       1 calls)

     Called by electrons:
     c_bands      :  23444.91s CPU  24977.69s WALL (      47 calls)
     sum_band     :   1753.52s CPU   1897.02s WALL (      47 calls)
     v_of_rho     :      6.74s CPU      8.24s WALL (      48 calls)
     newd         :     15.22s CPU     21.75s WALL (      48 calls)
     mix_rho      :    186.01s CPU    209.74s WALL (      47 calls)

     Called by c_bands:
     init_us_2    :     77.79s CPU     78.75s WALL (    1140 calls)
     cegterg      :  23100.81s CPU  24620.97s WALL (     573 calls)

     Called by sum_band:
     sum_band:bec :     11.54s CPU     12.61s WALL (     564 calls)
     addusdens    :     19.50s CPU     25.46s WALL (      47 calls)

     Called by *egterg:
     h_psi        :   8439.58s CPU   9105.31s WALL (    4038 calls)
     s_psi        :   2000.66s CPU   2022.84s WALL (    4038 calls)
     g_psi        :     20.47s CPU     20.49s WALL (    3453 calls)
     cdiaghg      :   6920.39s CPU   7180.27s WALL (    4017 calls)

     Called by h_psi:
     add_vuspsi   :   2010.41s CPU   2036.06s WALL (    4038 calls)

     General routines
     calbec       :   2896.09s CPU   2917.14s WALL (    4602 calls)
     fft          :      7.05s CPU      8.20s WALL (    1196 calls)
     ffts         :    108.20s CPU    122.60s WALL (   27354 calls)
     fftw         :   4935.09s CPU   5490.41s WALL ( 2683432 calls)
     davcio       :      0.63s CPU     12.43s WALL (      12 calls)
 
     Parallel routines
     fft_scatter  :   3190.92s CPU   3463.63s WALL ( 2711982 calls)
 
     PWSCF        :     7h 6m CPU        7h35m WALL

 
   This run was terminated on:  18:16:35   9Apr2017            

=------------------------------------------------------------------------------=
   JOB DONE.
=------------------------------------------------------------------------------=
