
     Program PWSCF v.5.4.0 starts on 20Apr2017 at 14:17:39 

     This program is part of the open-source Quantum ESPRESSO suite
     for quantum simulation of materials; please cite
         "P. Giannozzi et al., J. Phys.:Condens. Matter 21 395502 (2009);
          URL http://www.quantum-espresso.org", 
     in publications or presentations arising from this work. More details at
     http://www.quantum-espresso.org/quote

     Parallel version (MPI & OpenMP), running on      56 processor cores
     Number of MPI processes:                56
     Threads/MPI process:                     1
     R & G space division:  proc/nbgrp/npool/nimage =      56
     Waiting for input...
     Reading input from standard input
Warning: card &IONS ignored
Warning: card / ignored

     Current dimensions of program PWSCF are:
     Max number of different atomic species (ntypx) = 10
     Max number of k-points (npk) =  40000
     Max angular momentum in pseudopotentials (lmaxx) =  3

     -------------------------------------
     Parameters for Dispersion Correction:
     -------------------------------------
       atom      VdW radius       C_6     

        Cu         2.952        374.666
        C_h        2.744         60.710
        C          2.744         60.710

     Subspace diagonalization in iterative solution of the eigenvalue problem:
     one sub-group per band group will be used
     scalapack distributed-memory algorithm (size of sub-group:  5*  5 procs)

 
     Parallelization info
     --------------------
     sticks:   dense  smooth     PW     G-vecs:    dense   smooth      PW
     Min         204     204     54                36612    36612    4962
     Max         205     205     55                36617    36617    4968
     Sum       11433   11433   3039              2050409  2050409  278033
 


     bravais-lattice index     =            0
     lattice parameter (alat)  =      13.9425  a.u.
     unit-cell volume          =   21209.0878 (a.u.)^3
     number of atoms/cell      =          156
     number of atomic types    =            3
     number of electrons       =      1380.00
     number of Kohn-Sham states=          828
     kinetic-energy cutoff     =      80.0000  Ry
     charge density cutoff     =     320.0000  Ry
     convergence threshold     =      1.0E-08
     mixing beta               =       0.7000
     number of iterations used =            8  local-TF  mixing
     Exchange-correlation      =  SLA  PW   PBX  PBC ( 1  4  3  4 0 0)

     celldm(1)=  13.942539  celldm(2)=   0.000000  celldm(3)=   0.000000
     celldm(4)=   0.000000  celldm(5)=   0.000000  celldm(6)=   0.000000

     crystal axes: (cart. coord. in units of alat)
               a(1) = (   1.000000   0.000000   0.000000 )  
               a(2) = (   0.000000   2.309401   0.000000 )  
               a(3) = (   0.000000   0.000000   3.388418 )  

     reciprocal axes: (cart. coord. in units 2 pi/alat)
               b(1) = (  1.000000  0.000000  0.000000 )  
               b(2) = (  0.000000  0.433013  0.000000 )  
               b(3) = (  0.000000  0.000000  0.295123 )  


     PseudoPot. # 1 for Cu read from file:
     /home/549/hxw549/Short/pseudopotentials/Cu.pbe-n-van_ak.UPF
     MD5 check sum: 601f7c30f7467666bec936e0661ce3e1
     Pseudo is Ultrasoft + core correction, Zval = 11.0
     Generated by new atomic code, or converted to UPF format
     Using radial grid of  867 points,  6 beta functions with: 
                l(1) =   0
                l(2) =   0
                l(3) =   1
                l(4) =   1
                l(5) =   2
                l(6) =   2
     Q(r) pseudized with  8 coefficients,  rinner =    1.400   1.400   1.400
                                                       1.400   1.400

     PseudoPot. # 2 for C  read from file:
     /home/549/hxw549/Short/pseudopotentials/C.star1s-pbe-mt_gipaw.UPF
     MD5 check sum: ef0cb3dee31bd9e4ba2a832a2c716264
     Pseudo is Norm-conserving, Zval =  5.0
     Generated by new atomic code, or converted to UPF format
     Using radial grid of 1073 points,  1 beta functions with: 
                l(1) =   0

     PseudoPot. # 3 for C  read from file:
     /home/549/hxw549/Short/pseudopotentials/C.pbe-mt_gipaw.UPF
     MD5 check sum: 5ac2f21f2c440b14befe521540822c15
     Pseudo is Norm-conserving, Zval =  4.0
     Generated by new atomic code, or converted to UPF format
     Using radial grid of 1073 points,  1 beta functions with: 
                l(1) =   0

     atomic species   valence    mass     pseudopotential
        Cu            11.00    63.54600     Cu( 1.00)
        C_h            5.00    12.01070     C ( 1.00)
        C              4.00    12.01070     C ( 1.00)

     No symmetry found



   Cartesian axes

     site n.     atom                  positions (alat units)
         1           Cu  tau(   1) = (  -0.0000549   0.0038944   0.8895039  )
         2           Cu  tau(   2) = (   0.2498561   0.2364069   0.8931545  )
         3           Cu  tau(   3) = (   0.4999834   0.0040272   0.8891076  )
         4           Cu  tau(   4) = (   0.7500655   0.2365774   0.8930538  )
         5           Cu  tau(   5) = (  -0.0000562   0.4680485   0.8986857  )
         6           Cu  tau(   6) = (   0.2499204   0.6979601   0.9023997  )
         7           Cu  tau(   7) = (   0.4999770   0.4680600   0.8986438  )
         8           Cu  tau(   8) = (   0.7499919   0.6979170   0.9024188  )
         9           Cu  tau(   9) = (  -0.0000103   0.9272203   0.9035556  )
        10           Cu  tau(  10) = (   0.2499589   1.1564729   0.9037066  )
        11           Cu  tau(  11) = (   0.4999145   0.9271629   0.9034395  )
        12           Cu  tau(  12) = (   0.7499463   1.1564243   0.9036188  )
        13           Cu  tau(  13) = (  -0.0001139   1.3860246   0.9027183  )
        14           Cu  tau(  14) = (   0.2498801   1.6163418   0.8986746  )
        15           Cu  tau(  15) = (   0.5000280   1.3859803   0.9024834  )
        16           Cu  tau(  16) = (   0.7500312   1.6160597   0.8985479  )
        17           Cu  tau(  17) = (   0.0000423   1.8478793   0.8927838  )
        18           Cu  tau(  18) = (   0.2500275   2.0802463   0.8891797  )
        19           Cu  tau(  19) = (   0.4998824   1.8476458   0.8930400  )
        20           Cu  tau(  20) = (   0.7499023   2.0802466   0.8892023  )
        21           Cu  tau(  21) = (  -0.0000006   0.2314407   1.1418707  )
        22           Cu  tau(  22) = (   0.2498892   0.0016921   1.1383038  )
        23           Cu  tau(  23) = (   0.4999305   0.2313254   1.1417344  )
        24           Cu  tau(  24) = (   0.7500314   0.0017233   1.1384329  )
        25           Cu  tau(  25) = (  -0.0000709   0.6957747   1.1517252  )
        26           Cu  tau(  26) = (   0.2500244   0.4632860   1.1474081  )
        27           Cu  tau(  27) = (   0.4999876   0.6957836   1.1516684  )
        28           Cu  tau(  28) = (   0.7498984   0.4632432   1.1473117  )
        29           Cu  tau(  29) = (  -0.0000630   1.1568679   1.1543012  )
        30           Cu  tau(  30) = (   0.2499277   0.9268448   1.1543638  )
        31           Cu  tau(  31) = (   0.4999724   1.1568693   1.1541867  )
        32           Cu  tau(  32) = (   0.7500027   0.9269784   1.1543223  )
        33           Cu  tau(  33) = (  -0.0000082   1.6210599   1.1470060  )
        34           Cu  tau(  34) = (   0.2498596   1.3881448   1.1514236  )
        35           Cu  tau(  35) = (   0.4999174   1.6209561   1.1473344  )
        36           Cu  tau(  36) = (   0.7500490   1.3882920   1.1514093  )
        37           Cu  tau(  37) = (  -0.0001368   2.0821940   1.1384383  )
        38           Cu  tau(  38) = (   0.2500917   1.8528039   1.1417247  )
        39           Cu  tau(  39) = (   0.5000439   2.0824138   1.1382179  )
        40           Cu  tau(  40) = (   0.7498259   1.8528944   1.1417626  )
        41           Cu  tau(  41) = (  -0.0001378   0.0006883   1.3919862  )
        42           Cu  tau(  42) = (   0.2499845   0.2287190   1.3929011  )
        43           Cu  tau(  43) = (   0.5000483   0.0010692   1.3920855  )
        44           Cu  tau(  44) = (   0.7499379   0.2286829   1.3928022  )
        45           Cu  tau(  45) = (   0.0000062   0.4584630   1.3955340  )
        46           Cu  tau(  46) = (   0.2499963   0.6914661   1.3999671  )
        47           Cu  tau(  47) = (   0.4999185   0.4580848   1.3951344  )
        48           Cu  tau(  48) = (   0.7499533   0.6912121   1.4000695  )
        49           Cu  tau(  49) = (  -0.0000360   0.9252124   1.4043059  )
        50           Cu  tau(  50) = (   0.2499282   1.1590389   1.4037961  )
        51           Cu  tau(  51) = (   0.4999469   0.9251753   1.4044409  )
        52           Cu  tau(  52) = (   0.7500253   1.1590458   1.4042624  )
        53           Cu  tau(  53) = (  -0.0000739   1.3928481   1.3993409  )
        54           Cu  tau(  54) = (   0.2500691   1.6257625   1.3946926  )
        55           Cu  tau(  55) = (   0.4999884   1.3926344   1.3994945  )
        56           Cu  tau(  56) = (   0.7498314   1.6259215   1.3947318  )
        57           Cu  tau(  57) = (  -0.0000489   1.8554057   1.3928460  )
        58           Cu  tau(  58) = (   0.2499235   2.0832681   1.3919605  )
        59           Cu  tau(  59) = (   0.4999390   1.8556516   1.3922941  )
        60           Cu  tau(  60) = (   0.7499778   2.0829845   1.3920999  )
        61           Cu  tau(  61) = (  -0.0000594   0.2275935   1.6471819  )
        62           Cu  tau(  62) = (   0.2501001   0.0001540   1.6468201  )
        63           Cu  tau(  63) = (   0.4999427   0.2275226   1.6475724  )
        64           Cu  tau(  64) = (   0.7498079   0.0002051   1.6469932  )
        65           Cu  tau(  65) = (   0.0000357   0.6849101   1.6488244  )
        66           Cu  tau(  66) = (   0.2501027   0.4550203   1.6471545  )
        67           Cu  tau(  67) = (   0.4999170   0.6842384   1.6480417  )
        68           Cu  tau(  68) = (   0.7498109   0.4548594   1.6471270  )
        69           Cu  tau(  69) = (  -0.0000527   1.1637303   1.6506847  )
        70           Cu  tau(  70) = (   0.2501509   0.9216146   1.6509466  )
        71           Cu  tau(  71) = (   0.5000517   1.1629157   1.6515761  )
        72           Cu  tau(  72) = (   0.7497688   0.9213551   1.6514686  )
        73           Cu  tau(  73) = (  -0.0001140   1.6285458   1.6471528  )
        74           Cu  tau(  74) = (   0.2500948   1.3996204   1.6478345  )
        75           Cu  tau(  75) = (   0.5000089   1.6292832   1.6462570  )
        76           Cu  tau(  76) = (   0.7498648   1.4001992   1.6480762  )
        77           Cu  tau(  77) = (  -0.0001698   2.0839327   1.6471420  )
        78           Cu  tau(  78) = (   0.2497414   1.8566981   1.6467677  )
        79           Cu  tau(  79) = (   0.5001041   2.0836196   1.6465065  )
        80           Cu  tau(  80) = (   0.7501418   1.8567086   1.6473694  )
        81           Cu  tau(  81) = (   0.0000606   0.0005566   1.9026502  )
        82           Cu  tau(  82) = (   0.2503732   0.2248242   1.9015096  )
        83           Cu  tau(  83) = (   0.4998202  -0.0005144   1.9024713  )
        84           Cu  tau(  84) = (   0.7495713   0.2246990   1.9014783  )
        85           Cu  tau(  85) = (   0.0000338   0.4467760   1.9043256  )
        86           Cu  tau(  86) = (   0.2493514   0.6728710   1.9029509  )
        87           Cu  tau(  87) = (   0.4998802   0.4455824   1.9021670  )
        88           Cu  tau(  88) = (   0.7505658   0.6721677   1.9028605  )
        89           Cu  tau(  89) = (   0.0006263   0.9184138   1.8867044  )
        90           Cu  tau(  90) = (   0.2497779   1.1671666   1.8871488  )
        91           Cu  tau(  91) = (   0.4991665   0.9167096   1.8870412  )
        92           Cu  tau(  92) = (   0.7501328   1.1676623   1.8863851  )
        93           Cu  tau(  93) = (   0.0000031   1.4129974   1.9041958  )
        94           Cu  tau(  94) = (   0.2501514   1.6381240   1.9026581  )
        95           Cu  tau(  95) = (   0.4998962   1.4122563   1.9006415  )
        96           Cu  tau(  96) = (   0.7497848   1.6384651   1.9031469  )
        97           Cu  tau(  97) = (  -0.0000327   1.8590214   1.9016926  )
        98           Cu  tau(  98) = (   0.2493588   2.0836751   1.9022804  )
        99           Cu  tau(  99) = (   0.4999181   1.8599112   1.9009201  )
       100           Cu  tau( 100) = (   0.7504827   2.0840516   1.9026399  )
       101           Cu  tau( 101) = (   0.2536675   1.3944837   2.1357621  )
       102           Cu  tau( 102) = (   0.7464037   1.3942318   2.1363374  )
       103           Cu  tau( 103) = (  -0.0004629   1.1583394   2.1209052  )
       104           Cu  tau( 104) = (   0.2505084   0.9288428   2.1206185  )
       105           Cu  tau( 105) = (   0.5002771   1.1562048   2.1193217  )
       106           Cu  tau( 106) = (   0.7495267   0.9280549   2.1199382  )
       107           Cu  tau( 107) = (  -0.0000193   0.6948418   2.1354509  )
       108           Cu  tau( 108) = (   0.4998810   0.6882222   2.1355829  )
       109           C   tau( 109) = (   0.0000991   0.0901428   2.4031502  )
       110           C   tau( 110) = (   0.0000930   0.2823830   2.4180114  )
       111           C   tau( 111) = (   0.1666773  -0.0064510   2.3996578  )
       112           C   tau( 112) = (   0.1668787   0.3782408   2.4277671  )
       113           C   tau( 113) = (   0.3333089   0.0900211   2.4026227  )
       114           C_h tau( 114) = (   0.3334028   0.2822316   2.4161361  )
       115           C   tau( 115) = (   0.5000830  -0.0063283   2.3982863  )
       116           C   tau( 116) = (   0.5000767   0.3780919   2.4227795  )
       117           C   tau( 117) = (   0.6669041   0.0900346   2.4025061  )
       118           C   tau( 118) = (   0.6667952   0.2822435   2.4160878  )
       119           C   tau( 119) = (   0.8334865  -0.0064471   2.3995724  )
       120           C   tau( 120) = (   0.8332736   0.3782539   2.4277003  )
       121           C   tau( 121) = (   0.0000735   0.6670179   2.4604097  )
       122           C   tau( 122) = (   0.0001050   0.8588633   2.4907114  )
       123           C   tau( 123) = (   0.1672571   0.5698504   2.4498428  )
       124           C   tau( 124) = (   0.1665971   0.9552497   2.4963875  )
       125           C   tau( 125) = (   0.3330385   0.6665151   2.4637668  )
       126           C   tau( 126) = (   0.3335343   0.8585536   2.4894103  )
       127           C   tau( 127) = (   0.5001160   0.5707969   2.4446470  )
       128           C   tau( 128) = (   0.5000868   0.9548012   2.4981070  )
       129           C   tau( 129) = (   0.6671111   0.6664905   2.4640110  )
       130           C   tau( 130) = (   0.6666802   0.8585370   2.4895177  )
       131           C   tau( 131) = (   0.8329626   0.5698624   2.4498385  )
       132           C   tau( 132) = (   0.8335464   0.9552517   2.4962856  )
       133           C   tau( 133) = (   0.0000911   1.2451825   2.4876213  )
       134           C   tau( 134) = (   0.0001131   1.4371710   2.4617966  )
       135           C   tau( 135) = (   0.1670675   1.1488169   2.4970265  )
       136           C   tau( 136) = (   0.1662741   1.5330753   2.4437487  )
       137           C   tau( 137) = (   0.3332653   1.2449196   2.4879988  )
       138           C   tau( 138) = (   0.3337767   1.4368407   2.4576005  )
       139           C   tau( 139) = (   0.5001230   1.1482862   2.4940804  )
       140           C   tau( 140) = (   0.5000809   1.5342903   2.4464359  )
       141           C   tau( 141) = (   0.6669118   1.2449151   2.4881715  )
       142           C   tau( 142) = (   0.6664409   1.4368275   2.4575860  )
       143           C   tau( 143) = (   0.8331701   1.1488111   2.4971678  )
       144           C   tau( 144) = (   0.8339073   1.5330595   2.4436703  )
       145           C   tau( 145) = (   0.0001003   1.8211673   2.4126494  )
       146           C   tau( 146) = (   0.0000762   2.0135533   2.4010454  )
       147           C   tau( 147) = (   0.1666886   1.7253778   2.4216854  )
       148           C   tau( 148) = (   0.1666494   2.1103073   2.3983956  )
       149           C   tau( 149) = (   0.3333114   1.8216121   2.4144844  )
       150           C   tau( 150) = (   0.3333631   2.0140026   2.4017749  )
       151           C   tau( 151) = (   0.5000809   1.7256607   2.4249251  )
       152           C   tau( 152) = (   0.5001229   2.1104737   2.3992384  )
       153           C   tau( 153) = (   0.6668851   1.8216063   2.4144419  )
       154           C   tau( 154) = (   0.6667882   2.0139890   2.4016302  )
       155           C   tau( 155) = (   0.8334653   1.7253669   2.4216510  )
       156           C   tau( 156) = (   0.8335837   2.1103089   2.3982893  )

     number of k points=     6  gaussian smearing, width (Ry)=  0.1000
                       cart. coord. in units 2pi/alat
        k(    1) = (   0.0000000   0.0000000   0.0000000), wk =   0.2500000
        k(    2) = (   0.0000000  -0.2165064   0.0000000), wk =   0.2500000
        k(    3) = (   0.2500000   0.0000000   0.0000000), wk =   0.5000000
        k(    4) = (   0.2500000  -0.2165064   0.0000000), wk =   0.5000000
        k(    5) = (  -0.5000000   0.0000000   0.0000000), wk =   0.2500000
        k(    6) = (  -0.5000000  -0.2165064   0.0000000), wk =   0.2500000

     Dense  grid:  2050409 G-vectors     FFT dimensions: (  80, 192, 270)

     Largest allocated arrays     est. size (Mb)     dimensions
        Kohn-Sham Wavefunctions        58.17 Mb     (    4604,  828)
        NL pseudopotentials           139.94 Mb     (    4604, 1992)
        Each V/rho on FFT grid          1.17 Mb     (   76800)
        Each G-vector array             0.28 Mb     (   36616)
        G-vector shells                 0.14 Mb     (   17932)
     Largest temporary arrays     est. size (Mb)     dimensions
        Auxiliary wavefunctions       232.67 Mb     (    4604, 3312)
        Each subspace H/S matrix        6.69 Mb     (     662,  662)
        Each <psi_i|beta_j> matrix     25.17 Mb     (    1992,  828)
        Arrays for rho mixing           9.38 Mb     (   76800,    8)

     Initial potential from superposition of free atoms
     Check: negative starting charge=   -0.001552

     starting charge 1354.72292, renormalised to 1380.00000

     negative rho (up, down):  1.581E-03 0.000E+00
     Starting wfc are 1356 randomized atomic wfcs

     total cpu time spent up to now is      116.4 secs

     Self-consistent Calculation

     iteration #  1     ecut=    80.00 Ry     beta=0.70
     Davidson diagonalization with overlap
     c_bands:  5 eigenvalues not converged
     c_bands:  4 eigenvalues not converged
     ethr =  1.00E-04,  avg # of iterations = 45.3

     negative rho (up, down):  2.538E+01 0.000E+00

     total cpu time spent up to now is     2647.0 secs

     total energy              =  -10743.63815611 Ry
     Harris-Foulkes estimate   =  -19014.14254152 Ry
     estimated scf accuracy    <  214326.34385747 Ry

     iteration #  2     ecut=    80.00 Ry     beta=0.70
     Davidson diagonalization with overlap
     ethr =  1.00E-02,  avg # of iterations = 14.5

     negative rho (up, down):  3.109E+01 0.000E+00

     total cpu time spent up to now is     3778.0 secs

     total energy              =  -13081.62421873 Ry
     Harris-Foulkes estimate   =  -14667.88717363 Ry
     estimated scf accuracy    <   24773.98532506 Ry

     iteration #  3     ecut=    80.00 Ry     beta=0.70
     Davidson diagonalization with overlap
     ethr =  1.00E-02,  avg # of iterations =  6.0

     negative rho (up, down):  3.291E+01 0.000E+00

     total cpu time spent up to now is     4350.1 secs

     total energy              =  -13423.39136493 Ry
     Harris-Foulkes estimate   =  -14420.84928824 Ry
     estimated scf accuracy    <    8115.25129728 Ry

     iteration #  4     ecut=    80.00 Ry     beta=0.70
     Davidson diagonalization with overlap
     ethr =  1.00E-02,  avg # of iterations =  4.7

     negative rho (up, down):  2.606E+01 0.000E+00

     total cpu time spent up to now is     4888.9 secs

     total energy              =  -13720.43439935 Ry
     Harris-Foulkes estimate   =  -14098.01824999 Ry
     estimated scf accuracy    <    3108.66393929 Ry

     iteration #  5     ecut=    80.00 Ry     beta=0.70
     Davidson diagonalization with overlap
     ethr =  1.00E-02,  avg # of iterations =  4.2

     negative rho (up, down):  1.662E+01 0.000E+00

     total cpu time spent up to now is     5255.3 secs

     total energy              =  -13818.59248094 Ry
     Harris-Foulkes estimate   =  -13959.00508935 Ry
     estimated scf accuracy    <    1093.21306484 Ry

     iteration #  6     ecut=    80.00 Ry     beta=0.70
     Davidson diagonalization with overlap
     ethr =  1.00E-02,  avg # of iterations =  2.0

     negative rho (up, down):  1.095E+01 0.000E+00

     total cpu time spent up to now is     5475.0 secs

     total energy              =  -13790.16852865 Ry
     Harris-Foulkes estimate   =  -13845.58128757 Ry
     estimated scf accuracy    <     445.42314098 Ry

     iteration #  7     ecut=    80.00 Ry     beta=0.70
     Davidson diagonalization with overlap
     ethr =  1.00E-02,  avg # of iterations =  2.0

     negative rho (up, down):  7.954E+00 0.000E+00

     total cpu time spent up to now is     5672.9 secs

     total energy              =  -13776.69265704 Ry
     Harris-Foulkes estimate   =  -13805.56815599 Ry
     estimated scf accuracy    <     295.32879835 Ry

     iteration #  8     ecut=    80.00 Ry     beta=0.70
     Davidson diagonalization with overlap
     ethr =  1.00E-02,  avg # of iterations =  1.0

     negative rho (up, down):  5.609E+00 0.000E+00

     total cpu time spent up to now is     5855.4 secs

     total energy              =  -13756.26166694 Ry
     Harris-Foulkes estimate   =  -13780.77317857 Ry
     estimated scf accuracy    <     228.19756944 Ry

     iteration #  9     ecut=    80.00 Ry     beta=0.70
     Davidson diagonalization with overlap
     ethr =  1.00E-02,  avg # of iterations =  1.0

     negative rho (up, down):  4.032E+00 0.000E+00

     total cpu time spent up to now is     6038.5 secs

     total energy              =  -13742.47843023 Ry
     Harris-Foulkes estimate   =  -13760.41482640 Ry
     estimated scf accuracy    <     209.99027548 Ry

     iteration # 10     ecut=    80.00 Ry     beta=0.70
     Davidson diagonalization with overlap
     ethr =  1.00E-02,  avg # of iterations =  1.7

     negative rho (up, down):  1.677E+00 0.000E+00

     total cpu time spent up to now is     6230.6 secs

     total energy              =  -13703.40394146 Ry
     Harris-Foulkes estimate   =  -13747.34577248 Ry
     estimated scf accuracy    <     145.12313277 Ry

     iteration # 11     ecut=    80.00 Ry     beta=0.70
     Davidson diagonalization with overlap
     ethr =  1.00E-02,  avg # of iterations =  1.8

     negative rho (up, down):  2.089E+00 0.000E+00

     total cpu time spent up to now is     6425.8 secs

     total energy              =  -13682.31729621 Ry
     Harris-Foulkes estimate   =  -13720.91877005 Ry
     estimated scf accuracy    <     301.13808266 Ry

     iteration # 12     ecut=    80.00 Ry     beta=0.70
     Davidson diagonalization with overlap
     ethr =  1.00E-02,  avg # of iterations =  2.7

     negative rho (up, down):  4.627E+00 0.000E+00

     total cpu time spent up to now is     6633.3 secs

     total energy              =  -13698.40725660 Ry
     Harris-Foulkes estimate   =  -13707.73084999 Ry
     estimated scf accuracy    <     160.38095552 Ry

     iteration # 13     ecut=    80.00 Ry     beta=0.70
     Davidson diagonalization with overlap
     ethr =  1.00E-02,  avg # of iterations =  1.0

     negative rho (up, down):  4.694E+00 0.000E+00

     total cpu time spent up to now is     6816.6 secs

     total energy              =  -13692.05575035 Ry
     Harris-Foulkes estimate   =  -13700.14067529 Ry
     estimated scf accuracy    <     101.87334293 Ry

     iteration # 14     ecut=    80.00 Ry     beta=0.70
     Davidson diagonalization with overlap
     ethr =  7.38E-03,  avg # of iterations =  1.7

     negative rho (up, down):  6.004E+00 0.000E+00

     total cpu time spent up to now is     7007.8 secs

     total energy              =  -13685.43047357 Ry
     Harris-Foulkes estimate   =  -13698.77098409 Ry
     estimated scf accuracy    <     141.72852089 Ry

     iteration # 15     ecut=    80.00 Ry     beta=0.70
     Davidson diagonalization with overlap
     ethr =  7.38E-03,  avg # of iterations =  1.2

     negative rho (up, down):  5.553E+00 0.000E+00

     total cpu time spent up to now is     7192.9 secs

     total energy              =  -13688.61309250 Ry
     Harris-Foulkes estimate   =  -13694.04784559 Ry
     estimated scf accuracy    <      88.67950878 Ry

     iteration # 16     ecut=    80.00 Ry     beta=0.70
     Davidson diagonalization with overlap
     ethr =  6.43E-03,  avg # of iterations =  1.0

     negative rho (up, down):  5.019E+00 0.000E+00

     total cpu time spent up to now is     7376.4 secs

     total energy              =  -13686.88112434 Ry
     Harris-Foulkes estimate   =  -13689.71688415 Ry
     estimated scf accuracy    <      40.35554920 Ry

     iteration # 17     ecut=    80.00 Ry     beta=0.70
     Davidson diagonalization with overlap
     ethr =  2.92E-03,  avg # of iterations =  1.8

     negative rho (up, down):  3.915E+00 0.000E+00

     total cpu time spent up to now is     7570.3 secs

     total energy              =  -13685.16456532 Ry
     Harris-Foulkes estimate   =  -13687.36742212 Ry
     estimated scf accuracy    <      20.08236703 Ry

     iteration # 18     ecut=    80.00 Ry     beta=0.70
     Davidson diagonalization with overlap
     ethr =  1.46E-03,  avg # of iterations =  7.5

     negative rho (up, down):  1.777E+00 0.000E+00

     total cpu time spent up to now is     7852.6 secs

     total energy              =  -13682.02783021 Ry
     Harris-Foulkes estimate   =  -13685.45357990 Ry
     estimated scf accuracy    <      11.26605674 Ry

     iteration # 19     ecut=    80.00 Ry     beta=0.70
     Davidson diagonalization with overlap
     ethr =  8.16E-04,  avg # of iterations =  5.8

     negative rho (up, down):  1.672E+00 0.000E+00

     total cpu time spent up to now is     8116.5 secs

     total energy              =  -13681.39541429 Ry
     Harris-Foulkes estimate   =  -13684.60980064 Ry
     estimated scf accuracy    <     128.61649524 Ry

     iteration # 20     ecut=    80.00 Ry     beta=0.70
     Davidson diagonalization with overlap
     ethr =  8.16E-04,  avg # of iterations =  2.2

     negative rho (up, down):  1.769E+00 0.000E+00

     total cpu time spent up to now is     8315.2 secs

     total energy              =  -13682.74750075 Ry
     Harris-Foulkes estimate   =  -13683.28669720 Ry
     estimated scf accuracy    <      30.11209211 Ry

     iteration # 21     ecut=    80.00 Ry     beta=0.70
     Davidson diagonalization with overlap
     ethr =  8.16E-04,  avg # of iterations =  1.7

     negative rho (up, down):  1.131E+00 0.000E+00

     total cpu time spent up to now is     8506.6 secs

     total energy              =  -13682.13123635 Ry
     Harris-Foulkes estimate   =  -13683.38361703 Ry
     estimated scf accuracy    <       8.23004493 Ry

     iteration # 22     ecut=    80.00 Ry     beta=0.70
     Davidson diagonalization with overlap
     ethr =  5.96E-04,  avg # of iterations =  2.7

     negative rho (up, down):  7.551E-01 0.000E+00

     total cpu time spent up to now is     8713.8 secs

     total energy              =  -13682.69300758 Ry
     Harris-Foulkes estimate   =  -13683.17679633 Ry
     estimated scf accuracy    <      96.00879916 Ry

     iteration # 23     ecut=    80.00 Ry     beta=0.70
     Davidson diagonalization with overlap
     ethr =  5.96E-04,  avg # of iterations =  1.2

     negative rho (up, down):  2.136E-01 0.000E+00

     total cpu time spent up to now is     8899.1 secs

     total energy              =  -13680.73223471 Ry
     Harris-Foulkes estimate   =  -13683.05132519 Ry
     estimated scf accuracy    <     101.43070596 Ry

     iteration # 24     ecut=    80.00 Ry     beta=0.70
     Davidson diagonalization with overlap
     ethr =  5.96E-04,  avg # of iterations = 10.3

     negative rho (up, down):  1.972E-01 0.000E+00

     total cpu time spent up to now is     9210.6 secs

     total energy              =  -13681.32966805 Ry
     Harris-Foulkes estimate   =  -13682.22375049 Ry
     estimated scf accuracy    <      42.50744193 Ry

     iteration # 25     ecut=    80.00 Ry     beta=0.70
     Davidson diagonalization with overlap
     ethr =  5.96E-04,  avg # of iterations =  2.0

     negative rho (up, down):  6.779E-03 0.000E+00

     total cpu time spent up to now is     9409.1 secs

     total energy              =  -13682.36361783 Ry
     Harris-Foulkes estimate   =  -13682.58145696 Ry
     estimated scf accuracy    <      89.24711791 Ry

     iteration # 26     ecut=    80.00 Ry     beta=0.70
     Davidson diagonalization with overlap
     ethr =  5.96E-04,  avg # of iterations =  1.0

     negative rho (up, down):  5.726E-07 0.000E+00

     total cpu time spent up to now is     9593.2 secs

     total energy              =  -13679.79639973 Ry
     Harris-Foulkes estimate   =  -13682.75512044 Ry
     estimated scf accuracy    <     144.33594386 Ry

     iteration # 27     ecut=    80.00 Ry     beta=0.70
     Davidson diagonalization with overlap
     ethr =  5.96E-04,  avg # of iterations =  2.0

     total cpu time spent up to now is     9790.1 secs

     total energy              =  -13680.74385013 Ry
     Harris-Foulkes estimate   =  -13681.28241265 Ry
     estimated scf accuracy    <      12.73301140 Ry

     iteration # 28     ecut=    80.00 Ry     beta=0.70
     Davidson diagonalization with overlap
     ethr =  5.96E-04,  avg # of iterations =  1.0

     total cpu time spent up to now is     9975.0 secs

     total energy              =  -13680.10814628 Ry
     Harris-Foulkes estimate   =  -13680.85290000 Ry
     estimated scf accuracy    <       9.41401173 Ry

     iteration # 29     ecut=    80.00 Ry     beta=0.70
     Davidson diagonalization with overlap
     ethr =  5.96E-04,  avg # of iterations =  1.8

     negative rho (up, down):  4.534E-02 0.000E+00

     total cpu time spent up to now is    10169.5 secs

     total energy              =  -13679.73621785 Ry
     Harris-Foulkes estimate   =  -13680.19605985 Ry
     estimated scf accuracy    <       6.90978194 Ry

     iteration # 30     ecut=    80.00 Ry     beta=0.70
     Davidson diagonalization with overlap
     ethr =  5.01E-04,  avg # of iterations =  1.5

     negative rho (up, down):  4.639E-01 0.000E+00

     total cpu time spent up to now is    10359.6 secs

     total energy              =  -13679.50926327 Ry
     Harris-Foulkes estimate   =  -13679.87086259 Ry
     estimated scf accuracy    <       3.52473147 Ry

     iteration # 31     ecut=    80.00 Ry     beta=0.70
     Davidson diagonalization with overlap
     ethr =  2.55E-04,  avg # of iterations =  6.8

     negative rho (up, down):  2.280E-01 0.000E+00

     total cpu time spent up to now is    10630.3 secs

     total energy              =  -13679.36605523 Ry
     Harris-Foulkes estimate   =  -13679.57370697 Ry
     estimated scf accuracy    <       1.37139646 Ry

     iteration # 32     ecut=    80.00 Ry     beta=0.70
     Davidson diagonalization with overlap
     ethr =  9.94E-05,  avg # of iterations =  5.0

     negative rho (up, down):  2.123E-01 0.000E+00

     total cpu time spent up to now is    10868.6 secs

     total energy              =  -13679.29625383 Ry
     Harris-Foulkes estimate   =  -13679.47250858 Ry
     estimated scf accuracy    <       0.90734614 Ry

     iteration # 33     ecut=    80.00 Ry     beta=0.70
     Davidson diagonalization with overlap
     ethr =  6.57E-05,  avg # of iterations =  8.2

     negative rho (up, down):  2.714E-01 0.000E+00

     total cpu time spent up to now is    11161.1 secs

     total energy              =  -13679.29112166 Ry
     Harris-Foulkes estimate   =  -13679.35290333 Ry
     estimated scf accuracy    <       0.47995561 Ry

     iteration # 34     ecut=    80.00 Ry     beta=0.70
     Davidson diagonalization with overlap
     ethr =  3.48E-05,  avg # of iterations =  8.7

     negative rho (up, down):  1.726E-01 0.000E+00

     total cpu time spent up to now is    11459.2 secs

     total energy              =  -13679.28505844 Ry
     Harris-Foulkes estimate   =  -13679.32511737 Ry
     estimated scf accuracy    <       0.36806908 Ry

     iteration # 35     ecut=    80.00 Ry     beta=0.70
     Davidson diagonalization with overlap
     c_bands:  1 eigenvalues not converged
     c_bands:  1 eigenvalues not converged
     c_bands:  1 eigenvalues not converged
     ethr =  2.67E-05,  avg # of iterations = 13.2

     negative rho (up, down):  7.987E-02 0.000E+00

     total cpu time spent up to now is    11819.3 secs

     total energy              =  -13679.29652150 Ry
     Harris-Foulkes estimate   =  -13679.31344847 Ry
     estimated scf accuracy    <       0.16722083 Ry

     iteration # 36     ecut=    80.00 Ry     beta=0.70
     Davidson diagonalization with overlap
     ethr =  1.21E-05,  avg # of iterations =  9.8

     negative rho (up, down):  5.644E-02 0.000E+00

     total cpu time spent up to now is    12126.7 secs

     total energy              =  -13679.28068309 Ry
     Harris-Foulkes estimate   =  -13679.30806664 Ry
     estimated scf accuracy    <       0.12483161 Ry

     iteration # 37     ecut=    80.00 Ry     beta=0.70
     Davidson diagonalization with overlap
     ethr =  9.05E-06,  avg # of iterations =  9.2

     negative rho (up, down):  3.993E-02 0.000E+00

     total cpu time spent up to now is    12434.1 secs

     total energy              =  -13679.27905991 Ry
     Harris-Foulkes estimate   =  -13679.28854283 Ry
     estimated scf accuracy    <       0.05132788 Ry

     iteration # 38     ecut=    80.00 Ry     beta=0.70
     Davidson diagonalization with overlap
     ethr =  3.72E-06,  avg # of iterations =  9.2

     negative rho (up, down):  2.838E-02 0.000E+00

     total cpu time spent up to now is    12743.1 secs

     total energy              =  -13679.28120591 Ry
     Harris-Foulkes estimate   =  -13679.28449629 Ry
     estimated scf accuracy    <       0.02731709 Ry

     iteration # 39     ecut=    80.00 Ry     beta=0.70
     Davidson diagonalization with overlap
     ethr =  1.98E-06,  avg # of iterations = 10.0

     negative rho (up, down):  1.278E-02 0.000E+00

     total cpu time spent up to now is    13074.1 secs

     total energy              =  -13679.28370515 Ry
     Harris-Foulkes estimate   =  -13679.28378526 Ry
     estimated scf accuracy    <       0.00454074 Ry

     iteration # 40     ecut=    80.00 Ry     beta=0.70
     Davidson diagonalization with overlap
     c_bands:  1 eigenvalues not converged
     ethr =  3.29E-07,  avg # of iterations =  9.3

     negative rho (up, down):  5.544E-03 0.000E+00

     total cpu time spent up to now is    13397.3 secs

     total energy              =  -13679.28394591 Ry
     Harris-Foulkes estimate   =  -13679.28430437 Ry
     estimated scf accuracy    <       0.00215359 Ry

     iteration # 41     ecut=    80.00 Ry     beta=0.70
     Davidson diagonalization with overlap
     ethr =  1.56E-07,  avg # of iterations =  8.7

     negative rho (up, down):  6.403E-03 0.000E+00

     total cpu time spent up to now is    13695.2 secs

     total energy              =  -13679.28443968 Ry
     Harris-Foulkes estimate   =  -13679.28413343 Ry
     estimated scf accuracy    <       0.00051527 Ry

     iteration # 42     ecut=    80.00 Ry     beta=0.70
     Davidson diagonalization with overlap
     ethr =  3.73E-08,  avg # of iterations =  9.5

     negative rho (up, down):  8.183E-03 0.000E+00

     total cpu time spent up to now is    14015.4 secs

     total energy              =  -13679.28455512 Ry
     Harris-Foulkes estimate   =  -13679.28447823 Ry
     estimated scf accuracy    <       0.00026742 Ry

     iteration # 43     ecut=    80.00 Ry     beta=0.70
     Davidson diagonalization with overlap
     ethr =  1.94E-08,  avg # of iterations =  6.5

     negative rho (up, down):  3.820E-03 0.000E+00

     total cpu time spent up to now is    14286.8 secs

     total energy              =  -13679.28456141 Ry
     Harris-Foulkes estimate   =  -13679.28457572 Ry
     estimated scf accuracy    <       0.00009308 Ry

     iteration # 44     ecut=    80.00 Ry     beta=0.70
     Davidson diagonalization with overlap
     ethr =  6.74E-09,  avg # of iterations =  9.5

     negative rho (up, down):  3.856E-03 0.000E+00

     total cpu time spent up to now is    14604.5 secs

     total energy              =  -13679.28457233 Ry
     Harris-Foulkes estimate   =  -13679.28457033 Ry
     estimated scf accuracy    <       0.00005367 Ry

     iteration # 45     ecut=    80.00 Ry     beta=0.70
     Davidson diagonalization with overlap
     ethr =  3.89E-09,  avg # of iterations =  2.0

     negative rho (up, down):  1.800E-03 0.000E+00

     total cpu time spent up to now is    14810.1 secs

     total energy              =  -13679.28455821 Ry
     Harris-Foulkes estimate   =  -13679.28457774 Ry
     estimated scf accuracy    <       0.00002645 Ry

     iteration # 46     ecut=    80.00 Ry     beta=0.70
     Davidson diagonalization with overlap
     c_bands:  1 eigenvalues not converged
     ethr =  1.92E-09,  avg # of iterations = 12.5

     negative rho (up, down):  1.795E-03 0.000E+00

     total cpu time spent up to now is    15178.9 secs

     total energy              =  -13679.28455875 Ry
     Harris-Foulkes estimate   =  -13679.28456150 Ry
     estimated scf accuracy    <       0.00001495 Ry

     iteration # 47     ecut=    80.00 Ry     beta=0.70
     Davidson diagonalization with overlap
     ethr =  1.08E-09,  avg # of iterations =  3.3

     negative rho (up, down):  1.711E-03 0.000E+00

     total cpu time spent up to now is    15403.5 secs

     total energy              =  -13679.28455850 Ry
     Harris-Foulkes estimate   =  -13679.28456007 Ry
     estimated scf accuracy    <       0.00000359 Ry

     iteration # 48     ecut=    80.00 Ry     beta=0.70
     Davidson diagonalization with overlap
     ethr =  2.60E-10,  avg # of iterations =  2.5

     negative rho (up, down):  1.708E-03 0.000E+00

     total cpu time spent up to now is    15617.5 secs

     total energy              =  -13679.28456071 Ry
     Harris-Foulkes estimate   =  -13679.28455883 Ry
     estimated scf accuracy    <       0.00000111 Ry

     iteration # 49     ecut=    80.00 Ry     beta=0.70
     Davidson diagonalization with overlap
     ethr =  8.03E-11,  avg # of iterations =  2.5

     negative rho (up, down):  1.744E-03 0.000E+00

     total cpu time spent up to now is    15829.6 secs

     total energy              =  -13679.28456112 Ry
     Harris-Foulkes estimate   =  -13679.28456081 Ry
     estimated scf accuracy    <       0.00000038 Ry

     iteration # 50     ecut=    80.00 Ry     beta=0.70
     Davidson diagonalization with overlap
     ethr =  2.74E-11,  avg # of iterations =  3.0

     negative rho (up, down):  1.755E-03 0.000E+00

     total cpu time spent up to now is    16049.9 secs

     total energy              =  -13679.28456121 Ry
     Harris-Foulkes estimate   =  -13679.28456116 Ry
     estimated scf accuracy    <       0.00000008 Ry

     iteration # 51     ecut=    80.00 Ry     beta=0.70
     Davidson diagonalization with overlap
     ethr =  5.71E-12,  avg # of iterations =  3.0

     negative rho (up, down):  1.746E-03 0.000E+00

     total cpu time spent up to now is    16294.6 secs

     total energy              =  -13679.28456123 Ry
     Harris-Foulkes estimate   =  -13679.28456122 Ry
     estimated scf accuracy    <       0.00000004 Ry

     iteration # 52     ecut=    80.00 Ry     beta=0.70
     Davidson diagonalization with overlap
     ethr =  3.09E-12,  avg # of iterations =  2.0

     negative rho (up, down):  1.735E-03 0.000E+00

     total cpu time spent up to now is    16501.6 secs

     total energy              =  -13679.28456125 Ry
     Harris-Foulkes estimate   =  -13679.28456123 Ry
     estimated scf accuracy    <       0.00000001 Ry

     iteration # 53     ecut=    80.00 Ry     beta=0.70
     Davidson diagonalization with overlap
     ethr =  9.22E-13,  avg # of iterations =  2.5

     negative rho (up, down):  1.710E-03 0.000E+00

     total cpu time spent up to now is    16709.4 secs

     End of self-consistent calculation

          k = 0.0000 0.0000 0.0000 (256287 PWs)   bands (ev):

   -16.6008 -15.6940 -15.4246 -14.8062 -14.4170 -14.1286 -14.0454 -13.7158
   -13.6172 -13.4726 -13.4552 -12.8781 -12.7055 -12.5372 -12.5092 -12.4634
   -12.4533 -11.0863 -10.9210 -10.8866 -10.7746 -10.6390  -9.7193  -9.1563
    -9.1427  -9.0258  -8.9216  -8.3663  -8.1842  -8.0607  -7.9650  -7.4121
    -7.3247  -7.1696  -7.0384  -6.9545  -6.9502  -6.9050  -6.8838  -5.7690
    -5.7629  -5.5280  -5.4154  -5.3974  -5.3427  -5.3011  -5.2662  -5.2446
    -4.9022  -4.8521  -4.6580  -4.3561  -4.2757  -4.2517  -4.1484  -4.0387
    -3.9389  -3.8754  -3.7840  -3.6389  -3.3767  -3.3552  -3.3544  -3.3524
    -3.0153  -2.9935  -2.9877  -2.9383  -2.8886  -2.8327  -2.8073  -2.7835
    -2.7827  -2.6009  -2.5386  -2.5297  -2.4459  -2.4175  -2.4101  -2.3732
    -2.3730  -2.3396  -2.3339  -2.3182  -2.3068  -2.2475  -2.2067  -2.1867
    -2.1350  -2.1053  -1.9907  -1.9198  -1.8626  -1.7794  -1.7445  -1.7356
    -1.6988  -1.6823  -1.6303  -1.5771  -1.5716  -1.5478  -1.5196  -1.5177
    -1.5151  -1.5078  -1.5069  -1.4364  -1.4176  -1.4173  -1.3827  -1.3810
    -1.3809  -1.3694  -1.3543  -1.2421  -1.2299  -1.2271  -1.1572  -1.1487
    -1.1468  -1.1453  -1.1286  -1.1019  -1.1003  -1.0801  -1.0311  -1.0282
    -1.0259  -1.0235  -1.0192  -0.9778  -0.9477  -0.9468  -0.9446  -0.9280
    -0.9208  -0.9054  -0.9023  -0.8926  -0.8685  -0.8521  -0.8455  -0.8017
    -0.7947  -0.7898  -0.7509  -0.7294  -0.7166  -0.6761  -0.6598  -0.6492
    -0.6359  -0.6291  -0.6236  -0.5915  -0.5894  -0.5873  -0.5704  -0.5628
    -0.5620  -0.5480  -0.5466  -0.5268  -0.5129  -0.5070  -0.4838  -0.4749
    -0.4481  -0.4474  -0.4407  -0.4378  -0.4360  -0.4321  -0.4244  -0.4209
    -0.4149  -0.4141  -0.4019  -0.3851  -0.3740  -0.3681  -0.3647  -0.3519
    -0.3425  -0.3419  -0.3273  -0.3179  -0.3169  -0.3157  -0.3151  -0.3080
    -0.3014  -0.2724  -0.2707  -0.2693  -0.2588  -0.2545  -0.2440  -0.2428
    -0.2355  -0.2226  -0.2210  -0.2178  -0.2170  -0.2112  -0.2094  -0.2018
    -0.1967  -0.1824  -0.1389  -0.1343  -0.1258  -0.1082  -0.1015  -0.0870
    -0.0670  -0.0589  -0.0542  -0.0538  -0.0449  -0.0433  -0.0347  -0.0260
    -0.0147  -0.0130   0.0028   0.0031   0.0044   0.0130   0.0216   0.0341
     0.0352   0.0361   0.0513   0.0521   0.0521   0.0899   0.0913   0.0964
     0.1214   0.1376   0.1472   0.1481   0.1531   0.1534   0.1753   0.1759
     0.1818   0.1863   0.2063   0.2065   0.2073   0.2174   0.2180   0.2197
     0.2203   0.2225   0.2262   0.2405   0.2509   0.2550   0.2610   0.2662
     0.2667   0.2712   0.2714   0.2892   0.2932   0.3028   0.3030   0.3104
     0.3262   0.3265   0.3383   0.3389   0.3396   0.3436   0.3446   0.3566
     0.3581   0.3658   0.3686   0.3716   0.3789   0.3795   0.3849   0.3850
     0.3977   0.3978   0.4192   0.4203   0.4248   0.4259   0.4284   0.4309
     0.4322   0.4333   0.4394   0.4396   0.4679   0.4726   0.4738   0.4763
     0.4846   0.4977   0.4983   0.5214   0.5229   0.5245   0.5265   0.5332
     0.5479   0.5496   0.5539   0.5600   0.5616   0.5645   0.5648   0.5678
     0.5803   0.5932   0.5938   0.5988   0.6011   0.6041   0.6093   0.6198
     0.6229   0.6241   0.6313   0.6314   0.6478   0.6517   0.6527   0.6569
     0.6576   0.6588   0.6604   0.6676   0.6799   0.6807   0.6849   0.6861
     0.6886   0.6903   0.6929   0.7034   0.7286   0.7303   0.7461   0.7623
     0.7626   0.7726   0.7795   0.7861   0.7864   0.7877   0.7926   0.8033
     0.8119   0.8339   0.8367   0.8440   0.8492   0.8504   0.8523   0.8575
     0.8633   0.8754   0.8934   0.9053   0.9069   0.9077   0.9089   0.9156
     0.9164   0.9409   0.9428   0.9444   0.9556   0.9564   0.9627   0.9662
     0.9707   0.9725   1.0018   1.0082   1.0141   1.0179   1.0213   1.0241
     1.0249   1.0298   1.0306   1.0443   1.0456   1.0478   1.0494   1.0562
     1.0670   1.0789   1.0813   1.0860   1.0863   1.1028   1.1030   1.1085
     1.1485   1.1519   1.1558   1.1587   1.1649   1.1689   1.1692   1.1723
     1.1752   1.1776   1.1829   1.1874   1.1918   1.1976   1.2005   1.2023
     1.2079   1.2117   1.2123   1.2147   1.2238   1.2294   1.2376   1.2392
     1.2437   1.2469   1.2539   1.2566   1.2584   1.2605   1.2718   1.2733
     1.2797   1.2877   1.2903   1.2942   1.2943   1.2950   1.2972   1.2991
     1.3030   1.3066   1.3256   1.3319   1.3335   1.3390   1.3401   1.3412
     1.3429   1.3446   1.3540   1.3570   1.3574   1.3620   1.3688   1.3690
     1.3708   1.3831   1.3868   1.3882   1.3900   1.3962   1.3970   1.4073
     1.4106   1.4135   1.4198   1.4347   1.4440   1.4470   1.4555   1.4607
     1.4645   1.4740   1.4766   1.4805   1.4857   1.4877   1.4920   1.4958
     1.5006   1.5015   1.5021   1.5181   1.5200   1.5215   1.5294   1.5406
     1.5429   1.5435   1.5476   1.5511   1.5523   1.5597   1.5623   1.5679
     1.5697   1.5772   1.5783   1.5796   1.5911   1.5952   1.5967   1.6079
     1.6082   1.6097   1.6193   1.6213   1.6236   1.6263   1.6288   1.6401
     1.6473   1.6486   1.6522   1.6621   1.6627   1.6699   1.6771   1.6801
     1.6837   1.6876   1.6913   1.6933   1.6953   1.6973   1.6983   1.7014
     1.7045   1.7136   1.7155   1.7214   1.7288   1.7308   1.7318   1.7337
     1.7342   1.7385   1.7426   1.7484   1.7534   1.7580   1.7583   1.7609
     1.7647   1.7704   1.7716   1.7864   1.7895   1.7996   1.8045   1.8084
     1.8097   1.8105   1.8184   1.8202   1.8319   1.8380   1.8448   1.8456
     1.8508   1.8512   1.8540   1.8589   1.8640   1.8696   1.8702   1.8814
     1.8854   1.8869   1.8875   1.8914   1.8926   1.8953   1.8999   1.9054
     1.9101   1.9141   1.9146   1.9203   1.9230   1.9261   1.9271   1.9297
     1.9373   1.9556   1.9559   1.9579   1.9585   1.9614   1.9628   1.9663
     1.9682   1.9692   1.9725   1.9869   1.9885   1.9920   1.9999   2.0009
     2.0029   2.0038   2.0056   2.0072   2.0104   2.0138   2.0165   2.0177
     2.0178   2.0185   2.0229   2.0252   2.0253   2.0371   2.0400   2.0408
     2.0433   2.0489   2.0493   2.0498   2.0525   2.0651   2.0653   2.0788
     2.0792   2.0802   2.0811   2.0831   2.0948   2.0969   2.0988   2.1208
     2.1228   2.1266   2.1463   2.1477   2.1501   2.1682   2.1694   2.1758
     2.1764   2.2016   2.2022   2.2027   2.2310   2.2337   2.2382   2.2411
     2.2450   2.2466   2.2524   2.2652   2.3152   2.4168   2.4924   2.5642
     2.5965   2.6555   2.6733   2.6740   2.7574   2.7588   2.7820   2.7871
     2.8148   2.8154   2.8273   2.8276   2.8978   2.8985   2.9351   2.9498
     2.9504   3.0001   3.0020   3.1720   3.1776   3.2358   3.2408   3.3005
     3.4066   3.5264   3.5495   3.5818   3.6462   3.8054   3.8149   3.9810
     4.0405   4.0464   4.0810   4.2158   4.2203   4.2971   4.2973   4.4736
     4.4988   4.5155   4.5175   4.5507   4.5533   4.5910   4.6155   4.6162
     4.6194   4.6205   4.9175   5.0130   5.0260   5.0458   5.0907   5.2187
     5.3240   5.4082   5.4581   5.4767   5.5523   5.5668   5.6572   5.6704
     5.7972   5.9122   6.1021   6.1211   6.3138   6.3535   6.3734   6.4810
     6.5125   6.7481   6.8139   6.8229   6.8516   6.8932   7.0336   7.0518
     7.0688   7.1569   7.2609   7.2701   7.2923   7.3759   7.4114   7.4167
     7.4172   7.4188   7.4330   7.4564   7.5158   7.6998   7.7039   7.7284
     7.8601   7.9450   7.9555   7.9850   8.0648   8.1170   8.1588   8.2987
     8.3016   8.3102   8.3124   8.5628   8.5858   8.5884   8.6214   8.6733
     8.7030   8.7181   8.7313   8.7988   8.8111   8.8483   8.8736   8.9154
     8.9402   9.0580   9.0620   9.0711   9.1427   9.1452   9.1583   9.1985
     9.2057   9.2998   9.3070   9.3089   9.3107   9.3514   9.3535   9.3620
     9.3796   9.5263   9.5699   9.7143   9.7153   9.7863   9.8134   9.8258
     9.8289   9.8537   9.9638  10.0382  10.0586  10.0920  10.0976  10.3845
    10.4280  10.4531  10.4931  10.5185  10.5237  10.5517  10.5863  10.5971
    10.6214  10.6315  10.6406  10.6500

          k = 0.0000-0.2165 0.0000 (256176 PWs)   bands (ev):

   -16.6002 -15.7360 -15.2543 -15.0500 -14.4007 -14.0321 -13.7933 -13.7283
   -13.6363 -13.6192 -13.1995 -13.1149 -13.0967 -13.0875 -12.0015 -11.8346
   -11.7643 -11.6994 -11.5530 -11.4811 -10.0732  -9.9322  -9.9152  -9.8016
    -8.8439  -8.7801  -8.6996  -8.5188  -8.3766  -8.3544  -7.7758  -7.6539
    -7.6049  -7.5426  -6.8100  -6.7517  -6.4313  -6.3415  -6.3011  -6.2945
    -6.2410  -6.2159  -5.6198  -5.5166  -5.2853  -5.2438  -4.9310  -4.7909
    -4.6656  -4.6449  -4.5396  -4.4000  -4.3260  -4.2222  -4.1866  -4.1828
    -4.1540  -4.0667  -4.0512  -4.0320  -3.5720  -3.3663  -3.2197  -3.1674
    -3.1269  -3.0542  -2.9087  -2.7016  -2.7006  -2.6830  -2.6635  -2.6629
    -2.6308  -2.6003  -2.5268  -2.4653  -2.4139  -2.4003  -2.3773  -2.3446
    -2.3056  -2.2940  -2.2654  -2.2228  -2.2120  -2.2070  -2.1625  -2.0598
    -1.9998  -1.9808  -1.9708  -1.9585  -1.9475  -1.9436  -1.9368  -1.9017
    -1.8553  -1.8456  -1.8314  -1.7355  -1.7140  -1.6482  -1.5901  -1.5701
    -1.5572  -1.5541  -1.5201  -1.5131  -1.4991  -1.3667  -1.3552  -1.3509
    -1.3328  -1.3320  -1.3273  -1.2224  -1.2123  -1.1975  -1.1653  -1.1606
    -1.1469  -1.1333  -1.1232  -1.1027  -1.0992  -1.0892  -1.0862  -1.0740
    -1.0485  -1.0386  -1.0215  -1.0199  -1.0145  -0.9808  -0.9627  -0.9415
    -0.9250  -0.9168  -0.8975  -0.8684  -0.8641  -0.8011  -0.7827  -0.7534
    -0.7480  -0.7427  -0.7011  -0.6974  -0.6946  -0.6890  -0.6875  -0.6815
    -0.6652  -0.6576  -0.6432  -0.6428  -0.6408  -0.6389  -0.6305  -0.6240
    -0.6134  -0.6009  -0.5991  -0.5752  -0.5278  -0.5248  -0.5069  -0.5045
    -0.4797  -0.4634  -0.4601  -0.4414  -0.4391  -0.4290  -0.4236  -0.4215
    -0.4178  -0.4037  -0.3955  -0.3752  -0.3628  -0.3617  -0.3555  -0.3459
    -0.3434  -0.3400  -0.3354  -0.3127  -0.3075  -0.3054  -0.3024  -0.2910
    -0.2875  -0.2537  -0.2532  -0.2527  -0.2397  -0.2319  -0.2280  -0.2232
    -0.2156  -0.2016  -0.1945  -0.1846  -0.1633  -0.1613  -0.1611  -0.1260
    -0.1023  -0.0900  -0.0737  -0.0725  -0.0516  -0.0479  -0.0468  -0.0415
    -0.0414  -0.0191  -0.0153  -0.0140  -0.0133  -0.0049  -0.0034   0.0041
     0.0112   0.0171   0.0222   0.0265   0.0302   0.0314   0.0354   0.0433
     0.0480   0.0608   0.0643   0.0732   0.0755   0.0895   0.0918   0.1092
     0.1149   0.1332   0.1341   0.1358   0.1360   0.1389   0.1493   0.1499
     0.1625   0.1649   0.1903   0.2092   0.2156   0.2165   0.2172   0.2337
     0.2408   0.2481   0.2543   0.2579   0.2582   0.2713   0.2715   0.2759
     0.2763   0.2849   0.2912   0.3019   0.3040   0.3050   0.3167   0.3239
     0.3273   0.3287   0.3294   0.3312   0.3349   0.3374   0.3378   0.3494
     0.3562   0.3621   0.3661   0.3765   0.3782   0.3791   0.3870   0.3952
     0.3973   0.4047   0.4074   0.4144   0.4178   0.4197   0.4228   0.4245
     0.4313   0.4340   0.4480   0.4518   0.4571   0.4729   0.4795   0.4853
     0.4927   0.4969   0.4978   0.5002   0.5099   0.5134   0.5149   0.5284
     0.5301   0.5322   0.5372   0.5376   0.5398   0.5483   0.5506   0.5657
     0.5732   0.5826   0.5833   0.5911   0.5924   0.5943   0.5994   0.6061
     0.6085   0.6234   0.6270   0.6322   0.6421   0.6473   0.6474   0.6547
     0.6637   0.6652   0.6693   0.6826   0.6917   0.6919   0.6962   0.7021
     0.7043   0.7052   0.7083   0.7182   0.7203   0.7229   0.7276   0.7330
     0.7335   0.7415   0.7452   0.7568   0.7589   0.7599   0.7642   0.7693
     0.7817   0.7865   0.7908   0.8117   0.8238   0.8252   0.8417   0.8569
     0.8585   0.8625   0.8635   0.8758   0.8923   0.8991   0.9001   0.9021
     0.9092   0.9178   0.9260   0.9319   0.9390   0.9406   0.9608   0.9631
     0.9633   0.9821   0.9852   1.0002   1.0012   1.0023   1.0194   1.0316
     1.0334   1.0338   1.0465   1.0470   1.0573   1.0640   1.0643   1.0796
     1.0802   1.0969   1.0979   1.1015   1.1043   1.1134   1.1141   1.1297
     1.1383   1.1395   1.1435   1.1444   1.1482   1.1491   1.1574   1.1596
     1.1632   1.1682   1.1703   1.1794   1.1808   1.1817   1.1853   1.1866
     1.1952   1.1982   1.2023   1.2196   1.2220   1.2263   1.2278   1.2296
     1.2314   1.2385   1.2427   1.2439   1.2481   1.2549   1.2553   1.2666
     1.2688   1.2795   1.2801   1.2805   1.2836   1.2886   1.2995   1.3009
     1.3020   1.3030   1.3043   1.3057   1.3132   1.3161   1.3256   1.3279
     1.3338   1.3357   1.3385   1.3391   1.3400   1.3485   1.3500   1.3660
     1.3662   1.3666   1.3721   1.3839   1.3975   1.4111   1.4119   1.4168
     1.4188   1.4211   1.4276   1.4282   1.4434   1.4695   1.4705   1.4902
     1.4943   1.5006   1.5048   1.5056   1.5064   1.5070   1.5180   1.5190
     1.5203   1.5235   1.5247   1.5277   1.5340   1.5371   1.5374   1.5432
     1.5455   1.5472   1.5558   1.5725   1.5729   1.5741   1.5756   1.5839
     1.5844   1.5876   1.5879   1.5916   1.5962   1.5968   1.5969   1.5979
     1.5988   1.6032   1.6149   1.6155   1.6170   1.6182   1.6189   1.6252
     1.6264   1.6285   1.6302   1.6313   1.6403   1.6523   1.6535   1.6548
     1.6617   1.6669   1.6786   1.6816   1.6851   1.6868   1.6905   1.6940
     1.6998   1.7055   1.7071   1.7175   1.7213   1.7303   1.7378   1.7391
     1.7403   1.7419   1.7513   1.7646   1.7723   1.7752   1.7854   1.7858
     1.7877   1.7909   1.7924   1.7995   1.8013   1.8021   1.8097   1.8107
     1.8124   1.8159   1.8185   1.8191   1.8209   1.8311   1.8328   1.8352
     1.8360   1.8415   1.8428   1.8555   1.8594   1.8639   1.8698   1.8731
     1.8762   1.8785   1.8858   1.8871   1.8880   1.8885   1.8945   1.8956
     1.8979   1.9077   1.9109   1.9172   1.9182   1.9279   1.9286   1.9306
     1.9307   1.9374   1.9395   1.9403   1.9461   1.9472   1.9552   1.9585
     1.9668   1.9672   1.9760   1.9792   1.9854   1.9858   1.9923   2.0008
     2.0036   2.0052   2.0067   2.0089   2.0097   2.0121   2.0173   2.0202
     2.0328   2.0330   2.0399   2.0411   2.0491   2.0503   2.0564   2.0567
     2.0609   2.0629   2.0635   2.0639   2.0821   2.0839   2.0861   2.0881
     2.0932   2.1027   2.1128   2.1166   2.1244   2.1305   2.1340   2.1356
     2.1365   2.1369   2.1380   2.1453   2.1488   2.1529   2.1550   2.1614
     2.1853   2.2133   2.2393   2.2551   2.2564   2.3302   2.3533   2.3555
     2.3558   2.3798   2.3808   2.3889   2.4013   2.4094   2.4321   2.4451
     2.4555   2.4651   2.4660   2.6070   2.6248   2.6371   2.7065   2.7155
     2.7547   2.8288   2.8778   2.8918   2.9927   2.9956   3.0176   3.0405
     3.0429   3.0970   3.1725   3.1859   3.1867   3.2744   3.2777   3.2778
     3.3181   3.5223   3.5224   3.5625   3.5897   3.5926   3.7791   3.7791
     3.8103   3.8129   4.0725   4.0848   4.1616   4.1704   4.1860   4.2815
     4.3116   4.4977   4.5050   4.5339   4.5747   4.5931   4.6253   4.6674
     4.6692   4.8018   4.9984   5.0234   5.1603   5.1685   5.3792   5.5016
     5.6130   5.6219   5.6502   5.6985   5.7139   5.8371   5.8788   5.8864
     5.9817   5.9873   5.9887   6.0422   6.1271   6.1708   6.2364   6.3348
     6.3517   6.3661   6.5138   6.5353   6.6174   6.7051   6.8341   6.9700
     7.0304   7.0547   7.2070   7.2085   7.2176   7.3193   7.5144   7.5432
     7.5481   7.5900   7.6242   7.6279   7.6752   7.7332   7.7413   7.7603
     7.7619   7.7810   7.8651   8.0222   8.0303   8.0841   8.1310   8.1803
     8.2025   8.2426   8.2709   8.3110   8.4870   8.5622   8.5933   8.5993
     8.7743   8.7923   8.8632   8.8833   8.9115   8.9325   8.9399   8.9999
     9.0222   9.0443   9.0496   9.0577   9.0694   9.1281   9.1293   9.2391
     9.3079   9.3097   9.3291   9.4057   9.4957   9.5100   9.5288   9.5358
     9.7184   9.7291   9.7395   9.7451   9.7676   9.8273   9.8922   9.8997
     9.9336   9.9376   9.9383   9.9432   9.9591  10.0486  10.1131  10.1168
    10.2913  10.3012  10.3161  10.4034  10.4259  10.4708  10.4761  10.4941
    10.5524  10.5808  10.6725  10.6854

          k = 0.2500 0.0000 0.0000 (256240 PWs)   bands (ev):

   -16.5494 -15.5834 -15.3024 -15.0060 -14.5892 -14.3541 -14.3338 -14.2527
   -13.4985 -13.3264 -13.1114 -12.6753 -12.5629 -12.4983 -12.3813 -11.7480
   -11.6187 -11.5404 -11.4528 -10.6455 -10.5135 -10.2070 -10.0397  -9.7925
    -9.5906  -9.3728  -9.2568  -8.8706  -8.6437  -8.5411  -8.1104  -7.3936
    -7.2094  -7.1252  -6.9554  -6.9412  -6.8396  -6.4802  -6.3327  -5.6914
    -5.6561  -5.4553  -5.3298  -5.2906  -5.2189  -4.8644  -4.7307  -4.7095
    -4.6791  -4.5042  -4.3376  -4.2227  -4.0393  -4.0109  -3.9544  -3.8754
    -3.8444  -3.7847  -3.7621  -3.6533  -3.5862  -3.4968  -3.4151  -3.3664
    -3.3395  -3.2462  -3.2080  -3.2072  -3.1874  -3.0478  -3.0380  -2.9903
    -2.9443  -2.8554  -2.8389  -2.8361  -2.8157  -2.7800  -2.6385  -2.6221
    -2.5614  -2.4716  -2.4637  -2.3938  -2.3234  -2.2599  -2.2173  -2.1920
    -2.1643  -2.1627  -2.0348  -1.8742  -1.8195  -1.7847  -1.7808  -1.7492
    -1.6890  -1.5710  -1.5530  -1.5410  -1.4871  -1.4797  -1.4641  -1.4557
    -1.4358  -1.4065  -1.3900  -1.3830  -1.3239  -1.3136  -1.2424  -1.2253
    -1.2192  -1.2027  -1.1674  -1.1664  -1.1612  -1.1604  -1.1476  -1.1442
    -1.1156  -1.0904  -1.0709  -1.0391  -1.0371  -1.0347  -0.9937  -0.9613
    -0.9608  -0.9567  -0.9453  -0.9386  -0.9278  -0.9177  -0.9030  -0.8965
    -0.8865  -0.8749  -0.8729  -0.8323  -0.8263  -0.8010  -0.7621  -0.7593
    -0.7220  -0.7077  -0.6894  -0.6758  -0.6609  -0.6465  -0.6310  -0.6209
    -0.6160  -0.6138  -0.6094  -0.6021  -0.5874  -0.5819  -0.5710  -0.5625
    -0.5619  -0.5502  -0.5391  -0.5372  -0.5184  -0.5157  -0.5130  -0.5052
    -0.4995  -0.4956  -0.4896  -0.4781  -0.4725  -0.4598  -0.4495  -0.4398
    -0.4342  -0.4272  -0.4212  -0.4131  -0.4041  -0.4026  -0.3994  -0.3982
    -0.3953  -0.3861  -0.3748  -0.3725  -0.3649  -0.3624  -0.3590  -0.3568
    -0.3551  -0.3473  -0.3454  -0.3403  -0.3186  -0.3110  -0.2836  -0.2801
    -0.2679  -0.2647  -0.2565  -0.2419  -0.2221  -0.2137  -0.1862  -0.1844
    -0.1754  -0.1670  -0.1638  -0.1570  -0.1562  -0.1406  -0.1259  -0.1184
    -0.1172  -0.1102  -0.1032  -0.0876  -0.0601  -0.0147  -0.0080   0.0027
     0.0044   0.0235   0.0287   0.0294   0.0375   0.0539   0.0607   0.0668
     0.0726   0.0739   0.0825   0.0862   0.0894   0.1025   0.1068   0.1133
     0.1169   0.1205   0.1235   0.1277   0.1442   0.1496   0.1512   0.1525
     0.1692   0.1777   0.1879   0.2029   0.2099   0.2179   0.2205   0.2238
     0.2282   0.2329   0.2350   0.2373   0.2431   0.2489   0.2513   0.2527
     0.2622   0.2794   0.2847   0.2901   0.2956   0.2985   0.3056   0.3102
     0.3148   0.3184   0.3267   0.3317   0.3348   0.3361   0.3407   0.3460
     0.3533   0.3621   0.3704   0.3773   0.3863   0.3874   0.3917   0.4072
     0.4132   0.4237   0.4252   0.4258   0.4321   0.4404   0.4446   0.4490
     0.4510   0.4597   0.4679   0.4825   0.4874   0.4892   0.5022   0.5044
     0.5070   0.5107   0.5161   0.5198   0.5238   0.5310   0.5382   0.5421
     0.5535   0.5578   0.5639   0.5685   0.5708   0.5808   0.5978   0.5993
     0.6010   0.6094   0.6112   0.6121   0.6166   0.6196   0.6233   0.6261
     0.6277   0.6373   0.6390   0.6419   0.6546   0.6631   0.6652   0.6708
     0.6748   0.6756   0.6855   0.6882   0.6905   0.6918   0.6934   0.6996
     0.7077   0.7201   0.7323   0.7335   0.7503   0.7536   0.7588   0.7633
     0.7682   0.7723   0.7752   0.7906   0.7980   0.8054   0.8073   0.8165
     0.8271   0.8328   0.8416   0.8547   0.8573   0.8683   0.8738   0.8789
     0.8834   0.8871   0.8940   0.9043   0.9119   0.9128   0.9149   0.9213
     0.9262   0.9304   0.9320   0.9346   0.9376   0.9418   0.9450   0.9495
     0.9523   0.9587   0.9655   0.9662   0.9687   0.9707   0.9767   0.9806
     0.9882   1.0024   1.0078   1.0183   1.0264   1.0379   1.0458   1.0513
     1.0555   1.0590   1.0652   1.0667   1.0708   1.0739   1.0775   1.0807
     1.0881   1.0978   1.1107   1.1129   1.1133   1.1267   1.1288   1.1340
     1.1351   1.1410   1.1457   1.1544   1.1578   1.1685   1.1702   1.1751
     1.1791   1.1815   1.1940   1.1960   1.1990   1.2061   1.2079   1.2125
     1.2139   1.2246   1.2276   1.2296   1.2359   1.2398   1.2417   1.2499
     1.2526   1.2547   1.2606   1.2658   1.2685   1.2699   1.2771   1.2790
     1.2905   1.2949   1.2957   1.3013   1.3030   1.3216   1.3244   1.3280
     1.3338   1.3431   1.3509   1.3535   1.3549   1.3657   1.3682   1.3754
     1.3756   1.3865   1.3891   1.3934   1.3962   1.4004   1.4109   1.4164
     1.4208   1.4251   1.4263   1.4310   1.4419   1.4473   1.4564   1.4621
     1.4631   1.4648   1.4699   1.4739   1.4749   1.4812   1.4912   1.4950
     1.4972   1.4985   1.5035   1.5105   1.5135   1.5178   1.5236   1.5289
     1.5307   1.5352   1.5358   1.5426   1.5542   1.5649   1.5661   1.5720
     1.5825   1.5878   1.5900   1.5940   1.5999   1.6017   1.6028   1.6094
     1.6175   1.6181   1.6203   1.6261   1.6290   1.6321   1.6385   1.6408
     1.6418   1.6473   1.6526   1.6536   1.6561   1.6594   1.6597   1.6648
     1.6693   1.6734   1.6748   1.6760   1.6768   1.6791   1.6842   1.6918
     1.6991   1.7043   1.7047   1.7092   1.7150   1.7167   1.7187   1.7225
     1.7306   1.7330   1.7341   1.7384   1.7426   1.7504   1.7593   1.7613
     1.7677   1.7714   1.7777   1.7820   1.7887   1.7946   1.8030   1.8052
     1.8079   1.8101   1.8153   1.8180   1.8267   1.8285   1.8304   1.8322
     1.8392   1.8463   1.8497   1.8571   1.8593   1.8661   1.8688   1.8707
     1.8798   1.8820   1.8835   1.8845   1.8856   1.8897   1.8914   1.8924
     1.9012   1.9043   1.9091   1.9104   1.9120   1.9158   1.9230   1.9247
     1.9261   1.9299   1.9376   1.9388   1.9452   1.9492   1.9632   1.9729
     1.9738   1.9775   1.9801   1.9829   1.9842   1.9869   1.9888   1.9945
     1.9972   2.0018   2.0041   2.0086   2.0183   2.0213   2.0227   2.0247
     2.0261   2.0292   2.0347   2.0366   2.0377   2.0409   2.0435   2.0470
     2.0509   2.0544   2.0564   2.0587   2.0635   2.0661   2.0713   2.0758
     2.0781   2.0807   2.0831   2.0861   2.0909   2.0966   2.1005   2.1059
     2.1091   2.1131   2.1166   2.1187   2.1344   2.1387   2.1398   2.1523
     2.1632   2.1722   2.1761   2.1849   2.1955   2.2052   2.2142   2.2239
     2.2307   2.2440   2.2497   2.3355   2.3428   2.3520   2.3853   2.4001
     2.4108   2.4440   2.4593   2.4632   2.5292   2.5997   2.6109   2.6360
     2.6405   2.6869   2.7133   2.9910   3.0546   3.0725   3.0847   3.1190
     3.1990   3.3479   3.4938   3.5252   3.5827   3.5836   3.6222   3.7117
     3.7452   3.7790   3.8263   3.8308   3.8605   4.0065   4.0770   4.0800
     4.1751   4.2041   4.2438   4.2498   4.2750   4.2826   4.2872   4.2935
     4.3095   4.3829   4.5802   4.7109   4.7778   4.8026   4.8914   4.8996
     4.9527   4.9833   5.0753   5.1495   5.1761   5.1961   5.2180   5.3771
     5.4087   5.5592   5.6120   5.6624   5.6829   5.7212   5.7710   5.7776
     5.8124   5.8770   5.9480   5.9759   5.9957   6.1068   6.1838   6.1926
     6.2228   6.3616   6.4696   6.5210   6.5383   6.5623   6.5712   6.5972
     6.7837   6.8596   6.9904   7.0863   7.1354   7.2421   7.2554   7.2839
     7.3338   7.3426   7.3623   7.3720   7.4202   7.4550   7.4823   7.5270
     7.5307   7.5609   7.6356   7.6578   7.7701   7.8901   7.9072   7.9322
     8.0827   8.1075   8.1353   8.1921   8.2675   8.3323   8.3899   8.4031
     8.4713   8.4907   8.5297   8.6098   8.6267   8.6488   8.7464   8.7580
     8.8532   8.9695   8.9792   8.9898   9.0321   9.0458   9.1113   9.1448
     9.2410   9.3270   9.3776   9.3964   9.4240   9.4627   9.4706   9.4827
     9.5386   9.5444   9.5773   9.6170   9.6694   9.7507   9.7692   9.7826
     9.8515   9.8687   9.9565   9.9688   9.9911  10.0432  10.0778  10.0804
    10.1892  10.2496  10.2679  10.3131  10.3351  10.3741  10.3843  10.4229
    10.5394  10.5543  10.5697  10.6534

          k = 0.2500-0.2165 0.0000 (256316 PWs)   bands (ev):

   -16.5490 -15.6155 -15.2158 -14.9330 -14.8052 -14.5998 -14.0783 -13.9517
   -13.6313 -13.5041 -13.0570 -12.6940 -12.6208 -12.5488 -12.1294 -12.0465
   -11.5622 -11.4289 -10.8962 -10.8075 -10.6884 -10.5263 -10.3261 -10.0127
    -9.2451  -9.1522  -8.8016  -8.7565  -8.5402  -8.4384  -8.0607  -8.0145
    -7.8738  -7.8055  -6.6592  -6.4156  -6.2573  -6.0436  -5.9942  -5.9048
    -5.8209  -5.7265  -5.5005  -5.4619  -5.1067  -5.0655  -4.8170  -4.6642
    -4.5233  -4.4561  -4.3517  -4.2669  -4.0625  -4.0233  -3.9922  -3.9471
    -3.9144  -3.8902  -3.7453  -3.7063  -3.6020  -3.5447  -3.5355  -3.4680
    -3.2369  -3.2148  -3.1647  -3.1203  -3.0929  -3.0118  -2.9856  -2.8811
    -2.8351  -2.7994  -2.7927  -2.7635  -2.7604  -2.6965  -2.6774  -2.5668
    -2.4832  -2.4751  -2.4219  -2.4004  -2.2896  -2.2781  -2.2658  -2.1723
    -2.1202  -2.0996  -2.0704  -1.9273  -1.9026  -1.8828  -1.7605  -1.7023
    -1.6871  -1.6785  -1.5884  -1.5474  -1.5365  -1.5303  -1.5169  -1.4956
    -1.4763  -1.4169  -1.3969  -1.3950  -1.3584  -1.3347  -1.3144  -1.2958
    -1.2581  -1.2367  -1.1787  -1.1761  -1.1724  -1.1325  -1.1234  -1.0862
    -1.0802  -1.0794  -1.0715  -1.0675  -1.0673  -1.0534  -1.0510  -1.0452
    -0.9881  -0.9821  -0.9729  -0.9477  -0.9448  -0.9288  -0.9234  -0.8773
    -0.8669  -0.8388  -0.8260  -0.7737  -0.7681  -0.7380  -0.7336  -0.7088
    -0.7054  -0.6912  -0.6603  -0.6590  -0.6582  -0.6524  -0.6365  -0.6241
    -0.6203  -0.6110  -0.6089  -0.6074  -0.6021  -0.5830  -0.5797  -0.5785
    -0.5777  -0.5751  -0.5698  -0.5457  -0.5360  -0.5257  -0.4993  -0.4946
    -0.4940  -0.4902  -0.4887  -0.4818  -0.4546  -0.4479  -0.4446  -0.4374
    -0.4317  -0.4300  -0.4233  -0.4201  -0.4144  -0.4085  -0.3933  -0.3875
    -0.3843  -0.3706  -0.3683  -0.3539  -0.3512  -0.3497  -0.3480  -0.3447
    -0.3402  -0.3322  -0.3173  -0.3015  -0.2857  -0.2795  -0.2769  -0.2644
    -0.2506  -0.2459  -0.2395  -0.2302  -0.2229  -0.2123  -0.1994  -0.1892
    -0.1770  -0.1646  -0.1516  -0.1468  -0.1277  -0.1200  -0.1150  -0.1099
    -0.0914  -0.0831  -0.0708  -0.0690  -0.0565  -0.0527  -0.0421  -0.0296
     0.0056   0.0084   0.0162   0.0251   0.0432   0.0443   0.0462   0.0508
     0.0564   0.0584   0.0667   0.0768   0.0817   0.0871   0.0943   0.1055
     0.1143   0.1190   0.1212   0.1263   0.1404   0.1433   0.1559   0.1611
     0.1668   0.1673   0.1679   0.1807   0.1929   0.1959   0.2021   0.2149
     0.2209   0.2230   0.2313   0.2371   0.2392   0.2434   0.2548   0.2575
     0.2589   0.2611   0.2679   0.2705   0.2722   0.2809   0.2881   0.2906
     0.2976   0.3063   0.3143   0.3286   0.3404   0.3424   0.3506   0.3568
     0.3656   0.3683   0.3731   0.3798   0.3858   0.3965   0.3986   0.4033
     0.4085   0.4113   0.4267   0.4289   0.4304   0.4429   0.4459   0.4528
     0.4653   0.4810   0.4898   0.4961   0.5005   0.5019   0.5031   0.5062
     0.5167   0.5210   0.5215   0.5355   0.5415   0.5431   0.5485   0.5553
     0.5565   0.5642   0.5679   0.5700   0.5736   0.5772   0.5904   0.5914
     0.6003   0.6023   0.6047   0.6091   0.6106   0.6165   0.6206   0.6382
     0.6404   0.6452   0.6465   0.6487   0.6499   0.6619   0.6696   0.6773
     0.6940   0.6978   0.7013   0.7039   0.7062   0.7088   0.7109   0.7163
     0.7259   0.7440   0.7476   0.7492   0.7547   0.7588   0.7645   0.7718
     0.7737   0.7772   0.7776   0.7877   0.7939   0.7966   0.7998   0.8017
     0.8124   0.8145   0.8177   0.8201   0.8287   0.8342   0.8410   0.8594
     0.8710   0.8801   0.8904   0.8929   0.8949   0.9055   0.9144   0.9185
     0.9212   0.9272   0.9299   0.9357   0.9372   0.9386   0.9435   0.9530
     0.9597   0.9639   0.9683   0.9702   0.9730   0.9788   0.9923   0.9978
     0.9997   1.0040   1.0068   1.0137   1.0181   1.0246   1.0340   1.0397
     1.0439   1.0461   1.0497   1.0532   1.0627   1.0681   1.0909   1.1025
     1.1062   1.1157   1.1189   1.1220   1.1236   1.1247   1.1268   1.1332
     1.1399   1.1535   1.1618   1.1647   1.1701   1.1732   1.1882   1.1933
     1.1947   1.1990   1.2037   1.2092   1.2098   1.2119   1.2143   1.2189
     1.2230   1.2314   1.2346   1.2425   1.2471   1.2518   1.2554   1.2616
     1.2695   1.2721   1.2733   1.2790   1.2815   1.2910   1.2924   1.2990
     1.3027   1.3053   1.3106   1.3129   1.3150   1.3187   1.3205   1.3252
     1.3323   1.3390   1.3457   1.3516   1.3538   1.3546   1.3580   1.3590
     1.3616   1.3671   1.3722   1.3748   1.3783   1.3874   1.3906   1.4030
     1.4051   1.4083   1.4170   1.4214   1.4342   1.4352   1.4418   1.4434
     1.4513   1.4558   1.4571   1.4627   1.4640   1.4676   1.4806   1.4853
     1.4878   1.4964   1.4978   1.4995   1.5003   1.5036   1.5042   1.5130
     1.5271   1.5289   1.5306   1.5348   1.5374   1.5389   1.5467   1.5560
     1.5631   1.5666   1.5751   1.5752   1.5791   1.5847   1.5865   1.5969
     1.6016   1.6045   1.6054   1.6141   1.6185   1.6359   1.6407   1.6456
     1.6511   1.6570   1.6650   1.6687   1.6747   1.6796   1.6803   1.6875
     1.6946   1.6959   1.7007   1.7024   1.7052   1.7085   1.7112   1.7125
     1.7141   1.7172   1.7184   1.7237   1.7302   1.7332   1.7350   1.7392
     1.7545   1.7595   1.7631   1.7656   1.7712   1.7729   1.7763   1.7783
     1.7798   1.7813   1.7839   1.7863   1.7894   1.7912   1.7935   1.7956
     1.8067   1.8084   1.8099   1.8136   1.8164   1.8168   1.8178   1.8231
     1.8254   1.8341   1.8378   1.8493   1.8521   1.8543   1.8583   1.8657
     1.8677   1.8702   1.8722   1.8773   1.8822   1.8828   1.8927   1.9002
     1.9030   1.9063   1.9121   1.9171   1.9195   1.9214   1.9261   1.9314
     1.9383   1.9413   1.9447   1.9472   1.9538   1.9590   1.9622   1.9675
     1.9708   1.9729   1.9763   1.9782   1.9802   1.9836   1.9867   1.9904
     1.9917   1.9945   1.9953   2.0067   2.0092   2.0107   2.0182   2.0224
     2.0255   2.0307   2.0341   2.0352   2.0369   2.0414   2.0419   2.0444
     2.0490   2.0551   2.0570   2.0604   2.0617   2.0633   2.0713   2.0769
     2.0816   2.0827   2.0856   2.0859   2.0892   2.0944   2.0955   2.1027
     2.1070   2.1103   2.1146   2.1171   2.1230   2.1311   2.1361   2.1477
     2.1506   2.1547   2.1570   2.1606   2.1725   2.1828   2.1952   2.2177
     2.2372   2.2520   2.3037   2.3104   2.3182   2.3367   2.3374   2.3423
     2.3588   2.3622   2.3708   2.4335   2.7107   2.7175   2.7374   2.7469
     2.7787   2.8371   2.8543   2.8659   2.9722   3.0878   3.1658   3.1714
     3.1838   3.2292   3.2911   3.3823   3.3910   3.4318   3.4692   3.5019
     3.5297   3.6870   3.7718   3.7741   3.7909   3.9887   4.2015   4.2200
     4.2547   4.3248   4.4017   4.4147   4.4318   4.4650   4.4843   4.5778
     4.6530   4.6831   4.7502   4.7510   4.7805   4.8364   4.8653   4.9068
     4.9396   4.9474   5.0126   5.0627   5.1227   5.1780   5.2008   5.2306
     5.2541   5.2823   5.3546   5.4013   5.5053   5.5754   5.5884   5.7849
     5.7989   5.8204   5.9701   5.9949   6.0479   6.0546   6.1345   6.1907
     6.3279   6.3308   6.4068   6.4413   6.5090   6.6214   6.6306   6.6634
     6.8293   6.8752   7.0148   7.0218   7.0498   7.1026   7.1545   7.3330
     7.3928   7.4007   7.4445   7.4863   7.5769   7.6040   7.6770   7.6952
     7.7147   7.7241   7.7422   7.7544   7.7880   7.8883   7.9322   7.9771
     8.0253   8.0377   8.1006   8.1025   8.3248   8.3827   8.4357   8.5108
     8.5299   8.5954   8.6071   8.6388   8.6991   8.7941   8.7994   8.8090
     8.8410   8.8798   8.8932   8.9075   9.0219   9.0895   9.1024   9.1043
     9.1622   9.1772   9.2450   9.2884   9.3155   9.3286   9.3341   9.3547
     9.4387   9.5144   9.5945   9.6298   9.6573   9.6651   9.6929   9.7360
     9.7584   9.8134   9.8228   9.8617   9.9162   9.9498  10.0315  10.0683
    10.1005  10.1077  10.1319  10.2252  10.2344  10.3018  10.3490  10.4215
    10.4558  10.4949  10.5223  10.5501

          k =-0.5000 0.0000 0.0000 (256496 PWs)   bands (ev):

   -16.4882 -15.3847 -15.2056 -15.0215 -14.9610 -14.8903 -14.2143 -13.9910
   -13.8944 -13.8554 -12.6034 -12.2885 -12.1655 -12.0867 -11.7873 -11.7790
   -11.3744 -11.3072 -11.1503 -11.1298 -10.6405 -10.5633 -10.4215 -10.1921
    -9.7367  -9.6655  -9.4367  -9.1268  -8.5647  -8.5601  -8.3638  -8.3215
    -7.2534  -7.0569  -7.0045  -6.8298  -6.7835  -6.7547  -5.6959  -5.5794
    -5.1891  -4.6942  -4.6920  -4.6859  -4.5579  -4.3733  -4.2908  -4.2695
    -4.2268  -4.1903  -4.1719  -4.1676  -4.1628  -4.1333  -4.1068  -4.0726
    -4.0622  -3.9589  -3.9501  -3.9347  -3.8382  -3.7822  -3.7793  -3.5840
    -3.5437  -3.4158  -3.3349  -3.2860  -3.2117  -3.1275  -3.0965  -3.0833
    -3.0255  -2.9667  -2.8485  -2.8032  -2.7885  -2.7863  -2.7849  -2.7827
    -2.7815  -2.7743  -2.4189  -2.4119  -2.3786  -2.3184  -2.3032  -2.2449
    -2.2066  -2.1740  -2.1133  -2.1000  -2.0790  -1.9449  -1.9172  -1.8946
    -1.8852  -1.8813  -1.8781  -1.8512  -1.3354  -1.3288  -1.3256  -1.3217
    -1.2800  -1.2561  -1.2552  -1.2523  -1.2483  -1.2463  -1.2431  -1.2413
    -1.1955  -1.1926  -1.0365  -1.0359  -1.0339  -1.0324  -1.0186  -0.9843
    -0.9829  -0.9805  -0.9782  -0.9733  -0.9634  -0.9631  -0.9327  -0.9204
    -0.9122  -0.8683  -0.8679  -0.8501  -0.8430  -0.8408  -0.8288  -0.8269
    -0.8089  -0.8075  -0.7661  -0.7627  -0.7425  -0.7372  -0.7292  -0.7278
    -0.7109  -0.7036  -0.6956  -0.6910  -0.6783  -0.6776  -0.6728  -0.6705
    -0.6620  -0.6593  -0.6563  -0.6531  -0.6056  -0.5949  -0.5923  -0.5835
    -0.5794  -0.5708  -0.5703  -0.5572  -0.5545  -0.5389  -0.5316  -0.5312
    -0.5251  -0.5169  -0.5076  -0.5010  -0.4914  -0.4902  -0.4835  -0.4821
    -0.4686  -0.4614  -0.4591  -0.4552  -0.4314  -0.4154  -0.4153  -0.4141
    -0.3896  -0.3871  -0.3810  -0.3658  -0.3642  -0.3528  -0.3512  -0.3504
    -0.3444  -0.3414  -0.3374  -0.3254  -0.3246  -0.3186  -0.3006  -0.2978
    -0.2917  -0.2876  -0.2841  -0.2829  -0.2804  -0.2704  -0.2468  -0.2243
    -0.2234  -0.1527  -0.1495  -0.1170  -0.1136  -0.1071  -0.1048  -0.0857
    -0.0798  -0.0794  -0.0641  -0.0603  -0.0525  -0.0462  -0.0453  -0.0366
    -0.0315  -0.0276  -0.0121  -0.0032  -0.0010   0.0064   0.0080   0.0179
     0.0226   0.0267   0.0390   0.0410   0.0481   0.0635   0.0834   0.1000
     0.1023   0.1075   0.1156   0.1276   0.1331   0.1416   0.1529   0.1555
     0.1563   0.1577   0.1831   0.1860   0.1937   0.1951   0.2086   0.2109
     0.2415   0.2426   0.2432   0.2450   0.2630   0.2647   0.2721   0.2756
     0.2809   0.2882   0.2896   0.2971   0.3053   0.3123   0.3199   0.3208
     0.3329   0.3410   0.3481   0.3501   0.3601   0.3626   0.3642   0.3661
     0.3730   0.3734   0.3767   0.3977   0.4093   0.4113   0.4312   0.4359
     0.4433   0.4491   0.4536   0.4650   0.4692   0.4733   0.4744   0.4830
     0.4893   0.4915   0.4971   0.5087   0.5104   0.5212   0.5296   0.5461
     0.5485   0.5498   0.5609   0.5662   0.5683   0.5735   0.5772   0.5795
     0.5813   0.5841   0.5925   0.5965   0.5975   0.6007   0.6054   0.6066
     0.6167   0.6253   0.6342   0.6373   0.6389   0.6467   0.6491   0.6624
     0.6753   0.6897   0.6915   0.6932   0.6963   0.7049   0.7065   0.7080
     0.7085   0.7086   0.7134   0.7150   0.7192   0.7235   0.7239   0.7282
     0.7344   0.7419   0.7424   0.7442   0.7447   0.7506   0.7517   0.7542
     0.7571   0.7615   0.7630   0.7691   0.7728   0.7782   0.7795   0.7832
     0.7927   0.8122   0.8136   0.8249   0.8258   0.8415   0.8446   0.8780
     0.8796   0.8901   0.8947   0.8975   0.9024   0.9122   0.9132   0.9182
     0.9199   0.9399   0.9439   0.9482   0.9547   0.9589   0.9628   0.9654
     0.9691   0.9704   0.9720   0.9787   0.9791   0.9804   0.9950   0.9989
     1.0006   1.0011   1.0025   1.0066   1.0071   1.0077   1.0208   1.0216
     1.0294   1.0299   1.0357   1.0361   1.0610   1.0635   1.0702   1.0724
     1.0842   1.0846   1.1020   1.1040   1.1044   1.1129   1.1158   1.1166
     1.1210   1.1287   1.1330   1.1357   1.1514   1.1540   1.1549   1.1589
     1.1635   1.1668   1.1728   1.1754   1.1795   1.1815   1.1854   1.1872
     1.1879   1.1894   1.2150   1.2208   1.2217   1.2223   1.2282   1.2284
     1.2293   1.2362   1.2417   1.2428   1.2542   1.2547   1.2563   1.2583
     1.2628   1.2695   1.2723   1.2738   1.2760   1.2887   1.2908   1.2987
     1.2990   1.3026   1.3046   1.3106   1.3215   1.3255   1.3449   1.3493
     1.3524   1.3584   1.3593   1.3614   1.3672   1.3699   1.3762   1.3771
     1.3797   1.3846   1.3951   1.3963   1.4018   1.4048   1.4164   1.4267
     1.4275   1.4352   1.4451   1.4470   1.4480   1.4482   1.4524   1.4559
     1.4670   1.4690   1.4694   1.4745   1.4793   1.4809   1.4818   1.4891
     1.5002   1.5057   1.5072   1.5076   1.5104   1.5107   1.5340   1.5359
     1.5384   1.5552   1.5566   1.5606   1.5682   1.5703   1.5830   1.5888
     1.6023   1.6044   1.6069   1.6140   1.6189   1.6219   1.6340   1.6467
     1.6471   1.6576   1.6634   1.6693   1.6718   1.6742   1.6795   1.6818
     1.6924   1.6924   1.6970   1.6975   1.6987   1.7030   1.7152   1.7162
     1.7188   1.7247   1.7302   1.7316   1.7376   1.7391   1.7402   1.7409
     1.7466   1.7509   1.7587   1.7627   1.7633   1.7658   1.7789   1.7801
     1.7838   1.7850   1.7879   1.7927   1.7944   1.7955   1.8008   1.8089
     1.8151   1.8179   1.8210   1.8212   1.8243   1.8263   1.8307   1.8331
     1.8338   1.8382   1.8393   1.8412   1.8481   1.8508   1.8514   1.8580
     1.8702   1.8766   1.8831   1.8860   1.8931   1.8970   1.8999   1.9017
     1.9028   1.9044   1.9087   1.9093   1.9160   1.9200   1.9234   1.9271
     1.9275   1.9305   1.9315   1.9331   1.9349   1.9355   1.9378   1.9386
     1.9403   1.9511   1.9530   1.9588   1.9637   1.9686   1.9707   1.9764
     1.9811   1.9828   1.9835   1.9861   1.9878   1.9950   2.0045   2.0059
     2.0077   2.0087   2.0091   2.0216   2.0255   2.0257   2.0269   2.0297
     2.0300   2.0321   2.0393   2.0411   2.0453   2.0513   2.0535   2.0547
     2.0555   2.0559   2.0680   2.0771   2.0783   2.0786   2.0875   2.0882
     2.0986   2.1010   2.1040   2.1060   2.1172   2.1174   2.1176   2.1179
     2.1261   2.1268   2.1346   2.1499   2.1593   2.1712   2.1716   2.1727
     2.1807   2.1861   2.2131   2.2137   2.2214   2.2256   2.3569   2.3583
     2.3930   2.3967   2.5460   2.5470   2.8117   2.8173   2.8609   2.8630
     2.8709   2.8726   2.8890   2.8913   2.9132   2.9147   3.3262   3.3284
     3.3680   3.3690   3.6667   3.6704   3.6891   3.6966   3.7479   3.7537
     3.7812   3.7819   3.9106   3.9131   3.9465   3.9522   4.3883   4.3939
     4.4077   4.4101   4.5101   4.5263   4.5628   4.5984   4.6079   4.6213
     4.6663   4.7336   4.7381   5.0160   5.0230   5.0509   5.2395   5.2743
     5.2806   5.2877   5.3044   5.3286   5.3842   5.4573   5.4671   5.4706
     5.4749   5.5241   5.5442   5.6063   5.6129   5.6288   5.6340   5.6467
     5.7242   5.7272   5.7298   5.7664   5.7839   5.8185   5.8637   5.8796
     5.9326   5.9641   6.3173   6.3376   6.3579   6.3803   6.4002   6.4054
     6.4848   6.4886   6.5222   6.5289   6.6005   6.6100   6.6480   6.6553
     6.8411   7.0187   7.0593   7.0864   7.1050   7.1276   7.2432   7.2531
     7.6946   7.7145   7.7240   7.7363   7.8192   7.8265   7.8710   7.8872
     8.1235   8.1293   8.1921   8.1983   8.2288   8.2330   8.2629   8.2689
     8.4177   8.4206   8.4744   8.4765   8.5096   8.5138   8.6356   8.6841
     8.7329   8.7503   8.8487   8.8508   8.8736   8.8813   9.1423   9.1522
     9.2339   9.2495   9.2698   9.2739   9.3276   9.3354   9.4498   9.4563
     9.4673   9.4776   9.5066   9.6357   9.6439   9.6742   9.6786   9.7766
     9.7872   9.8585   9.8860   9.9319   9.9610   9.9671   9.9705   9.9762
     9.9829  10.0270  10.1679  10.1706  10.1810  10.1837  10.2746  10.2806
    10.3192  10.3351  10.4213  10.4492

          k =-0.5000-0.2165 0.0000 (256328 PWs)   bands (ev):

   -16.4880 -15.3548 -15.2504 -15.1709 -14.7523 -14.6091 -14.5175 -14.4867
   -13.4517 -13.2278 -13.0894 -13.0625 -11.9984 -11.8053 -11.4449 -11.3843
   -11.3048 -11.1890 -11.0879 -10.9873 -10.9433 -10.8881 -10.7883 -10.7686
    -9.4526  -9.3813  -9.1909  -9.0992  -8.6224  -8.3211  -8.2037  -8.1503
    -7.6851  -7.6346  -7.4533  -7.3930  -5.9361  -5.7072  -5.5430  -5.3693
    -5.2701  -4.9815  -4.7738  -4.7608  -4.6847  -4.5871  -4.5787  -4.5676
    -4.5426  -4.5386  -4.4103  -4.3748  -4.2186  -3.9891  -3.8980  -3.8592
    -3.7446  -3.6570  -3.6229  -3.5978  -3.5869  -3.5580  -3.5525  -3.5278
    -3.5161  -3.5007  -3.4848  -3.4437  -3.3561  -3.2849  -3.1682  -3.1578
    -3.1156  -3.1011  -3.0220  -3.0133  -2.9897  -2.8238  -2.8029  -2.7838
    -2.6829  -2.5916  -2.5858  -2.5048  -2.3538  -2.3493  -2.0766  -2.0748
    -2.0634  -2.0105  -1.9481  -1.9464  -1.9450  -1.9436  -1.8374  -1.7778
    -1.6705  -1.6653  -1.6530  -1.6284  -1.5790  -1.5390  -1.4983  -1.4689
    -1.4592  -1.4540  -1.4420  -1.4119  -1.3760  -1.2224  -1.2177  -1.1871
    -1.1852  -1.1775  -1.1746  -1.1574  -1.1429  -1.1129  -1.0492  -1.0071
    -0.9936  -0.9637  -0.9627  -0.9251  -0.8655  -0.8636  -0.8588  -0.8575
    -0.8207  -0.8183  -0.8159  -0.8135  -0.8131  -0.8128  -0.8118  -0.8048
    -0.8012  -0.8008  -0.7745  -0.7714  -0.7672  -0.7666  -0.7471  -0.7464
    -0.7457  -0.7435  -0.7351  -0.7342  -0.7315  -0.7309  -0.7224  -0.6922
    -0.6888  -0.6256  -0.6232  -0.6145  -0.6100  -0.5912  -0.5867  -0.5785
    -0.5767  -0.5675  -0.5658  -0.5427  -0.5408  -0.5398  -0.5310  -0.5277
    -0.5136  -0.5130  -0.5106  -0.5089  -0.4995  -0.4979  -0.4930  -0.4918
    -0.4871  -0.4820  -0.4597  -0.4521  -0.4513  -0.4500  -0.4445  -0.4306
    -0.4292  -0.4258  -0.4245  -0.4219  -0.4063  -0.4060  -0.4049  -0.4041
    -0.3629  -0.3611  -0.3588  -0.3551  -0.3099  -0.3080  -0.3054  -0.3025
    -0.2489  -0.2476  -0.2239  -0.2232  -0.2002  -0.2000  -0.1917  -0.1904
    -0.1501  -0.1493  -0.1390  -0.1365  -0.1359  -0.1346  -0.1230  -0.1227
    -0.1143  -0.1118  -0.0881  -0.0880  -0.0760  -0.0735  -0.0679  -0.0666
    -0.0552  -0.0546  -0.0494  -0.0477   0.0173   0.0212   0.0328   0.0365
     0.0508   0.0516   0.0715   0.0757   0.0766   0.0790   0.0811   0.0871
     0.0964   0.1140   0.1260   0.1287   0.1302   0.1312   0.1672   0.1702
     0.1745   0.1768   0.1781   0.1799   0.1806   0.1817   0.1875   0.2141
     0.2174   0.2214   0.2267   0.2407   0.2438   0.2486   0.2608   0.2910
     0.2989   0.3200   0.3258   0.3326   0.3430   0.3490   0.3515   0.3522
     0.3539   0.3551   0.3570   0.3650   0.3678   0.3681   0.3743   0.3756
     0.3838   0.3876   0.3962   0.4296   0.4388   0.4406   0.4424   0.4435
     0.4482   0.4516   0.4560   0.4764   0.4824   0.4862   0.4890   0.4945
     0.4961   0.4965   0.4974   0.4983   0.4997   0.5032   0.5067   0.5139
     0.5260   0.5288   0.5392   0.5480   0.5499   0.5550   0.5667   0.5741
     0.5763   0.5970   0.6056   0.6128   0.6138   0.6369   0.6399   0.6431
     0.6463   0.6489   0.6498   0.6514   0.6582   0.6592   0.6699   0.6752
     0.6759   0.6789   0.6896   0.6913   0.6940   0.7044   0.7061   0.7064
     0.7086   0.7088   0.7104   0.7167   0.7204   0.7217   0.7250   0.7263
     0.7321   0.7409   0.7436   0.7487   0.7518   0.7525   0.7543   0.7559
     0.7573   0.7644   0.7657   0.7798   0.7931   0.8161   0.8175   0.8188
     0.8215   0.8303   0.8314   0.8318   0.8329   0.8528   0.8596   0.8615
     0.8631   0.8650   0.8755   0.8805   0.8850   0.8920   0.8972   0.9133
     0.9180   0.9210   0.9303   0.9493   0.9551   0.9595   0.9608   0.9705
     0.9715   0.9731   0.9842   0.9869   0.9972   1.0015   1.0023   1.0053
     1.0076   1.0079   1.0195   1.0211   1.0245   1.0250   1.0334   1.0344
     1.0393   1.0410   1.0472   1.0482   1.0612   1.0646   1.0676   1.0703
     1.0788   1.0839   1.0895   1.0899   1.0942   1.0953   1.1033   1.1092
     1.1156   1.1167   1.1177   1.1225   1.1327   1.1465   1.1506   1.1518
     1.1565   1.1628   1.1722   1.1758   1.1806   1.1820   1.1829   1.1866
     1.1892   1.2035   1.2141   1.2155   1.2169   1.2176   1.2278   1.2313
     1.2328   1.2350   1.2358   1.2406   1.2429   1.2450   1.2488   1.2598
     1.2686   1.2743   1.2791   1.2846   1.2855   1.2938   1.2951   1.2977
     1.3022   1.3099   1.3125   1.3179   1.3195   1.3232   1.3253   1.3346
     1.3376   1.3394   1.3453   1.3467   1.3506   1.3529   1.3679   1.3710
     1.3799   1.3826   1.3881   1.3898   1.3906   1.3916   1.3978   1.3997
     1.4012   1.4061   1.4152   1.4170   1.4263   1.4280   1.4335   1.4391
     1.4595   1.4626   1.4725   1.4728   1.4842   1.4862   1.4940   1.5065
     1.5175   1.5241   1.5359   1.5402   1.5611   1.5627   1.5725   1.5786
     1.5814   1.5844   1.5858   1.5875   1.6075   1.6129   1.6152   1.6253
     1.6300   1.6312   1.6314   1.6327   1.6339   1.6356   1.6401   1.6428
     1.6447   1.6457   1.6489   1.6500   1.6526   1.6540   1.6576   1.6580
     1.6591   1.6599   1.6651   1.6721   1.6837   1.6913   1.6973   1.6977
     1.6993   1.7058   1.7099   1.7117   1.7140   1.7204   1.7238   1.7250
     1.7361   1.7372   1.7428   1.7448   1.7464   1.7478   1.7484   1.7492
     1.7525   1.7554   1.7613   1.7752   1.7872   1.7890   1.7894   1.7918
     1.8087   1.8102   1.8123   1.8161   1.8272   1.8294   1.8308   1.8321
     1.8326   1.8400   1.8493   1.8530   1.8641   1.8658   1.8708   1.8728
     1.8777   1.8877   1.8888   1.8890   1.8917   1.8981   1.8993   1.8998
     1.9026   1.9149   1.9176   1.9197   1.9327   1.9341   1.9353   1.9372
     1.9441   1.9456   1.9488   1.9510   1.9513   1.9516   1.9557   1.9561
     1.9615   1.9623   1.9627   1.9681   1.9685   1.9730   1.9777   1.9808
     1.9814   1.9816   1.9850   1.9883   1.9905   1.9921   1.9997   2.0003
     2.0056   2.0133   2.0145   2.0158   2.0185   2.0226   2.0262   2.0327
     2.0344   2.0348   2.0378   2.0425   2.0432   2.0472   2.0578   2.0584
     2.0602   2.0647   2.0749   2.0770   2.0843   2.0865   2.1016   2.1031
     2.1059   2.1073   2.1143   2.1166   2.1172   2.1178   2.1318   2.1326
     2.1361   2.1391   2.1421   2.1500   2.1826   2.1838   2.1841   2.1852
     2.1895   2.1907   2.2097   2.2133   2.2253   2.2291   2.2312   2.2492
     2.3989   2.4009   2.4043   2.4096   2.4569   2.4590   2.7180   2.7189
     3.0033   3.0079   3.0372   3.0390   3.1324   3.1382   3.1540   3.1548
     3.3548   3.3578   3.3956   3.4004   3.8649   3.8714   4.0194   4.0317
     4.0430   4.0448   4.0523   4.0611   4.1853   4.1858   4.2729   4.2770
     4.4529   4.4554   4.5313   4.5331   4.5334   4.5372   4.5835   4.6209
     4.7342   4.8186   4.8237   4.8304   4.8367   4.9887   5.0587   5.0684
     5.1086   5.1549   5.2248   5.2395   5.2481   5.2842   5.3329   5.3816
     5.4105   5.4838   5.5002   5.5639   5.5966   5.6175   5.6285   5.6388
     5.6671   5.7026   5.7138   5.7469   5.7707   5.8323   5.9540   6.0480
     6.0584   6.0946   6.1223   6.1503   6.1745   6.1812   6.3150   6.3329
     6.3955   6.4039   6.4127   6.4258   6.8020   6.8091   6.8325   6.8380
     7.1889   7.1946   7.2773   7.2812   7.4995   7.5072   7.5086   7.5281
     7.5892   7.5985   7.7226   7.7335   7.7406   7.7426   7.9461   7.9476
     7.9493   7.9502   8.1118   8.1280   8.1875   8.1994   8.2126   8.3656
     8.4165   8.4182   8.5020   8.5365   8.6123   8.6211   8.6364   8.6410
     8.6811   8.6827   8.8437   8.8758   8.9666   8.9817   9.0096   9.0162
     9.2327   9.2421   9.3116   9.3180   9.4193   9.4207   9.4230   9.4234
     9.5102   9.5122   9.5244   9.5277   9.5930   9.5982   9.6082   9.6087
     9.6171   9.6276   9.6575   9.6707   9.7089   9.7235   9.9668   9.9838
    10.0453  10.0596  10.2714  10.2792  10.2820  10.2896  10.3558  10.3656
    10.5172  10.5230  10.5316  10.5370

     the Fermi energy is     3.9259 ev

!    total energy              =  -13679.28456129 Ry
     Harris-Foulkes estimate   =  -13679.28456126 Ry
     estimated scf accuracy    <          7.7E-09 Ry

     The total energy is the sum of the following terms:

     one-electron contribution = -106324.69612819 Ry
     hartree contribution      =   54657.94250720 Ry
     xc contribution           =   -4789.49445957 Ry
     ewald contribution        =   42783.67559383 Ry
     Dispersion Correction     =      -3.10053462 Ry
     smearing contrib. (-TS)   =      -3.61153995 Ry

     convergence has been achieved in  53 iterations

     Writing output data file gc.save
 
     init_run     :    108.61s CPU    116.03s WALL (       1 calls)
     electrons    :  15549.27s CPU  16593.20s WALL (       1 calls)

     Called by init_run:
     wfcinit      :    106.28s CPU    113.20s WALL (       1 calls)
     potinit      :      0.39s CPU      0.42s WALL (       1 calls)

     Called by electrons:
     c_bands      :  14279.90s CPU  15199.69s WALL (      53 calls)
     sum_band     :   1065.08s CPU   1158.21s WALL (      53 calls)
     v_of_rho     :      3.51s CPU      4.30s WALL (      54 calls)
     newd         :     10.59s CPU     17.06s WALL (      54 calls)
     mix_rho      :    189.98s CPU    213.79s WALL (      53 calls)

     Called by c_bands:
     init_us_2    :     48.00s CPU     48.50s WALL (     642 calls)
     cegterg      :  14068.07s CPU  14979.65s WALL (     328 calls)

     Called by sum_band:
     sum_band:bec :      6.50s CPU      7.27s WALL (     318 calls)
     addusdens    :     10.24s CPU     16.57s WALL (      53 calls)

     Called by *egterg:
     h_psi        :   5205.57s CPU   5616.88s WALL (    2080 calls)
     s_psi        :   1304.61s CPU   1319.95s WALL (    2080 calls)
     g_psi        :     12.80s CPU     12.81s WALL (    1746 calls)
     cdiaghg      :   4030.03s CPU   4180.54s WALL (    2064 calls)

     Called by h_psi:
     add_vuspsi   :   1314.95s CPU   1332.08s WALL (    2080 calls)

     General routines
     calbec       :   1842.49s CPU   1855.21s WALL (    2398 calls)
     fft          :      4.16s CPU      4.97s WALL (     701 calls)
     ffts         :    111.85s CPU    126.07s WALL (   28866 calls)
     fftw         :   2907.56s CPU   3239.43s WALL ( 1617498 calls)
     davcio       :      0.22s CPU      3.39s WALL (       6 calls)
 
     Parallel routines
     fft_scatter  :   1879.14s CPU   2064.83s WALL ( 1647065 calls)
 
     PWSCF        :     4h21m CPU        4h38m WALL

 
   This run was terminated on:  18:56:17  20Apr2017            

=------------------------------------------------------------------------------=
   JOB DONE.
=------------------------------------------------------------------------------=
