
     Program PWSCF v.5.4.0 starts on 26Apr2017 at 19:48:23 

     This program is part of the open-source Quantum ESPRESSO suite
     for quantum simulation of materials; please cite
         "P. Giannozzi et al., J. Phys.:Condens. Matter 21 395502 (2009);
          URL http://www.quantum-espresso.org", 
     in publications or presentations arising from this work. More details at
     http://www.quantum-espresso.org/quote

     Parallel version (MPI & OpenMP), running on      56 processor cores
     Number of MPI processes:                56
     Threads/MPI process:                     1
     R & G space division:  proc/nbgrp/npool/nimage =      56
     Waiting for input...
     Reading input from standard input
Warning: card &IONS ignored
Warning: card / ignored

     Current dimensions of program PWSCF are:
     Max number of different atomic species (ntypx) = 10
     Max number of k-points (npk) =  40000
     Max angular momentum in pseudopotentials (lmaxx) =  3

     -------------------------------------
     Parameters for Dispersion Correction:
     -------------------------------------
       atom      VdW radius       C_6     

        Cu         2.952        374.666
        C_h        2.744         60.710
        C          2.744         60.710
        H          1.892          4.857

     Subspace diagonalization in iterative solution of the eigenvalue problem:
     one sub-group per band group will be used
     scalapack distributed-memory algorithm (size of sub-group:  5*  5 procs)

 
     Parallelization info
     --------------------
     sticks:   dense  smooth     PW     G-vecs:    dense   smooth      PW
     Min         204     204     54                36612    36612    4962
     Max         205     205     55                36617    36617    4968
     Sum       11433   11433   3039              2050409  2050409  278033
 


     bravais-lattice index     =            0
     lattice parameter (alat)  =      13.9425  a.u.
     unit-cell volume          =   21209.0878 (a.u.)^3
     number of atoms/cell      =          151
     number of atomic types    =            4
     number of electrons       =      1298.00
     number of Kohn-Sham states=          779
     kinetic-energy cutoff     =      80.0000  Ry
     charge density cutoff     =     320.0000  Ry
     convergence threshold     =      1.0E-08
     mixing beta               =       0.7000
     number of iterations used =            8  local-TF  mixing
     Exchange-correlation      =  SLA  PW   PBE  PBE ( 1  4  3  4 0 0)

     celldm(1)=  13.942539  celldm(2)=   0.000000  celldm(3)=   0.000000
     celldm(4)=   0.000000  celldm(5)=   0.000000  celldm(6)=   0.000000

     crystal axes: (cart. coord. in units of alat)
               a(1) = (   1.000000   0.000000   0.000000 )  
               a(2) = (   0.000000   2.309401   0.000000 )  
               a(3) = (   0.000000   0.000000   3.388418 )  

     reciprocal axes: (cart. coord. in units 2 pi/alat)
               b(1) = (  1.000000  0.000000  0.000000 )  
               b(2) = (  0.000000  0.433013  0.000000 )  
               b(3) = (  0.000000  0.000000  0.295123 )  


     PseudoPot. # 1 for Cu read from file:
     /home/549/hxw549/Short/pseudopotentials/Cu.pbe-n-van_ak.UPF
     MD5 check sum: 601f7c30f7467666bec936e0661ce3e1
     Pseudo is Ultrasoft + core correction, Zval = 11.0
     Generated by new atomic code, or converted to UPF format
     Using radial grid of  867 points,  6 beta functions with: 
                l(1) =   0
                l(2) =   0
                l(3) =   1
                l(4) =   1
                l(5) =   2
                l(6) =   2
     Q(r) pseudized with  8 coefficients,  rinner =    1.400   1.400   1.400
                                                       1.400   1.400

     PseudoPot. # 2 for C  read from file:
     /home/549/hxw549/Short/pseudopotentials/C.star1s-pbe-mt_gipaw.UPF
     MD5 check sum: ef0cb3dee31bd9e4ba2a832a2c716264
     Pseudo is Norm-conserving, Zval =  5.0
     Generated by new atomic code, or converted to UPF format
     Using radial grid of 1073 points,  1 beta functions with: 
                l(1) =   0

     PseudoPot. # 3 for C  read from file:
     /home/549/hxw549/Short/pseudopotentials/C.pbe-mt_gipaw.UPF
     MD5 check sum: 5ac2f21f2c440b14befe521540822c15
     Pseudo is Norm-conserving, Zval =  4.0
     Generated by new atomic code, or converted to UPF format
     Using radial grid of 1073 points,  1 beta functions with: 
                l(1) =   0

     PseudoPot. # 4 for H  read from file:
     /home/549/hxw549/Short/pseudopotentials/H.pbe-van_ak.UPF
     MD5 check sum: 077eb6d537518a38cb46c6de387227b7
     Pseudo is Ultrasoft, Zval =  1.0
     Generated by new atomic code, or converted to UPF format
     Using radial grid of  615 points,  1 beta functions with: 
                l(1) =   0
     Q(r) pseudized with  8 coefficients,  rinner =    0.800

     atomic species   valence    mass     pseudopotential
        Cu            11.00    63.54600     Cu( 1.00)
        C_h            5.00    12.01070     C ( 1.00)
        C              4.00    12.01070     C ( 1.00)
        H              1.00     1.00783     H ( 1.00)

     No symmetry found



   Cartesian axes

     site n.     atom                  positions (alat units)
         1           Cu  tau(   1) = (   0.0023701   0.0005531   0.9912775  )
         2           Cu  tau(   2) = (   0.2522943   0.2298133   0.9926653  )
         3           Cu  tau(   3) = (   0.5025296   0.0001495   0.9914819  )
         4           Cu  tau(   4) = (   0.7524013   0.2299767   0.9924321  )
         5           Cu  tau(   5) = (   0.0025375   0.4601610   0.9926740  )
         6           Cu  tau(   6) = (   0.2531029   0.6915518   0.9925774  )
         7           Cu  tau(   7) = (   0.5026857   0.4598738   0.9931577  )
         8           Cu  tau(   8) = (   0.7528923   0.6915806   0.9923958  )
         9           Cu  tau(   9) = (   0.0033284   0.9235327   0.9914067  )
        10           Cu  tau(  10) = (   0.2536458   1.1551632   0.9916268  )
        11           Cu  tau(  11) = (   0.5031110   0.9237667   0.9921888  )
        12           Cu  tau(  12) = (   0.7532464   1.1549911   0.9918572  )
        13           Cu  tau(  13) = (   0.0031228   1.3872533   0.9902750  )
        14           Cu  tau(  14) = (   0.2531675   1.6194281   0.9899745  )
        15           Cu  tau(  15) = (   0.5035730   1.3876186   0.9919566  )
        16           Cu  tau(  16) = (   0.7530729   1.6196848   0.9896121  )
        17           Cu  tau(  17) = (   0.0031753   1.8498056   0.9901986  )
        18           Cu  tau(  18) = (   0.2527161   2.0803759   0.9900461  )
        19           Cu  tau(  19) = (   0.5026297   1.8505913   0.9887375  )
        20           Cu  tau(  20) = (   0.7525822   2.0801547   0.9906741  )
        21           Cu  tau(  21) = (   0.0029714   0.2294365   1.2412071  )
        22           Cu  tau(  22) = (   0.2530781  -0.0006502   1.2409225  )
        23           Cu  tau(  23) = (   0.5031218   0.2294308   1.2412588  )
        24           Cu  tau(  24) = (   0.7530282  -0.0002383   1.2413913  )
        25           Cu  tau(  25) = (   0.0037474   0.6915272   1.2388332  )
        26           Cu  tau(  26) = (   0.2534508   0.4599901   1.2402593  )
        27           Cu  tau(  27) = (   0.5034705   0.6915691   1.2392123  )
        28           Cu  tau(  28) = (   0.7531709   0.4594197   1.2392921  )
        29           Cu  tau(  29) = (   0.0044018   1.1568475   1.2366386  )
        30           Cu  tau(  30) = (   0.2539968   0.9236930   1.2387872  )
        31           Cu  tau(  31) = (   0.5040972   1.1559828   1.2392214  )
        32           Cu  tau(  32) = (   0.7544796   0.9232473   1.2393972  )
        33           Cu  tau(  33) = (   0.0041560   1.6193309   1.2388143  )
        34           Cu  tau(  34) = (   0.2536870   1.3888299   1.2368786  )
        35           Cu  tau(  35) = (   0.5035967   1.6211676   1.2364274  )
        36           Cu  tau(  36) = (   0.7545803   1.3894447   1.2365008  )
        37           Cu  tau(  37) = (   0.0032782   2.0794921   1.2408876  )
        38           Cu  tau(  38) = (   0.2531897   1.8496993   1.2398460  )
        39           Cu  tau(  39) = (   0.5034349   2.0792346   1.2399824  )
        40           Cu  tau(  40) = (   0.7540034   1.8497362   1.2391936  )
        41           Cu  tau(  41) = (   0.0038687  -0.0013266   1.4920112  )
        42           Cu  tau(  42) = (   0.2541654   0.2276460   1.4894066  )
        43           Cu  tau(  43) = (   0.5047584  -0.0006080   1.4915878  )
        44           Cu  tau(  44) = (   0.7547324   0.2291704   1.4909609  )
        45           Cu  tau(  45) = (   0.0039754   0.4590212   1.4890642  )
        46           Cu  tau(  46) = (   0.2548312   0.6910340   1.4878485  )
        47           Cu  tau(  47) = (   0.5047712   0.4598869   1.4896285  )
        48           Cu  tau(  48) = (   0.7553903   0.6899110   1.4873405  )
        49           Cu  tau(  49) = (   0.0070936   0.9252700   1.4857464  )
        50           Cu  tau(  50) = (   0.2544914   1.1583113   1.4855396  )
        51           Cu  tau(  51) = (   0.5052697   0.9225779   1.4862390  )
        52           Cu  tau(  52) = (   0.7578866   1.1594260   1.4829290  )
        53           Cu  tau(  53) = (   0.0061710   1.3887674   1.4884912  )
        54           Cu  tau(  54) = (   0.2537878   1.6193626   1.4889766  )
        55           Cu  tau(  55) = (   0.5051385   1.3936799   1.4817811  )
        56           Cu  tau(  56) = (   0.7568507   1.6201381   1.4883657  )
        57           Cu  tau(  57) = (   0.0050292   1.8504379   1.4908492  )
        58           Cu  tau(  58) = (   0.2543320   2.0794405   1.4914776  )
        59           Cu  tau(  59) = (   0.5047577   1.8492729   1.4900454  )
        60           Cu  tau(  60) = (   0.7543994   2.0791456   1.4919649  )
        61           Cu  tau(  61) = (   0.0047913   0.2306247   1.7402186  )
        62           Cu  tau(  62) = (   0.2550961   0.0001435   1.7427744  )
        63           Cu  tau(  63) = (   0.5057528   0.2283734   1.7411779  )
        64           Cu  tau(  64) = (   0.7561085  -0.0000909   1.7422458  )
        65           Cu  tau(  65) = (   0.0053721   0.6896092   1.7355837  )
        66           Cu  tau(  66) = (   0.2567127   0.4576389   1.7348078  )
        67           Cu  tau(  67) = (   0.5075110   0.6951879   1.7408955  )
        68           Cu  tau(  68) = (   0.7535993   0.4595840   1.7396673  )
        69           Cu  tau(  69) = (   0.0120203   1.1589231   1.7404964  )
        70           Cu  tau(  70) = (   0.2583518   0.9233354   1.7346766  )
        71           Cu  tau(  71) = (   0.5072397   1.1632500   1.7209039  )
        72           Cu  tau(  72) = (   0.7653629   0.9287559   1.7233979  )
        73           Cu  tau(  73) = (   0.0075763   1.6181725   1.7390357  )
        74           Cu  tau(  74) = (   0.2591149   1.3887432   1.7382630  )
        75           Cu  tau(  75) = (   0.5086521   1.6186265   1.7374447  )
        76           Cu  tau(  76) = (   0.7595798   1.3867089   1.7354095  )
        77           Cu  tau(  77) = (   0.0062193   2.0789308   1.7432689  )
        78           Cu  tau(  78) = (   0.2567959   1.8486716   1.7397377  )
        79           Cu  tau(  79) = (   0.5057943   2.0797658   1.7420088  )
        80           Cu  tau(  80) = (   0.7574506   1.8487447   1.7412123  )
        81           Cu  tau(  81) = (   0.0082092   0.0037877   1.9879006  )
        82           Cu  tau(  82) = (   0.2577954   0.2331451   1.9898915  )
        83           Cu  tau(  83) = (   0.5041099  -0.0007611   1.9906134  )
        84           Cu  tau(  84) = (   0.7525444   0.2285047   1.9906828  )
        85           Cu  tau(  85) = (   0.0021013   0.4544026   1.9933688  )
        86           Cu  tau(  86) = (   0.2452862   0.6835861   1.9744261  )
        87           Cu  tau(  87) = (   0.5057712   0.4603167   1.9876923  )
        88           Cu  tau(  88) = (   0.7597420   0.6875193   1.9843476  )
        89           Cu  tau(  89) = (  -0.0020278   0.9227397   1.9804540  )
        90           Cu  tau(  90) = (   0.2658969   1.1508642   1.9808554  )
        91           Cu  tau(  91) = (   0.5535786   0.9522431   1.9653777  )
        92           Cu  tau(  92) = (   0.7814193   1.1797657   1.9977810  )
        93           Cu  tau(  93) = (   0.0275559   1.3952747   1.9930356  )
        94           Cu  tau(  94) = (   0.2664933   1.6238450   1.9869247  )
        95           Cu  tau(  95) = (   0.5089217   1.3860883   1.9818804  )
        96           Cu  tau(  96) = (   0.7605104   1.6117712   1.9851316  )
        97           Cu  tau(  97) = (   0.0059979   1.8447571   1.9877681  )
        98           Cu  tau(  98) = (   0.2555181   2.0758967   1.9879824  )
        99           Cu  tau(  99) = (   0.5132582   1.8489597   1.9856103  )
       100           Cu  tau( 100) = (   0.7595416   2.0816111   1.9885779  )
       101           C   tau( 101) = (  -0.0103769   0.0944376   2.3890921  )
       102           C   tau( 102) = (  -0.0105203   0.2864691   2.4063589  )
       103           C   tau( 103) = (   0.1562699  -0.0021316   2.3849102  )
       104           C   tau( 104) = (   0.1556573   0.3820899   2.4221379  )
       105           C   tau( 105) = (   0.3226180   0.0944783   2.3904494  )
       106           C   tau( 106) = (   0.3223383   0.2862627   2.4088131  )
       107           C_h tau( 107) = (   0.4895262  -0.0019479   2.3822011  )
       108           C   tau( 108) = (   0.4890551   0.3830602   2.4146001  )
       109           C   tau( 109) = (   0.6564742   0.0947236   2.3868576  )
       110           C   tau( 110) = (   0.6561136   0.2868244   2.4023497  )
       111           C   tau( 111) = (   0.8229854  -0.0018807   2.3819412  )
       112           C   tau( 112) = (   0.8228886   0.3824320   2.4140750  )
       113           C   tau( 113) = (  -0.0113374   0.6701957   2.4479895  )
       114           C   tau( 114) = (  -0.0122261   0.8629609   2.4539182  )
       115           C   tau( 115) = (   0.1552772   0.5730334   2.4485801  )
       116           C   tau( 116) = (   0.1541436   0.9597968   2.4617561  )
       117           C   tau( 117) = (   0.3213128   0.6692623   2.4599181  )
       118           C   tau( 118) = (   0.3184984   0.8611734   2.4642354  )
       119           C   tau( 119) = (   0.4884460   0.5740072   2.4346705  )
       120           C   tau( 120) = (   0.4827484   0.9556609   2.3894952  )
       121           C   tau( 121) = (   0.4216377   0.9238752   2.1851263  )
       122           H   tau( 122) = (   0.4104643   0.7731797   2.1656364  )
       123           H   tau( 123) = (   0.2798076   0.9763551   2.1781611  )
       124           C   tau( 124) = (   0.6562846   0.6708059   2.4312793  )
       125           C   tau( 125) = (   0.6576716   0.8611452   2.4235509  )
       126           C   tau( 126) = (   0.8230035   0.5740997   2.4324330  )
       127           C   tau( 127) = (   0.8210756   0.9581713   2.4305772  )
       128           C   tau( 128) = (  -0.0108793   1.2468637   2.4107300  )
       129           C   tau( 129) = (  -0.0105860   1.4397120   2.3925802  )
       130           C   tau( 130) = (   0.1550752   1.1519598   2.4318622  )
       131           C   tau( 131) = (   0.1559600   1.5365928   2.3915931  )
       132           C   tau( 132) = (   0.3225252   1.2490795   2.4182764  )
       133           C   tau( 133) = (   0.3224784   1.4410472   2.4020022  )
       134           C   tau( 134) = (   0.4882033   1.1552145   2.4137647  )
       135           C   tau( 135) = (   0.4891463   1.5364117   2.3919873  )
       136           C   tau( 136) = (   0.6543677   1.2476657   2.4045687  )
       137           C   tau( 137) = (   0.6555603   1.4404126   2.3944468  )
       138           C   tau( 138) = (   0.8223089   1.1510513   2.4117753  )
       139           C   tau( 139) = (   0.8224651   1.5358903   2.3850960  )
       140           C   tau( 140) = (  -0.0103791   1.8251840   2.3752745  )
       141           C   tau( 141) = (  -0.0101573   2.0179628   2.3758076  )
       142           C   tau( 142) = (   0.1564209   1.7289726   2.3810649  )
       143           C   tau( 143) = (   0.1564182   2.1145480   2.3773901  )
       144           C   tau( 144) = (   0.3231115   1.8252836   2.3819357  )
       145           C   tau( 145) = (   0.3233013   2.0180263   2.3790683  )
       146           C   tau( 146) = (   0.4894996   1.7290179   2.3840607  )
       147           C   tau( 147) = (   0.4898444   2.1146176   2.3799633  )
       148           C   tau( 148) = (   0.6561199   1.8251554   2.3789644  )
       149           C   tau( 149) = (   0.6562931   2.0180054   2.3773154  )
       150           C   tau( 150) = (   0.8226788   1.7285066   2.3770501  )
       151           C   tau( 151) = (   0.8231952   2.1146619   2.3757520  )

     number of k points=     6  gaussian smearing, width (Ry)=  0.1000
                       cart. coord. in units 2pi/alat
        k(    1) = (   0.0000000   0.0000000   0.0000000), wk =   0.2500000
        k(    2) = (   0.0000000  -0.2165064   0.0000000), wk =   0.2500000
        k(    3) = (   0.2500000   0.0000000   0.0000000), wk =   0.5000000
        k(    4) = (   0.2500000  -0.2165064   0.0000000), wk =   0.5000000
        k(    5) = (  -0.5000000   0.0000000   0.0000000), wk =   0.2500000
        k(    6) = (  -0.5000000  -0.2165064   0.0000000), wk =   0.2500000

     Dense  grid:  2050409 G-vectors     FFT dimensions: (  80, 192, 270)

     Largest allocated arrays     est. size (Mb)     dimensions
        Kohn-Sham Wavefunctions        54.73 Mb     (    4604,  779)
        NL pseudopotentials           130.04 Mb     (    4604, 1851)
        Each V/rho on FFT grid          1.17 Mb     (   76800)
        Each G-vector array             0.28 Mb     (   36616)
        G-vector shells                 0.14 Mb     (   17932)
     Largest temporary arrays     est. size (Mb)     dimensions
        Auxiliary wavefunctions       218.90 Mb     (    4604, 3116)
        Each subspace H/S matrix        5.92 Mb     (     623,  623)
        Each <psi_i|beta_j> matrix     22.00 Mb     (    1851,  779)
        Arrays for rho mixing           9.38 Mb     (   76800,    8)

     Initial potential from superposition of free atoms
     Check: negative starting charge=   -0.001829

     starting charge 1272.31749, renormalised to 1298.00000

     negative rho (up, down):  1.866E-03 0.000E+00
     Starting wfc are 1294 randomized atomic wfcs

     total cpu time spent up to now is      107.9 secs

     Self-consistent Calculation

     iteration #  1     ecut=    80.00 Ry     beta=0.70
     Davidson diagonalization with overlap
     c_bands:  5 eigenvalues not converged
     c_bands:  3 eigenvalues not converged
     c_bands:  3 eigenvalues not converged
     c_bands:  2 eigenvalues not converged
     c_bands:  1 eigenvalues not converged
     c_bands:  5 eigenvalues not converged
     ethr =  1.00E-04,  avg # of iterations = 40.0

     negative rho (up, down):  2.682E+01 0.000E+00

     total cpu time spent up to now is     2204.0 secs

     total energy              =   -9530.78551419 Ry
     Harris-Foulkes estimate   =  -17567.95211640 Ry
     estimated scf accuracy    <  188291.33436206 Ry

     iteration #  2     ecut=    80.00 Ry     beta=0.70
     Davidson diagonalization with overlap
     ethr =  1.00E-02,  avg # of iterations = 13.0

     negative rho (up, down):  3.095E+01 0.000E+00

     total cpu time spent up to now is     3149.2 secs

     total energy              =  -11837.43661900 Ry
     Harris-Foulkes estimate   =  -13765.69059997 Ry
     estimated scf accuracy    <   33615.98832056 Ry

     iteration #  3     ecut=    80.00 Ry     beta=0.70
     Davidson diagonalization with overlap
     ethr =  1.00E-02,  avg # of iterations = 10.2

     negative rho (up, down):  3.202E+01 0.000E+00

     total cpu time spent up to now is     3698.8 secs

     total energy              =  -12432.36247180 Ry
     Harris-Foulkes estimate   =  -13561.06340903 Ry
     estimated scf accuracy    <    5776.48299578 Ry

     iteration #  4     ecut=    80.00 Ry     beta=0.70
     Davidson diagonalization with overlap
     ethr =  1.00E-02,  avg # of iterations =  5.7

     negative rho (up, down):  2.161E+01 0.000E+00

     total cpu time spent up to now is     4247.4 secs

     total energy              =  -12848.72162759 Ry
     Harris-Foulkes estimate   =  -13106.90871268 Ry
     estimated scf accuracy    <     926.86763266 Ry

     iteration #  5     ecut=    80.00 Ry     beta=0.70
     Davidson diagonalization with overlap
     ethr =  1.00E-02,  avg # of iterations =  2.8

     negative rho (up, down):  1.711E+01 0.000E+00

     total cpu time spent up to now is     4513.3 secs

     total energy              =  -12857.54985371 Ry
     Harris-Foulkes estimate   =  -12926.35536528 Ry
     estimated scf accuracy    <    1223.73415304 Ry

     iteration #  6     ecut=    80.00 Ry     beta=0.70
     Davidson diagonalization with overlap
     ethr =  1.00E-02,  avg # of iterations =  2.0

     negative rho (up, down):  1.191E+01 0.000E+00

     total cpu time spent up to now is     4697.0 secs

     total energy              =  -12828.07465438 Ry
     Harris-Foulkes estimate   =  -12887.57428008 Ry
     estimated scf accuracy    <     556.75549478 Ry

     iteration #  7     ecut=    80.00 Ry     beta=0.70
     Davidson diagonalization with overlap
     ethr =  1.00E-02,  avg # of iterations =  2.0

     negative rho (up, down):  1.020E+01 0.000E+00

     total cpu time spent up to now is     4875.0 secs

     total energy              =  -12831.16350099 Ry
     Harris-Foulkes estimate   =  -12849.17535641 Ry
     estimated scf accuracy    <     562.38165281 Ry

     iteration #  8     ecut=    80.00 Ry     beta=0.70
     Davidson diagonalization with overlap
     ethr =  1.00E-02,  avg # of iterations =  1.0

     negative rho (up, down):  7.194E+00 0.000E+00

     total cpu time spent up to now is     5040.5 secs

     total energy              =  -12801.75176647 Ry
     Harris-Foulkes estimate   =  -12837.64945683 Ry
     estimated scf accuracy    <     477.89985222 Ry

     iteration #  9     ecut=    80.00 Ry     beta=0.70
     Davidson diagonalization with overlap
     ethr =  1.00E-02,  avg # of iterations =  1.3

     negative rho (up, down):  6.039E+00 0.000E+00

     total cpu time spent up to now is     5209.4 secs

     total energy              =  -12792.35458157 Ry
     Harris-Foulkes estimate   =  -12808.71310378 Ry
     estimated scf accuracy    <     250.26036875 Ry

     iteration # 10     ecut=    80.00 Ry     beta=0.70
     Davidson diagonalization with overlap
     ethr =  1.00E-02,  avg # of iterations =  1.0

     negative rho (up, down):  7.745E-01 0.000E+00

     total cpu time spent up to now is     5374.9 secs

     total energy              =  -12741.78109155 Ry
     Harris-Foulkes estimate   =  -12797.33561321 Ry
     estimated scf accuracy    <     220.48393234 Ry

     iteration # 11     ecut=    80.00 Ry     beta=0.70
     Davidson diagonalization with overlap
     ethr =  1.00E-02,  avg # of iterations =  3.0

     negative rho (up, down):  1.199E+00 0.000E+00

     total cpu time spent up to now is     5568.6 secs

     total energy              =  -12736.73612310 Ry
     Harris-Foulkes estimate   =  -12754.51376295 Ry
     estimated scf accuracy    <     231.49585464 Ry

     iteration # 12     ecut=    80.00 Ry     beta=0.70
     Davidson diagonalization with overlap
     ethr =  1.00E-02,  avg # of iterations =  2.2

     negative rho (up, down):  1.125E+00 0.000E+00

     total cpu time spent up to now is     5748.0 secs

     total energy              =  -12731.26172926 Ry
     Harris-Foulkes estimate   =  -12744.19046509 Ry
     estimated scf accuracy    <      99.74357599 Ry

     iteration # 13     ecut=    80.00 Ry     beta=0.70
     Davidson diagonalization with overlap
     ethr =  7.68E-03,  avg # of iterations =  1.7

     negative rho (up, down):  4.799E+00 0.000E+00

     total cpu time spent up to now is     5921.0 secs

     total energy              =  -12729.56377974 Ry
     Harris-Foulkes estimate   =  -12739.02930379 Ry
     estimated scf accuracy    <      45.04328611 Ry

     iteration # 14     ecut=    80.00 Ry     beta=0.70
     Davidson diagonalization with overlap
     ethr =  3.47E-03,  avg # of iterations =  2.3

     negative rho (up, down):  3.790E+00 0.000E+00

     total cpu time spent up to now is     6102.5 secs

     total energy              =  -12727.04035586 Ry
     Harris-Foulkes estimate   =  -12732.65217587 Ry
     estimated scf accuracy    <      41.55719790 Ry

     iteration # 15     ecut=    80.00 Ry     beta=0.70
     Davidson diagonalization with overlap
     ethr =  3.20E-03,  avg # of iterations =  1.5

     negative rho (up, down):  4.978E+00 0.000E+00

     total cpu time spent up to now is     6274.1 secs

     total energy              =  -12727.61311121 Ry
     Harris-Foulkes estimate   =  -12729.47246982 Ry
     estimated scf accuracy    <      20.38276673 Ry

     iteration # 16     ecut=    80.00 Ry     beta=0.70
     Davidson diagonalization with overlap
     ethr =  1.57E-03,  avg # of iterations =  4.5

     negative rho (up, down):  4.735E+00 0.000E+00

     total cpu time spent up to now is     6480.1 secs

     total energy              =  -12726.69209553 Ry
     Harris-Foulkes estimate   =  -12727.98944490 Ry
     estimated scf accuracy    <      13.16737096 Ry

     iteration # 17     ecut=    80.00 Ry     beta=0.70
     Davidson diagonalization with overlap
     ethr =  1.01E-03,  avg # of iterations =  6.8

     negative rho (up, down):  2.725E+00 0.000E+00

     total cpu time spent up to now is     6718.0 secs

     total energy              =  -12725.80504705 Ry
     Harris-Foulkes estimate   =  -12726.92374235 Ry
     estimated scf accuracy    <       9.53835444 Ry

     iteration # 18     ecut=    80.00 Ry     beta=0.70
     Davidson diagonalization with overlap
     ethr =  7.35E-04,  avg # of iterations =  4.5

     negative rho (up, down):  2.764E+00 0.000E+00

     total cpu time spent up to now is     6925.3 secs

     total energy              =  -12724.95696928 Ry
     Harris-Foulkes estimate   =  -12726.22676334 Ry
     estimated scf accuracy    <       7.82221453 Ry

     iteration # 19     ecut=    80.00 Ry     beta=0.70
     Davidson diagonalization with overlap
     ethr =  6.03E-04,  avg # of iterations =  6.0

     negative rho (up, down):  1.619E+00 0.000E+00

     total cpu time spent up to now is     7152.2 secs

     total energy              =  -12723.55620479 Ry
     Harris-Foulkes estimate   =  -12725.13036937 Ry
     estimated scf accuracy    <       7.30023858 Ry

     iteration # 20     ecut=    80.00 Ry     beta=0.70
     Davidson diagonalization with overlap
     ethr =  5.62E-04,  avg # of iterations =  1.2

     negative rho (up, down):  1.160E+00 0.000E+00

     total cpu time spent up to now is     7320.7 secs

     total energy              =  -12723.27606032 Ry
     Harris-Foulkes estimate   =  -12723.66185966 Ry
     estimated scf accuracy    <       7.00747650 Ry

     iteration # 21     ecut=    80.00 Ry     beta=0.70
     Davidson diagonalization with overlap
     ethr =  5.40E-04,  avg # of iterations =  1.5

     negative rho (up, down):  7.534E-02 0.000E+00

     total cpu time spent up to now is     7491.9 secs

     total energy              =  -12721.66797849 Ry
     Harris-Foulkes estimate   =  -12723.46940349 Ry
     estimated scf accuracy    <       5.71454271 Ry

     iteration # 22     ecut=    80.00 Ry     beta=0.70
     Davidson diagonalization with overlap
     ethr =  4.40E-04,  avg # of iterations =  8.5

     negative rho (up, down):  5.372E-01 0.000E+00

     total cpu time spent up to now is     7745.2 secs

     total energy              =  -12721.20816127 Ry
     Harris-Foulkes estimate   =  -12721.92930940 Ry
     estimated scf accuracy    <       3.07504697 Ry

     iteration # 23     ecut=    80.00 Ry     beta=0.70
     Davidson diagonalization with overlap
     ethr =  2.37E-04,  avg # of iterations =  4.8

     negative rho (up, down):  8.418E-01 0.000E+00

     total cpu time spent up to now is     7957.2 secs

     total energy              =  -12720.95780691 Ry
     Harris-Foulkes estimate   =  -12721.33144269 Ry
     estimated scf accuracy    <       1.55347770 Ry

     iteration # 24     ecut=    80.00 Ry     beta=0.70
     Davidson diagonalization with overlap
     ethr =  1.20E-04,  avg # of iterations =  8.5

     negative rho (up, down):  8.041E-01 0.000E+00

     total cpu time spent up to now is     8230.7 secs

     total energy              =  -12720.76300610 Ry
     Harris-Foulkes estimate   =  -12721.02526667 Ry
     estimated scf accuracy    <       1.33947724 Ry

     iteration # 25     ecut=    80.00 Ry     beta=0.70
     Davidson diagonalization with overlap
     ethr =  1.03E-04,  avg # of iterations =  8.2

     negative rho (up, down):  7.893E-01 0.000E+00

     total cpu time spent up to now is     8497.3 secs

     total energy              =  -12720.70146600 Ry
     Harris-Foulkes estimate   =  -12720.81004298 Ry
     estimated scf accuracy    <       0.45821390 Ry

     iteration # 26     ecut=    80.00 Ry     beta=0.70
     Davidson diagonalization with overlap
     ethr =  3.53E-05,  avg # of iterations =  8.3

     negative rho (up, down):  4.537E-01 0.000E+00

     total cpu time spent up to now is     8774.9 secs

     total energy              =  -12720.69533855 Ry
     Harris-Foulkes estimate   =  -12720.73097770 Ry
     estimated scf accuracy    <       0.15693645 Ry

     iteration # 27     ecut=    80.00 Ry     beta=0.70
     Davidson diagonalization with overlap
     c_bands:  1 eigenvalues not converged
     c_bands:  1 eigenvalues not converged
     c_bands:  1 eigenvalues not converged
     ethr =  1.21E-05,  avg # of iterations = 16.2

     negative rho (up, down):  2.826E-01 0.000E+00

     total cpu time spent up to now is     9146.7 secs

     total energy              =  -12720.69641074 Ry
     Harris-Foulkes estimate   =  -12720.70864916 Ry
     estimated scf accuracy    <       0.06823663 Ry

     iteration # 28     ecut=    80.00 Ry     beta=0.70
     Davidson diagonalization with overlap
     c_bands:  1 eigenvalues not converged
     ethr =  5.26E-06,  avg # of iterations = 12.7

     negative rho (up, down):  1.035E-01 0.000E+00

     total cpu time spent up to now is     9478.0 secs

     total energy              =  -12720.69702590 Ry
     Harris-Foulkes estimate   =  -12720.70063015 Ry
     estimated scf accuracy    <       0.01624812 Ry

     iteration # 29     ecut=    80.00 Ry     beta=0.70
     Davidson diagonalization with overlap
     c_bands:  1 eigenvalues not converged
     c_bands:  1 eigenvalues not converged
     c_bands:  1 eigenvalues not converged
     ethr =  1.25E-06,  avg # of iterations = 16.0

     negative rho (up, down):  5.827E-02 0.000E+00

     total cpu time spent up to now is     9888.0 secs

     total energy              =  -12720.69761166 Ry
     Harris-Foulkes estimate   =  -12720.69833251 Ry
     estimated scf accuracy    <       0.00273047 Ry

     iteration # 30     ecut=    80.00 Ry     beta=0.70
     Davidson diagonalization with overlap
     c_bands:  1 eigenvalues not converged
     c_bands:  1 eigenvalues not converged
     c_bands:  1 eigenvalues not converged
     ethr =  2.10E-07,  avg # of iterations = 16.0

     negative rho (up, down):  1.812E-02 0.000E+00

     total cpu time spent up to now is    10257.0 secs

     total energy              =  -12720.69729830 Ry
     Harris-Foulkes estimate   =  -12720.69785780 Ry
     estimated scf accuracy    <       0.00112850 Ry

     iteration # 31     ecut=    80.00 Ry     beta=0.70
     Davidson diagonalization with overlap
     c_bands:  2 eigenvalues not converged
     c_bands:  1 eigenvalues not converged
     ethr =  8.69E-08,  avg # of iterations = 15.0

     negative rho (up, down):  1.911E-02 0.000E+00

     total cpu time spent up to now is    10627.7 secs

     total energy              =  -12720.69762591 Ry
     Harris-Foulkes estimate   =  -12720.69741344 Ry
     estimated scf accuracy    <       0.00057729 Ry

     iteration # 32     ecut=    80.00 Ry     beta=0.70
     Davidson diagonalization with overlap
     c_bands:  1 eigenvalues not converged
     ethr =  4.45E-08,  avg # of iterations = 10.0

     negative rho (up, down):  9.775E-03 0.000E+00

     total cpu time spent up to now is    10920.9 secs

     total energy              =  -12720.69751861 Ry
     Harris-Foulkes estimate   =  -12720.69770580 Ry
     estimated scf accuracy    <       0.00022970 Ry

     iteration # 33     ecut=    80.00 Ry     beta=0.70
     Davidson diagonalization with overlap
     ethr =  1.77E-08,  avg # of iterations = 12.3

     negative rho (up, down):  6.721E-03 0.000E+00

     total cpu time spent up to now is    11242.4 secs

     total energy              =  -12720.69752113 Ry
     Harris-Foulkes estimate   =  -12720.69754394 Ry
     estimated scf accuracy    <       0.00005293 Ry

     iteration # 34     ecut=    80.00 Ry     beta=0.70
     Davidson diagonalization with overlap
     ethr =  4.08E-09,  avg # of iterations = 10.7

     negative rho (up, down):  4.887E-03 0.000E+00

     total cpu time spent up to now is    11531.5 secs

     total energy              =  -12720.69750955 Ry
     Harris-Foulkes estimate   =  -12720.69752585 Ry
     estimated scf accuracy    <       0.00002035 Ry

     iteration # 35     ecut=    80.00 Ry     beta=0.70
     Davidson diagonalization with overlap
     ethr =  1.57E-09,  avg # of iterations =  7.0

     negative rho (up, down):  3.214E-03 0.000E+00

     total cpu time spent up to now is    11784.3 secs

     total energy              =  -12720.69748973 Ry
     Harris-Foulkes estimate   =  -12720.69751172 Ry
     estimated scf accuracy    <       0.00000950 Ry

     iteration # 36     ecut=    80.00 Ry     beta=0.70
     Davidson diagonalization with overlap
     c_bands:  1 eigenvalues not converged
     ethr =  7.32E-10,  avg # of iterations = 10.7

     negative rho (up, down):  2.398E-03 0.000E+00

     total cpu time spent up to now is    12087.6 secs

     total energy              =  -12720.69748476 Ry
     Harris-Foulkes estimate   =  -12720.69749072 Ry
     estimated scf accuracy    <       0.00000360 Ry

     iteration # 37     ecut=    80.00 Ry     beta=0.70
     Davidson diagonalization with overlap
     ethr =  2.77E-10,  avg # of iterations =  4.0

     negative rho (up, down):  2.044E-03 0.000E+00

     total cpu time spent up to now is    12299.5 secs

     total energy              =  -12720.69748494 Ry
     Harris-Foulkes estimate   =  -12720.69748510 Ry
     estimated scf accuracy    <       0.00000096 Ry

     iteration # 38     ecut=    80.00 Ry     beta=0.70
     Davidson diagonalization with overlap
     ethr =  7.43E-11,  avg # of iterations =  3.0

     negative rho (up, down):  1.925E-03 0.000E+00

     total cpu time spent up to now is    12505.8 secs

     total energy              =  -12720.69748520 Ry
     Harris-Foulkes estimate   =  -12720.69748508 Ry
     estimated scf accuracy    <       0.00000073 Ry

     iteration # 39     ecut=    80.00 Ry     beta=0.70
     Davidson diagonalization with overlap
     ethr =  5.60E-11,  avg # of iterations =  2.3

     negative rho (up, down):  1.942E-03 0.000E+00

     total cpu time spent up to now is    12697.7 secs

     total energy              =  -12720.69748528 Ry
     Harris-Foulkes estimate   =  -12720.69748524 Ry
     estimated scf accuracy    <       0.00000017 Ry

     iteration # 40     ecut=    80.00 Ry     beta=0.70
     Davidson diagonalization with overlap
     ethr =  1.32E-11,  avg # of iterations =  2.5

     negative rho (up, down):  1.933E-03 0.000E+00

     total cpu time spent up to now is    12909.5 secs

     total energy              =  -12720.69748530 Ry
     Harris-Foulkes estimate   =  -12720.69748531 Ry
     estimated scf accuracy    <       0.00000014 Ry

     iteration # 41     ecut=    80.00 Ry     beta=0.70
     Davidson diagonalization with overlap
     ethr =  1.10E-11,  avg # of iterations =  2.0

     negative rho (up, down):  1.990E-03 0.000E+00

     total cpu time spent up to now is    13095.9 secs

     total energy              =  -12720.69748525 Ry
     Harris-Foulkes estimate   =  -12720.69748531 Ry
     estimated scf accuracy    <       0.00000002 Ry

     iteration # 42     ecut=    80.00 Ry     beta=0.70
     Davidson diagonalization with overlap
     ethr =  1.78E-12,  avg # of iterations =  2.0

     negative rho (up, down):  2.035E-03 0.000E+00

     total cpu time spent up to now is    13276.4 secs

     End of self-consistent calculation

          k = 0.0000 0.0000 0.0000 (256287 PWs)   bands (ev):

   -17.1925 -16.1221 -15.9755 -15.3162 -14.9686 -14.6747 -14.5897 -14.2020
   -14.0601 -14.0367 -13.9808 -13.3587 -13.1889 -13.0901 -13.0198 -12.9958
   -12.9474 -11.5435 -11.5144 -11.3838 -11.2647 -11.1772 -10.3160  -9.9345
    -9.6673  -9.6332  -9.4194  -9.2858  -8.8556  -8.6615  -8.4839  -8.4489
    -7.9304  -7.7270  -7.6350  -7.5382  -7.4727  -7.4291  -7.3863  -7.3635
    -6.2727  -6.2374  -6.0090  -5.9802  -5.8766  -5.8439  -5.7835  -5.7482
    -5.7135  -5.4679  -5.4449  -5.2094  -4.8207  -4.8164  -4.7501  -4.6437
    -4.4925  -4.3860  -4.2964  -4.1900  -4.0849  -4.0564  -3.9273  -3.9077
    -3.8418  -3.8115  -3.5559  -3.5115  -3.4333  -3.4312  -3.3751  -3.3603
    -3.3227  -3.2809  -3.2118  -3.1314  -3.0455  -3.0180  -2.9850  -2.9765
    -2.9747  -2.9603  -2.9327  -2.9127  -2.8248  -2.7527  -2.6996  -2.6560
    -2.6223  -2.6152  -2.5887  -2.5538  -2.4221  -2.3952  -2.3488  -2.3135
    -2.2837  -2.2456  -2.2288  -2.1661  -2.1564  -2.1297  -2.1273  -2.1244
    -2.1189  -2.1008  -2.0627  -2.0034  -1.9960  -1.9904  -1.9876  -1.9802
    -1.9653  -1.9210  -1.8136  -1.7575  -1.7448  -1.7302  -1.7145  -1.7045
    -1.6952  -1.6815  -1.6636  -1.6435  -1.6326  -1.6264  -1.5938  -1.5858
    -1.5538  -1.5441  -1.5407  -1.5283  -1.5194  -1.5160  -1.5023  -1.4961
    -1.4903  -1.4805  -1.4791  -1.4567  -1.4290  -1.3926  -1.3810  -1.3418
    -1.3249  -1.3173  -1.2730  -1.2707  -1.2563  -1.2351  -1.2339  -1.2280
    -1.2209  -1.1914  -1.1807  -1.1656  -1.1584  -1.1440  -1.1362  -1.1275
    -1.1175  -1.0590  -1.0438  -1.0338  -1.0281  -1.0193  -1.0127  -1.0111
    -1.0037  -0.9994  -0.9980  -0.9926  -0.9898  -0.9782  -0.9685  -0.9675
    -0.9546  -0.9405  -0.9344  -0.9180  -0.9127  -0.9068  -0.8969  -0.8889
    -0.8853  -0.8781  -0.8694  -0.8513  -0.8452  -0.8410  -0.8368  -0.8324
    -0.8292  -0.8259  -0.8253  -0.8243  -0.8193  -0.8187  -0.8143  -0.8106
    -0.8093  -0.8058  -0.7918  -0.7807  -0.7586  -0.7577  -0.7346  -0.6678
    -0.6650  -0.6592  -0.6553  -0.6510  -0.6399  -0.6274  -0.6141  -0.6078
    -0.6018  -0.5925  -0.5851  -0.5739  -0.5691  -0.5616  -0.5561  -0.5460
    -0.5385  -0.5371  -0.5337  -0.5310  -0.5214  -0.5132  -0.5025  -0.4965
    -0.4789  -0.4591  -0.4548  -0.4246  -0.4168  -0.4122  -0.4061  -0.3964
    -0.3947  -0.3848  -0.3819  -0.3796  -0.3767  -0.3742  -0.3695  -0.3690
    -0.3626  -0.3600  -0.3571  -0.3568  -0.3479  -0.3367  -0.3281  -0.3216
    -0.3081  -0.2782  -0.2776  -0.2722  -0.2661  -0.2609  -0.2517  -0.2380
    -0.2372  -0.2346  -0.2301  -0.2247  -0.2239  -0.2170  -0.2134  -0.2042
    -0.2033  -0.2016  -0.1995  -0.1923  -0.1881  -0.1836  -0.1753  -0.1727
    -0.1702  -0.1642  -0.1632  -0.1545  -0.1477  -0.1454  -0.1282  -0.1136
    -0.1023  -0.0959  -0.0876  -0.0842  -0.0693  -0.0619  -0.0530  -0.0460
    -0.0402  -0.0371  -0.0334  -0.0282  -0.0267  -0.0229  -0.0172  -0.0051
     0.0074   0.0102   0.0187   0.0286   0.0312   0.0339   0.0440   0.0472
     0.0499   0.0555   0.0564   0.0618   0.0673   0.0709   0.0735   0.0762
     0.0793   0.0866   0.0880   0.0952   0.0968   0.1005   0.1126   0.1155
     0.1201   0.1284   0.1321   0.1349   0.1585   0.1644   0.1651   0.1727
     0.1834   0.1982   0.2057   0.2253   0.2295   0.2458   0.2537   0.2567
     0.2749   0.2767   0.2807   0.2834   0.2876   0.2951   0.3039   0.3091
     0.3203   0.3220   0.3380   0.3562   0.3599   0.3699   0.3718   0.3735
     0.3787   0.3918   0.4029   0.4052   0.4095   0.4156   0.4221   0.4357
     0.4404   0.4469   0.4502   0.4611   0.4661   0.4695   0.4800   0.4831
     0.4892   0.5029   0.5102   0.5162   0.5212   0.5262   0.5324   0.5347
     0.5412   0.5425   0.5482   0.5505   0.5600   0.5612   0.5647   0.5718
     0.5724   0.5751   0.5815   0.5847   0.5888   0.5902   0.5929   0.5994
     0.6004   0.6112   0.6180   0.6329   0.6348   0.6394   0.6454   0.6619
     0.6646   0.6679   0.6715   0.6801   0.6844   0.6859   0.6896   0.6934
     0.6989   0.7017   0.7055   0.7093   0.7156   0.7171   0.7195   0.7204
     0.7266   0.7284   0.7391   0.7405   0.7470   0.7526   0.7591   0.7698
     0.7728   0.7753   0.7768   0.7781   0.7803   0.7827   0.7888   0.7933
     0.7963   0.8016   0.8205   0.8310   0.8336   0.8390   0.8406   0.8489
     0.8526   0.8560   0.8689   0.8750   0.8770   0.8814   0.8910   0.8960
     0.9011   0.9075   0.9106   0.9200   0.9237   0.9297   0.9311   0.9368
     0.9430   0.9462   0.9588   0.9602   0.9648   0.9700   0.9724   0.9788
     0.9827   0.9913   0.9923   1.0053   1.0078   1.0092   1.0145   1.0162
     1.0198   1.0255   1.0280   1.0322   1.0363   1.0398   1.0458   1.0505
     1.0534   1.0573   1.0627   1.0688   1.0714   1.0764   1.0779   1.0873
     1.0916   1.0938   1.0990   1.1051   1.1096   1.1122   1.1197   1.1296
     1.1305   1.1380   1.1416   1.1444   1.1455   1.1490   1.1505   1.1513
     1.1532   1.1547   1.1588   1.1646   1.1693   1.1833   1.1873   1.2001
     1.2035   1.2095   1.2161   1.2207   1.2235   1.2310   1.2344   1.2371
     1.2405   1.2425   1.2453   1.2571   1.2591   1.2598   1.2655   1.2702
     1.2763   1.2792   1.2823   1.2844   1.2871   1.2915   1.2933   1.2978
     1.3005   1.3071   1.3102   1.3150   1.3203   1.3246   1.3265   1.3293
     1.3336   1.3367   1.3393   1.3408   1.3445   1.3469   1.3492   1.3539
     1.3614   1.3651   1.3743   1.3769   1.3810   1.3822   1.3842   1.3874
     1.3899   1.3951   1.4106   1.4144   1.4194   1.4220   1.4266   1.4330
     1.4414   1.4417   1.4424   1.4495   1.4510   1.4524   1.4551   1.4558
     1.4588   1.4603   1.4640   1.4672   1.4686   1.4747   1.4769   1.4840
     1.4886   1.4890   1.4956   1.4977   1.5059   1.5075   1.5129   1.5149
     1.5254   1.5293   1.5460   1.5508   1.5601   1.5750   1.5866   1.5929
     1.6002   1.6110   1.6161   1.6207   1.6347   1.6374   1.6420   1.6515
     1.6577   1.6695   1.6754   1.6766   1.6840   1.6945   1.9042   1.9568
     1.9850   2.1269   2.1381   2.1572   2.1929   2.2075   2.2233   2.2302
     2.2351   2.2448   2.2507   2.2587   2.2700   2.3632   2.4232   2.4461
     2.4665   2.4755   2.4831   2.5331   2.5474   2.6940   2.7288   2.7447
     2.7927   2.8436   2.9804   3.0795   3.1771   3.2548   3.5459   3.6123
     3.8090   3.8112   3.8521   3.8653   3.8809   3.8900   3.9276   3.9700
     4.0011   4.0148   4.0222   4.0256   4.0300   4.0357   4.0863   4.1073
     4.1539   4.2328   4.2616   4.3156   4.4047   4.5615   4.7463   4.8425
     4.8793   4.9756   5.0015   5.3223   5.3421   5.4019   5.4630   5.6930
     5.7088   5.7629   5.7993   5.8983   5.9467   5.9927   6.3267   6.3463
     6.3765   6.4119   6.4442   6.4590   6.4912   6.5284   6.5755   6.6143
     6.6990   6.7424   6.8012   6.8051   6.8276   6.8431   6.8969   6.9267
     7.0298   7.0629   7.0980   7.1785   7.3717   7.3971   7.4211   7.5335
     7.5762   7.6517   7.6859   7.6945   7.7366   7.7880   7.9418   8.0739
     8.1083   8.1438   8.1501   8.1974   8.2873   8.3078   8.3337   8.3382
     8.3599   8.3751   8.3895   8.4077   8.4958   8.4996   8.5429   8.5642
     8.6306   8.6437   8.7044   8.7095   8.7561   8.8089   8.8429   8.8490
     8.8549   8.8853   8.8982   9.0333   9.0625   9.0813   9.1032   9.1569
     9.2267   9.2404   9.2784   9.3508   9.3997   9.5159   9.5508   9.5568
     9.5960   9.7340   9.7389   9.8433   9.8709   9.8905  10.0017  10.0709
    10.0733  10.1230  10.1444

          k = 0.0000-0.2165 0.0000 (256176 PWs)   bands (ev):

   -17.1921 -16.1883 -15.7937 -15.5351 -14.9956 -14.5806 -14.3242 -14.1873
   -14.1253 -14.0994 -13.7970 -13.6489 -13.6070 -13.5393 -12.5222 -12.3080
   -12.2727 -12.1931 -12.1091 -11.9908 -10.6954 -10.4430 -10.4132 -10.2859
    -9.9077  -9.3571  -9.2351  -9.0559  -8.9829  -8.8563  -8.7901  -8.2869
    -8.1150  -8.0672  -7.9984  -7.3859  -7.1842  -6.8890  -6.8479  -6.7690
    -6.7540  -6.7265  -6.7226  -6.1055  -5.9837  -5.8664  -5.8276  -5.3902
    -5.2898  -5.2245  -5.1659  -5.0448  -4.8441  -4.8240  -4.8066  -4.7250
    -4.6566  -4.6352  -4.5853  -4.5144  -4.3802  -4.1316  -3.9248  -3.7610
    -3.7320  -3.6744  -3.6027  -3.5045  -3.2941  -3.2865  -3.2732  -3.2540
    -3.2251  -3.1525  -3.1265  -3.0803  -3.0253  -3.0120  -2.9948  -2.9803
    -2.9174  -2.8997  -2.8211  -2.7530  -2.7297  -2.7043  -2.6694  -2.6222
    -2.6145  -2.5551  -2.5513  -2.5480  -2.5444  -2.4972  -2.4622  -2.4152
    -2.4078  -2.3810  -2.2931  -2.2467  -2.2255  -2.1980  -2.1764  -2.1342
    -2.1178  -2.1003  -2.0791  -2.0443  -1.9797  -1.9642  -1.9571  -1.9485
    -1.9330  -1.9301  -1.8824  -1.8590  -1.8285  -1.7763  -1.7493  -1.7369
    -1.7145  -1.7127  -1.7064  -1.6950  -1.6939  -1.6856  -1.6787  -1.6408
    -1.6231  -1.6085  -1.6050  -1.5914  -1.4880  -1.4665  -1.4566  -1.4514
    -1.4339  -1.4171  -1.3492  -1.3458  -1.3306  -1.3118  -1.2987  -1.2942
    -1.2838  -1.2617  -1.2520  -1.2482  -1.2446  -1.2437  -1.2428  -1.2404
    -1.2321  -1.2244  -1.2072  -1.2024  -1.1958  -1.1949  -1.1720  -1.1592
    -1.1502  -1.1307  -1.1228  -1.1198  -1.0962  -1.0627  -1.0586  -1.0522
    -1.0282  -1.0228  -1.0201  -1.0168  -0.9796  -0.9686  -0.9632  -0.9587
    -0.9548  -0.9492  -0.9457  -0.9366  -0.9266  -0.9025  -0.8987  -0.8945
    -0.8862  -0.8832  -0.8813  -0.8772  -0.8641  -0.8495  -0.8306  -0.8265
    -0.8049  -0.7974  -0.7966  -0.7903  -0.7849  -0.7802  -0.7756  -0.7682
    -0.7558  -0.7517  -0.7366  -0.7310  -0.7241  -0.7187  -0.6851  -0.6405
    -0.6306  -0.6235  -0.6228  -0.6165  -0.6075  -0.6048  -0.5846  -0.5815
    -0.5807  -0.5767  -0.5736  -0.5709  -0.5530  -0.5432  -0.5354  -0.5275
    -0.5165  -0.5154  -0.5094  -0.5061  -0.4997  -0.4931  -0.4831  -0.4765
    -0.4663  -0.4628  -0.4604  -0.4541  -0.4438  -0.4306  -0.4269  -0.4195
    -0.4178  -0.4089  -0.4019  -0.3988  -0.3801  -0.3653  -0.3624  -0.3471
    -0.3348  -0.3247  -0.3199  -0.3010  -0.2985  -0.2915  -0.2899  -0.2823
    -0.2767  -0.2725  -0.2665  -0.2639  -0.2624  -0.2592  -0.2492  -0.2436
    -0.2382  -0.2341  -0.2305  -0.2226  -0.2183  -0.2148  -0.2139  -0.2124
    -0.2079  -0.2016  -0.1902  -0.1867  -0.1846  -0.1772  -0.1727  -0.1711
    -0.1638  -0.1411  -0.1323  -0.1274  -0.1188  -0.1176  -0.1131  -0.1108
    -0.1054  -0.0947  -0.0864  -0.0799  -0.0741  -0.0719  -0.0629  -0.0598
    -0.0557  -0.0538  -0.0504  -0.0476  -0.0449  -0.0397  -0.0258  -0.0211
    -0.0058  -0.0008   0.0093   0.0121   0.0156   0.0233   0.0341   0.0355
     0.0424   0.0433   0.0470   0.0518   0.0554   0.0600   0.0620   0.0728
     0.0801   0.0889   0.0957   0.0993   0.1013   0.1073   0.1157   0.1211
     0.1247   0.1279   0.1347   0.1352   0.1528   0.1564   0.1603   0.1650
     0.1664   0.1772   0.1908   0.1986   0.2008   0.2113   0.2171   0.2281
     0.2327   0.2407   0.2451   0.2584   0.2610   0.2831   0.2865   0.2961
     0.3064   0.3172   0.3291   0.3447   0.3518   0.3625   0.3854   0.3982
     0.4112   0.4116   0.4155   0.4306   0.4353   0.4430   0.4507   0.4600
     0.4612   0.4650   0.4713   0.4838   0.4842   0.4864   0.4927   0.4951
     0.4977   0.4991   0.5042   0.5100   0.5118   0.5203   0.5253   0.5286
     0.5421   0.5464   0.5471   0.5489   0.5565   0.5592   0.5650   0.5659
     0.5664   0.5684   0.5715   0.5740   0.5813   0.5855   0.5862   0.5951
     0.5986   0.6006   0.6056   0.6104   0.6131   0.6160   0.6228   0.6261
     0.6305   0.6341   0.6376   0.6421   0.6572   0.6647   0.6748   0.6836
     0.6870   0.6898   0.6925   0.6948   0.6956   0.7008   0.7032   0.7106
     0.7131   0.7160   0.7186   0.7220   0.7381   0.7401   0.7438   0.7522
     0.7547   0.7613   0.7629   0.7721   0.7757   0.7818   0.7843   0.7912
     0.8005   0.8031   0.8057   0.8110   0.8205   0.8279   0.8347   0.8517
     0.8687   0.8756   0.8916   0.9016   0.9107   0.9148   0.9239   0.9247
     0.9266   0.9280   0.9300   0.9410   0.9421   0.9442   0.9452   0.9568
     0.9598   0.9632   0.9634   0.9681   0.9756   0.9812   0.9840   0.9890
     0.9915   0.9939   0.9961   0.9966   1.0001   1.0023   1.0057   1.0081
     1.0126   1.0152   1.0161   1.0187   1.0190   1.0206   1.0231   1.0239
     1.0326   1.0386   1.0454   1.0469   1.0512   1.0588   1.0596   1.0625
     1.0658   1.0680   1.0697   1.0739   1.0824   1.0859   1.1000   1.1116
     1.1186   1.1248   1.1330   1.1482   1.1534   1.1618   1.1697   1.1738
     1.1785   1.1860   1.1918   1.1954   1.1970   1.2044   1.2073   1.2094
     1.2143   1.2167   1.2186   1.2213   1.2227   1.2236   1.2307   1.2335
     1.2345   1.2430   1.2461   1.2498   1.2533   1.2550   1.2561   1.2603
     1.2605   1.2682   1.2727   1.2800   1.2860   1.2881   1.2891   1.2975
     1.2983   1.3040   1.3057   1.3089   1.3164   1.3178   1.3224   1.3277
     1.3302   1.3314   1.3374   1.3395   1.3430   1.3492   1.3531   1.3563
     1.3610   1.3619   1.3651   1.3774   1.3831   1.3927   1.3960   1.3996
     1.4056   1.4071   1.4101   1.4145   1.4170   1.4216   1.4284   1.4344
     1.4387   1.4403   1.4431   1.4479   1.4540   1.4590   1.4606   1.4677
     1.4710   1.4759   1.4783   1.4801   1.4830   1.4835   1.4900   1.5000
     1.5118   1.5146   1.5157   1.5180   1.5225   1.5259   1.5386   1.5439
     1.5456   1.5485   1.5525   1.5542   1.5647   1.5686   1.5799   1.5813
     1.6082   1.6094   1.6174   1.6962   1.7106   1.7243   1.7361   1.7546
     1.7742   1.7843   1.7888   1.7954   1.8017   1.8217   1.8305   1.8372
     1.8382   1.8680   1.8751   1.8879   1.8972   2.0571   2.1212   2.1614
     2.2184   2.4261   2.4289   2.4475   2.5013   2.5153   2.5354   2.5650
     2.5887   2.6053   2.6094   2.6232   2.7191   2.7281   2.7383   2.7722
     2.7858   2.8381   2.8478   2.9483   2.9485   3.1347   3.1974   3.1975
     3.2356   3.2860   3.4033   3.5701   3.7140   3.7555   3.9677   4.0213
     4.0455   4.1003   4.1200   4.1739   4.2227   4.3129   4.3387   4.3586
     4.4696   4.5028   4.5803   4.6292   4.6821   4.7285   4.7870   4.9720
     5.0787   5.1180   5.2032   5.3085   5.3592   5.3715   5.3860   5.4099
     5.4557   5.5622   5.6293   5.7232   5.8190   5.8589   5.9154   6.3153
     6.3498   6.4045   6.4146   6.4335   6.5225   6.5409   6.6372   6.6745
     6.6897   6.7522   6.8225   6.8471   6.9524   7.0588   7.0670   7.0786
     7.0879   7.1338   7.1409   7.1755   7.2046   7.2537   7.3309   7.3505
     7.4023   7.4392   7.4742   7.5353   7.6462   7.6962   7.7444   7.7965
     8.0237   8.1620   8.1669   8.2401   8.3612   8.3784   8.4074   8.4202
     8.4548   8.4571   8.4720   8.4883   8.5750   8.6825   8.6998   8.7111
     8.7158   8.7381   8.7527   8.7905   8.8006   8.8686   8.8811   8.9546
     8.9887   9.0445   9.0913   9.0953   9.1405   9.2163   9.3059   9.3293
     9.3618   9.3790   9.4036   9.4298   9.4553   9.4690   9.4741   9.4879
     9.4977   9.4989   9.5545   9.6915   9.7902   9.8095   9.8537   9.9031
     9.9180  10.0431  10.2060

          k = 0.2500 0.0000 0.0000 (256240 PWs)   bands (ev):

   -17.1413 -16.0172 -15.8540 -15.5709 -15.0095 -14.8921 -14.8449 -14.8031
   -13.9829 -13.8616 -13.6630 -13.1721 -13.1192 -12.9607 -12.9089 -12.2398
   -12.1362 -12.0271 -12.0113 -11.2107 -11.0463 -10.7291 -10.6264 -10.3279
   -10.1158  -9.9383  -9.8018  -9.5286  -9.3296  -9.1071  -8.9204  -8.5275
    -7.8693  -7.6621  -7.5975  -7.4448  -7.4137  -7.3438  -6.9662  -6.8585
    -6.1960  -6.1155  -5.9150  -5.8563  -5.8029  -5.7813  -5.3444  -5.3007
    -5.2735  -5.1989  -5.0851  -4.8787  -4.6629  -4.5522  -4.4969  -4.4649
    -4.4103  -4.3979  -4.3239  -4.2126  -4.1473  -4.0774  -4.0203  -3.9726
    -3.9602  -3.9276  -3.8199  -3.8018  -3.7610  -3.7193  -3.6804  -3.5566
    -3.5195  -3.4736  -3.4161  -3.3754  -3.3332  -3.2899  -3.1729  -3.1453
    -3.0938  -3.0218  -2.9862  -2.9036  -2.8667  -2.8434  -2.7755  -2.7662
    -2.7426  -2.6675  -2.6134  -2.5337  -2.5169  -2.4057  -2.3708  -2.3120
    -2.2903  -2.2721  -2.1854  -2.0809  -2.0718  -2.0619  -2.0489  -2.0259
    -1.9792  -1.9504  -1.8887  -1.8690  -1.8328  -1.7931  -1.7788  -1.7738
    -1.7711  -1.7642  -1.7599  -1.7466  -1.7378  -1.7232  -1.7147  -1.6911
    -1.6754  -1.6554  -1.6268  -1.6170  -1.5898  -1.5782  -1.5662  -1.5590
    -1.5502  -1.5472  -1.5429  -1.5344  -1.5190  -1.4946  -1.4821  -1.4741
    -1.4699  -1.4658  -1.4372  -1.3798  -1.3406  -1.3052  -1.2925  -1.2805
    -1.2548  -1.2330  -1.2210  -1.2166  -1.2127  -1.2094  -1.2057  -1.1809
    -1.1770  -1.1656  -1.1588  -1.1549  -1.1493  -1.1452  -1.1226  -1.1131
    -1.1096  -1.1043  -1.0964  -1.0925  -1.0849  -1.0810  -1.0739  -1.0613
    -1.0501  -1.0414  -1.0259  -1.0195  -1.0118  -1.0061  -0.9981  -0.9925
    -0.9890  -0.9825  -0.9712  -0.9651  -0.9613  -0.9556  -0.9547  -0.9525
    -0.9493  -0.9437  -0.9420  -0.9378  -0.9316  -0.9191  -0.9087  -0.8926
    -0.8834  -0.8746  -0.8672  -0.8509  -0.8287  -0.8195  -0.8130  -0.7912
    -0.7881  -0.7733  -0.7685  -0.7626  -0.7478  -0.7454  -0.7348  -0.7296
    -0.7227  -0.7197  -0.7173  -0.7108  -0.6974  -0.6856  -0.6409  -0.5838
    -0.5755  -0.5731  -0.5572  -0.5511  -0.5411  -0.5361  -0.5247  -0.5236
    -0.5210  -0.5160  -0.5062  -0.5016  -0.4996  -0.4916  -0.4822  -0.4707
    -0.4663  -0.4602  -0.4560  -0.4504  -0.4456  -0.4393  -0.4354  -0.4284
    -0.4250  -0.3936  -0.3797  -0.3750  -0.3730  -0.3678  -0.3641  -0.3628
    -0.3575  -0.3538  -0.3478  -0.3290  -0.3240  -0.3140  -0.3041  -0.3017
    -0.2873  -0.2847  -0.2767  -0.2729  -0.2694  -0.2655  -0.2618  -0.2542
    -0.2454  -0.2383  -0.2323  -0.2291  -0.2216  -0.2180  -0.2124  -0.2057
    -0.1904  -0.1862  -0.1820  -0.1748  -0.1703  -0.1622  -0.1599  -0.1534
    -0.1499  -0.1307  -0.1257  -0.1235  -0.1149  -0.1084  -0.0970  -0.0916
    -0.0881  -0.0830  -0.0696  -0.0619  -0.0436  -0.0418  -0.0356  -0.0322
    -0.0190  -0.0112  -0.0068  -0.0001   0.0039   0.0090   0.0137   0.0166
     0.0193   0.0226   0.0239   0.0287   0.0315   0.0381   0.0438   0.0461
     0.0496   0.0588   0.0615   0.0632   0.0674   0.0714   0.0778   0.0839
     0.0884   0.0945   0.0999   0.1117   0.1188   0.1288   0.1326   0.1372
     0.1425   0.1509   0.1542   0.1692   0.1712   0.1753   0.1815   0.1878
     0.2009   0.2120   0.2295   0.2403   0.2552   0.2730   0.2828   0.2861
     0.2916   0.2957   0.3024   0.3049   0.3081   0.3122   0.3145   0.3159
     0.3187   0.3233   0.3268   0.3334   0.3352   0.3385   0.3467   0.3506
     0.3517   0.3578   0.3608   0.3633   0.3664   0.3700   0.3755   0.3916
     0.4003   0.4120   0.4196   0.4270   0.4323   0.4398   0.4527   0.4588
     0.4653   0.4711   0.4772   0.4806   0.4843   0.4938   0.5012   0.5062
     0.5097   0.5146   0.5175   0.5213   0.5282   0.5310   0.5339   0.5413
     0.5440   0.5525   0.5595   0.5652   0.5718   0.5748   0.5785   0.5848
     0.5905   0.5926   0.5983   0.6035   0.6104   0.6123   0.6162   0.6235
     0.6297   0.6351   0.6393   0.6421   0.6435   0.6476   0.6516   0.6590
     0.6653   0.6742   0.6796   0.6817   0.6881   0.6913   0.6943   0.6979
     0.7124   0.7149   0.7220   0.7358   0.7401   0.7467   0.7559   0.7663
     0.7729   0.7736   0.7787   0.7842   0.7919   0.7967   0.8010   0.8034
     0.8087   0.8127   0.8149   0.8206   0.8302   0.8358   0.8467   0.8503
     0.8539   0.8588   0.8683   0.8784   0.8804   0.8864   0.8921   0.9000
     0.9033   0.9093   0.9137   0.9194   0.9217   0.9262   0.9279   0.9355
     0.9372   0.9433   0.9493   0.9532   0.9610   0.9642   0.9695   0.9796
     0.9846   0.9918   0.9944   1.0031   1.0074   1.0103   1.0162   1.0206
     1.0249   1.0293   1.0335   1.0407   1.0432   1.0450   1.0477   1.0507
     1.0535   1.0556   1.0613   1.0640   1.0666   1.0690   1.0749   1.0769
     1.0815   1.0875   1.0926   1.0945   1.0967   1.0986   1.1009   1.1053
     1.1108   1.1186   1.1225   1.1248   1.1308   1.1378   1.1402   1.1436
     1.1470   1.1576   1.1595   1.1616   1.1637   1.1691   1.1726   1.1753
     1.1821   1.1862   1.1953   1.2008   1.2078   1.2119   1.2159   1.2202
     1.2262   1.2319   1.2494   1.2514   1.2571   1.2674   1.2703   1.2713
     1.2766   1.2797   1.2821   1.2848   1.2892   1.2945   1.2962   1.3021
     1.3046   1.3091   1.3102   1.3152   1.3233   1.3263   1.3280   1.3303
     1.3324   1.3341   1.3364   1.3406   1.3422   1.3468   1.3479   1.3525
     1.3583   1.3619   1.3678   1.3707   1.3765   1.3824   1.3843   1.3862
     1.3940   1.3997   1.4027   1.4076   1.4109   1.4168   1.4258   1.4275
     1.4300   1.4376   1.4448   1.4477   1.4497   1.4519   1.4540   1.4577
     1.4613   1.4639   1.4660   1.4698   1.4708   1.4747   1.4791   1.4844
     1.4867   1.4897   1.4938   1.4960   1.5040   1.5071   1.5133   1.5164
     1.5197   1.5233   1.5309   1.5344   1.5384   1.5403   1.5471   1.5487
     1.5655   1.5793   1.5825   1.5964   1.6083   1.6358   1.6481   1.6507
     1.6574   1.6652   1.6798   1.7115   1.7591   1.7750   1.7938   1.8005
     1.8098   1.8286   1.8658   1.9808   2.0165   2.0550   2.0790   2.0850
     2.1124   2.1560   2.2060   2.2519   2.2973   2.4993   2.5734   2.5769
     2.6181   2.7392   2.9996   3.0032   3.0675   3.2057   3.2087   3.2259
     3.2465   3.2491   3.2793   3.3892   3.4591   3.5089   3.5691   3.6223
     3.6674   3.6823   3.7130   3.7267   3.7408   3.7856   3.8204   3.8783
     3.9022   3.9584   4.0160   4.0803   4.1559   4.1835   4.3138   4.3347
     4.5002   4.5226   4.6819   4.7663   4.8245   4.8600   4.9500   5.1591
     5.2338   5.2402   5.2761   5.3215   5.3882   5.4470   5.4954   5.5284
     5.5474   5.5605   5.6016   5.6325   5.6910   5.6985   5.7294   5.7974
     5.8139   5.8987   5.9947   6.0324   6.0567   6.0720   6.2041   6.3409
     6.5153   6.6904   6.7432   6.7764   6.7859   6.8213   6.8411   6.8524
     6.9207   6.9890   7.0231   7.0627   7.0954   7.1207   7.1930   7.2473
     7.2916   7.3427   7.4499   7.4609   7.5406   7.5697   7.6400   7.7291
     7.7597   7.7748   7.8890   7.9589   7.9936   8.0596   8.0718   8.1337
     8.1717   8.2000   8.2534   8.2814   8.2974   8.3277   8.3573   8.4093
     8.4729   8.5085   8.6521   8.6742   8.8690   8.9559   9.0054   9.0214
     9.0288   9.0358   9.1256   9.1410   9.1574   9.1852   9.2054   9.2382
     9.2769   9.3215   9.3490   9.3931   9.4096   9.4628   9.4722   9.5632
     9.5879   9.6716   9.6795   9.7183   9.7326   9.8175   9.8663   9.8752
     9.9047   9.9479   9.9897

          k = 0.2500-0.2165 0.0000 (256316 PWs)   bands (ev):

   -17.1410 -16.0666 -15.7705 -15.4391 -15.3535 -15.0748 -14.5895 -14.4394
   -14.2060 -13.9855 -13.6236 -13.1961 -13.1217 -13.0254 -12.7133 -12.5324
   -12.0507 -11.9485 -11.4478 -11.3496 -11.1913 -11.0448 -10.8689 -10.5719
    -9.9203  -9.6708  -9.6168  -9.2851  -9.1961  -8.9122  -8.8069  -8.5609
    -8.4328  -8.3338  -8.2843  -7.1995  -6.9237  -6.7304  -6.5857  -6.4779
    -6.3819  -6.2838  -6.1670  -5.9924  -5.9255  -5.6892  -5.6522  -5.3282
    -5.1514  -5.1040  -4.9699  -4.8605  -4.6773  -4.6577  -4.5964  -4.5352
    -4.4746  -4.4595  -4.3317  -4.3183  -4.2302  -4.2061  -4.0629  -4.0418
    -3.9527  -3.8930  -3.7851  -3.6846  -3.6214  -3.5830  -3.5303  -3.4560
    -3.4450  -3.4256  -3.4075  -3.2918  -3.2723  -3.2198  -3.1978  -3.1105
    -3.0370  -2.9665  -2.9519  -2.9293  -2.9054  -2.8748  -2.8631  -2.8059
    -2.7255  -2.6458  -2.6127  -2.5825  -2.5448  -2.4371  -2.3023  -2.2930
    -2.2760  -2.1924  -2.1681  -2.1429  -2.1400  -2.1194  -2.1044  -2.0525
    -1.9813  -1.9775  -1.9620  -1.9478  -1.8802  -1.8248  -1.8120  -1.7918
    -1.7848  -1.7840  -1.7467  -1.7256  -1.7093  -1.7012  -1.6884  -1.6849
    -1.6785  -1.6708  -1.6632  -1.6563  -1.6534  -1.6468  -1.6456  -1.6405
    -1.6264  -1.5945  -1.5571  -1.5534  -1.5293  -1.4667  -1.4415  -1.4277
    -1.3737  -1.3406  -1.3061  -1.2964  -1.2853  -1.2639  -1.2578  -1.2479
    -1.2417  -1.2363  -1.2328  -1.2236  -1.2107  -1.2058  -1.2019  -1.2004
    -1.1966  -1.1906  -1.1827  -1.1820  -1.1727  -1.1628  -1.1533  -1.1484
    -1.1417  -1.1321  -1.1100  -1.1045  -1.0987  -1.0915  -1.0843  -1.0815
    -1.0791  -1.0641  -1.0355  -1.0176  -1.0135  -1.0111  -1.0033  -0.9971
    -0.9911  -0.9761  -0.9711  -0.9656  -0.9568  -0.9462  -0.9349  -0.9338
    -0.9314  -0.9263  -0.9233  -0.9097  -0.8989  -0.8949  -0.8876  -0.8729
    -0.8666  -0.8467  -0.8447  -0.8375  -0.8322  -0.8285  -0.8101  -0.7929
    -0.7573  -0.7529  -0.7492  -0.7464  -0.7387  -0.7370  -0.7100  -0.6983
    -0.6872  -0.6853  -0.6805  -0.6752  -0.6693  -0.6662  -0.6543  -0.6317
    -0.6170  -0.6013  -0.5872  -0.5798  -0.5758  -0.5547  -0.5430  -0.5382
    -0.5336  -0.5259  -0.5098  -0.5036  -0.4970  -0.4900  -0.4863  -0.4781
    -0.4748  -0.4609  -0.4580  -0.4463  -0.4287  -0.4242  -0.4164  -0.4081
    -0.3988  -0.3901  -0.3830  -0.3796  -0.3733  -0.3708  -0.3657  -0.3546
    -0.3525  -0.3450  -0.3406  -0.3367  -0.3352  -0.3336  -0.3295  -0.3201
    -0.3122  -0.3051  -0.3015  -0.2982  -0.2913  -0.2865  -0.2778  -0.2679
    -0.2577  -0.2535  -0.2403  -0.2314  -0.2263  -0.2175  -0.2104  -0.2100
    -0.2041  -0.1953  -0.1934  -0.1896  -0.1700  -0.1575  -0.1463  -0.1336
    -0.1292  -0.1138  -0.0961  -0.0904  -0.0835  -0.0796  -0.0759  -0.0705
    -0.0628  -0.0587  -0.0554  -0.0481  -0.0397  -0.0355  -0.0316  -0.0286
    -0.0225  -0.0152  -0.0118  -0.0088  -0.0023   0.0011   0.0086   0.0106
     0.0176   0.0194   0.0235   0.0282   0.0319   0.0363   0.0373   0.0380
     0.0436   0.0472   0.0519   0.0540   0.0592   0.0723   0.0791   0.0820
     0.0921   0.0982   0.1008   0.1085   0.1198   0.1357   0.1441   0.1484
     0.1570   0.1619   0.1710   0.1739   0.1765   0.1799   0.1821   0.1875
     0.1938   0.1985   0.2035   0.2084   0.2121   0.2325   0.2381   0.2629
     0.2811   0.2929   0.2975   0.3032   0.3100   0.3145   0.3170   0.3210
     0.3238   0.3269   0.3292   0.3345   0.3410   0.3499   0.3524   0.3565
     0.3603   0.3626   0.3655   0.3707   0.3746   0.3841   0.3958   0.3999
     0.4043   0.4155   0.4219   0.4271   0.4360   0.4405   0.4484   0.4522
     0.4624   0.4763   0.4822   0.4857   0.4917   0.4975   0.5039   0.5064
     0.5103   0.5130   0.5155   0.5201   0.5246   0.5311   0.5394   0.5501
     0.5549   0.5638   0.5688   0.5752   0.5842   0.5919   0.5974   0.6043
     0.6094   0.6166   0.6247   0.6297   0.6334   0.6354   0.6410   0.6441
     0.6521   0.6563   0.6597   0.6625   0.6666   0.6717   0.6773   0.6816
     0.6870   0.6921   0.6934   0.6958   0.6977   0.7013   0.7038   0.7049
     0.7114   0.7176   0.7186   0.7240   0.7286   0.7317   0.7357   0.7403
     0.7438   0.7474   0.7500   0.7534   0.7606   0.7725   0.7756   0.7848
     0.7925   0.7957   0.7996   0.8140   0.8274   0.8308   0.8396   0.8400
     0.8505   0.8547   0.8596   0.8630   0.8665   0.8765   0.8800   0.8816
     0.8837   0.8848   0.8861   0.8913   0.8950   0.8972   0.9121   0.9179
     0.9227   0.9258   0.9332   0.9366   0.9442   0.9479   0.9581   0.9654
     0.9669   0.9704   0.9757   0.9841   0.9895   0.9931   0.9962   1.0008
     1.0056   1.0084   1.0121   1.0240   1.0295   1.0414   1.0421   1.0537
     1.0600   1.0648   1.0719   1.0844   1.0915   1.0999   1.1039   1.1067
     1.1108   1.1135   1.1145   1.1160   1.1199   1.1220   1.1248   1.1256
     1.1280   1.1326   1.1372   1.1388   1.1438   1.1538   1.1588   1.1688
     1.1733   1.1785   1.1874   1.1899   1.1921   1.1944   1.1980   1.2044
     1.2066   1.2075   1.2128   1.2156   1.2192   1.2210   1.2237   1.2261
     1.2292   1.2322   1.2346   1.2378   1.2418   1.2433   1.2483   1.2534
     1.2540   1.2610   1.2688   1.2721   1.2737   1.2798   1.2898   1.2929
     1.2988   1.3006   1.3045   1.3084   1.3124   1.3184   1.3253   1.3322
     1.3359   1.3379   1.3428   1.3486   1.3513   1.3567   1.3617   1.3633
     1.3669   1.3708   1.3740   1.3773   1.3838   1.3863   1.3879   1.3934
     1.3961   1.4008   1.4052   1.4085   1.4102   1.4132   1.4160   1.4204
     1.4248   1.4272   1.4297   1.4328   1.4363   1.4409   1.4445   1.4467
     1.4553   1.4602   1.4626   1.4653   1.4665   1.4684   1.4708   1.4733
     1.4764   1.4808   1.4846   1.4916   1.4972   1.5078   1.5084   1.5152
     1.5221   1.5237   1.5294   1.5340   1.5410   1.5514   1.5560   1.5701
     1.5770   1.5808   1.5839   1.5944   1.6080   1.6113   1.6248   1.6598
     1.6928   1.7015   1.7268   1.7379   1.7743   1.7790   1.7899   1.7915
     1.7988   1.8065   1.8153   1.8408   1.8704   1.9464   2.1464   2.1503
     2.1780   2.1944   2.2687   2.3022   2.4797   2.6052   2.6104   2.7890
     2.7958   2.8074   2.8111   2.8209   2.8253   2.8878   2.9422   3.0110
     3.0200   3.0845   3.2063   3.3457   3.5341   3.5574   3.6072   3.6579
     3.6779   3.7995   3.8422   3.8454   3.8941   3.9040   4.0071   4.0333
     4.0916   4.0965   4.1770   4.1938   4.2431   4.3915   4.3975   4.5018
     4.5405   4.5678   4.6407   4.6692   4.7188   4.7650   4.8607   4.9155
     4.9444   5.0128   5.0272   5.1258   5.2449   5.3125   5.3616   5.3914
     5.4304   5.4543   5.4664   5.5341   5.6675   5.7627   5.7866   5.8304
     5.8947   5.9294   5.9874   6.0180   6.0629   6.4108   6.5647   6.5861
     6.6127   6.6434   6.7449   6.7924   6.8405   6.8867   6.9752   6.9983
     7.0167   7.0757   7.0946   7.1432   7.2033   7.2200   7.2352   7.2690
     7.2929   7.3220   7.3757   7.4115   7.4461   7.4641   7.6056   7.6487
     7.7064   7.7972   7.8084   7.8851   7.9242   7.9437   8.0993   8.1562
     8.2055   8.2296   8.2510   8.3928   8.4329   8.5560   8.5869   8.6180
     8.6277   8.6453   8.6706   8.7180   8.7335   8.7817   8.8616   8.8733
     8.8952   8.9180   8.9391   9.0658   9.0984   9.1218   9.1309   9.1651
     9.2160   9.2308   9.2402   9.2731   9.2945   9.3220   9.3380   9.3555
     9.4398   9.4824   9.4945   9.5654   9.6559   9.6612   9.8292   9.9329
     9.9521   9.9762   9.9878

          k =-0.5000 0.0000 0.0000 (256496 PWs)   bands (ev):

   -17.0805 -15.9021 -15.6941 -15.5321 -15.4564 -15.4101 -14.6986 -14.5739
   -14.3726 -14.3467 -13.0940 -12.9061 -12.6528 -12.5643 -12.3610 -12.3262
   -11.9211 -11.7618 -11.6842 -11.6575 -11.2174 -11.0882 -10.9833 -10.6476
   -10.2339 -10.1913  -9.9636  -9.6779  -9.6220  -9.0347  -8.8927  -8.8286
    -8.7112  -7.6832  -7.5458  -7.4725  -7.2751  -7.2476  -7.2454  -6.1839
    -6.1324  -5.7332  -5.2845  -5.2788  -5.2090  -5.0463  -4.9537  -4.9158
    -4.8199  -4.7953  -4.7729  -4.7694  -4.7368  -4.6920  -4.6581  -4.6291
    -4.6005  -4.5884  -4.5366  -4.4445  -4.3871  -4.3060  -4.2785  -4.1624
    -4.0818  -3.9914  -3.9309  -3.8892  -3.7695  -3.7037  -3.6307  -3.6001
    -3.5602  -3.5022  -3.4930  -3.4025  -3.3857  -3.3795  -3.3511  -3.3294
    -3.2860  -3.2532  -3.2328  -3.2124  -3.0328  -2.9011  -2.7705  -2.7047
    -2.6853  -2.6803  -2.6237  -2.6145  -2.5777  -2.5535  -2.5244  -2.4558
    -2.3324  -2.3162  -2.2980  -2.2858  -2.2175  -2.1534  -1.8992  -1.8571
    -1.8524  -1.8507  -1.8466  -1.8417  -1.8075  -1.7692  -1.7514  -1.7467
    -1.7336  -1.7225  -1.6690  -1.6248  -1.6212  -1.6161  -1.6128  -1.5917
    -1.5799  -1.5735  -1.5692  -1.5483  -1.5025  -1.4780  -1.4642  -1.4622
    -1.4087  -1.4016  -1.3957  -1.3948  -1.3863  -1.3804  -1.3773  -1.3740
    -1.3685  -1.3469  -1.3367  -1.3319  -1.3305  -1.3272  -1.3224  -1.3159
    -1.3088  -1.3013  -1.2785  -1.2709  -1.2677  -1.2665  -1.2471  -1.2450
    -1.2400  -1.2325  -1.2047  -1.1840  -1.1803  -1.1759  -1.1648  -1.1561
    -1.1452  -1.1426  -1.1355  -1.1311  -1.1258  -1.1134  -1.1119  -1.0936
    -1.0889  -1.0877  -1.0767  -1.0648  -1.0623  -1.0579  -1.0493  -1.0286
    -1.0278  -1.0045  -0.9786  -0.9735  -0.9587  -0.9552  -0.9529  -0.9439
    -0.9355  -0.9329  -0.9299  -0.9149  -0.9103  -0.9040  -0.8994  -0.8979
    -0.8955  -0.8940  -0.8882  -0.8803  -0.8766  -0.8563  -0.8526  -0.8279
    -0.8158  -0.8084  -0.7990  -0.7712  -0.7635  -0.7522  -0.7102  -0.6913
    -0.6879  -0.6830  -0.6720  -0.6528  -0.6434  -0.6402  -0.6356  -0.6307
    -0.6266  -0.6157  -0.6109  -0.6021  -0.5987  -0.5943  -0.5862  -0.5831
    -0.5809  -0.5761  -0.5648  -0.5602  -0.5425  -0.5373  -0.5213  -0.4860
    -0.4488  -0.4395  -0.4371  -0.4301  -0.4293  -0.4207  -0.4155  -0.4079
    -0.3888  -0.3839  -0.3776  -0.3766  -0.3723  -0.3637  -0.3577  -0.3450
    -0.3436  -0.3419  -0.3399  -0.3189  -0.3148  -0.3075  -0.3054  -0.3014
    -0.2925  -0.2815  -0.2757  -0.2668  -0.2646  -0.2591  -0.2577  -0.2464
    -0.2341  -0.2283  -0.2259  -0.2216  -0.2202  -0.2040  -0.2016  -0.1921
    -0.1815  -0.1655  -0.1527  -0.1437  -0.1229  -0.1183  -0.1085  -0.1070
    -0.1029  -0.0995  -0.0974  -0.0943  -0.0849  -0.0699  -0.0629  -0.0573
    -0.0476  -0.0358  -0.0180  -0.0118  -0.0067  -0.0018  -0.0005   0.0032
     0.0061   0.0088   0.0117   0.0131   0.0164   0.0206   0.0235   0.0273
     0.0463   0.0608   0.0660   0.0839   0.0881   0.0907   0.0941   0.0960
     0.1012   0.1031   0.1089   0.1126   0.1162   0.1219   0.1230   0.1258
     0.1271   0.1309   0.1360   0.1393   0.1434   0.1440   0.1463   0.1485
     0.1517   0.1524   0.1561   0.1604   0.1629   0.1668   0.1683   0.1747
     0.1808   0.1820   0.1873   0.1898   0.1914   0.2040   0.2141   0.2232
     0.2570   0.2693   0.2785   0.3036   0.3153   0.3243   0.3256   0.3323
     0.3421   0.3445   0.3482   0.3511   0.3570   0.3666   0.3677   0.3682
     0.3719   0.3767   0.3825   0.3839   0.3851   0.3870   0.3873   0.3922
     0.3949   0.3985   0.4013   0.4070   0.4128   0.4137   0.4208   0.4254
     0.4300   0.4332   0.4375   0.4478   0.4706   0.4794   0.5027   0.5111
     0.5176   0.5210   0.5249   0.5274   0.5338   0.5422   0.5444   0.5508
     0.5547   0.5587   0.5607   0.5613   0.5632   0.5664   0.5687   0.5726
     0.5749   0.5758   0.5791   0.5799   0.5849   0.5866   0.5935   0.6033
     0.6054   0.6125   0.6192   0.6263   0.6371   0.6437   0.6463   0.6506
     0.6515   0.6554   0.6634   0.6637   0.6667   0.6678   0.6709   0.6802
     0.6818   0.6856   0.6867   0.6906   0.6929   0.6984   0.7032   0.7103
     0.7184   0.7285   0.7363   0.7414   0.7425   0.7467   0.7489   0.7546
     0.7669   0.7744   0.7850   0.7905   0.7959   0.7981   0.8067   0.8247
     0.8300   0.8373   0.8524   0.8626   0.8659   0.8669   0.8677   0.8693
     0.8702   0.8725   0.8761   0.8807   0.8879   0.8904   0.8926   0.8948
     0.9038   0.9112   0.9126   0.9152   0.9169   0.9187   0.9299   0.9333
     0.9387   0.9421   0.9463   0.9529   0.9559   0.9667   0.9719   0.9787
     1.0031   1.0145   1.0171   1.0400   1.0404   1.0426   1.0487   1.0575
     1.0626   1.0697   1.0713   1.0736   1.0831   1.0853   1.0875   1.0959
     1.1072   1.1081   1.1107   1.1120   1.1178   1.1312   1.1358   1.1376
     1.1387   1.1408   1.1475   1.1500   1.1548   1.1564   1.1570   1.1615
     1.1652   1.1686   1.1708   1.1731   1.1777   1.1787   1.1889   1.1951
     1.2027   1.2034   1.2069   1.2124   1.2198   1.2249   1.2307   1.2351
     1.2396   1.2433   1.2476   1.2496   1.2594   1.2652   1.2663   1.2675
     1.2702   1.2709   1.2720   1.2740   1.2765   1.2783   1.2807   1.2906
     1.2994   1.3092   1.3126   1.3227   1.3272   1.3315   1.3345   1.3371
     1.3383   1.3407   1.3431   1.3447   1.3464   1.3470   1.3492   1.3518
     1.3535   1.3549   1.3567   1.3584   1.3623   1.3657   1.3680   1.3686
     1.3710   1.3756   1.3781   1.3800   1.3871   1.3909   1.3961   1.3997
     1.4037   1.4077   1.4112   1.4137   1.4225   1.4334   1.4350   1.4404
     1.4416   1.4456   1.4540   1.4564   1.4578   1.4597   1.4627   1.4693
     1.4718   1.4752   1.4774   1.4811   1.4881   1.4940   1.4942   1.4961
     1.5021   1.5041   1.5078   1.5093   1.5133   1.5199   1.5247   1.5284
     1.5402   1.5429   1.5442   1.5452   1.5464   1.5588   1.5691   1.5780
     1.5970   1.6055   1.6111   1.6322   1.6344   1.6356   1.6474   1.6590
     1.9504   2.0348   2.0644   2.0756   2.1718   2.2453   2.2610   2.2779
     2.3093   2.3140   2.3227   2.3361   2.4253   2.6071   2.6297   2.6720
     2.8279   2.8481   2.8695   2.8846   2.9824   3.1855   3.1997   3.2115
     3.2237   3.3327   3.5005   3.5625   3.7322   3.7611   3.7713   3.8660
     3.9117   3.9232   3.9354   3.9810   4.0333   4.0699   4.1106   4.1162
     4.1666   4.2070   4.4111   4.4979   4.5946   4.6596   4.7178   4.7384
     4.7613   4.8216   4.8413   4.8714   4.8919   4.9266   5.0107   5.0325
     5.0446   5.0558   5.0608   5.0644   5.0874   5.1133   5.1645   5.1809
     5.2511   5.3389   5.3886   5.4550   5.5074   5.5250   5.5590   5.5827
     5.6694   5.7090   5.9113   5.9582   5.9848   5.9997   6.0249   6.0450
     6.0718   6.0840   6.2103   6.2739   6.3056   6.3660   6.4253   6.4451
     6.5158   6.5595   6.6308   7.0554   7.0786   7.1139   7.1427   7.1681
     7.2756   7.5073   7.5599   7.5939   7.6136   7.6176   7.6262   7.6339
     7.7842   7.8281   7.8342   7.8538   7.8715   7.8910   7.9669   7.9980
     8.0229   8.0586   8.0613   8.0848   8.1042   8.1627   8.1749   8.2516
     8.2945   8.7363   8.7472   8.7622   8.7726   8.8165   8.8373   8.8656
     8.8722   8.9386   9.0153   9.0215   9.0329   9.0625   9.0659   9.1445
     9.2318   9.2663   9.3178   9.4121   9.4446   9.4626   9.4939   9.5189
     9.5252   9.5254   9.5291   9.5297   9.5504   9.5707   9.8206   9.8753
     9.8866   9.9684   9.9929

          k =-0.5000-0.2165 0.0000 (256328 PWs)   bands (ev):

   -17.0804 -15.8804 -15.7574 -15.6280 -15.3267 -15.1080 -15.0160 -14.9626
   -14.0343 -13.7107 -13.5766 -13.5426 -12.6207 -12.3537 -12.0431 -11.8639
   -11.8399 -11.7173 -11.5484 -11.4674 -11.4359 -11.4026 -11.3330 -11.2847
   -10.1306  -9.9232  -9.8567  -9.5756  -9.2813  -9.0619  -8.7552  -8.6961
    -8.6199  -8.1295  -8.1187  -7.8838  -7.8239  -6.4527  -6.2381  -6.0248
    -5.8383  -5.7316  -5.5517  -5.2998  -5.2420  -5.1795  -5.1739  -5.1595
    -5.1490  -5.1265  -5.1094  -4.9463  -4.8921  -4.8621  -4.5076  -4.3291
    -4.3018  -4.2624  -4.2008  -4.1802  -4.1787  -4.1616  -4.1583  -4.1272
    -4.0871  -4.0556  -3.9874  -3.9607  -3.8965  -3.8725  -3.8053  -3.7610
    -3.6728  -3.6265  -3.6018  -3.5767  -3.5120  -3.4088  -3.3355  -3.3063
    -3.2396  -3.1521  -3.1155  -3.0157  -2.9721  -2.8783  -2.6165  -2.5671
    -2.5497  -2.5458  -2.5430  -2.5356  -2.5286  -2.5136  -2.4908  -2.4635
    -2.3588  -2.2976  -2.2336  -2.1192  -2.0556  -2.0455  -2.0366  -2.0241
    -2.0142  -2.0094  -2.0039  -1.9980  -1.9713  -1.9242  -1.8546  -1.7862
    -1.7793  -1.7695  -1.7638  -1.6490  -1.6182  -1.5748  -1.5568  -1.5279
    -1.4818  -1.4740  -1.4671  -1.4604  -1.4530  -1.4465  -1.4384  -1.4205
    -1.4166  -1.4139  -1.4047  -1.4024  -1.3954  -1.3759  -1.3624  -1.3590
    -1.3573  -1.3542  -1.3510  -1.3499  -1.3439  -1.3410  -1.3388  -1.3357
    -1.3320  -1.3298  -1.3058  -1.2847  -1.2837  -1.2609  -1.2476  -1.2254
    -1.2159  -1.2016  -1.1908  -1.1730  -1.1716  -1.1663  -1.1589  -1.1521
    -1.1486  -1.1310  -1.1175  -1.1133  -1.1077  -1.1003  -1.0977  -1.0949
    -1.0920  -1.0898  -1.0830  -1.0793  -1.0690  -1.0590  -1.0484  -1.0363
    -1.0303  -1.0250  -1.0226  -1.0196  -1.0185  -1.0123  -1.0115  -1.0108
    -1.0094  -1.0052  -0.9946  -0.9752  -0.9544  -0.8948  -0.8674  -0.8573
    -0.8557  -0.8506  -0.8330  -0.8311  -0.8272  -0.8220  -0.8162  -0.7718
    -0.7631  -0.7467  -0.7453  -0.7432  -0.7400  -0.7355  -0.7301  -0.7276
    -0.7242  -0.7194  -0.7073  -0.6899  -0.6772  -0.6747  -0.6685  -0.6603
    -0.6575  -0.6547  -0.6463  -0.6421  -0.6382  -0.6364  -0.6258  -0.5989
    -0.5554  -0.5527  -0.5462  -0.5372  -0.5285  -0.5226  -0.5117  -0.4875
    -0.4792  -0.4721  -0.4645  -0.4582  -0.4294  -0.4219  -0.4179  -0.4087
    -0.4058  -0.4013  -0.3991  -0.3951  -0.3889  -0.3823  -0.3790  -0.3768
    -0.3666  -0.3569  -0.3536  -0.3405  -0.3238  -0.3192  -0.2903  -0.2811
    -0.2590  -0.2538  -0.2464  -0.2434  -0.2387  -0.2329  -0.2294  -0.2267
    -0.2231  -0.2131  -0.2109  -0.2082  -0.1807  -0.1585  -0.1516  -0.1429
    -0.1396  -0.1299  -0.1279  -0.1255  -0.1216  -0.1187  -0.1155  -0.1098
    -0.1007  -0.0945  -0.0896  -0.0865  -0.0852  -0.0787  -0.0752  -0.0747
    -0.0658  -0.0647  -0.0612  -0.0550  -0.0451  -0.0331  -0.0190  -0.0078
    -0.0032   0.0097   0.0164   0.0256   0.0335   0.0408   0.0498   0.0542
     0.0785   0.0817   0.0875   0.0890   0.0970   0.1006   0.1037   0.1062
     0.1112   0.1120   0.1172   0.1207   0.1229   0.1254   0.1326   0.1339
     0.1366   0.1378   0.1393   0.1425   0.1441   0.1479   0.1510   0.1529
     0.1556   0.1585   0.1766   0.1793   0.1799   0.1817   0.1866   0.1909
     0.1956   0.1959   0.2073   0.2091   0.2296   0.2339   0.2413   0.2488
     0.2504   0.2566   0.2631   0.2685   0.2761   0.3001   0.3064   0.3254
     0.3319   0.3488   0.3516   0.3635   0.3680   0.3716   0.3725   0.3773
     0.3797   0.3859   0.3872   0.3901   0.3947   0.3964   0.3975   0.4018
     0.4030   0.4055   0.4092   0.4149   0.4194   0.4274   0.4358   0.4431
     0.4569   0.4632   0.4667   0.4812   0.4845   0.4903   0.4941   0.4966
     0.5000   0.5007   0.5040   0.5119   0.5168   0.5225   0.5256   0.5310
     0.5360   0.5412   0.5471   0.5502   0.5592   0.5607   0.5631   0.5673
     0.5745   0.5782   0.5860   0.5911   0.5943   0.5957   0.5984   0.6049
     0.6082   0.6100   0.6118   0.6136   0.6151   0.6199   0.6223   0.6254
     0.6346   0.6371   0.6427   0.6467   0.6539   0.6626   0.6765   0.6869
     0.6951   0.7025   0.7049   0.7061   0.7092   0.7140   0.7214   0.7259
     0.7279   0.7296   0.7354   0.7421   0.7436   0.7477   0.7538   0.7574
     0.7597   0.7624   0.7640   0.7733   0.7766   0.7813   0.7918   0.8009
     0.8105   0.8136   0.8240   0.8348   0.8388   0.8463   0.8473   0.8536
     0.8630   0.8667   0.8723   0.8821   0.8833   0.8900   0.8910   0.8967
     0.9079   0.9102   0.9361   0.9441   0.9516   0.9586   0.9698   0.9743
     0.9877   0.9903   0.9976   1.0122   1.0181   1.0279   1.0331   1.0364
     1.0419   1.0439   1.0479   1.0535   1.0545   1.0582   1.0615   1.0639
     1.0656   1.0705   1.0729   1.0744   1.0752   1.0766   1.0767   1.0801
     1.0826   1.0898   1.0929   1.0972   1.0989   1.1011   1.1065   1.1098
     1.1143   1.1163   1.1224   1.1284   1.1298   1.1308   1.1435   1.1444
     1.1457   1.1499   1.1526   1.1565   1.1581   1.1644   1.1667   1.1675
     1.1716   1.1755   1.1893   1.1992   1.2172   1.2185   1.2201   1.2241
     1.2296   1.2324   1.2345   1.2380   1.2423   1.2450   1.2507   1.2554
     1.2594   1.2630   1.2670   1.2743   1.2843   1.2852   1.2874   1.2971
     1.2992   1.3038   1.3071   1.3076   1.3119   1.3121   1.3145   1.3220
     1.3230   1.3287   1.3384   1.3469   1.3597   1.3657   1.3659   1.3727
     1.3784   1.3797   1.3825   1.3827   1.3847   1.3861   1.3891   1.3913
     1.3932   1.3948   1.3978   1.4013   1.4026   1.4041   1.4080   1.4129
     1.4148   1.4164   1.4182   1.4203   1.4220   1.4255   1.4282   1.4313
     1.4336   1.4349   1.4384   1.4414   1.4455   1.4526   1.4603   1.4689
     1.4725   1.4762   1.4798   1.4843   1.4880   1.4936   1.4994   1.5050
     1.5103   1.5194   1.5231   1.5247   1.5273   1.5331   1.5536   1.5617
     1.5644   1.5742   1.5925   1.5961   1.6015   1.6042   1.6100   1.6164
     1.6230   1.6277   1.6318   1.6356   1.6373   1.6431   1.6438   1.6602
     1.6736   1.7026   1.8419   1.8557   1.8854   1.8910   2.1407   2.3442
     2.3517   2.4005   2.5225   2.5722   2.5779   2.5975   2.6404   2.7924
     2.8171   2.8474   2.8765   3.0751   3.1177   3.1385   3.2535   3.3975
     3.4673   3.4855   3.4884   3.4983   3.6448   3.6542   3.7063   3.8066
     3.9444   3.9565   3.9616   3.9738   4.1323   4.2199   4.2437   4.2485
     4.2729   4.3059   4.3163   4.3443   4.4221   4.5288   4.5513   4.5702
     4.5779   4.6049   4.6966   4.7650   4.8232   4.8688   4.9461   4.9807
     5.0316   5.1316   5.1448   5.1657   5.1757   5.2046   5.2364   5.2673
     5.2776   5.3090   5.3333   5.3437   5.3875   5.4315   5.5140   5.6174
     5.6838   5.6953   5.7524   5.7591   5.7665   5.7834   5.8286   5.8461
     5.8808   5.9405   6.1928   6.7487   6.7645   6.8538   6.8600   6.9434
     7.0711   7.0764   7.0992   7.1248   7.1628   7.1727   7.1918   7.2049
     7.2327   7.2827   7.2980   7.3348   7.3721   7.3968   7.4310   7.4424
     7.5400   7.5612   7.6295   7.7942   7.8773   7.9103   7.9445   8.0072
     8.0153   8.0535   8.2180   8.2439   8.2718   8.2794   8.3171   8.3308
     8.4141   8.4389   8.7795   8.8520   8.8818   8.8871   8.9115   8.9241
     8.9286   8.9383   8.9570   8.9600   9.0129   9.0323   9.1029   9.1332
     9.1399   9.1559   9.1585   9.1917   9.3617   9.3843   9.3975   9.4482
     9.4774   9.5069   9.5172   9.5270   9.5511   9.5907   9.5974   9.9208
     9.9748   9.9818  10.0341

     the Fermi energy is     3.3519 ev

!    total energy              =  -12720.69748519 Ry
     Harris-Foulkes estimate   =  -12720.69748526 Ry
     estimated scf accuracy    <          3.2E-09 Ry

     The total energy is the sum of the following terms:

     one-electron contribution = -107958.13035191 Ry
     hartree contribution      =   55344.49634999 Ry
     xc contribution           =   -4452.53703969 Ry
     ewald contribution        =   44351.84026712 Ry
     Dispersion Correction     =      -2.98925395 Ry
     smearing contrib. (-TS)   =      -3.37745675 Ry

     convergence has been achieved in  42 iterations

     Writing output data file gc.save
 
     init_run     :     99.48s CPU    107.40s WALL (       1 calls)
     electrons    :  12323.80s CPU  13168.70s WALL (       1 calls)

     Called by init_run:
     wfcinit      :     97.19s CPU    104.53s WALL (       1 calls)
     potinit      :      0.42s CPU      0.42s WALL (       1 calls)

     Called by electrons:
     c_bands      :  11376.93s CPU  12130.23s WALL (      42 calls)
     sum_band     :    782.86s CPU    847.82s WALL (      42 calls)
     v_of_rho     :      2.82s CPU      3.46s WALL (      43 calls)
     newd         :      7.82s CPU     13.38s WALL (      43 calls)
     mix_rho      :    153.25s CPU    173.75s WALL (      42 calls)

     Called by c_bands:
     init_us_2    :     34.45s CPU     34.96s WALL (     510 calls)
     cegterg      :  11223.39s CPU  11971.06s WALL (     258 calls)

     Called by sum_band:
     sum_band:bec :      4.34s CPU      4.96s WALL (     252 calls)
     addusdens    :      7.54s CPU     12.91s WALL (      42 calls)

     Called by *egterg:
     h_psi        :   3950.26s CPU   4276.23s WALL (    2033 calls)
     s_psi        :    963.30s CPU    974.59s WALL (    2033 calls)
     g_psi        :      9.93s CPU      9.93s WALL (    1769 calls)
     cdiaghg      :   3608.40s CPU   3747.98s WALL (    2021 calls)

     Called by h_psi:
     add_vuspsi   :    968.63s CPU    981.43s WALL (    2033 calls)

     General routines
     calbec       :   1340.29s CPU   1350.54s WALL (    2285 calls)
     fft          :      3.51s CPU      4.14s WALL (     558 calls)
     ffts         :     90.56s CPU    102.84s WALL (   23413 calls)
     fftw         :   2272.14s CPU   2531.90s WALL ( 1251346 calls)
     davcio       :      0.37s CPU      6.14s WALL (       6 calls)
 
     Parallel routines
     fft_scatter  :   1477.68s CPU   1619.93s WALL ( 1275317 calls)
 
     PWSCF        :     3h27m CPU        3h41m WALL

 
   This run was terminated on:  23:29:47  26Apr2017            

=------------------------------------------------------------------------------=
   JOB DONE.
=------------------------------------------------------------------------------=
