
     Program PWSCF v.5.4.0 starts on  1May2017 at  8:48:20 

     This program is part of the open-source Quantum ESPRESSO suite
     for quantum simulation of materials; please cite
         "P. Giannozzi et al., J. Phys.:Condens. Matter 21 395502 (2009);
          URL http://www.quantum-espresso.org", 
     in publications or presentations arising from this work. More details at
     http://www.quantum-espresso.org/quote

     Parallel version (MPI & OpenMP), running on      56 processor cores
     Number of MPI processes:                56
     Threads/MPI process:                     1
     R & G space division:  proc/nbgrp/npool/nimage =      56
     Waiting for input...
     Reading input from standard input
Warning: card &IONS ignored
Warning: card / ignored

     Current dimensions of program PWSCF are:
     Max number of different atomic species (ntypx) = 10
     Max number of k-points (npk) =  40000
     Max angular momentum in pseudopotentials (lmaxx) =  3
     WARNING: atomic wfc #  2 for atom type 4 has zero norm
     WARNING: atomic wfc #  4 for atom type 4 has zero norm
     WARNING: atomic wfc #  5 for atom type 4 has zero norm

     -------------------------------------
     Parameters for Dispersion Correction:
     -------------------------------------
       atom      VdW radius       C_6     

        Cu         2.952        374.666
        C_h        2.744         60.710
        C          2.744         60.710
        O          2.536         24.284
        H          1.892          4.857

     Subspace diagonalization in iterative solution of the eigenvalue problem:
     one sub-group per band group will be used
     scalapack distributed-memory algorithm (size of sub-group:  5*  5 procs)

 
     Parallelization info
     --------------------
     sticks:   dense  smooth     PW     G-vecs:    dense   smooth      PW
     Min         204     204     54                36612    36612    4962
     Max         205     205     55                36617    36617    4968
     Sum       11433   11433   3039              2050409  2050409  278033
 


     bravais-lattice index     =            0
     lattice parameter (alat)  =      13.9425  a.u.
     unit-cell volume          =   21209.0878 (a.u.)^3
     number of atoms/cell      =          150
     number of atomic types    =            5
     number of electrons       =      1299.00
     number of Kohn-Sham states=          780
     kinetic-energy cutoff     =      80.0000  Ry
     charge density cutoff     =     320.0000  Ry
     convergence threshold     =      1.0E-08
     mixing beta               =       0.7000
     number of iterations used =            8  local-TF  mixing
     Exchange-correlation      =  SLA  PW   PBE  PBE ( 1  4  3  4 0 0)

     celldm(1)=  13.942539  celldm(2)=   0.000000  celldm(3)=   0.000000
     celldm(4)=   0.000000  celldm(5)=   0.000000  celldm(6)=   0.000000

     crystal axes: (cart. coord. in units of alat)
               a(1) = (   1.000000   0.000000   0.000000 )  
               a(2) = (   0.000000   2.309401   0.000000 )  
               a(3) = (   0.000000   0.000000   3.388418 )  

     reciprocal axes: (cart. coord. in units 2 pi/alat)
               b(1) = (  1.000000  0.000000  0.000000 )  
               b(2) = (  0.000000  0.433013  0.000000 )  
               b(3) = (  0.000000  0.000000  0.295123 )  


     PseudoPot. # 1 for Cu read from file:
     /home/549/hxw549/Short/pseudopotentials/Cu.pbe-n-van_ak.UPF
     MD5 check sum: 601f7c30f7467666bec936e0661ce3e1
     Pseudo is Ultrasoft + core correction, Zval = 11.0
     Generated by new atomic code, or converted to UPF format
     Using radial grid of  867 points,  6 beta functions with: 
                l(1) =   0
                l(2) =   0
                l(3) =   1
                l(4) =   1
                l(5) =   2
                l(6) =   2
     Q(r) pseudized with  8 coefficients,  rinner =    1.400   1.400   1.400
                                                       1.400   1.400

     PseudoPot. # 2 for C  read from file:
     /home/549/hxw549/Short/pseudopotentials/C.star1s-pbe-mt_gipaw.UPF
     MD5 check sum: ef0cb3dee31bd9e4ba2a832a2c716264
     Pseudo is Norm-conserving, Zval =  5.0
     Generated by new atomic code, or converted to UPF format
     Using radial grid of 1073 points,  1 beta functions with: 
                l(1) =   0

     PseudoPot. # 3 for C  read from file:
     /home/549/hxw549/Short/pseudopotentials/C.pbe-mt_gipaw.UPF
     MD5 check sum: 5ac2f21f2c440b14befe521540822c15
     Pseudo is Norm-conserving, Zval =  4.0
     Generated by new atomic code, or converted to UPF format
     Using radial grid of 1073 points,  1 beta functions with: 
                l(1) =   0

     PseudoPot. # 4 for O  read from file:
     /home/549/hxw549/Short/pseudopotentials/O.pbe-van_gipaw.UPF
     MD5 check sum: 5ce2a047509d4f331db576c963e74b29
     Pseudo is Ultrasoft, Zval =  6.0
     Generated by new atomic code, or converted to UPF format
     Using radial grid of 1095 points,  4 beta functions with: 
                l(1) =   0
                l(2) =   0
                l(3) =   1
                l(4) =   1
     Q(r) pseudized with 0 coefficients 


     PseudoPot. # 5 for H  read from file:
     /home/549/hxw549/Short/pseudopotentials/H.pbe-van_ak.UPF
     MD5 check sum: 077eb6d537518a38cb46c6de387227b7
     Pseudo is Ultrasoft, Zval =  1.0
     Generated by new atomic code, or converted to UPF format
     Using radial grid of  615 points,  1 beta functions with: 
                l(1) =   0
     Q(r) pseudized with  8 coefficients,  rinner =    0.800

     atomic species   valence    mass     pseudopotential
        Cu            11.00    63.54600     Cu( 1.00)
        C_h            5.00    12.01070     C ( 1.00)
        C              4.00    12.01070     C ( 1.00)
        O              6.00    15.99940     O ( 1.00)
        H              1.00     1.00783     H ( 1.00)

     No symmetry found



   Cartesian axes

     site n.     atom                  positions (alat units)
         1           Cu  tau(   1) = (   0.0001245  -0.0000826   0.9988218  )
         2           Cu  tau(   2) = (   0.2500938   0.2314176   0.9990096  )
         3           Cu  tau(   3) = (   0.5001173  -0.0000058   0.9988529  )
         4           Cu  tau(   4) = (   0.7501395   0.2314030   0.9990145  )
         5           Cu  tau(   5) = (   0.0001084   0.4623982   0.9990014  )
         6           Cu  tau(   6) = (   0.2500996   0.6930296   0.9986014  )
         7           Cu  tau(   7) = (   0.5001153   0.4623455   0.9989299  )
         8           Cu  tau(   8) = (   0.7501160   0.6930324   0.9986271  )
         9           Cu  tau(   9) = (   0.0001014   0.9236418   0.9982855  )
        10           Cu  tau(  10) = (   0.2501147   1.1542168   0.9983814  )
        11           Cu  tau(  11) = (   0.5001117   0.9236304   0.9982944  )
        12           Cu  tau(  12) = (   0.7501039   1.1542195   0.9984058  )
        13           Cu  tau(  13) = (   0.0001174   1.3846774   0.9987949  )
        14           Cu  tau(  14) = (   0.2501320   1.6151893   0.9991574  )
        15           Cu  tau(  15) = (   0.5001135   1.3847053   0.9988816  )
        16           Cu  tau(  16) = (   0.7501109   1.6151916   0.9991584  )
        17           Cu  tau(  17) = (   0.0001234   1.8461159   0.9990217  )
        18           Cu  tau(  18) = (   0.2501546   2.0775871   0.9988237  )
        19           Cu  tau(  19) = (   0.5001274   1.8460599   0.9990951  )
        20           Cu  tau(  20) = (   0.7500965   2.0775910   0.9988200  )
        21           Cu  tau(  21) = (   0.0001202   0.2312798   1.2470500  )
        22           Cu  tau(  22) = (   0.2501266  -0.0002279   1.2465469  )
        23           Cu  tau(  23) = (   0.5001277   0.2314108   1.2471161  )
        24           Cu  tau(  24) = (   0.7501288  -0.0002220   1.2465597  )
        25           Cu  tau(  25) = (   0.0001151   0.6935290   1.2473932  )
        26           Cu  tau(  26) = (   0.2501287   0.4626528   1.2474123  )
        27           Cu  tau(  27) = (   0.5001061   0.6934427   1.2472910  )
        28           Cu  tau(  28) = (   0.7501074   0.4626399   1.2474111  )
        29           Cu  tau(  29) = (   0.0001084   1.1539136   1.2473399  )
        30           Cu  tau(  30) = (   0.2501012   0.9238036   1.2471593  )
        31           Cu  tau(  31) = (   0.5001013   1.1538543   1.2473491  )
        32           Cu  tau(  32) = (   0.7501099   0.9238066   1.2471850  )
        33           Cu  tau(  33) = (   0.0001167   1.6149989   1.2475846  )
        34           Cu  tau(  34) = (   0.2501326   1.3841796   1.2477159  )
        35           Cu  tau(  35) = (   0.5001188   1.6149564   1.2478131  )
        36           Cu  tau(  36) = (   0.7500895   1.3841885   1.2477151  )
        37           Cu  tau(  37) = (   0.0001271   2.0775972   1.2465320  )
        38           Cu  tau(  38) = (   0.2501315   1.8461849   1.2471166  )
        39           Cu  tau(  39) = (   0.5001280   2.0776237   1.2465139  )
        40           Cu  tau(  40) = (   0.7501148   1.8461863   1.2471266  )
        41           Cu  tau(  41) = (   0.0001445  -0.0006156   1.4955938  )
        42           Cu  tau(  42) = (   0.2502310   0.2310698   1.4959482  )
        43           Cu  tau(  43) = (   0.5001493  -0.0005590   1.4954827  )
        44           Cu  tau(  44) = (   0.7500683   0.2310823   1.4959770  )
        45           Cu  tau(  45) = (   0.0001477   0.4627820   1.4965127  )
        46           Cu  tau(  46) = (   0.2501959   0.6939405   1.4973920  )
        47           Cu  tau(  47) = (   0.5001361   0.4630119   1.4969365  )
        48           Cu  tau(  48) = (   0.7500498   0.6939105   1.4973597  )
        49           Cu  tau(  49) = (   0.0001172   0.9239760   1.4978786  )
        50           Cu  tau(  50) = (   0.2501356   1.1533840   1.4980140  )
        51           Cu  tau(  51) = (   0.5000943   0.9237421   1.4979268  )
        52           Cu  tau(  52) = (   0.7500538   1.1534069   1.4980069  )
        53           Cu  tau(  53) = (   0.0001221   1.3838026   1.4975986  )
        54           Cu  tau(  54) = (   0.2501153   1.6149224   1.4970014  )
        55           Cu  tau(  55) = (   0.5000799   1.3834740   1.4978333  )
        56           Cu  tau(  56) = (   0.7501127   1.6149262   1.4969900  )
        57           Cu  tau(  57) = (   0.0001221   1.8463794   1.4962334  )
        58           Cu  tau(  58) = (   0.2501019   2.0776874   1.4957066  )
        59           Cu  tau(  59) = (   0.5001306   1.8466273   1.4962760  )
        60           Cu  tau(  60) = (   0.7501736   2.0777007   1.4957081  )
        61           Cu  tau(  61) = (   0.0001877   0.2307204   1.7437967  )
        62           Cu  tau(  62) = (   0.2503039  -0.0006554   1.7445778  )
        63           Cu  tau(  63) = (   0.5002047   0.2303883   1.7444964  )
        64           Cu  tau(  64) = (   0.7500508  -0.0006592   1.7445863  )
        65           Cu  tau(  65) = (   0.0001583   0.6934185   1.7468389  )
        66           Cu  tau(  66) = (   0.2506893   0.4624440   1.7452056  )
        67           Cu  tau(  67) = (   0.5001176   0.6942243   1.7485449  )
        68           Cu  tau(  68) = (   0.7496652   0.4624273   1.7452031  )
        69           Cu  tau(  69) = (   0.0001299   1.1535338   1.7489496  )
        70           Cu  tau(  70) = (   0.2504239   0.9236840   1.7494033  )
        71           Cu  tau(  71) = (   0.5000018   1.1525281   1.7494846  )
        72           Cu  tau(  72) = (   0.7497671   0.9236424   1.7492460  )
        73           Cu  tau(  73) = (   0.0000959   1.6153152   1.7458903  )
        74           Cu  tau(  74) = (   0.2499655   1.3836501   1.7471829  )
        75           Cu  tau(  75) = (   0.5000948   1.6154555   1.7450638  )
        76           Cu  tau(  76) = (   0.7501675   1.3837404   1.7470565  )
        77           Cu  tau(  77) = (   0.0001502   2.0777109   1.7452132  )
        78           Cu  tau(  78) = (   0.2498626   1.8469152   1.7451107  )
        79           Cu  tau(  79) = (   0.5001500   2.0781372   1.7451778  )
        80           Cu  tau(  80) = (   0.7503810   1.8469217   1.7450945  )
        81           Cu  tau(  81) = (   0.0001880   0.0003626   1.9899128  )
        82           Cu  tau(  82) = (   0.2503775   0.2304741   1.9897845  )
        83           Cu  tau(  83) = (   0.5002389  -0.0001885   1.9919196  )
        84           Cu  tau(  84) = (   0.7501085   0.2303538   1.9899076  )
        85           Cu  tau(  85) = (   0.0001181   0.4607861   1.9891263  )
        86           Cu  tau(  86) = (   0.2515884   0.6912907   1.9935706  )
        87           Cu  tau(  87) = (   0.5002967   0.4596433   1.9920148  )
        88           Cu  tau(  88) = (   0.7487114   0.6913794   1.9935335  )
        89           Cu  tau(  89) = (   0.0000524   0.9220011   1.9948133  )
        90           Cu  tau(  90) = (   0.2501823   1.1545063   1.9966562  )
        91           Cu  tau(  91) = (   0.5000607   0.9238338   2.0023449  )
        92           Cu  tau(  92) = (   0.7498735   1.1544752   1.9961815  )
        93           Cu  tau(  93) = (  -0.0001053   1.3854653   1.9942316  )
        94           Cu  tau(  94) = (   0.2494940   1.6161283   1.9907123  )
        95           Cu  tau(  95) = (   0.5001117   1.3861732   1.9920235  )
        96           Cu  tau(  96) = (   0.7506231   1.6162460   1.9908327  )
        97           Cu  tau(  97) = (   0.0001162   1.8470478   1.9922548  )
        98           Cu  tau(  98) = (   0.2501982   2.0781576   1.9909844  )
        99           Cu  tau(  99) = (   0.5000966   1.8464318   1.9900467  )
       100           Cu  tau( 100) = (   0.7501237   2.0781271   1.9910173  )
       101           C   tau( 101) = (  -0.0003217   0.0971383   2.3876014  )
       102           C   tau( 102) = (  -0.0001420   0.2894172   2.3859160  )
       103           C   tau( 103) = (   0.1662576   0.0009591   2.3862245  )
       104           C   tau( 104) = (   0.1662773   0.3856249   2.3821414  )
       105           C   tau( 105) = (   0.3327997   0.0971057   2.3843535  )
       106           C   tau( 106) = (   0.3328840   0.2894230   2.3820496  )
       107           C   tau( 107) = (   0.4995919   0.0007445   2.3845572  )
       108           C   tau( 108) = (   0.4997492   0.3861055   2.3809669  )
       109           C   tau( 109) = (   0.6664438   0.0971153   2.3856348  )
       110           C   tau( 110) = (   0.6665990   0.2893991   2.3831185  )
       111           C   tau( 111) = (   0.8329667   0.0009821   2.3869627  )
       112           C   tau( 112) = (   0.8333321   0.3854712   2.3826497  )
       113           C   tau( 113) = (  -0.0002725   0.6741827   2.3779647  )
       114           C   tau( 114) = (  -0.0000973   0.8665586   2.3758157  )
       115           C   tau( 115) = (   0.1661022   0.5779345   2.3783235  )
       116           C   tau( 116) = (   0.1671232   0.9624978   2.3835632  )
       117           C   tau( 117) = (   0.3326950   0.6749417   2.3810696  )
       118           C_h tau( 118) = (   0.3310986   0.8656224   2.3892963  )
       119           C   tau( 119) = (   0.4996363   0.5779250   2.3820222  )
       120           C   tau( 120) = (   0.4996762   0.9618746   2.4439267  )
       121           O   tau( 121) = (   0.4912753   0.9532910   2.6499196  )
       122           H   tau( 122) = (   0.6130058   0.9845079   2.6945064  )
       123           C   tau( 123) = (   0.6667148   0.6746003   2.3810921  )
       124           C   tau( 124) = (   0.6682846   0.8654468   2.3894120  )
       125           C   tau( 125) = (   0.8333502   0.5777349   2.3786748  )
       126           C   tau( 126) = (   0.8325925   0.9624364   2.3836418  )
       127           C   tau( 127) = (  -0.0002104   1.2512703   2.3858857  )
       128           C   tau( 128) = (  -0.0001778   1.4441849   2.3823907  )
       129           C   tau( 129) = (   0.1664529   1.1555908   2.3873834  )
       130           C   tau( 130) = (   0.1666527   1.5405023   2.3817303  )
       131           C   tau( 131) = (   0.3338444   1.2519409   2.3889129  )
       132           C   tau( 132) = (   0.3333805   1.4445803   2.3844802  )
       133           C   tau( 133) = (   0.4996644   1.1579795   2.3964612  )
       134           C   tau( 134) = (   0.4997819   1.5407968   2.3862952  )
       135           C   tau( 135) = (   0.6655175   1.2519948   2.3889844  )
       136           C   tau( 136) = (   0.6662146   1.4447503   2.3853758  )
       137           C   tau( 137) = (   0.8330246   1.1555822   2.3876612  )
       138           C   tau( 138) = (   0.8329924   1.5405701   2.3828489  )
       139           C   tau( 139) = (  -0.0003527   1.8293325   2.3816845  )
       140           C   tau( 140) = (  -0.0005815   2.0217961   2.3839877  )
       141           C   tau( 141) = (   0.1665134   1.7329856   2.3823971  )
       142           C   tau( 142) = (   0.1660514   2.1179503   2.3845032  )
       143           C   tau( 143) = (   0.3329702   1.8292529   2.3851589  )
       144           C   tau( 144) = (   0.3328306   2.0216859   2.3851757  )
       145           C   tau( 145) = (   0.4996230   1.7332577   2.3862450  )
       146           C   tau( 146) = (   0.4993988   2.1177604   2.3867020  )
       147           C   tau( 147) = (   0.6662018   1.8292198   2.3855625  )
       148           C   tau( 148) = (   0.6660217   2.0216721   2.3855138  )
       149           C   tau( 149) = (   0.8328201   1.7330551   2.3830081  )
       150           C   tau( 150) = (   0.8328221   2.1179726   2.3847324  )

     number of k points=     6  gaussian smearing, width (Ry)=  0.1000
                       cart. coord. in units 2pi/alat
        k(    1) = (   0.0000000   0.0000000   0.0000000), wk =   0.2500000
        k(    2) = (   0.0000000  -0.2165064   0.0000000), wk =   0.2500000
        k(    3) = (   0.2500000   0.0000000   0.0000000), wk =   0.5000000
        k(    4) = (   0.2500000  -0.2165064   0.0000000), wk =   0.5000000
        k(    5) = (  -0.5000000   0.0000000   0.0000000), wk =   0.2500000
        k(    6) = (  -0.5000000  -0.2165064   0.0000000), wk =   0.2500000

     Dense  grid:  2050409 G-vectors     FFT dimensions: (  80, 192, 270)

     Largest allocated arrays     est. size (Mb)     dimensions
        Kohn-Sham Wavefunctions        54.80 Mb     (    4604,  780)
        NL pseudopotentials           130.46 Mb     (    4604, 1857)
        Each V/rho on FFT grid          1.17 Mb     (   76800)
        Each G-vector array             0.28 Mb     (   36616)
        G-vector shells                 0.14 Mb     (   17932)
     Largest temporary arrays     est. size (Mb)     dimensions
        Auxiliary wavefunctions       219.18 Mb     (    4604, 3120)
        Each subspace H/S matrix        5.94 Mb     (     624,  624)
        Each <psi_i|beta_j> matrix     22.10 Mb     (    1857,  780)
        Arrays for rho mixing           9.38 Mb     (   76800,    8)

     Initial potential from superposition of free atoms
     Check: negative starting charge=   -0.001759

     starting charge 1273.81750, renormalised to 1299.00000

     negative rho (up, down):  1.794E-03 0.000E+00
     Starting wfc are 1289 randomized atomic wfcs

     total cpu time spent up to now is      105.6 secs

     Self-consistent Calculation

     iteration #  1     ecut=    80.00 Ry     beta=0.70
     Davidson diagonalization with overlap
     c_bands:  3 eigenvalues not converged
     ethr =  1.00E-04,  avg # of iterations = 28.5

     negative rho (up, down):  2.375E+01 0.000E+00

     total cpu time spent up to now is     1961.2 secs

     total energy              =   -9944.55826003 Ry
     Harris-Foulkes estimate   =  -17290.79327474 Ry
     estimated scf accuracy    <  178211.62192914 Ry

     iteration #  2     ecut=    80.00 Ry     beta=0.70
     Davidson diagonalization with overlap
     ethr =  1.00E-02,  avg # of iterations = 11.0

     negative rho (up, down):  2.761E+01 0.000E+00

     total cpu time spent up to now is     2842.9 secs

     total energy              =  -12264.03848751 Ry
     Harris-Foulkes estimate   =  -13639.88941988 Ry
     estimated scf accuracy    <   22687.29729799 Ry

     iteration #  3     ecut=    80.00 Ry     beta=0.70
     Davidson diagonalization with overlap
     ethr =  1.00E-02,  avg # of iterations =  6.5

     negative rho (up, down):  2.844E+01 0.000E+00

     total cpu time spent up to now is     3362.4 secs

     total energy              =  -12433.92202983 Ry
     Harris-Foulkes estimate   =  -13376.06337432 Ry
     estimated scf accuracy    <    6046.26608939 Ry

     iteration #  4     ecut=    80.00 Ry     beta=0.70
     Davidson diagonalization with overlap
     ethr =  1.00E-02,  avg # of iterations =  5.2

     negative rho (up, down):  2.100E+01 0.000E+00

     total cpu time spent up to now is     3909.3 secs

     total energy              =  -12834.97387692 Ry
     Harris-Foulkes estimate   =  -13071.10253339 Ry
     estimated scf accuracy    <    1920.96746626 Ry

     iteration #  5     ecut=    80.00 Ry     beta=0.70
     Davidson diagonalization with overlap
     ethr =  1.00E-02,  avg # of iterations =  3.2

     negative rho (up, down):  1.578E+01 0.000E+00

     total cpu time spent up to now is     4176.0 secs

     total energy              =  -12844.47169610 Ry
     Harris-Foulkes estimate   =  -12956.17937933 Ry
     estimated scf accuracy    <    1055.61669953 Ry

     iteration #  6     ecut=    80.00 Ry     beta=0.70
     Davidson diagonalization with overlap
     ethr =  1.00E-02,  avg # of iterations =  3.0

     negative rho (up, down):  1.052E+01 0.000E+00

     total cpu time spent up to now is     4373.8 secs

     total energy              =  -12835.85603497 Ry
     Harris-Foulkes estimate   =  -12898.87017381 Ry
     estimated scf accuracy    <     504.98719274 Ry

     iteration #  7     ecut=    80.00 Ry     beta=0.70
     Davidson diagonalization with overlap
     ethr =  1.00E-02,  avg # of iterations =  2.0

     negative rho (up, down):  7.585E+00 0.000E+00

     total cpu time spent up to now is     4553.7 secs

     total energy              =  -12814.60659704 Ry
     Harris-Foulkes estimate   =  -12848.48009846 Ry
     estimated scf accuracy    <     344.91736486 Ry

     iteration #  8     ecut=    80.00 Ry     beta=0.70
     Davidson diagonalization with overlap
     ethr =  1.00E-02,  avg # of iterations =  1.3

     negative rho (up, down):  5.998E+00 0.000E+00

     total cpu time spent up to now is     4723.1 secs

     total energy              =  -12799.39232962 Ry
     Harris-Foulkes estimate   =  -12826.25170587 Ry
     estimated scf accuracy    <     426.28579174 Ry

     iteration #  9     ecut=    80.00 Ry     beta=0.70
     Davidson diagonalization with overlap
     ethr =  1.00E-02,  avg # of iterations =  2.0

     negative rho (up, down):  5.191E+00 0.000E+00

     total cpu time spent up to now is     4901.0 secs

     total energy              =  -12800.20044546 Ry
     Harris-Foulkes estimate   =  -12811.19374342 Ry
     estimated scf accuracy    <     196.53093156 Ry

     iteration # 10     ecut=    80.00 Ry     beta=0.70
     Davidson diagonalization with overlap
     ethr =  1.00E-02,  avg # of iterations =  1.0

     negative rho (up, down):  2.150E+00 0.000E+00

     total cpu time spent up to now is     5067.1 secs

     total energy              =  -12775.87966576 Ry
     Harris-Foulkes estimate   =  -12803.55044152 Ry
     estimated scf accuracy    <     130.66269946 Ry

     iteration # 11     ecut=    80.00 Ry     beta=0.70
     Davidson diagonalization with overlap
     ethr =  1.00E-02,  avg # of iterations =  1.7

     negative rho (up, down):  4.750E-01 0.000E+00

     total cpu time spent up to now is     5240.6 secs

     total energy              =  -12762.11836342 Ry
     Harris-Foulkes estimate   =  -12781.03484389 Ry
     estimated scf accuracy    <     106.55299511 Ry

     iteration # 12     ecut=    80.00 Ry     beta=0.70
     Davidson diagonalization with overlap
     ethr =  8.20E-03,  avg # of iterations =  2.7

     negative rho (up, down):  2.272E+00 0.000E+00

     total cpu time spent up to now is     5425.4 secs

     total energy              =  -12752.99577037 Ry
     Harris-Foulkes estimate   =  -12765.81541156 Ry
     estimated scf accuracy    <      84.51312199 Ry

     iteration # 13     ecut=    80.00 Ry     beta=0.70
     Davidson diagonalization with overlap
     ethr =  6.51E-03,  avg # of iterations =  3.5

     negative rho (up, down):  3.795E+00 0.000E+00

     total cpu time spent up to now is     5620.2 secs

     total energy              =  -12748.61776123 Ry
     Harris-Foulkes estimate   =  -12756.21503927 Ry
     estimated scf accuracy    <      64.08464816 Ry

     iteration # 14     ecut=    80.00 Ry     beta=0.70
     Davidson diagonalization with overlap
     ethr =  4.93E-03,  avg # of iterations =  2.7

     negative rho (up, down):  5.053E+00 0.000E+00

     total cpu time spent up to now is     5805.7 secs

     total energy              =  -12748.30210659 Ry
     Harris-Foulkes estimate   =  -12753.16666690 Ry
     estimated scf accuracy    <      45.32638201 Ry

     iteration # 15     ecut=    80.00 Ry     beta=0.70
     Davidson diagonalization with overlap
     ethr =  3.49E-03,  avg # of iterations =  2.5

     negative rho (up, down):  5.040E+00 0.000E+00

     total cpu time spent up to now is     5988.8 secs

     total energy              =  -12747.91158124 Ry
     Harris-Foulkes estimate   =  -12750.61010400 Ry
     estimated scf accuracy    <      22.50803418 Ry

     iteration # 16     ecut=    80.00 Ry     beta=0.70
     Davidson diagonalization with overlap
     ethr =  1.73E-03,  avg # of iterations =  5.5

     negative rho (up, down):  5.346E+00 0.000E+00

     total cpu time spent up to now is     6209.0 secs

     total energy              =  -12746.78770324 Ry
     Harris-Foulkes estimate   =  -12748.96867642 Ry
     estimated scf accuracy    <      14.61049901 Ry

     iteration # 17     ecut=    80.00 Ry     beta=0.70
     Davidson diagonalization with overlap
     ethr =  1.12E-03,  avg # of iterations =  6.2

     negative rho (up, down):  5.021E+00 0.000E+00

     total cpu time spent up to now is     6436.1 secs

     total energy              =  -12746.28594066 Ry
     Harris-Foulkes estimate   =  -12747.27676232 Ry
     estimated scf accuracy    <      10.93156153 Ry

     iteration # 18     ecut=    80.00 Ry     beta=0.70
     Davidson diagonalization with overlap
     ethr =  8.42E-04,  avg # of iterations =  3.3

     negative rho (up, down):  3.441E+00 0.000E+00

     total cpu time spent up to now is     6628.3 secs

     total energy              =  -12744.64462064 Ry
     Harris-Foulkes estimate   =  -12746.68530213 Ry
     estimated scf accuracy    <       8.72172573 Ry

     iteration # 19     ecut=    80.00 Ry     beta=0.70
     Davidson diagonalization with overlap
     ethr =  6.71E-04,  avg # of iterations =  7.7

     negative rho (up, down):  4.029E+00 0.000E+00

     total cpu time spent up to now is     6872.7 secs

     total energy              =  -12744.70569154 Ry
     Harris-Foulkes estimate   =  -12744.91530701 Ry
     estimated scf accuracy    <       8.09302410 Ry

     iteration # 20     ecut=    80.00 Ry     beta=0.70
     Davidson diagonalization with overlap
     ethr =  6.23E-04,  avg # of iterations =  2.8

     negative rho (up, down):  2.719E+00 0.000E+00

     total cpu time spent up to now is     7060.6 secs

     total energy              =  -12743.58466533 Ry
     Harris-Foulkes estimate   =  -12744.90016179 Ry
     estimated scf accuracy    <       6.21071835 Ry

     iteration # 21     ecut=    80.00 Ry     beta=0.70
     Davidson diagonalization with overlap
     ethr =  4.78E-04,  avg # of iterations =  2.5

     negative rho (up, down):  1.913E+00 0.000E+00

     total cpu time spent up to now is     7243.9 secs

     total energy              =  -12742.57448310 Ry
     Harris-Foulkes estimate   =  -12743.65307040 Ry
     estimated scf accuracy    <       5.95266825 Ry

     iteration # 22     ecut=    80.00 Ry     beta=0.70
     Davidson diagonalization with overlap
     ethr =  4.58E-04,  avg # of iterations =  3.8

     negative rho (up, down):  1.466E+00 0.000E+00

     total cpu time spent up to now is     7443.2 secs

     total energy              =  -12741.96560004 Ry
     Harris-Foulkes estimate   =  -12742.76817795 Ry
     estimated scf accuracy    <       6.69785062 Ry

     iteration # 23     ecut=    80.00 Ry     beta=0.70
     Davidson diagonalization with overlap
     ethr =  4.58E-04,  avg # of iterations =  1.5

     negative rho (up, down):  7.772E-01 0.000E+00

     total cpu time spent up to now is     7615.3 secs

     total energy              =  -12741.13470086 Ry
     Harris-Foulkes estimate   =  -12742.20039366 Ry
     estimated scf accuracy    <       3.75932075 Ry

     iteration # 24     ecut=    80.00 Ry     beta=0.70
     Davidson diagonalization with overlap
     ethr =  2.89E-04,  avg # of iterations =  9.0

     negative rho (up, down):  4.973E-01 0.000E+00

     total cpu time spent up to now is     7875.6 secs

     total energy              =  -12740.64181415 Ry
     Harris-Foulkes estimate   =  -12741.28144328 Ry
     estimated scf accuracy    <       2.31761215 Ry

     iteration # 25     ecut=    80.00 Ry     beta=0.70
     Davidson diagonalization with overlap
     ethr =  1.78E-04,  avg # of iterations =  2.3

     negative rho (up, down):  5.299E-01 0.000E+00

     total cpu time spent up to now is     8057.8 secs

     total energy              =  -12740.36978894 Ry
     Harris-Foulkes estimate   =  -12740.72744538 Ry
     estimated scf accuracy    <       1.59234597 Ry

     iteration # 26     ecut=    80.00 Ry     beta=0.70
     Davidson diagonalization with overlap
     ethr =  1.23E-04,  avg # of iterations =  9.7

     negative rho (up, down):  6.763E-01 0.000E+00

     total cpu time spent up to now is     8330.2 secs

     total energy              =  -12740.25108501 Ry
     Harris-Foulkes estimate   =  -12740.42032430 Ry
     estimated scf accuracy    <       0.93033343 Ry

     iteration # 27     ecut=    80.00 Ry     beta=0.70
     Davidson diagonalization with overlap
     ethr =  7.16E-05,  avg # of iterations =  7.7

     negative rho (up, down):  6.400E-01 0.000E+00

     total cpu time spent up to now is     8581.9 secs

     total energy              =  -12740.15671616 Ry
     Harris-Foulkes estimate   =  -12740.28277215 Ry
     estimated scf accuracy    <       0.54663061 Ry

     iteration # 28     ecut=    80.00 Ry     beta=0.70
     Davidson diagonalization with overlap
     ethr =  4.21E-05,  avg # of iterations =  9.8

     negative rho (up, down):  2.040E-01 0.000E+00

     total cpu time spent up to now is     8875.3 secs

     total energy              =  -12740.12137018 Ry
     Harris-Foulkes estimate   =  -12740.17998032 Ry
     estimated scf accuracy    <       0.26064409 Ry

     iteration # 29     ecut=    80.00 Ry     beta=0.70
     Davidson diagonalization with overlap
     c_bands:  2 eigenvalues not converged
     c_bands:  2 eigenvalues not converged
     ethr =  2.01E-05,  avg # of iterations = 13.5

     negative rho (up, down):  9.582E-02 0.000E+00

     total cpu time spent up to now is     9210.8 secs

     total energy              =  -12740.12998725 Ry
     Harris-Foulkes estimate   =  -12740.15487053 Ry
     estimated scf accuracy    <       0.18709100 Ry

     iteration # 30     ecut=    80.00 Ry     beta=0.70
     Davidson diagonalization with overlap
     ethr =  1.44E-05,  avg # of iterations =  5.7

     negative rho (up, down):  4.124E-02 0.000E+00

     total cpu time spent up to now is     9439.2 secs

     total energy              =  -12740.13490090 Ry
     Harris-Foulkes estimate   =  -12740.14180874 Ry
     estimated scf accuracy    <       0.05087854 Ry

     iteration # 31     ecut=    80.00 Ry     beta=0.70
     Davidson diagonalization with overlap
     ethr =  3.92E-06,  avg # of iterations =  9.5

     negative rho (up, down):  3.517E-02 0.000E+00

     total cpu time spent up to now is     9750.5 secs

     total energy              =  -12740.13883758 Ry
     Harris-Foulkes estimate   =  -12740.14344723 Ry
     estimated scf accuracy    <       0.03824656 Ry

     iteration # 32     ecut=    80.00 Ry     beta=0.70
     Davidson diagonalization with overlap
     ethr =  2.94E-06,  avg # of iterations =  7.2

     negative rho (up, down):  1.676E-02 0.000E+00

     total cpu time spent up to now is    10000.0 secs

     total energy              =  -12740.14014716 Ry
     Harris-Foulkes estimate   =  -12740.14115742 Ry
     estimated scf accuracy    <       0.00659409 Ry

     iteration # 33     ecut=    80.00 Ry     beta=0.70
     Davidson diagonalization with overlap
     ethr =  5.08E-07,  avg # of iterations =  9.8

     negative rho (up, down):  1.588E-02 0.000E+00

     total cpu time spent up to now is    10293.3 secs

     total energy              =  -12740.14043443 Ry
     Harris-Foulkes estimate   =  -12740.14096460 Ry
     estimated scf accuracy    <       0.00377150 Ry

     iteration # 34     ecut=    80.00 Ry     beta=0.70
     Davidson diagonalization with overlap
     ethr =  2.90E-07,  avg # of iterations =  6.2

     negative rho (up, down):  1.444E-02 0.000E+00

     total cpu time spent up to now is    10532.3 secs

     total energy              =  -12740.14087543 Ry
     Harris-Foulkes estimate   =  -12740.14080498 Ry
     estimated scf accuracy    <       0.00106976 Ry

     iteration # 35     ecut=    80.00 Ry     beta=0.70
     Davidson diagonalization with overlap
     ethr =  8.24E-08,  avg # of iterations =  6.7

     negative rho (up, down):  8.911E-03 0.000E+00

     total cpu time spent up to now is    10780.3 secs

     total energy              =  -12740.14084869 Ry
     Harris-Foulkes estimate   =  -12740.14098048 Ry
     estimated scf accuracy    <       0.00043773 Ry

     iteration # 36     ecut=    80.00 Ry     beta=0.70
     Davidson diagonalization with overlap
     c_bands:  1 eigenvalues not converged
     c_bands:  1 eigenvalues not converged
     ethr =  3.37E-08,  avg # of iterations = 10.3

     negative rho (up, down):  6.803E-03 0.000E+00

     total cpu time spent up to now is    11071.4 secs

     total energy              =  -12740.14092243 Ry
     Harris-Foulkes estimate   =  -12740.14089951 Ry
     estimated scf accuracy    <       0.00016925 Ry

     iteration # 37     ecut=    80.00 Ry     beta=0.70
     Davidson diagonalization with overlap
     ethr =  1.30E-08,  avg # of iterations =  7.2

     negative rho (up, down):  5.703E-03 0.000E+00

     total cpu time spent up to now is    11323.9 secs

     total energy              =  -12740.14094257 Ry
     Harris-Foulkes estimate   =  -12740.14094072 Ry
     estimated scf accuracy    <       0.00006577 Ry

     iteration # 38     ecut=    80.00 Ry     beta=0.70
     Davidson diagonalization with overlap
     ethr =  5.06E-09,  avg # of iterations =  4.8

     negative rho (up, down):  3.684E-03 0.000E+00

     total cpu time spent up to now is    11545.6 secs

     total energy              =  -12740.14091775 Ry
     Harris-Foulkes estimate   =  -12740.14094752 Ry
     estimated scf accuracy    <       0.00002125 Ry

     iteration # 39     ecut=    80.00 Ry     beta=0.70
     Davidson diagonalization with overlap
     ethr =  1.64E-09,  avg # of iterations =  7.7

     negative rho (up, down):  2.877E-03 0.000E+00

     total cpu time spent up to now is    11809.1 secs

     total energy              =  -12740.14091244 Ry
     Harris-Foulkes estimate   =  -12740.14091994 Ry
     estimated scf accuracy    <       0.00001333 Ry

     iteration # 40     ecut=    80.00 Ry     beta=0.70
     Davidson diagonalization with overlap
     ethr =  1.03E-09,  avg # of iterations =  6.0

     negative rho (up, down):  2.409E-03 0.000E+00

     total cpu time spent up to now is    12046.2 secs

     total energy              =  -12740.14091134 Ry
     Harris-Foulkes estimate   =  -12740.14091389 Ry
     estimated scf accuracy    <       0.00000709 Ry

     iteration # 41     ecut=    80.00 Ry     beta=0.70
     Davidson diagonalization with overlap
     ethr =  5.46E-10,  avg # of iterations =  2.8

     negative rho (up, down):  1.967E-03 0.000E+00

     total cpu time spent up to now is    12241.6 secs

     total energy              =  -12740.14091122 Ry
     Harris-Foulkes estimate   =  -12740.14091184 Ry
     estimated scf accuracy    <       0.00000108 Ry

     iteration # 42     ecut=    80.00 Ry     beta=0.70
     Davidson diagonalization with overlap
     ethr =  8.33E-11,  avg # of iterations =  3.0

     negative rho (up, down):  2.002E-03 0.000E+00

     total cpu time spent up to now is    12455.9 secs

     total energy              =  -12740.14091145 Ry
     Harris-Foulkes estimate   =  -12740.14091138 Ry
     estimated scf accuracy    <       0.00000059 Ry

     iteration # 43     ecut=    80.00 Ry     beta=0.70
     Davidson diagonalization with overlap
     ethr =  4.53E-11,  avg # of iterations =  2.5

     negative rho (up, down):  2.046E-03 0.000E+00

     total cpu time spent up to now is    12646.1 secs

     total energy              =  -12740.14091157 Ry
     Harris-Foulkes estimate   =  -12740.14091149 Ry
     estimated scf accuracy    <       0.00000007 Ry

     iteration # 44     ecut=    80.00 Ry     beta=0.70
     Davidson diagonalization with overlap
     ethr =  5.28E-12,  avg # of iterations =  3.0

     negative rho (up, down):  2.044E-03 0.000E+00

     total cpu time spent up to now is    12864.6 secs

     total energy              =  -12740.14091159 Ry
     Harris-Foulkes estimate   =  -12740.14091158 Ry
     estimated scf accuracy    <       0.00000003 Ry

     iteration # 45     ecut=    80.00 Ry     beta=0.70
     Davidson diagonalization with overlap
     ethr =  2.26E-12,  avg # of iterations =  3.0

     negative rho (up, down):  2.063E-03 0.000E+00

     total cpu time spent up to now is    13069.4 secs

     total energy              =  -12740.14091155 Ry
     Harris-Foulkes estimate   =  -12740.14091159 Ry
     estimated scf accuracy    <       0.00000001 Ry

     iteration # 46     ecut=    80.00 Ry     beta=0.70
     Davidson diagonalization with overlap
     ethr =  1.10E-12,  avg # of iterations =  2.5

     negative rho (up, down):  2.072E-03 0.000E+00

     total cpu time spent up to now is    13251.1 secs

     End of self-consistent calculation

          k = 0.0000 0.0000 0.0000 (256287 PWs)   bands (ev):

   -18.2259 -16.6336 -16.1949 -16.0150 -15.3296 -14.9569 -14.7279 -14.4302
   -14.2389 -14.1102 -14.0861 -14.0363 -13.3923 -13.2303 -13.0883 -13.0480
   -13.0381 -12.9884 -11.5997 -11.4692 -11.3921 -11.3233 -11.1621 -10.2778
    -9.6960  -9.6607  -9.5811  -9.4570  -8.9178  -8.7143  -8.6221  -8.5516
    -7.9633  -7.8446  -7.7016  -7.5717  -7.5328  -7.5157  -7.4992  -7.4793
    -6.3643  -6.2859  -6.0984  -6.0353  -6.0097  -5.9085  -5.8466  -5.8196
    -5.8070  -5.5443  -5.4849  -5.4589  -5.0408  -4.7782  -4.7549  -4.6493
    -4.5855  -4.5793  -4.4530  -4.3718  -4.1522  -4.0449  -3.9913  -3.9844
    -3.9622  -3.9093  -3.6118  -3.5193  -3.4925  -3.4092  -3.4043  -3.3923
    -3.3692  -3.2540  -3.2250  -3.1757  -3.1480  -3.0102  -3.0085  -3.0065
    -3.0016  -2.9826  -2.9193  -2.8354  -2.8268  -2.7862  -2.7417  -2.7342
    -2.7242  -2.6813  -2.6600  -2.6344  -2.5163  -2.3831  -2.3778  -2.3452
    -2.3385  -2.2887  -2.2106  -2.1914  -2.1912  -2.1513  -2.1509  -2.1505
    -2.1503  -2.1202  -2.0749  -2.0470  -2.0220  -2.0217  -2.0184  -2.0182
    -1.9896  -1.9571  -1.9392  -1.8398  -1.7759  -1.7407  -1.7380  -1.7376
    -1.7367  -1.6996  -1.6917  -1.6713  -1.6584  -1.6538  -1.6242  -1.6063
    -1.5951  -1.5855  -1.5667  -1.5624  -1.5606  -1.5577  -1.5396  -1.5284
    -1.5248  -1.5147  -1.5126  -1.4716  -1.4412  -1.4271  -1.4151  -1.4031
    -1.3834  -1.3765  -1.3517  -1.3378  -1.3002  -1.2979  -1.2630  -1.2614
    -1.2492  -1.2132  -1.2104  -1.2090  -1.1913  -1.1878  -1.1662  -1.1624
    -1.1471  -1.1190  -1.1046  -1.0877  -1.0496  -1.0468  -1.0388  -1.0337
    -1.0267  -1.0219  -1.0207  -1.0199  -1.0191  -1.0159  -1.0144  -0.9999
    -0.9975  -0.9820  -0.9658  -0.9509  -0.9360  -0.9310  -0.9262  -0.9182
    -0.9171  -0.9156  -0.8860  -0.8588  -0.8574  -0.8553  -0.8551  -0.8543
    -0.8540  -0.8533  -0.8503  -0.8488  -0.8471  -0.8467  -0.8467  -0.8433
    -0.8433  -0.8406  -0.8405  -0.8276  -0.8265  -0.8000  -0.7844  -0.7483
    -0.6891  -0.6888  -0.6826  -0.6818  -0.6596  -0.6588  -0.6463  -0.6407
    -0.6401  -0.6199  -0.6186  -0.6078  -0.6042  -0.5995  -0.5983  -0.5870
    -0.5644  -0.5635  -0.5594  -0.5586  -0.5534  -0.5520  -0.5417  -0.5409
    -0.4919  -0.4912  -0.4381  -0.4375  -0.4278  -0.4269  -0.4254  -0.4214
    -0.4169  -0.4092  -0.4074  -0.4044  -0.4031  -0.4025  -0.4003  -0.3992
    -0.3989  -0.3841  -0.3838  -0.3789  -0.3752  -0.3714  -0.3505  -0.3494
    -0.3012  -0.2976  -0.2958  -0.2903  -0.2900  -0.2785  -0.2652  -0.2651
    -0.2610  -0.2606  -0.2481  -0.2461  -0.2412  -0.2411  -0.2368  -0.2210
    -0.2195  -0.2167  -0.2160  -0.2140  -0.2122  -0.2109  -0.2103  -0.2078
    -0.1999  -0.1901  -0.1899  -0.1866  -0.1860  -0.1814  -0.1633  -0.1195
    -0.1179  -0.1169  -0.1164  -0.1143  -0.1113  -0.0713  -0.0686  -0.0670
    -0.0668  -0.0612  -0.0611  -0.0602  -0.0594  -0.0584  -0.0412  -0.0398
    -0.0089  -0.0085  -0.0063  -0.0043   0.0005   0.0016   0.0195   0.0203
     0.0237   0.0267   0.0290   0.0345   0.0462   0.0474   0.0476   0.0477
     0.0510   0.0550   0.0641   0.0649   0.0652   0.0655   0.0732   0.0771
     0.0802   0.0881   0.1039   0.1049   0.1365   0.1370   0.1519   0.1677
     0.1689   0.1884   0.1974   0.1997   0.2317   0.2349   0.2368   0.2439
     0.2469   0.2474   0.2646   0.2731   0.2732   0.2750   0.2751   0.2816
     0.2830   0.2852   0.3093   0.3291   0.3422   0.3427   0.3496   0.3509
     0.3518   0.3549   0.3787   0.3832   0.3841   0.3864   0.3876   0.4144
     0.4174   0.4209   0.4229   0.4299   0.4379   0.4397   0.4433   0.4487
     0.4792   0.4826   0.4931   0.4947   0.4969   0.5019   0.5027   0.5090
     0.5258   0.5273   0.5308   0.5336   0.5360   0.5372   0.5375   0.5405
     0.5416   0.5456   0.5491   0.5536   0.5568   0.5573   0.5604   0.5656
     0.5674   0.5799   0.5977   0.6070   0.6072   0.6118   0.6217   0.6427
     0.6490   0.6496   0.6515   0.6528   0.6548   0.6566   0.6572   0.6576
     0.6647   0.6716   0.6765   0.6798   0.6804   0.6818   0.6855   0.6888
     0.6891   0.6987   0.7016   0.7099   0.7219   0.7237   0.7254   0.7297
     0.7347   0.7355   0.7429   0.7494   0.7502   0.7502   0.7550   0.7558
     0.7563   0.7604   0.7683   0.7706   0.8070   0.8075   0.8185   0.8209
     0.8234   0.8238   0.8257   0.8272   0.8546   0.8575   0.8651   0.8723
     0.8740   0.8777   0.8779   0.8917   0.8921   0.9004   0.9012   0.9025
     0.9031   0.9107   0.9167   0.9296   0.9381   0.9401   0.9429   0.9433
     0.9445   0.9449   0.9626   0.9705   0.9786   0.9869   0.9876   0.9922
     0.9990   1.0106   1.0135   1.0139   1.0145   1.0151   1.0169   1.0232
     1.0271   1.0283   1.0300   1.0305   1.0311   1.0456   1.0459   1.0501
     1.0629   1.0654   1.0677   1.0690   1.0737   1.0763   1.0958   1.1059
     1.1060   1.1096   1.1124   1.1137   1.1167   1.1173   1.1205   1.1208
     1.1217   1.1220   1.1242   1.1248   1.1370   1.1381   1.1476   1.1750
     1.1783   1.1868   1.1881   1.2009   1.2036   1.2063   1.2066   1.2081
     1.2107   1.2161   1.2266   1.2391   1.2398   1.2408   1.2425   1.2429
     1.2457   1.2470   1.2476   1.2533   1.2563   1.2729   1.2755   1.2759
     1.2762   1.2785   1.2794   1.2799   1.2812   1.2924   1.2955   1.2958
     1.2969   1.3042   1.3118   1.3120   1.3129   1.3136   1.3139   1.3220
     1.3276   1.3285   1.3450   1.3460   1.3547   1.3563   1.3579   1.3598
     1.3623   1.3672   1.3808   1.3836   1.3896   1.3899   1.3938   1.4032
     1.4112   1.4153   1.4165   1.4242   1.4255   1.4271   1.4334   1.4353
     1.4366   1.4374   1.4377   1.4383   1.4406   1.4421   1.4506   1.4518
     1.4521   1.4675   1.4680   1.4693   1.4704   1.4720   1.4782   1.4840
     1.4843   1.5043   1.5122   1.5224   1.5231   1.5575   1.5589   1.5637
     1.5667   1.5815   1.5827   1.5845   1.5878   1.5917   1.6075   1.6300
     1.6333   1.6350   1.6358   1.6370   1.6443   1.6456   1.6462   1.7555
     1.8990   1.9575   2.1126   2.1163   2.1576   2.1689   2.2041   2.2087
     2.2095   2.2112   2.2240   2.2288   2.2313   2.2468   2.4051   2.4112
     2.4643   2.4750   2.4760   2.4768   2.4839   2.4875   2.7124   2.7277
     2.7287   2.7382   2.8300   3.0106   3.1006   3.1942   3.5210   3.5349
     3.5594   3.8192   3.8263   3.8569   3.8579   3.8609   3.8721   3.9267
     3.9654   4.0019   4.0081   4.0100   4.0132   4.0137   4.0187   4.0248
     4.0285   4.2510   4.2600   4.2648   4.2705   4.4280   4.6235   4.6896
     4.7701   4.8895   4.9866   5.2994   5.3593   5.4211   5.4458   5.5313
     5.7127   5.7281   5.7415   5.7495   5.9286   5.9341   6.3187   6.3664
     6.3918   6.4121   6.4333   6.4909   6.4926   6.5023   6.5235   6.5937
     6.6242   6.6978   6.7483   6.7821   6.7979   6.8244   6.8660   7.0175
     7.0536   7.0657   7.0924   7.1007   7.1040   7.3445   7.3604   7.3616
     7.5434   7.5795   7.5841   7.7013   7.7095   7.7150   7.7225   7.9189
     8.1037   8.1370   8.1821   8.2260   8.2407   8.3225   8.3361   8.3385
     8.3416   8.3436   8.4104   8.4226   8.4328   8.4481   8.5611   8.5888
     8.5979   8.6767   8.6780   8.6787   8.6858   8.8254   8.8409   8.8430
     8.8464   8.8513   8.8529   8.9924   9.1113   9.1256   9.1339   9.1348
     9.1455   9.1618   9.1928   9.2920   9.3400   9.3512   9.3643   9.5405
     9.5802   9.5826   9.5964   9.7004   9.7307   9.8282   9.8356  10.0450
    10.0455  10.0475  10.1798  10.1934

          k = 0.0000-0.2165 0.0000 (256176 PWs)   bands (ev):

   -18.2259 -16.6273 -16.2719 -15.8166 -15.5738 -14.9763 -14.4060 -14.3250
   -14.3092 -14.1935 -14.1343 -13.7990 -13.6723 -13.6525 -13.5976 -12.5279
   -12.3741 -12.2890 -12.2289 -12.0869 -12.0346 -10.5740 -10.4994 -10.4392
   -10.3343  -9.3833  -9.3413  -9.2176  -9.0374  -8.9528  -8.9084  -8.3620
    -8.2167  -8.1600  -8.1089  -7.3721  -7.2404  -6.9778  -6.9606  -6.8828
    -6.8467  -6.8075  -6.7920  -6.1870  -6.0242  -5.8942  -5.8837  -5.7485
    -5.3394  -5.3197  -5.1746  -5.0933  -4.9731  -4.8898  -4.8430  -4.8373
    -4.8032  -4.6965  -4.5891  -4.5723  -4.4620  -4.3753  -4.0700  -3.9669
    -3.8245  -3.6627  -3.5663  -3.5292  -3.3064  -3.3032  -3.3029  -3.2952
    -3.2122  -3.1921  -3.0801  -3.0697  -3.0580  -3.0314  -3.0298  -3.0060
    -2.9329  -2.8721  -2.8556  -2.8428  -2.7944  -2.7515  -2.7247  -2.6558
    -2.5946  -2.5891  -2.5791  -2.5790  -2.5767  -2.5755  -2.5560  -2.5397
    -2.4127  -2.3516  -2.3060  -2.2458  -2.2434  -2.2417  -2.2381  -2.1917
    -2.1472  -2.1449  -2.1433  -2.1345  -2.0376  -2.0078  -1.9856  -1.9855
    -1.9598  -1.9597  -1.9060  -1.8661  -1.8604  -1.8097  -1.7811  -1.7665
    -1.7658  -1.7497  -1.7491  -1.7472  -1.7399  -1.7398  -1.7234  -1.7190
    -1.6540  -1.6463  -1.6418  -1.5940  -1.5671  -1.5399  -1.4692  -1.4637
    -1.4588  -1.4583  -1.4306  -1.3796  -1.3755  -1.3703  -1.3690  -1.3174
    -1.3158  -1.3149  -1.2800  -1.2781  -1.2739  -1.2735  -1.2731  -1.2684
    -1.2526  -1.2475  -1.2319  -1.2248  -1.2228  -1.2218  -1.2132  -1.2094
    -1.1855  -1.1597  -1.1463  -1.1405  -1.1318  -1.1314  -1.0875  -1.0872
    -1.0496  -1.0493  -1.0464  -1.0460  -1.0078  -1.0022  -0.9852  -0.9842
    -0.9818  -0.9803  -0.9781  -0.9764  -0.9413  -0.9273  -0.9254  -0.9184
    -0.9179  -0.9098  -0.9093  -0.9002  -0.8929  -0.8927  -0.8808  -0.8301
    -0.8274  -0.8248  -0.8211  -0.8183  -0.8179  -0.8059  -0.7959  -0.7956
    -0.7863  -0.7773  -0.7659  -0.7542  -0.7538  -0.7519  -0.7413  -0.7089
    -0.6577  -0.6570  -0.6497  -0.6485  -0.6321  -0.6318  -0.6069  -0.6053
    -0.6041  -0.6026  -0.6000  -0.5999  -0.5765  -0.5730  -0.5434  -0.5420
    -0.5406  -0.5385  -0.5380  -0.5363  -0.5345  -0.5320  -0.5216  -0.5036
    -0.5026  -0.4827  -0.4827  -0.4812  -0.4690  -0.4482  -0.4469  -0.4459
    -0.4437  -0.4381  -0.4377  -0.4306  -0.4294  -0.4099  -0.3657  -0.3614
    -0.3608  -0.3512  -0.3504  -0.3266  -0.3255  -0.3175  -0.3023  -0.3012
    -0.2966  -0.2959  -0.2942  -0.2926  -0.2755  -0.2722  -0.2694  -0.2643
    -0.2635  -0.2585  -0.2529  -0.2496  -0.2459  -0.2448  -0.2428  -0.2425
    -0.2423  -0.2377  -0.2341  -0.2303  -0.2065  -0.2060  -0.2025  -0.2021
    -0.1959  -0.1492  -0.1403  -0.1387  -0.1383  -0.1359  -0.1319  -0.1299
    -0.1259  -0.1258  -0.1207  -0.1033  -0.0978  -0.0930  -0.0925  -0.0861
    -0.0855  -0.0816  -0.0776  -0.0765  -0.0745  -0.0735  -0.0729  -0.0701
    -0.0319  -0.0161  -0.0159  -0.0141  -0.0140   0.0012   0.0049   0.0068
     0.0075   0.0092   0.0121   0.0165   0.0276   0.0291   0.0328   0.0344
     0.0385   0.0482   0.0598   0.0615   0.0766   0.0769   0.0775   0.0781
     0.0950   0.0974   0.1121   0.1126   0.1213   0.1239   0.1336   0.1359
     0.1367   0.1374   0.1771   0.1778   0.1864   0.1883   0.1939   0.2018
     0.2025   0.2034   0.2285   0.2304   0.2374   0.2644   0.2662   0.2690
     0.2754   0.2937   0.3103   0.3342   0.3696   0.3838   0.3842   0.3899
     0.3911   0.4109   0.4126   0.4129   0.4140   0.4162   0.4393   0.4488
     0.4501   0.4526   0.4531   0.4554   0.4572   0.4600   0.4612   0.4635
     0.4750   0.4761   0.4773   0.4792   0.4829   0.4847   0.4861   0.4907
     0.5058   0.5158   0.5181   0.5281   0.5283   0.5288   0.5306   0.5376
     0.5376   0.5557   0.5565   0.5578   0.5590   0.5603   0.5606   0.5607
     0.5617   0.5628   0.5779   0.5809   0.5821   0.5849   0.5851   0.5861
     0.5897   0.5922   0.5981   0.6092   0.6445   0.6463   0.6579   0.6581
     0.6586   0.6673   0.6695   0.6700   0.6706   0.6723   0.6757   0.6821
     0.6829   0.6838   0.6840   0.6852   0.7088   0.7183   0.7261   0.7262
     0.7268   0.7375   0.7421   0.7437   0.7442   0.7445   0.7510   0.7601
     0.7658   0.7705   0.7753   0.7769   0.7813   0.7840   0.7852   0.8202
     0.8365   0.8398   0.8865   0.8898   0.8906   0.8952   0.8953   0.8971
     0.9052   0.9062   0.9106   0.9120   0.9174   0.9186   0.9241   0.9262
     0.9273   0.9283   0.9401   0.9411   0.9430   0.9433   0.9436   0.9454
     0.9576   0.9647   0.9672   0.9680   0.9681   0.9699   0.9711   0.9715
     0.9739   0.9745   0.9831   0.9866   0.9909   0.9912   0.9950   0.9954
     0.9960   0.9989   1.0123   1.0134   1.0209   1.0269   1.0290   1.0310
     1.0329   1.0385   1.0393   1.0407   1.0409   1.0411   1.0428   1.0446
     1.0863   1.0923   1.1270   1.1287   1.1288   1.1360   1.1460   1.1490
     1.1524   1.1542   1.1606   1.1712   1.1720   1.1773   1.1827   1.1890
     1.1941   1.1945   1.1970   1.1983   1.2015   1.2017   1.2026   1.2034
     1.2041   1.2042   1.2061   1.2111   1.2119   1.2139   1.2232   1.2282
     1.2328   1.2330   1.2357   1.2411   1.2416   1.2436   1.2699   1.2706
     1.2715   1.2733   1.2769   1.2781   1.2789   1.2824   1.2973   1.3002
     1.3007   1.3043   1.3127   1.3132   1.3142   1.3152   1.3163   1.3220
     1.3318   1.3334   1.3342   1.3353   1.3518   1.3521   1.3549   1.3633
     1.3746   1.3755   1.3806   1.3809   1.3819   1.3845   1.3940   1.3964
     1.3975   1.3982   1.4124   1.4133   1.4275   1.4277   1.4283   1.4286
     1.4467   1.4486   1.4490   1.4498   1.4522   1.4524   1.4534   1.4539
     1.4797   1.4813   1.4887   1.4892   1.4928   1.5017   1.5057   1.5160
     1.5202   1.5209   1.5224   1.5245   1.5259   1.5350   1.5381   1.5465
     1.5865   1.5913   1.5919   1.5934   1.6852   1.6960   1.7079   1.7244
     1.7257   1.7321   1.7402   1.7549   1.7884   1.7922   1.7927   1.7932
     1.8100   1.8164   1.8167   1.8215   1.8526   1.8569   1.9555   2.1025
     2.1864   2.4138   2.4189   2.4281   2.4289   2.4954   2.5014   2.5463
     2.5677   2.5717   2.5744   2.5811   2.5842   2.6749   2.7103   2.7203
     2.7725   2.7750   2.7863   2.7904   2.9244   2.9263   3.1713   3.1714
     3.1956   3.2137   3.4208   3.4373   3.6589   3.6754   3.7601   3.9445
     3.9984   4.0874   4.1047   4.1121   4.1444   4.3304   4.3313   4.3408
     4.3418   4.4733   4.5105   4.5245   4.7026   4.7245   4.7865   4.7934
     5.0659   5.1024   5.1053   5.1467   5.3581   5.3616   5.3630   5.3653
     5.4294   5.4502   5.5694   5.6674   5.7078   5.7997   5.8342   6.3475
     6.4118   6.4234   6.4410   6.4631   6.4644   6.5025   6.5633   6.5891
     6.6651   6.6729   6.8194   6.8317   7.0201   7.0314   7.0442   7.0724
     7.0763   7.1004   7.1144   7.1293   7.1430   7.1478   7.2962   7.3446
     7.3583   7.4072   7.4267   7.4335   7.5128   7.6177   7.7472   7.7571
     7.8058   8.0713   8.1482   8.1499   8.3527   8.3608   8.3917   8.4352
     8.4576   8.4613   8.4740   8.4771   8.4909   8.5376   8.6643   8.7115
     8.7152   8.7206   8.7287   8.7486   8.7601   8.7722   8.9178   8.9476
     8.9638   9.0259   9.0375   9.1628   9.1688   9.2401   9.2531   9.2851
     9.3547   9.3754   9.3775   9.4010   9.4015   9.4587   9.4869   9.5004
     9.5044   9.5143   9.5238   9.6630   9.6878   9.7510   9.7894   9.7894
     9.8521   9.8911   9.8916   9.9937

          k = 0.2500 0.0000 0.0000 (256240 PWs)   bands (ev):

   -18.2176 -16.5906 -16.0882 -15.8986 -15.4794 -15.1131 -14.9395 -14.8645
   -14.7903 -14.0552 -13.8725 -13.5488 -13.2003 -13.0926 -13.0315 -12.9902
   -12.2763 -12.1692 -12.0780 -12.0029 -11.1576 -11.0163 -10.7402 -10.6546
   -10.2992 -10.1505  -9.8738  -9.8150  -9.4464  -9.2138  -9.1046  -8.6343
    -7.9421  -7.7544  -7.6416  -7.5184  -7.4774  -7.3968  -7.0275  -6.8812
    -6.3144  -6.1670  -6.0295  -5.9529  -5.8758  -5.8400  -5.6160  -5.3662
    -5.3126  -5.3009  -5.2256  -4.9128  -4.8552  -4.5815  -4.5151  -4.4820
    -4.4664  -4.4304  -4.4238  -4.3343  -4.3165  -4.1537  -4.0083  -4.0002
    -3.9947  -3.9372  -3.8537  -3.8412  -3.8370  -3.7534  -3.6622  -3.6076
    -3.5627  -3.5383  -3.4855  -3.3969  -3.3837  -3.3267  -3.2500  -3.2310
    -3.1770  -3.1224  -3.0648  -3.0247  -2.9151  -2.8610  -2.7980  -2.7978
    -2.7568  -2.6917  -2.6342  -2.6173  -2.6084  -2.4667  -2.4012  -2.3921
    -2.3342  -2.3261  -2.1005  -2.0984  -2.0857  -2.0811  -2.0699  -2.0407
    -1.9944  -1.9733  -1.9525  -1.8952  -1.8910  -1.8383  -1.8174  -1.8008
    -1.8002  -1.7929  -1.7927  -1.7794  -1.7726  -1.7447  -1.7301  -1.7212
    -1.7128  -1.7018  -1.6663  -1.6474  -1.6431  -1.6027  -1.5829  -1.5816
    -1.5789  -1.5776  -1.5775  -1.5750  -1.5457  -1.5238  -1.5121  -1.5033
    -1.5006  -1.4898  -1.4873  -1.3718  -1.3381  -1.3294  -1.3119  -1.2986
    -1.2712  -1.2668  -1.2439  -1.2430  -1.2416  -1.2369  -1.2286  -1.2196
    -1.2075  -1.2061  -1.1844  -1.1814  -1.1777  -1.1641  -1.1506  -1.1367
    -1.1353  -1.1321  -1.1302  -1.1257  -1.1120  -1.1097  -1.1025  -1.0938
    -1.0762  -1.0717  -1.0528  -1.0485  -1.0474  -1.0444  -1.0233  -1.0148
    -1.0125  -1.0101  -1.0060  -1.0017  -0.9957  -0.9908  -0.9825  -0.9808
    -0.9799  -0.9782  -0.9755  -0.9742  -0.9690  -0.9634  -0.9458  -0.9425
    -0.9394  -0.9264  -0.9029  -0.9008  -0.8945  -0.8890  -0.8531  -0.8507
    -0.8150  -0.8148  -0.7971  -0.7939  -0.7864  -0.7702  -0.7697  -0.7561
    -0.7553  -0.7523  -0.7477  -0.7428  -0.7391  -0.7223  -0.6708  -0.6034
    -0.6001  -0.5985  -0.5922  -0.5678  -0.5668  -0.5658  -0.5495  -0.5488
    -0.5481  -0.5477  -0.5364  -0.5272  -0.5260  -0.5258  -0.5201  -0.5089
    -0.4895  -0.4845  -0.4842  -0.4818  -0.4812  -0.4778  -0.4596  -0.4595
    -0.4572  -0.4525  -0.4037  -0.3985  -0.3982  -0.3970  -0.3913  -0.3873
    -0.3835  -0.3796  -0.3701  -0.3562  -0.3556  -0.3415  -0.3338  -0.3323
    -0.3307  -0.3264  -0.2943  -0.2938  -0.2915  -0.2900  -0.2838  -0.2802
    -0.2765  -0.2691  -0.2648  -0.2573  -0.2509  -0.2401  -0.2296  -0.2287
    -0.2083  -0.1983  -0.1981  -0.1953  -0.1945  -0.1857  -0.1801  -0.1796
    -0.1786  -0.1701  -0.1551  -0.1510  -0.1508  -0.1388  -0.1350  -0.1211
    -0.1127  -0.1103  -0.1095  -0.0757  -0.0649  -0.0627  -0.0611  -0.0565
    -0.0540  -0.0407  -0.0207  -0.0181  -0.0166  -0.0115  -0.0099  -0.0065
    -0.0039   0.0007   0.0055   0.0066   0.0079   0.0088   0.0105   0.0143
     0.0258   0.0328   0.0350   0.0353   0.0401   0.0427   0.0570   0.0603
     0.0624   0.0753   0.0796   0.0962   0.1144   0.1150   0.1174   0.1180
     0.1202   0.1345   0.1360   0.1415   0.1424   0.1438   0.1446   0.1530
     0.1793   0.1811   0.1935   0.2522   0.2538   0.2551   0.2594   0.2663
     0.2716   0.2734   0.2741   0.2754   0.2815   0.2823   0.2856   0.2884
     0.2900   0.2910   0.2987   0.3023   0.3079   0.3084   0.3107   0.3199
     0.3219   0.3272   0.3318   0.3337   0.3374   0.3382   0.3562   0.3632
     0.3669   0.3855   0.3945   0.4066   0.4118   0.4243   0.4248   0.4435
     0.4438   0.4443   0.4485   0.4552   0.4636   0.4776   0.4810   0.4819
     0.4858   0.4865   0.4872   0.4922   0.4953   0.4968   0.5022   0.5183
     0.5209   0.5274   0.5335   0.5434   0.5455   0.5492   0.5500   0.5528
     0.5554   0.5570   0.5689   0.5796   0.5808   0.5845   0.5874   0.5931
     0.5971   0.5976   0.5995   0.6110   0.6112   0.6162   0.6181   0.6212
     0.6366   0.6385   0.6430   0.6581   0.6613   0.6634   0.6681   0.6711
     0.6744   0.6772   0.6896   0.7031   0.7065   0.7249   0.7294   0.7409
     0.7419   0.7454   0.7464   0.7483   0.7535   0.7669   0.7713   0.7765
     0.7797   0.7805   0.7883   0.7942   0.7977   0.8053   0.8157   0.8196
     0.8242   0.8256   0.8286   0.8420   0.8557   0.8568   0.8586   0.8592
     0.8729   0.8814   0.8831   0.8915   0.8940   0.8954   0.8956   0.9018
     0.9034   0.9047   0.9086   0.9155   0.9462   0.9507   0.9528   0.9563
     0.9569   0.9695   0.9699   0.9736   0.9906   0.9928   0.9931   0.9941
     0.9975   1.0008   1.0033   1.0075   1.0180   1.0193   1.0199   1.0204
     1.0226   1.0233   1.0246   1.0277   1.0291   1.0332   1.0341   1.0382
     1.0423   1.0499   1.0585   1.0630   1.0633   1.0695   1.0707   1.0727
     1.0767   1.0778   1.0915   1.0917   1.0943   1.1062   1.1087   1.1093
     1.1119   1.1134   1.1238   1.1341   1.1378   1.1387   1.1443   1.1491
     1.1536   1.1570   1.1594   1.1660   1.1748   1.1844   1.1860   1.1913
     1.1941   1.1948   1.2215   1.2340   1.2348   1.2411   1.2459   1.2474
     1.2501   1.2536   1.2544   1.2555   1.2581   1.2636   1.2690   1.2772
     1.2802   1.2807   1.2841   1.2936   1.3001   1.3012   1.3016   1.3045
     1.3068   1.3124   1.3150   1.3153   1.3181   1.3189   1.3236   1.3245
     1.3252   1.3344   1.3351   1.3433   1.3498   1.3529   1.3550   1.3589
     1.3596   1.3613   1.3629   1.3787   1.3816   1.3820   1.3824   1.4029
     1.4038   1.4118   1.4136   1.4210   1.4236   1.4239   1.4254   1.4278
     1.4291   1.4331   1.4347   1.4356   1.4371   1.4423   1.4445   1.4553
     1.4648   1.4659   1.4675   1.4684   1.4704   1.4712   1.4755   1.4844
     1.4846   1.4934   1.4966   1.5067   1.5083   1.5091   1.5157   1.5162
     1.5206   1.5404   1.5474   1.5541   1.5720   1.5829   1.6155   1.6245
     1.6268   1.6299   1.6587   1.6674   1.7425   1.7600   1.7640   1.7650
     1.7767   1.7811   1.8028   1.8383   1.9571   2.0313   2.0566   2.0767
     2.0864   2.0925   2.0995   2.1893   2.2539   2.2682   2.3901   2.5638
     2.5660   2.5692   2.5802   2.9766   2.9769   3.0198   3.1941   3.1946
     3.2193   3.2194   3.2748   3.2952   3.4700   3.4892   3.5854   3.5929
     3.6306   3.6360   3.6982   3.7069   3.7211   3.7241   3.7647   3.8645
     3.8772   3.9627   3.9810   4.0205   4.1312   4.2101   4.2156   4.2345
     4.2794   4.4191   4.5264   4.7568   4.7881   4.8299   4.8743   5.1696
     5.2173   5.2229   5.2287   5.2490   5.3645   5.3981   5.4758   5.4804
     5.5074   5.5821   5.6078   5.6213   5.6891   5.7156   5.7300   5.7469
     5.8162   5.8448   5.8492   5.9993   6.0085   6.0222   6.0424   6.1043
     6.5750   6.6828   6.7050   6.7126   6.7528   6.7643   6.7991   6.8932
     6.9019   7.0181   7.0403   7.0492   7.0565   7.0713   7.1489   7.2644
     7.2948   7.3328   7.3786   7.4839   7.5401   7.5611   7.5690   7.5788
     7.6810   7.7926   7.7971   7.8253   8.0020   8.0174   8.0638   8.0714
     8.0836   8.2280   8.2630   8.2727   8.2869   8.3180   8.3190   8.3818
     8.4211   8.4467   8.4951   8.6448   8.6508   8.7328   8.9458   8.9550
     8.9811   9.0139   9.0627   9.1434   9.1790   9.1956   9.2167   9.2452
     9.2545   9.2747   9.2871   9.3430   9.3884   9.4224   9.4286   9.4483
     9.4769   9.5612   9.6775   9.7215   9.7256   9.7629   9.8368   9.8560
     9.8803   9.9007   9.9755  10.0068

          k = 0.2500-0.2165 0.0000 (256316 PWs)   bands (ev):

   -18.2176 -16.5868 -16.1507 -15.7608 -15.4648 -15.2878 -15.1631 -14.6610
   -14.4883 -14.1497 -14.0238 -13.5521 -13.2452 -13.1520 -13.0835 -12.7036
   -12.5938 -12.0763 -11.9605 -11.4443 -11.3466 -11.1967 -11.0708 -10.8614
   -10.6062  -9.7913  -9.6919  -9.3136  -9.2948  -9.0623  -9.0080  -8.6349
    -8.5587  -8.4252  -8.3734  -7.1994  -6.9205  -6.7925  -6.6325  -6.5648
    -6.4600  -6.4357  -6.2734  -6.0743  -5.9778  -5.7379  -5.7057  -5.6503
    -5.2846  -5.2065  -5.0092  -4.8699  -4.8089  -4.7498  -4.6752  -4.6708
    -4.5119  -4.4316  -4.3476  -4.3452  -4.3184  -4.2599  -4.1421  -4.1163
    -4.0691  -3.9078  -3.8524  -3.7376  -3.7151  -3.5997  -3.5585  -3.5385
    -3.4633  -3.4581  -3.4515  -3.3820  -3.3259  -3.2713  -3.1829  -3.1383
    -3.1064  -3.0498  -3.0125  -2.9369  -2.9178  -2.9118  -2.9078  -2.9036
    -2.8216  -2.7830  -2.6739  -2.6375  -2.5336  -2.4493  -2.3151  -2.3123
    -2.2743  -2.2447  -2.1780  -2.1754  -2.1677  -2.1675  -2.1054  -2.0504
    -2.0096  -2.0086  -1.9876  -1.9639  -1.9534  -1.9273  -1.8763  -1.8175
    -1.8130  -1.8118  -1.8103  -1.7536  -1.7493  -1.7435  -1.7242  -1.7224
    -1.7103  -1.7074  -1.6954  -1.6918  -1.6771  -1.6760  -1.6756  -1.6747
    -1.6664  -1.6663  -1.5837  -1.5781  -1.5433  -1.4687  -1.4670  -1.4041
    -1.3670  -1.3634  -1.3521  -1.3294  -1.3285  -1.2783  -1.2762  -1.2761
    -1.2621  -1.2617  -1.2490  -1.2485  -1.2427  -1.2382  -1.2277  -1.2229
    -1.2203  -1.2149  -1.2090  -1.2058  -1.2015  -1.1973  -1.1903  -1.1828
    -1.1819  -1.1507  -1.1318  -1.1285  -1.1266  -1.1207  -1.1173  -1.1127
    -1.1123  -1.0970  -1.0814  -1.0778  -1.0435  -1.0393  -1.0386  -1.0321
    -1.0264  -1.0220  -0.9955  -0.9952  -0.9855  -0.9774  -0.9736  -0.9666
    -0.9606  -0.9589  -0.9553  -0.9547  -0.9462  -0.9423  -0.9247  -0.9224
    -0.9061  -0.8995  -0.8712  -0.8634  -0.8627  -0.8612  -0.8578  -0.8141
    -0.7808  -0.7772  -0.7754  -0.7706  -0.7688  -0.7680  -0.7429  -0.7225
    -0.7202  -0.7122  -0.7118  -0.7049  -0.7046  -0.6946  -0.6927  -0.6697
    -0.6525  -0.6516  -0.6157  -0.6132  -0.5990  -0.5680  -0.5673  -0.5638
    -0.5628  -0.5608  -0.5340  -0.5319  -0.5249  -0.5156  -0.5095  -0.5016
    -0.4995  -0.4941  -0.4878  -0.4815  -0.4595  -0.4552  -0.4484  -0.4460
    -0.4383  -0.4343  -0.4179  -0.4078  -0.4073  -0.3977  -0.3932  -0.3906
    -0.3796  -0.3727  -0.3670  -0.3658  -0.3622  -0.3620  -0.3571  -0.3558
    -0.3512  -0.3504  -0.3358  -0.3304  -0.3168  -0.3164  -0.3058  -0.2902
    -0.2823  -0.2729  -0.2679  -0.2550  -0.2481  -0.2391  -0.2388  -0.2311
    -0.2183  -0.2176  -0.2163  -0.2144  -0.2085  -0.1821  -0.1719  -0.1537
    -0.1534  -0.1167  -0.1159  -0.1074  -0.1071  -0.1054  -0.1029  -0.0959
    -0.0867  -0.0865  -0.0764  -0.0686  -0.0675  -0.0579  -0.0517  -0.0471
    -0.0459  -0.0416  -0.0381  -0.0374  -0.0362  -0.0158  -0.0105  -0.0073
    -0.0031  -0.0022  -0.0013  -0.0001   0.0011   0.0025   0.0037   0.0088
     0.0122   0.0319   0.0322   0.0326   0.0331   0.0593   0.0655   0.0671
     0.0739   0.0755   0.0799   0.0893   0.1003   0.1020   0.1107   0.1252
     0.1322   0.1332   0.1401   0.1450   0.1523   0.1531   0.1542   0.1601
     0.1676   0.1697   0.1737   0.1783   0.1987   0.2048   0.2098   0.2681
     0.2694   0.2783   0.2794   0.2821   0.2834   0.2859   0.2873   0.2925
     0.2942   0.2962   0.2970   0.3120   0.3188   0.3210   0.3229   0.3254
     0.3284   0.3318   0.3370   0.3386   0.3474   0.3643   0.3725   0.3809
     0.3820   0.3886   0.3951   0.4024   0.4063   0.4252   0.4417   0.4461
     0.4501   0.4551   0.4571   0.4576   0.4598   0.4701   0.4714   0.4753
     0.4785   0.4812   0.4816   0.4845   0.4864   0.5095   0.5138   0.5153
     0.5204   0.5243   0.5348   0.5372   0.5663   0.5674   0.5687   0.5696
     0.5871   0.6000   0.6040   0.6062   0.6082   0.6094   0.6107   0.6143
     0.6191   0.6249   0.6271   0.6317   0.6331   0.6372   0.6457   0.6530
     0.6551   0.6565   0.6663   0.6681   0.6706   0.6721   0.6727   0.6808
     0.6828   0.6851   0.6894   0.6908   0.6964   0.7026   0.7104   0.7123
     0.7149   0.7170   0.7181   0.7198   0.7212   0.7219   0.7285   0.7409
     0.7569   0.7611   0.7694   0.7700   0.7849   0.7988   0.8091   0.8105
     0.8242   0.8243   0.8259   0.8263   0.8305   0.8319   0.8538   0.8548
     0.8554   0.8558   0.8569   0.8574   0.8636   0.8684   0.8807   0.8842
     0.8854   0.8907   0.8958   0.8980   0.9055   0.9119   0.9295   0.9297
     0.9383   0.9551   0.9567   0.9612   0.9640   0.9646   0.9667   0.9690
     0.9766   0.9796   0.9873   1.0016   1.0040   1.0061   1.0184   1.0198
     1.0284   1.0366   1.0392   1.0434   1.0599   1.0653   1.0752   1.0809
     1.0813   1.0881   1.0896   1.0904   1.0915   1.0922   1.0928   1.0949
     1.0974   1.1026   1.1065   1.1079   1.1168   1.1183   1.1205   1.1258
     1.1383   1.1432   1.1654   1.1660   1.1686   1.1733   1.1751   1.1766
     1.1790   1.1800   1.1869   1.1880   1.1913   1.1927   1.1953   1.2006
     1.2042   1.2049   1.2062   1.2077   1.2118   1.2210   1.2236   1.2243
     1.2249   1.2257   1.2268   1.2326   1.2408   1.2423   1.2459   1.2468
     1.2706   1.2728   1.2786   1.2795   1.2929   1.2955   1.2990   1.2997
     1.3107   1.3114   1.3126   1.3244   1.3251   1.3309   1.3321   1.3348
     1.3371   1.3377   1.3459   1.3481   1.3492   1.3542   1.3600   1.3611
     1.3722   1.3782   1.3824   1.3827   1.3836   1.3845   1.3861   1.3865
     1.3935   1.3940   1.4048   1.4054   1.4090   1.4114   1.4174   1.4224
     1.4242   1.4302   1.4365   1.4378   1.4382   1.4390   1.4442   1.4446
     1.4448   1.4468   1.4508   1.4544   1.4547   1.4739   1.4793   1.4794
     1.4851   1.4901   1.5023   1.5035   1.5200   1.5224   1.5263   1.5292
     1.5501   1.5516   1.5573   1.5592   1.5750   1.5846   1.5948   1.6430
     1.6558   1.6683   1.6708   1.7034   1.7526   1.7568   1.7702   1.7782
     1.7854   1.7902   1.7914   1.7927   1.8140   1.8472   1.8546   2.1215
     2.1262   2.1533   2.1599   2.2671   2.2920   2.3996   2.5841   2.5860
     2.7840   2.7893   2.7913   2.7933   2.8059   2.8166   2.8438   2.8455
     2.9837   2.9863   3.0776   3.0941   3.5346   3.5462   3.6063   3.6183
     3.6808   3.6966   3.8264   3.8398   3.8468   3.8498   3.9770   3.9981
     4.0307   4.0625   4.1255   4.1639   4.1738   4.3751   4.3763   4.4164
     4.5489   4.5569   4.5798   4.6598   4.6815   4.7131   4.7481   4.9309
     4.9491   4.9767   5.0300   5.0532   5.1438   5.2622   5.3016   5.3227
     5.4329   5.4497   5.4588   5.4603   5.4814   5.6050   5.7620   5.7689
     5.8972   5.9053   5.9315   5.9648   5.9874   6.2273   6.5913   6.6026
     6.6292   6.6479   6.7531   6.7599   6.8480   6.8703   6.9583   7.0525
     7.0757   7.0813   7.0977   7.1050   7.1234   7.1823   7.2119   7.2247
     7.3190   7.3413   7.3434   7.3480   7.4064   7.4408   7.4443   7.5224
     7.6587   7.6765   7.7325   7.8033   7.8553   7.9129   8.0061   8.0105
     8.1940   8.1981   8.2430   8.2717   8.3756   8.5443   8.5876   8.5933
     8.6293   8.6389   8.6480   8.6551   8.6878   8.7172   8.7267   8.8849
     8.9273   8.9448   8.9560   8.9689   9.1339   9.1434   9.1620   9.1797
     9.1928   9.2195   9.2268   9.2305   9.2664   9.2726   9.3106   9.3420
     9.3686   9.4266   9.4503   9.4745   9.5180   9.6327   9.6539   9.7016
     9.9450   9.9625   9.9758   9.9950

          k =-0.5000 0.0000 0.0000 (256496 PWs)   bands (ev):

   -18.2092 -16.5370 -15.8645 -15.7209 -15.5691 -15.5352 -15.4461 -14.7463
   -14.5250 -14.4477 -14.3861 -13.1085 -12.8149 -12.6778 -12.6450 -12.3464
   -12.2065 -11.8932 -11.8402 -11.7641 -11.7521 -11.2096 -11.1554 -10.9084
   -10.7047 -10.2576 -10.2108  -9.9882  -9.7121  -9.0904  -9.0694  -8.9327
    -8.8989  -7.7735  -7.5925  -7.5341  -7.3649  -7.3220  -7.3017  -6.1939
    -6.1592  -5.9866  -5.4620  -5.3130  -5.3012  -5.2447  -5.0496  -4.9350
    -4.8501  -4.8058  -4.8042  -4.7988  -4.7926  -4.7294  -4.7267  -4.7002
    -4.6615  -4.6290  -4.5454  -4.4904  -4.4542  -4.3952  -4.3290  -4.3180
    -4.0953  -4.0074  -3.9984  -3.9648  -3.9613  -3.8227  -3.6762  -3.5935
    -3.5804  -3.5516  -3.5377  -3.4285  -3.4213  -3.4195  -3.4192  -3.3932
    -3.3787  -3.3668  -3.3336  -3.3154  -2.9399  -2.9038  -2.8544  -2.8013
    -2.7776  -2.7556  -2.7225  -2.6987  -2.6052  -2.5990  -2.5132  -2.4406
    -2.4197  -2.3486  -2.2997  -2.2976  -2.2966  -2.2908  -1.9020  -1.8785
    -1.8782  -1.8778  -1.8771  -1.8758  -1.8737  -1.8188  -1.7643  -1.7578
    -1.7513  -1.7422  -1.6731  -1.6504  -1.6500  -1.6498  -1.6483  -1.6022
    -1.6014  -1.6002  -1.5993  -1.5122  -1.5044  -1.4883  -1.4872  -1.4865
    -1.4789  -1.4367  -1.4257  -1.4254  -1.4237  -1.4229  -1.4065  -1.4050
    -1.3580  -1.3577  -1.3551  -1.3524  -1.3508  -1.3436  -1.3414  -1.3388
    -1.3376  -1.3368  -1.3012  -1.2914  -1.2911  -1.2902  -1.2802  -1.2680
    -1.2670  -1.2668  -1.2622  -1.2037  -1.2034  -1.1841  -1.1824  -1.1813
    -1.1803  -1.1786  -1.1569  -1.1525  -1.1514  -1.1496  -1.1488  -1.1463
    -1.1327  -1.1074  -1.1071  -1.1057  -1.1052  -1.0854  -1.0841  -1.0573
    -1.0550  -1.0546  -1.0095  -1.0084  -0.9886  -0.9819  -0.9810  -0.9783
    -0.9772  -0.9744  -0.9518  -0.9506  -0.9499  -0.9482  -0.9453  -0.9388
    -0.9351  -0.9317  -0.9290  -0.9280  -0.9269  -0.9034  -0.9014  -0.8446
    -0.8405  -0.8390  -0.8379  -0.8226  -0.7946  -0.7936  -0.7111  -0.7104
    -0.7100  -0.7093  -0.6919  -0.6760  -0.6733  -0.6724  -0.6710  -0.6707
    -0.6654  -0.6607  -0.6484  -0.6318  -0.6308  -0.6305  -0.6274  -0.6212
    -0.6154  -0.6046  -0.6003  -0.5969  -0.5894  -0.5603  -0.5212  -0.5054
    -0.4932  -0.4748  -0.4694  -0.4660  -0.4561  -0.4557  -0.4477  -0.4250
    -0.4116  -0.4081  -0.4063  -0.4059  -0.4035  -0.4019  -0.4014  -0.3801
    -0.3683  -0.3679  -0.3665  -0.3659  -0.3566  -0.3293  -0.3287  -0.3282
    -0.3275  -0.2959  -0.2949  -0.2945  -0.2943  -0.2840  -0.2834  -0.2828
    -0.2504  -0.2504  -0.2483  -0.2476  -0.2442  -0.2354  -0.2285  -0.2222
    -0.2083  -0.1979  -0.1909  -0.1365  -0.1353  -0.1343  -0.1340  -0.1288
    -0.1284  -0.1266  -0.1262  -0.0971  -0.0893  -0.0888  -0.0847  -0.0749
    -0.0522  -0.0518  -0.0247  -0.0241  -0.0227  -0.0221  -0.0216  -0.0212
    -0.0197  -0.0194  -0.0189  -0.0183  -0.0177  -0.0166   0.0417   0.0570
     0.0581   0.0625   0.0669   0.0671   0.0698   0.0718   0.0723   0.0732
     0.0768   0.0788   0.0811   0.0820   0.0858   0.0865   0.0867   0.0888
     0.0961   0.1022   0.1022   0.1168   0.1176   0.1186   0.1194   0.1197
     0.1198   0.1263   0.1286   0.1289   0.1292   0.1314   0.1418   0.1425
     0.1542   0.1546   0.1551   0.1555   0.1664   0.1786   0.1835   0.1857
     0.2509   0.2798   0.2857   0.2859   0.2885   0.2887   0.3190   0.3196
     0.3208   0.3212   0.3324   0.3347   0.3358   0.3381   0.3432   0.3442
     0.3450   0.3456   0.3502   0.3506   0.3529   0.3536   0.3550   0.3612
     0.3666   0.3705   0.3711   0.3727   0.3811   0.3883   0.3885   0.3890
     0.3983   0.3985   0.4031   0.4041   0.4272   0.4399   0.4841   0.4907
     0.4933   0.4943   0.5033   0.5070   0.5078   0.5216   0.5244   0.5267
     0.5272   0.5290   0.5296   0.5312   0.5342   0.5348   0.5351   0.5385
     0.5394   0.5401   0.5432   0.5455   0.5462   0.5472   0.5568   0.5637
     0.5673   0.5840   0.5850   0.5901   0.6009   0.6087   0.6160   0.6196
     0.6198   0.6232   0.6302   0.6308   0.6317   0.6345   0.6352   0.6367
     0.6461   0.6468   0.6533   0.6540   0.6642   0.6671   0.6691   0.6720
     0.6860   0.7027   0.7056   0.7061   0.7078   0.7107   0.7142   0.7238
     0.7275   0.7399   0.7555   0.7653   0.7661   0.7669   0.7674   0.7683
     0.7704   0.7946   0.8083   0.8351   0.8369   0.8406   0.8412   0.8420
     0.8423   0.8441   0.8473   0.8521   0.8535   0.8540   0.8552   0.8643
     0.8665   0.8804   0.8840   0.8863   0.8879   0.8895   0.9054   0.9062
     0.9063   0.9072   0.9089   0.9091   0.9217   0.9465   0.9480   0.9483
     0.9498   0.9655   0.9946   1.0134   1.0137   1.0141   1.0157   1.0234
     1.0466   1.0474   1.0475   1.0485   1.0554   1.0658   1.0672   1.0724
     1.0774   1.0787   1.0871   1.0926   1.0954   1.1113   1.1119   1.1170
     1.1173   1.1188   1.1196   1.1229   1.1241   1.1264   1.1272   1.1357
     1.1363   1.1363   1.1364   1.1378   1.1387   1.1398   1.1416   1.1716
     1.1769   1.1770   1.1772   1.1790   1.1925   1.2081   1.2098   1.2132
     1.2138   1.2151   1.2170   1.2309   1.2330   1.2384   1.2416   1.2422
     1.2427   1.2441   1.2521   1.2527   1.2543   1.2550   1.2560   1.2649
     1.2703   1.2806   1.2868   1.2994   1.3004   1.3075   1.3148   1.3156
     1.3163   1.3164   1.3167   1.3171   1.3180   1.3247   1.3290   1.3301
     1.3304   1.3315   1.3317   1.3330   1.3336   1.3401   1.3416   1.3425
     1.3427   1.3429   1.3439   1.3497   1.3501   1.3643   1.3659   1.3830
     1.3880   1.3892   1.3910   1.3916   1.3922   1.3933   1.3938   1.4074
     1.4106   1.4149   1.4157   1.4231   1.4294   1.4314   1.4363   1.4410
     1.4494   1.4496   1.4503   1.4531   1.4663   1.4711   1.4725   1.4737
     1.4762   1.4787   1.4792   1.4795   1.4796   1.4846   1.4923   1.4994
     1.5014   1.5133   1.5141   1.5144   1.5148   1.5157   1.5239   1.5289
     1.5304   1.5732   1.5795   1.5845   1.6068   1.6075   1.6109   1.6127
     1.6329   2.0152   2.0346   2.0371   2.0382   2.1368   2.2368   2.2559
     2.2609   2.2761   2.2844   2.2894   2.2927   2.3197   2.6162   2.6275
     2.6318   2.6355   2.8308   2.8323   2.8375   2.8396   3.1839   3.1846
     3.1881   3.1888   3.4723   3.4776   3.7463   3.7635   3.7677   3.7702
     3.9107   3.9229   3.9264   3.9304   4.0500   4.0712   4.0726   4.0772
     4.1798   4.2051   4.2691   4.4084   4.5292   4.7165   4.7441   4.7637
     4.7730   4.7773   4.8179   4.8263   4.8325   4.8885   4.9381   5.0174
     5.0193   5.0464   5.0509   5.0538   5.0573   5.0773   5.0781   5.0995
     5.1128   5.1655   5.1800   5.3990   5.4847   5.5447   5.5530   5.6043
     5.6890   5.7015   5.7872   5.9777   5.9899   5.9927   6.0101   6.0220
     6.0477   6.0546   6.0601   6.0753   6.3440   6.4489   6.4591   6.4664
     6.4763   6.4882   6.5091   7.0543   7.0967   7.1030   7.1225   7.1313
     7.1323   7.3348   7.5869   7.5960   7.6030   7.6035   7.6054   7.6081
     7.6464   7.6790   7.8038   7.8156   7.8587   7.8867   7.8935   7.8986
     7.9251   8.0554   8.0647   8.0700   8.1020   8.1525   8.1614   8.1675
     8.1905   8.3315   8.5330   8.7236   8.7938   8.8266   8.8341   8.8370
     8.8413   8.8694   9.0084   9.0159   9.0666   9.0784   9.0795   9.0861
     9.2171   9.2645   9.2699   9.3994   9.4470   9.4929   9.5199   9.5205
     9.5243   9.5257   9.5325   9.5346   9.5411   9.5420   9.5497   9.8236
     9.8478   9.8815  10.0071  10.0265

          k =-0.5000-0.2165 0.0000 (256328 PWs)   bands (ev):

   -18.2092 -16.5360 -15.8121 -15.7863 -15.7354 -15.3372 -15.1389 -15.0816
   -15.0009 -13.9810 -13.7428 -13.6419 -13.5980 -12.5358 -12.2219 -11.9800
   -11.9736 -11.8207 -11.7110 -11.6030 -11.5467 -11.4871 -11.4682 -11.3918
   -11.3667  -9.9407  -9.9216  -9.7353  -9.6908  -9.1459  -8.8470  -8.7504
    -8.7144  -8.2151  -8.1610  -7.9867  -7.9654  -6.5238  -6.3045  -6.0554
    -5.9069  -5.7794  -5.6460  -5.5619  -5.2708  -5.2664  -5.2126  -5.1839
    -5.1807  -5.1796  -5.1633  -5.1130  -4.9940  -4.9880  -4.4982  -4.4218
    -4.3373  -4.3279  -4.2921  -4.2373  -4.2030  -4.1997  -4.1987  -4.1965
    -4.1786  -4.1632  -4.0398  -3.9429  -3.8992  -3.8517  -3.8199  -3.7763
    -3.7130  -3.6942  -3.6596  -3.6374  -3.5732  -3.5688  -3.4989  -3.4588
    -3.4299  -3.3287  -3.1128  -3.0596  -3.0503  -2.9270  -2.6226  -2.5807
    -2.5787  -2.5781  -2.5757  -2.5578  -2.5256  -2.5175  -2.5161  -2.5096
    -2.4065  -2.3150  -2.1379  -2.1135  -2.1056  -2.0979  -2.0959  -2.0863
    -2.0570  -2.0221  -2.0152  -2.0086  -2.0020  -1.9839  -1.8378  -1.8039
    -1.8027  -1.8011  -1.7980  -1.7529  -1.7405  -1.7091  -1.5691  -1.5475
    -1.5092  -1.4977  -1.4929  -1.4925  -1.4922  -1.4921  -1.4539  -1.4531
    -1.4521  -1.4516  -1.4334  -1.4328  -1.4305  -1.4304  -1.3857  -1.3848
    -1.3841  -1.3836  -1.3829  -1.3825  -1.3783  -1.3745  -1.3576  -1.3575
    -1.3571  -1.3570  -1.3189  -1.3103  -1.3061  -1.3057  -1.2974  -1.2453
    -1.2345  -1.2290  -1.2281  -1.1998  -1.1903  -1.1897  -1.1892  -1.1891
    -1.1725  -1.1717  -1.1704  -1.1623  -1.1233  -1.1206  -1.1197  -1.1192
    -1.1152  -1.1151  -1.1148  -1.1140  -1.1060  -1.0970  -1.0854  -1.0600
    -1.0599  -1.0529  -1.0514  -1.0502  -1.0428  -1.0425  -1.0391  -1.0375
    -1.0362  -1.0354  -1.0353  -1.0347  -1.0335  -0.9856  -0.9672  -0.8840
    -0.8829  -0.8815  -0.8794  -0.8522  -0.8518  -0.8515  -0.8512  -0.7839
    -0.7714  -0.7707  -0.7689  -0.7679  -0.7638  -0.7617  -0.7615  -0.7612
    -0.7598  -0.7581  -0.7526  -0.6997  -0.6991  -0.6986  -0.6980  -0.6901
    -0.6889  -0.6883  -0.6869  -0.6706  -0.6692  -0.6640  -0.6603  -0.5896
    -0.5750  -0.5739  -0.5715  -0.5689  -0.5669  -0.5665  -0.5571  -0.4992
    -0.4987  -0.4972  -0.4950  -0.4529  -0.4485  -0.4476  -0.4470  -0.4293
    -0.4280  -0.4275  -0.4267  -0.4247  -0.4017  -0.3998  -0.3964  -0.3893
    -0.3883  -0.3880  -0.3864  -0.3656  -0.3491  -0.3488  -0.3471  -0.2751
    -0.2748  -0.2708  -0.2703  -0.2622  -0.2565  -0.2563  -0.2557  -0.2552
    -0.2398  -0.2393  -0.2389  -0.2287  -0.1578  -0.1568  -0.1562  -0.1541
    -0.1536  -0.1525  -0.1509  -0.1499  -0.1494  -0.1490  -0.1474  -0.1399
    -0.1114  -0.1113  -0.1111  -0.1105  -0.0997  -0.0991  -0.0990  -0.0989
    -0.0947  -0.0944  -0.0936  -0.0925  -0.0263  -0.0260  -0.0252  -0.0234
    -0.0032  -0.0012   0.0030   0.0042   0.0454   0.0461   0.0545   0.0549
     0.0588   0.0685   0.0801   0.0802   0.0807   0.0821   0.0841   0.0856
     0.0876   0.0900   0.0903   0.0924   0.0942   0.0946   0.1005   0.1009
     0.1021   0.1022   0.1069   0.1071   0.1090   0.1100   0.1113   0.1240
     0.1242   0.1243   0.1265   0.1516   0.1517   0.1524   0.1525   0.1598
     0.1618   0.1626   0.1647   0.1834   0.2115   0.2118   0.2120   0.2131
     0.2406   0.2444   0.2453   0.2459   0.2608   0.3056   0.3161   0.3174
     0.3238   0.3254   0.3284   0.3295   0.3354   0.3388   0.3422   0.3448
     0.3459   0.3480   0.3511   0.3574   0.3580   0.3600   0.3666   0.3672
     0.3686   0.3692   0.3712   0.3724   0.3765   0.3801   0.3828   0.3837
     0.3963   0.4013   0.4478   0.4493   0.4512   0.4540   0.4576   0.4578
     0.4580   0.4626   0.4702   0.4704   0.4711   0.4718   0.4982   0.5020
     0.5086   0.5091   0.5101   0.5109   0.5177   0.5185   0.5253   0.5503
     0.5524   0.5535   0.5550   0.5564   0.5623   0.5677   0.5681   0.5697
     0.5701   0.5708   0.5756   0.5758   0.5766   0.5800   0.5883   0.5902
     0.5932   0.5935   0.5952   0.6051   0.6092   0.6099   0.6357   0.6651
     0.6720   0.6751   0.6784   0.6812   0.6822   0.6839   0.6842   0.6861
     0.6865   0.6923   0.6939   0.6968   0.7046   0.7121   0.7285   0.7298
     0.7302   0.7309   0.7312   0.7325   0.7327   0.7356   0.7512   0.7667
     0.7811   0.7848   0.7853   0.7992   0.8118   0.8121   0.8139   0.8150
     0.8318   0.8365   0.8475   0.8481   0.8494   0.8515   0.8730   0.8737
     0.8747   0.8755   0.8921   0.9250   0.9261   0.9269   0.9274   0.9560
     0.9587   0.9595   0.9598   0.9677   1.0057   1.0101   1.0122   1.0152
     1.0187   1.0285   1.0294   1.0332   1.0382   1.0401   1.0404   1.0413
     1.0451   1.0452   1.0455   1.0459   1.0483   1.0486   1.0510   1.0514
     1.0578   1.0721   1.0770   1.0786   1.0801   1.0806   1.0823   1.0825
     1.0828   1.0851   1.0897   1.0966   1.0985   1.1001   1.1125   1.1164
     1.1245   1.1251   1.1258   1.1272   1.1331   1.1362   1.1387   1.1426
     1.1442   1.1451   1.1502   1.1797   1.1924   1.1932   1.1955   1.1964
     1.1981   1.2001   1.2037   1.2195   1.2222   1.2229   1.2237   1.2253
     1.2381   1.2402   1.2418   1.2444   1.2507   1.2606   1.2609   1.2695
     1.2709   1.2715   1.2721   1.2797   1.2799   1.2812   1.2819   1.2861
     1.2874   1.2878   1.2888   1.3356   1.3517   1.3535   1.3537   1.3540
     1.3547   1.3549   1.3554   1.3557   1.3577   1.3646   1.3659   1.3696
     1.3733   1.3741   1.3751   1.3767   1.3809   1.3846   1.3849   1.3851
     1.3881   1.3917   1.3930   1.3953   1.3958   1.3959   1.3965   1.3995
     1.4047   1.4083   1.4118   1.4160   1.4164   1.4172   1.4179   1.4491
     1.4499   1.4500   1.4503   1.4630   1.4649   1.4653   1.4661   1.4687
     1.4789   1.4797   1.4844   1.4952   1.5006   1.5024   1.5028   1.5281
     1.5502   1.5572   1.5592   1.5731   1.5738   1.5740   1.5746   1.6007
     1.6034   1.6039   1.6070   1.6118   1.6129   1.6146   1.6159   1.6169
     1.6173   1.6180   1.6182   1.8309   1.8351   1.8370   1.8382   2.1720
     2.3413   2.3543   2.3559   2.3593   2.5599   2.5605   2.5614   2.5751
     2.7946   2.8007   2.8014   2.8080   3.0910   3.1005   3.1028   3.1061
     3.4508   3.4530   3.4541   3.4551   3.6394   3.6437   3.6459   3.6488
     3.9232   3.9291   3.9294   3.9301   4.1623   4.2258   4.2283   4.2297
     4.2601   4.3439   4.3568   4.3590   4.3806   4.5620   4.5665   4.5717
     4.5725   4.5936   4.5981   4.6167   4.7296   4.8761   4.8982   4.9104
     4.9934   5.0464   5.0831   5.1637   5.1730   5.1746   5.1836   5.2155
     5.2569   5.3005   5.3410   5.3507   5.3602   5.3670   5.3729   5.4398
     5.5780   5.7442   5.7468   5.7499   5.7503   5.7550   5.7595   5.8559
     5.9003   5.9170   5.9193   6.4945   6.7641   6.7663   6.8043   6.8080
     7.1115   7.1213   7.1359   7.1421   7.1546   7.1604   7.1626   7.1878
     7.2706   7.3019   7.3035   7.3070   7.3670   7.3697   7.3717   7.3740
     7.5846   7.6326   7.6345   7.6461   7.7926   7.8313   7.9324   7.9842
     7.9930   8.0036   8.0144   8.0417   8.2270   8.2381   8.2455   8.2524
     8.3977   8.4205   8.4679   8.7679   8.8893   8.8939   8.9008   8.9025
     8.9104   8.9256   8.9339   8.9351   8.9677   8.9705   8.9737   8.9821
     9.0924   9.1428   9.1439   9.1469   9.1942   9.3290   9.4401   9.4978
     9.5341   9.5388   9.5652   9.5777   9.5810   9.5930   9.6001   9.6043
     9.9203   9.9925  10.0056  10.0099

     the Fermi energy is     3.3224 ev

!    total energy              =  -12740.14091152 Ry
     Harris-Foulkes estimate   =  -12740.14091155 Ry
     estimated scf accuracy    <          2.3E-09 Ry

     The total energy is the sum of the following terms:

     one-electron contribution = -108949.82538107 Ry
     hartree contribution      =   55840.14695991 Ry
     xc contribution           =   -4455.50005891 Ry
     ewald contribution        =   44831.39299768 Ry
     Dispersion Correction     =      -3.00587863 Ry
     smearing contrib. (-TS)   =      -3.34955052 Ry

     convergence has been achieved in  46 iterations

     Writing output data file gc.save
 
     init_run     :     98.05s CPU    105.30s WALL (       1 calls)
     electrons    :  12299.85s CPU  13146.03s WALL (       1 calls)

     Called by init_run:
     wfcinit      :     95.50s CPU    102.30s WALL (       1 calls)
     potinit      :      0.53s CPU      0.53s WALL (       1 calls)

     Called by electrons:
     c_bands      :  11259.34s CPU  12000.17s WALL (      46 calls)
     sum_band     :    849.94s CPU    925.65s WALL (      46 calls)
     v_of_rho     :      2.99s CPU      3.73s WALL (      47 calls)
     newd         :      9.27s CPU     15.70s WALL (      47 calls)
     mix_rho      :    178.15s CPU    200.41s WALL (      46 calls)

     Called by c_bands:
     init_us_2    :     38.80s CPU     39.39s WALL (     558 calls)
     cegterg      :  11087.65s CPU  11822.45s WALL (     281 calls)

     Called by sum_band:
     sum_band:bec :      4.82s CPU      5.54s WALL (     276 calls)
     addusdens    :      9.17s CPU     15.35s WALL (      46 calls)

     Called by *egterg:
     h_psi        :   4109.12s CPU   4439.07s WALL (    1846 calls)
     s_psi        :    979.63s CPU    991.05s WALL (    1846 calls)
     g_psi        :     10.46s CPU     10.47s WALL (    1559 calls)
     cdiaghg      :   3163.54s CPU   3283.63s WALL (    1835 calls)

     Called by h_psi:
     add_vuspsi   :    983.35s CPU    996.58s WALL (    1846 calls)

     General routines
     calbec       :   1428.15s CPU   1439.17s WALL (    2122 calls)
     fft          :      3.90s CPU      4.45s WALL (     610 calls)
     ffts         :    103.56s CPU    116.66s WALL (   27033 calls)
     fftw         :   2378.13s CPU   2643.78s WALL ( 1325166 calls)
     davcio       :      0.47s CPU      6.10s WALL (       6 calls)
 
     Parallel routines
     fft_scatter  :   1547.47s CPU   1691.33s WALL ( 1352809 calls)
 
     PWSCF        :     3h26m CPU        3h41m WALL

 
   This run was terminated on:  12:29:21   1May2017            

=------------------------------------------------------------------------------=
   JOB DONE.
=------------------------------------------------------------------------------=
