
     Program PWSCF v.5.4.0 starts on  1May2017 at  9: 4:21 

     This program is part of the open-source Quantum ESPRESSO suite
     for quantum simulation of materials; please cite
         "P. Giannozzi et al., J. Phys.:Condens. Matter 21 395502 (2009);
          URL http://www.quantum-espresso.org", 
     in publications or presentations arising from this work. More details at
     http://www.quantum-espresso.org/quote

     Parallel version (MPI & OpenMP), running on      56 processor cores
     Number of MPI processes:                56
     Threads/MPI process:                     1
     R & G space division:  proc/nbgrp/npool/nimage =      56
     Waiting for input...
     Reading input from standard input
Warning: card &IONS ignored
Warning: card / ignored

     Current dimensions of program PWSCF are:
     Max number of different atomic species (ntypx) = 10
     Max number of k-points (npk) =  40000
     Max angular momentum in pseudopotentials (lmaxx) =  3

     -------------------------------------
     Parameters for Dispersion Correction:
     -------------------------------------
       atom      VdW radius       C_6     

        Cu         2.952        374.666
        C_h        2.744         60.710
        C          2.744         60.710
        H          1.892          4.857

     Subspace diagonalization in iterative solution of the eigenvalue problem:
     one sub-group per band group will be used
     scalapack distributed-memory algorithm (size of sub-group:  5*  5 procs)

 
     Parallelization info
     --------------------
     sticks:   dense  smooth     PW     G-vecs:    dense   smooth      PW
     Min         204     204     54                36612    36612    4962
     Max         205     205     55                36617    36617    4968
     Sum       11433   11433   3039              2050409  2050409  278033
 


     bravais-lattice index     =            0
     lattice parameter (alat)  =      13.9425  a.u.
     unit-cell volume          =   21209.0878 (a.u.)^3
     number of atoms/cell      =          153
     number of atomic types    =            4
     number of electrons       =      1300.00
     number of Kohn-Sham states=          780
     kinetic-energy cutoff     =      80.0000  Ry
     charge density cutoff     =     320.0000  Ry
     convergence threshold     =      1.0E-08
     mixing beta               =       0.7000
     number of iterations used =            8  local-TF  mixing
     Exchange-correlation      =  SLA  PW   PBE  PBE ( 1  4  3  4 0 0)

     celldm(1)=  13.942539  celldm(2)=   0.000000  celldm(3)=   0.000000
     celldm(4)=   0.000000  celldm(5)=   0.000000  celldm(6)=   0.000000

     crystal axes: (cart. coord. in units of alat)
               a(1) = (   1.000000   0.000000   0.000000 )  
               a(2) = (   0.000000   2.309401   0.000000 )  
               a(3) = (   0.000000   0.000000   3.388418 )  

     reciprocal axes: (cart. coord. in units 2 pi/alat)
               b(1) = (  1.000000  0.000000  0.000000 )  
               b(2) = (  0.000000  0.433013  0.000000 )  
               b(3) = (  0.000000  0.000000  0.295123 )  


     PseudoPot. # 1 for Cu read from file:
     /home/549/hxw549/Short/pseudopotentials/Cu.pbe-n-van_ak.UPF
     MD5 check sum: 601f7c30f7467666bec936e0661ce3e1
     Pseudo is Ultrasoft + core correction, Zval = 11.0
     Generated by new atomic code, or converted to UPF format
     Using radial grid of  867 points,  6 beta functions with: 
                l(1) =   0
                l(2) =   0
                l(3) =   1
                l(4) =   1
                l(5) =   2
                l(6) =   2
     Q(r) pseudized with  8 coefficients,  rinner =    1.400   1.400   1.400
                                                       1.400   1.400

     PseudoPot. # 2 for C  read from file:
     /home/549/hxw549/Short/pseudopotentials/C.star1s-pbe-mt_gipaw.UPF
     MD5 check sum: ef0cb3dee31bd9e4ba2a832a2c716264
     Pseudo is Norm-conserving, Zval =  5.0
     Generated by new atomic code, or converted to UPF format
     Using radial grid of 1073 points,  1 beta functions with: 
                l(1) =   0

     PseudoPot. # 3 for C  read from file:
     /home/549/hxw549/Short/pseudopotentials/C.pbe-mt_gipaw.UPF
     MD5 check sum: 5ac2f21f2c440b14befe521540822c15
     Pseudo is Norm-conserving, Zval =  4.0
     Generated by new atomic code, or converted to UPF format
     Using radial grid of 1073 points,  1 beta functions with: 
                l(1) =   0

     PseudoPot. # 4 for H  read from file:
     /home/549/hxw549/Short/pseudopotentials/H.pbe-van_ak.UPF
     MD5 check sum: 077eb6d537518a38cb46c6de387227b7
     Pseudo is Ultrasoft, Zval =  1.0
     Generated by new atomic code, or converted to UPF format
     Using radial grid of  615 points,  1 beta functions with: 
                l(1) =   0
     Q(r) pseudized with  8 coefficients,  rinner =    0.800

     atomic species   valence    mass     pseudopotential
        Cu            11.00    63.54600     Cu( 1.00)
        C_h            5.00    12.01070     C ( 1.00)
        C              4.00    12.01070     C ( 1.00)
        H              1.00     1.00783     H ( 1.00)

     No symmetry found



   Cartesian axes

     site n.     atom                  positions (alat units)
         1           Cu  tau(   1) = (   0.0005942  -0.0038463   0.9930871  )
         2           Cu  tau(   2) = (   0.2511630   0.2244508   0.9942371  )
         3           Cu  tau(   3) = (   0.5007811  -0.0044706   0.9933156  )
         4           Cu  tau(   4) = (   0.7505207   0.2245418   0.9940835  )
         5           Cu  tau(   5) = (   0.0008481   0.4562049   0.9956409  )
         6           Cu  tau(   6) = (   0.2506786   0.6900795   0.9976618  )
         7           Cu  tau(   7) = (   0.5008632   0.4564016   0.9956302  )
         8           Cu  tau(   8) = (   0.7509606   0.6899328   0.9972468  )
         9           Cu  tau(   9) = (   0.0010626   0.9239011   0.9978053  )
        10           Cu  tau(  10) = (   0.2506086   1.1579934   0.9970288  )
        11           Cu  tau(  11) = (   0.5007037   0.9239065   0.9982690  )
        12           Cu  tau(  12) = (   0.7509822   1.1580641   0.9967192  )
        13           Cu  tau(  13) = (   0.0007618   1.3923352   0.9946266  )
        14           Cu  tau(  14) = (   0.2511320   1.6244682   0.9931181  )
        15           Cu  tau(  15) = (   0.5008944   1.3922557   0.9946286  )
        16           Cu  tau(  16) = (   0.7504689   1.6245618   0.9928784  )
        17           Cu  tau(  17) = (   0.0006403   1.8529676   0.9923519  )
        18           Cu  tau(  18) = (   0.2502663   2.0793525   0.9921530  )
        19           Cu  tau(  19) = (   0.5006837   1.8534625   0.9923857  )
        20           Cu  tau(  20) = (   0.7509333   2.0791621   0.9926036  )
        21           Cu  tau(  21) = (   0.0008436   0.2226903   1.2439799  )
        22           Cu  tau(  22) = (   0.2508004  -0.0053476   1.2453895  )
        23           Cu  tau(  23) = (   0.5008992   0.2231066   1.2437588  )
        24           Cu  tau(  24) = (   0.7506478  -0.0047299   1.2459640  )
        25           Cu  tau(  25) = (   0.0008489   0.6881471   1.2427947  )
        26           Cu  tau(  26) = (   0.2509174   0.4537933   1.2424126  )
        27           Cu  tau(  27) = (   0.5014493   0.6879078   1.2426873  )
        28           Cu  tau(  28) = (   0.7510800   0.4540268   1.2428095  )
        29           Cu  tau(  29) = (   0.0008866   1.1607300   1.2418123  )
        30           Cu  tau(  30) = (   0.2504606   0.9243917   1.2433168  )
        31           Cu  tau(  31) = (   0.5012960   1.1608479   1.2417939  )
        32           Cu  tau(  32) = (   0.7514211   0.9242728   1.2422531  )
        33           Cu  tau(  33) = (   0.0008238   1.6260289   1.2427661  )
        34           Cu  tau(  34) = (   0.2508668   1.3949963   1.2411065  )
        35           Cu  tau(  35) = (   0.5008273   1.6259522   1.2425316  )
        36           Cu  tau(  36) = (   0.7510233   1.3949321   1.2413170  )
        37           Cu  tau(  37) = (   0.0002797   2.0789654   1.2472520  )
        38           Cu  tau(  38) = (   0.2506780   1.8539880   1.2445803  )
        39           Cu  tau(  39) = (   0.5009511   2.0786742   1.2465668  )
        40           Cu  tau(  40) = (   0.7506849   1.8531565   1.2454973  )
        41           Cu  tau(  41) = (   0.0004902  -0.0048640   1.5012899  )
        42           Cu  tau(  42) = (   0.2509479   0.2213919   1.4948764  )
        43           Cu  tau(  43) = (   0.5008633  -0.0055096   1.4998236  )
        44           Cu  tau(  44) = (   0.7507049   0.2224039   1.4962002  )
        45           Cu  tau(  45) = (   0.0008858   0.4521035   1.4909719  )
        46           Cu  tau(  46) = (   0.2508978   0.6868072   1.4865842  )
        47           Cu  tau(  47) = (   0.5015522   0.4518694   1.4903810  )
        48           Cu  tau(  48) = (   0.7514726   0.6871259   1.4876615  )
        49           Cu  tau(  49) = (   0.0002500   0.9250368   1.4863019  )
        50           Cu  tau(  50) = (   0.2505897   1.1628075   1.4859838  )
        51           Cu  tau(  51) = (   0.5009744   0.9248361   1.4856989  )
        52           Cu  tau(  52) = (   0.7515423   1.1627813   1.4863707  )
        53           Cu  tau(  53) = (   0.0008363   1.3971227   1.4898823  )
        54           Cu  tau(  54) = (   0.2508389   1.6273910   1.4937434  )
        55           Cu  tau(  55) = (   0.5014752   1.3979066   1.4886943  )
        56           Cu  tau(  56) = (   0.7508714   1.6259248   1.4956944  )
        57           Cu  tau(  57) = (   0.0004376   1.8527965   1.5010687  )
        58           Cu  tau(  58) = (   0.2504027   2.0785939   1.5029371  )
        59           Cu  tau(  59) = (   0.5009858   1.8533152   1.5000881  )
        60           Cu  tau(  60) = (   0.7509970   2.0786638   1.5031194  )
        61           Cu  tau(  61) = (   0.0005135   0.2248349   1.7497996  )
        62           Cu  tau(  62) = (   0.2501688  -0.0032339   1.7566496  )
        63           Cu  tau(  63) = (   0.5014742   0.2227743   1.7482991  )
        64           Cu  tau(  64) = (   0.7513585  -0.0030754   1.7572858  )
        65           Cu  tau(  65) = (   0.0000215   0.6870712   1.7299070  )
        66           Cu  tau(  66) = (   0.2511009   0.4509547   1.7369529  )
        67           Cu  tau(  67) = (   0.5011158   0.6873251   1.7301161  )
        68           Cu  tau(  68) = (   0.7509595   0.4537932   1.7402830  )
        69           Cu  tau(  69) = (  -0.0003510   1.1635795   1.7301589  )
        70           Cu  tau(  70) = (   0.2492962   0.9254838   1.7262694  )
        71           Cu  tau(  71) = (   0.5010931   1.1645368   1.7281440  )
        72           Cu  tau(  72) = (   0.7500918   0.9261363   1.7284522  )
        73           Cu  tau(  73) = (   0.0004784   1.6236149   1.7503063  )
        74           Cu  tau(  74) = (   0.2505399   1.3989206   1.7362958  )
        75           Cu  tau(  75) = (   0.5017544   1.6243122   1.7491481  )
        76           Cu  tau(  76) = (   0.7514313   1.3951350   1.7410358  )
        77           Cu  tau(  77) = (   0.0004742   2.0783503   1.7607120  )
        78           Cu  tau(  78) = (   0.2504192   1.8508274   1.7564756  )
        79           Cu  tau(  79) = (   0.5010106   2.0787662   1.7584609  )
        80           Cu  tau(  80) = (   0.7513912   1.8507985   1.7573143  )
        81           Cu  tau(  81) = (   0.0008813   0.0026029   2.0105797  )
        82           Cu  tau(  82) = (   0.2519774   0.2322381   2.0016112  )
        83           Cu  tau(  83) = (   0.5009841  -0.0002499   2.0097966  )
        84           Cu  tau(  84) = (   0.7498649   0.2319461   2.0026418  )
        85           Cu  tau(  85) = (  -0.0012443   0.4602900   1.9907264  )
        86           Cu  tau(  86) = (   0.2447511   0.6860828   1.9647703  )
        87           Cu  tau(  87) = (   0.5020074   0.4610094   1.9864182  )
        88           Cu  tau(  88) = (   0.7551572   0.6927395   1.9742647  )
        89           Cu  tau(  89) = (   0.0001840   0.9258909   1.9694068  )
        90           Cu  tau(  90) = (   0.2448855   1.1650488   1.9657380  )
        91           Cu  tau(  91) = (   0.5029455   0.9323233   1.9496787  )
        92           Cu  tau(  92) = (   0.7546301   1.1577145   1.9787635  )
        93           Cu  tau(  93) = (  -0.0008328   1.3888834   1.9925616  )
        94           Cu  tau(  94) = (   0.2520653   1.6166694   2.0024762  )
        95           Cu  tau(  95) = (   0.5010134   1.3858075   1.9896408  )
        96           Cu  tau(  96) = (   0.7496504   1.6159218   2.0035855  )
        97           Cu  tau(  97) = (   0.0005533   1.8454381   2.0118807  )
        98           Cu  tau(  98) = (   0.2497981   2.0783156   2.0123703  )
        99           Cu  tau(  99) = (   0.5015435   1.8482404   2.0091037  )
       100           Cu  tau( 100) = (   0.7518512   2.0787787   2.0132458  )
       101           C   tau( 101) = (  -0.0003126   0.1006325   2.4740383  )
       102           C   tau( 102) = (  -0.0003775   0.2920325   2.5081418  )
       103           C   tau( 103) = (   0.1663980   0.0036286   2.4620667  )
       104           C   tau( 104) = (   0.1663498   0.3875619   2.5287554  )
       105           C   tau( 105) = (   0.3329568   0.1006649   2.4741495  )
       106           C   tau( 106) = (   0.3329888   0.2921582   2.5077789  )
       107           C   tau( 107) = (   0.4997204   0.0036301   2.4626464  )
       108           C   tau( 108) = (   0.4994819   0.3878807   2.5283181  )
       109           C   tau( 109) = (   0.6664286   0.1006943   2.4742667  )
       110           C   tau( 110) = (   0.6662607   0.2923989   2.5068094  )
       111           C   tau( 111) = (   0.8330134   0.0037573   2.4607979  )
       112           C   tau( 112) = (   0.8329291   0.3878381   2.5270081  )
       113           C   tau( 113) = (  -0.0004818   0.6734409   2.5851986  )
       114           C   tau( 114) = (  -0.0002469   0.8665147   2.6029464  )
       115           C   tau( 115) = (   0.1665021   0.5772827   2.5711435  )
       116           C   tau( 116) = (   0.1664542   0.9638089   2.6091331  )
       117           C   tau( 117) = (   0.3326642   0.6726237   2.5966217  )
       118           C   tau( 118) = (   0.3324550   0.8658708   2.6237839  )
       119           C   tau( 119) = (   0.4993534   0.5773360   2.5728227  )
       120           C   tau( 120) = (   0.4998971   0.9649202   2.6219659  )
       121           C   tau( 121) = (   0.6661760   0.6737708   2.5875107  )
       122           C   tau( 122) = (   0.6665804   0.8667296   2.6107608  )
       123           C   tau( 123) = (   0.8328401   0.5779267   2.5667895  )
       124           C   tau( 124) = (   0.8330747   0.9640677   2.6024886  )
       125           C   tau( 125) = (  -0.0000737   1.2522501   2.5628112  )
       126           C   tau( 126) = (  -0.0001253   1.4422912   2.5224834  )
       127           C   tau( 127) = (   0.1666321   1.1566227   2.5840568  )
       128           C   tau( 128) = (   0.1665763   1.5380253   2.5039308  )
       129           C   tau( 129) = (   0.3332648   1.2530529   2.5690923  )
       130           C   tau( 130) = (   0.3332880   1.4426743   2.5261218  )
       131           C   tau( 131) = (   0.4999030   1.1576825   2.5919202  )
       132           C   tau( 132) = (   0.4998036   1.5383355   2.5061839  )
       133           C   tau( 133) = (   0.6663241   1.2529384   2.5671493  )
       134           C   tau( 134) = (   0.6664542   1.4427271   2.5254651  )
       135           C   tau( 135) = (   0.8332378   1.1569421   2.5820745  )
       136           C   tau( 136) = (   0.8331711   1.5381531   2.5038020  )
       137           C   tau( 137) = (  -0.0001042   1.8267606   2.4581975  )
       138           C   tau( 138) = (  -0.0001516   2.0211056   2.4468364  )
       139           C   tau( 139) = (   0.1666301   1.7298093   2.4723584  )
       140           C   tau( 140) = (   0.1664718   2.1188427   2.4491755  )
       141           C   tau( 141) = (   0.3331974   1.8269638   2.4626428  )
       142           C   tau( 142) = (   0.3331985   2.0211166   2.4504279  )
       143           C   tau( 143) = (   0.4998554   1.7299413   2.4736692  )
       144           C   tau( 144) = (   0.4997837   2.1189131   2.4508552  )
       145           C   tau( 145) = (   0.6664794   1.8269319   2.4609715  )
       146           C   tau( 146) = (   0.6664253   2.0211530   2.4491533  )
       147           C   tau( 147) = (   0.8330798   1.7297223   2.4708304  )
       148           C   tau( 148) = (   0.8330937   2.1189094   2.4468884  )
       149           H   tau( 149) = (   0.4446619   0.9035800   2.3768416  )
       150           C_h tau( 150) = (   0.3968788   0.8859315   2.2396702  )
       151           H   tau( 151) = (   0.5360793   0.8733752   2.1781091  )
       152           H   tau( 152) = (   0.3176552   0.7592170   2.2348797  )
       153           H   tau( 153) = (   0.3152415   1.0076446   2.2117415  )

     number of k points=     6  gaussian smearing, width (Ry)=  0.1000
                       cart. coord. in units 2pi/alat
        k(    1) = (   0.0000000   0.0000000   0.0000000), wk =   0.2500000
        k(    2) = (   0.0000000  -0.2165064   0.0000000), wk =   0.2500000
        k(    3) = (   0.2500000   0.0000000   0.0000000), wk =   0.5000000
        k(    4) = (   0.2500000  -0.2165064   0.0000000), wk =   0.5000000
        k(    5) = (  -0.5000000   0.0000000   0.0000000), wk =   0.2500000
        k(    6) = (  -0.5000000  -0.2165064   0.0000000), wk =   0.2500000

     Dense  grid:  2050409 G-vectors     FFT dimensions: (  80, 192, 270)

     Largest allocated arrays     est. size (Mb)     dimensions
        Kohn-Sham Wavefunctions        54.80 Mb     (    4604,  780)
        NL pseudopotentials           130.18 Mb     (    4604, 1853)
        Each V/rho on FFT grid          1.17 Mb     (   76800)
        Each G-vector array             0.28 Mb     (   36616)
        G-vector shells                 0.14 Mb     (   17932)
     Largest temporary arrays     est. size (Mb)     dimensions
        Auxiliary wavefunctions       219.18 Mb     (    4604, 3120)
        Each subspace H/S matrix        5.94 Mb     (     624,  624)
        Each <psi_i|beta_j> matrix     22.05 Mb     (    1853,  780)
        Arrays for rho mixing           9.38 Mb     (   76800,    8)

     Initial potential from superposition of free atoms
     Check: negative starting charge=   -0.001555

     starting charge 1274.31748, renormalised to 1300.00000

     negative rho (up, down):  1.587E-03 0.000E+00
     Starting wfc are 1296 randomized atomic wfcs

     total cpu time spent up to now is      107.7 secs

     Self-consistent Calculation

     iteration #  1     ecut=    80.00 Ry     beta=0.70
     Davidson diagonalization with overlap
     c_bands:  2 eigenvalues not converged
     ethr =  1.00E-04,  avg # of iterations = 49.0

     negative rho (up, down):  2.326E+01 0.000E+00

     total cpu time spent up to now is     2525.5 secs

     total energy              =  -10139.41564412 Ry
     Harris-Foulkes estimate   =  -18191.34896750 Ry
     estimated scf accuracy    <  210741.67837642 Ry

     iteration #  2     ecut=    80.00 Ry     beta=0.70
     Davidson diagonalization with overlap
     ethr =  1.00E-02,  avg # of iterations = 13.5

     negative rho (up, down):  3.118E+01 0.000E+00

     total cpu time spent up to now is     3515.4 secs

     total energy              =  -11822.50460780 Ry
     Harris-Foulkes estimate   =  -13777.03081657 Ry
     estimated scf accuracy    <   36249.02708209 Ry

     iteration #  3     ecut=    80.00 Ry     beta=0.70
     Davidson diagonalization with overlap
     ethr =  1.00E-02,  avg # of iterations = 25.2

     negative rho (up, down):  2.901E+01 0.000E+00

     total cpu time spent up to now is     4663.6 secs

     total energy              =  -12008.30035619 Ry
     Harris-Foulkes estimate   =  -13713.67983829 Ry
     estimated scf accuracy    <    6641.34670367 Ry

     iteration #  4     ecut=    80.00 Ry     beta=0.70
     Davidson diagonalization with overlap
     ethr =  1.00E-02,  avg # of iterations =  4.3

     negative rho (up, down):  2.074E+01 0.000E+00

     total cpu time spent up to now is     5151.3 secs

     total energy              =  -12810.13473310 Ry
     Harris-Foulkes estimate   =  -13038.55357357 Ry
     estimated scf accuracy    <    1568.64718799 Ry

     iteration #  5     ecut=    80.00 Ry     beta=0.70
     Davidson diagonalization with overlap
     ethr =  1.00E-02,  avg # of iterations =  3.2

     negative rho (up, down):  1.817E+01 0.000E+00

     total cpu time spent up to now is     5412.8 secs

     total energy              =  -12830.16991746 Ry
     Harris-Foulkes estimate   =  -12925.50008816 Ry
     estimated scf accuracy    <    2582.14588067 Ry

     iteration #  6     ecut=    80.00 Ry     beta=0.70
     Davidson diagonalization with overlap
     ethr =  1.00E-02,  avg # of iterations =  2.8

     negative rho (up, down):  1.281E+01 0.000E+00

     total cpu time spent up to now is     5618.4 secs

     total energy              =  -12817.99100799 Ry
     Harris-Foulkes estimate   =  -12876.92484517 Ry
     estimated scf accuracy    <     533.12572749 Ry

     iteration #  7     ecut=    80.00 Ry     beta=0.70
     Davidson diagonalization with overlap
     ethr =  1.00E-02,  avg # of iterations =  2.2

     negative rho (up, down):  7.401E+00 0.000E+00

     total cpu time spent up to now is     5802.2 secs

     total energy              =  -12793.65882664 Ry
     Harris-Foulkes estimate   =  -12836.64087988 Ry
     estimated scf accuracy    <     341.27832207 Ry

     iteration #  8     ecut=    80.00 Ry     beta=0.70
     Davidson diagonalization with overlap
     ethr =  1.00E-02,  avg # of iterations =  1.0

     negative rho (up, down):  5.866E+00 0.000E+00

     total cpu time spent up to now is     5970.3 secs

     total energy              =  -12786.59963066 Ry
     Harris-Foulkes estimate   =  -12801.18231922 Ry
     estimated scf accuracy    <     329.41856866 Ry

     iteration #  9     ecut=    80.00 Ry     beta=0.70
     Davidson diagonalization with overlap
     ethr =  1.00E-02,  avg # of iterations =  1.0

     negative rho (up, down):  5.218E+00 0.000E+00

     total cpu time spent up to now is     6138.6 secs

     total energy              =  -12781.82606544 Ry
     Harris-Foulkes estimate   =  -12791.31711933 Ry
     estimated scf accuracy    <     411.41567653 Ry

     iteration # 10     ecut=    80.00 Ry     beta=0.70
     Davidson diagonalization with overlap
     ethr =  1.00E-02,  avg # of iterations =  1.0

     negative rho (up, down):  3.056E+00 0.000E+00

     total cpu time spent up to now is     6307.4 secs

     total energy              =  -12765.02497486 Ry
     Harris-Foulkes estimate   =  -12784.60074993 Ry
     estimated scf accuracy    <     204.58275710 Ry

     iteration # 11     ecut=    80.00 Ry     beta=0.70
     Davidson diagonalization with overlap
     ethr =  1.00E-02,  avg # of iterations =  1.2

     negative rho (up, down):  4.086E-01 0.000E+00

     total cpu time spent up to now is     6477.1 secs

     total energy              =  -12745.47554977 Ry
     Harris-Foulkes estimate   =  -12770.50262576 Ry
     estimated scf accuracy    <     143.10993438 Ry

     iteration # 12     ecut=    80.00 Ry     beta=0.70
     Davidson diagonalization with overlap
     ethr =  1.00E-02,  avg # of iterations =  1.3

     negative rho (up, down):  1.608E+00 0.000E+00

     total cpu time spent up to now is     6650.3 secs

     total energy              =  -12736.13765886 Ry
     Harris-Foulkes estimate   =  -12751.98214519 Ry
     estimated scf accuracy    <     115.59181636 Ry

     iteration # 13     ecut=    80.00 Ry     beta=0.70
     Davidson diagonalization with overlap
     ethr =  8.89E-03,  avg # of iterations =  2.0

     negative rho (up, down):  2.204E+00 0.000E+00

     total cpu time spent up to now is     6830.5 secs

     total energy              =  -12735.40221628 Ry
     Harris-Foulkes estimate   =  -12741.97720974 Ry
     estimated scf accuracy    <      65.56411896 Ry

     iteration # 14     ecut=    80.00 Ry     beta=0.70
     Davidson diagonalization with overlap
     ethr =  5.04E-03,  avg # of iterations =  1.5

     negative rho (up, down):  1.096E+00 0.000E+00

     total cpu time spent up to now is     7004.3 secs

     total energy              =  -12733.28544688 Ry
     Harris-Foulkes estimate   =  -12737.26195853 Ry
     estimated scf accuracy    <      38.96793497 Ry

     iteration # 15     ecut=    80.00 Ry     beta=0.70
     Davidson diagonalization with overlap
     ethr =  3.00E-03,  avg # of iterations =  2.0

     negative rho (up, down):  2.834E+00 0.000E+00

     total cpu time spent up to now is     7183.3 secs

     total energy              =  -12728.92450338 Ry
     Harris-Foulkes estimate   =  -12734.44485985 Ry
     estimated scf accuracy    <      24.25978711 Ry

     iteration # 16     ecut=    80.00 Ry     beta=0.70
     Davidson diagonalization with overlap
     ethr =  1.87E-03,  avg # of iterations =  3.3

     negative rho (up, down):  4.063E+00 0.000E+00

     total cpu time spent up to now is     7380.2 secs

     total energy              =  -12728.53356059 Ry
     Harris-Foulkes estimate   =  -12730.10023963 Ry
     estimated scf accuracy    <      17.37972629 Ry

     iteration # 17     ecut=    80.00 Ry     beta=0.70
     Davidson diagonalization with overlap
     ethr =  1.34E-03,  avg # of iterations =  4.5

     negative rho (up, down):  4.371E+00 0.000E+00

     total cpu time spent up to now is     7589.0 secs

     total energy              =  -12728.33581334 Ry
     Harris-Foulkes estimate   =  -12729.07714827 Ry
     estimated scf accuracy    <      10.37886724 Ry

     iteration # 18     ecut=    80.00 Ry     beta=0.70
     Davidson diagonalization with overlap
     ethr =  7.98E-04,  avg # of iterations =  7.5

     negative rho (up, down):  2.440E+00 0.000E+00

     total cpu time spent up to now is     7836.0 secs

     total energy              =  -12727.08294514 Ry
     Harris-Foulkes estimate   =  -12728.57329882 Ry
     estimated scf accuracy    <       8.00545002 Ry

     iteration # 19     ecut=    80.00 Ry     beta=0.70
     Davidson diagonalization with overlap
     ethr =  6.16E-04,  avg # of iterations =  2.7

     negative rho (up, down):  2.579E+00 0.000E+00

     total cpu time spent up to now is     8024.1 secs

     total energy              =  -12726.44836963 Ry
     Harris-Foulkes estimate   =  -12727.28904096 Ry
     estimated scf accuracy    <       6.05931929 Ry

     iteration # 20     ecut=    80.00 Ry     beta=0.70
     Davidson diagonalization with overlap
     ethr =  4.66E-04,  avg # of iterations =  5.8

     negative rho (up, down):  1.366E+00 0.000E+00

     total cpu time spent up to now is     8252.7 secs

     total energy              =  -12724.85879323 Ry
     Harris-Foulkes estimate   =  -12726.59544145 Ry
     estimated scf accuracy    <       5.72862297 Ry

     iteration # 21     ecut=    80.00 Ry     beta=0.70
     Davidson diagonalization with overlap
     ethr =  4.41E-04,  avg # of iterations =  2.0

     negative rho (up, down):  1.550E+00 0.000E+00

     total cpu time spent up to now is     8433.0 secs

     total energy              =  -12725.24396356 Ry
     Harris-Foulkes estimate   =  -12725.09768366 Ry
     estimated scf accuracy    <       9.95285567 Ry

     iteration # 22     ecut=    80.00 Ry     beta=0.70
     Davidson diagonalization with overlap
     ethr =  4.41E-04,  avg # of iterations =  1.5

     negative rho (up, down):  7.344E-01 0.000E+00

     total cpu time spent up to now is     8607.8 secs

     total energy              =  -12724.19223847 Ry
     Harris-Foulkes estimate   =  -12725.55106808 Ry
     estimated scf accuracy    <       3.87667190 Ry

     iteration # 23     ecut=    80.00 Ry     beta=0.70
     Davidson diagonalization with overlap
     ethr =  2.98E-04,  avg # of iterations =  9.5

     negative rho (up, down):  6.011E-01 0.000E+00

     total cpu time spent up to now is     8880.0 secs

     total energy              =  -12723.44853563 Ry
     Harris-Foulkes estimate   =  -12724.30548120 Ry
     estimated scf accuracy    <       2.71716348 Ry

     iteration # 24     ecut=    80.00 Ry     beta=0.70
     Davidson diagonalization with overlap
     ethr =  2.09E-04,  avg # of iterations =  5.3

     negative rho (up, down):  6.516E-01 0.000E+00

     total cpu time spent up to now is     9101.6 secs

     total energy              =  -12723.24804392 Ry
     Harris-Foulkes estimate   =  -12723.54368965 Ry
     estimated scf accuracy    <       1.20206890 Ry

     iteration # 25     ecut=    80.00 Ry     beta=0.70
     Davidson diagonalization with overlap
     ethr =  9.25E-05,  avg # of iterations =  7.7

     negative rho (up, down):  7.751E-01 0.000E+00

     total cpu time spent up to now is     9362.2 secs

     total energy              =  -12723.15966085 Ry
     Harris-Foulkes estimate   =  -12723.29989238 Ry
     estimated scf accuracy    <       0.72492932 Ry

     iteration # 26     ecut=    80.00 Ry     beta=0.70
     Davidson diagonalization with overlap
     ethr =  5.58E-05,  avg # of iterations =  7.2

     negative rho (up, down):  4.688E-01 0.000E+00

     total cpu time spent up to now is     9617.8 secs

     total energy              =  -12723.10127917 Ry
     Harris-Foulkes estimate   =  -12723.19951958 Ry
     estimated scf accuracy    <       0.39418139 Ry

     iteration # 27     ecut=    80.00 Ry     beta=0.70
     Davidson diagonalization with overlap
     ethr =  3.03E-05,  avg # of iterations =  5.3

     negative rho (up, down):  2.711E-01 0.000E+00

     total cpu time spent up to now is     9849.6 secs

     total energy              =  -12723.09336011 Ry
     Harris-Foulkes estimate   =  -12723.12911251 Ry
     estimated scf accuracy    <       0.24871372 Ry

     iteration # 28     ecut=    80.00 Ry     beta=0.70
     Davidson diagonalization with overlap
     ethr =  1.91E-05,  avg # of iterations =  7.8

     negative rho (up, down):  1.674E-01 0.000E+00

     total cpu time spent up to now is    10110.3 secs

     total energy              =  -12723.09833685 Ry
     Harris-Foulkes estimate   =  -12723.10575098 Ry
     estimated scf accuracy    <       0.08404466 Ry

     iteration # 29     ecut=    80.00 Ry     beta=0.70
     Davidson diagonalization with overlap
     ethr =  6.46E-06,  avg # of iterations =  7.8

     negative rho (up, down):  9.608E-02 0.000E+00

     total cpu time spent up to now is    10371.1 secs

     total energy              =  -12723.09841674 Ry
     Harris-Foulkes estimate   =  -12723.10198716 Ry
     estimated scf accuracy    <       0.04260593 Ry

     iteration # 30     ecut=    80.00 Ry     beta=0.70
     Davidson diagonalization with overlap
     c_bands:  1 eigenvalues not converged
     ethr =  3.28E-06,  avg # of iterations = 14.3

     negative rho (up, down):  5.432E-02 0.000E+00

     total cpu time spent up to now is    10719.7 secs

     total energy              =  -12723.09620731 Ry
     Harris-Foulkes estimate   =  -12723.10000239 Ry
     estimated scf accuracy    <       0.01416841 Ry

     iteration # 31     ecut=    80.00 Ry     beta=0.70
     Davidson diagonalization with overlap
     c_bands:  1 eigenvalues not converged
     c_bands:  1 eigenvalues not converged
     c_bands:  2 eigenvalues not converged
     ethr =  1.09E-06,  avg # of iterations = 14.8

     negative rho (up, down):  5.446E-02 0.000E+00

     total cpu time spent up to now is    11091.9 secs

     total energy              =  -12723.09756999 Ry
     Harris-Foulkes estimate   =  -12723.09829365 Ry
     estimated scf accuracy    <       0.00670855 Ry

     iteration # 32     ecut=    80.00 Ry     beta=0.70
     Davidson diagonalization with overlap
     c_bands:  1 eigenvalues not converged
     ethr =  5.16E-07,  avg # of iterations =  9.2

     negative rho (up, down):  2.975E-02 0.000E+00

     total cpu time spent up to now is    11378.4 secs

     total energy              =  -12723.09764574 Ry
     Harris-Foulkes estimate   =  -12723.09835217 Ry
     estimated scf accuracy    <       0.00157808 Ry

     iteration # 33     ecut=    80.00 Ry     beta=0.70
     Davidson diagonalization with overlap
     c_bands:  1 eigenvalues not converged
     ethr =  1.21E-07,  avg # of iterations =  8.8

     negative rho (up, down):  1.053E-02 0.000E+00

     total cpu time spent up to now is    11655.4 secs

     total energy              =  -12723.09739986 Ry
     Harris-Foulkes estimate   =  -12723.09778008 Ry
     estimated scf accuracy    <       0.00055911 Ry

     iteration # 34     ecut=    80.00 Ry     beta=0.70
     Davidson diagonalization with overlap
     c_bands:  1 eigenvalues not converged
     c_bands:  1 eigenvalues not converged
     ethr =  4.30E-08,  avg # of iterations = 13.5

     negative rho (up, down):  6.985E-03 0.000E+00

     total cpu time spent up to now is    11995.8 secs

     total energy              =  -12723.09735378 Ry
     Harris-Foulkes estimate   =  -12723.09744381 Ry
     estimated scf accuracy    <       0.00018390 Ry

     iteration # 35     ecut=    80.00 Ry     beta=0.70
     Davidson diagonalization with overlap
     ethr =  1.41E-08,  avg # of iterations =  7.7

     negative rho (up, down):  5.312E-03 0.000E+00

     total cpu time spent up to now is    12251.8 secs

     total energy              =  -12723.09733262 Ry
     Harris-Foulkes estimate   =  -12723.09736704 Ry
     estimated scf accuracy    <       0.00003649 Ry

     iteration # 36     ecut=    80.00 Ry     beta=0.70
     Davidson diagonalization with overlap
     ethr =  2.81E-09,  avg # of iterations =  6.8

     negative rho (up, down):  3.080E-03 0.000E+00

     total cpu time spent up to now is    12496.3 secs

     total energy              =  -12723.09729990 Ry
     Harris-Foulkes estimate   =  -12723.09733564 Ry
     estimated scf accuracy    <       0.00001792 Ry

     iteration # 37     ecut=    80.00 Ry     beta=0.70
     Davidson diagonalization with overlap
     c_bands:  1 eigenvalues not converged
     ethr =  1.38E-09,  avg # of iterations = 10.5

     negative rho (up, down):  2.501E-03 0.000E+00

     total cpu time spent up to now is    12796.0 secs

     total energy              =  -12723.09729442 Ry
     Harris-Foulkes estimate   =  -12723.09730136 Ry
     estimated scf accuracy    <       0.00001175 Ry

     iteration # 38     ecut=    80.00 Ry     beta=0.70
     Davidson diagonalization with overlap
     c_bands:  1 eigenvalues not converged
     ethr =  9.04E-10,  avg # of iterations =  5.0

     negative rho (up, down):  2.243E-03 0.000E+00

     total cpu time spent up to now is    13018.2 secs

     total energy              =  -12723.09729223 Ry
     Harris-Foulkes estimate   =  -12723.09729483 Ry
     estimated scf accuracy    <       0.00000605 Ry

     iteration # 39     ecut=    80.00 Ry     beta=0.70
     Davidson diagonalization with overlap
     ethr =  4.65E-10,  avg # of iterations =  2.3

     negative rho (up, down):  2.039E-03 0.000E+00

     total cpu time spent up to now is    13208.2 secs

     total energy              =  -12723.09729245 Ry
     Harris-Foulkes estimate   =  -12723.09729266 Ry
     estimated scf accuracy    <       0.00000326 Ry

     iteration # 40     ecut=    80.00 Ry     beta=0.70
     Davidson diagonalization with overlap
     ethr =  2.51E-10,  avg # of iterations =  3.0

     negative rho (up, down):  1.866E-03 0.000E+00

     total cpu time spent up to now is    13409.7 secs

     total energy              =  -12723.09729227 Ry
     Harris-Foulkes estimate   =  -12723.09729268 Ry
     estimated scf accuracy    <       0.00000106 Ry

     iteration # 41     ecut=    80.00 Ry     beta=0.70
     Davidson diagonalization with overlap
     ethr =  8.19E-11,  avg # of iterations =  2.5

     negative rho (up, down):  1.810E-03 0.000E+00

     total cpu time spent up to now is    13601.0 secs

     total energy              =  -12723.09729234 Ry
     Harris-Foulkes estimate   =  -12723.09729234 Ry
     estimated scf accuracy    <       0.00000032 Ry

     iteration # 42     ecut=    80.00 Ry     beta=0.70
     Davidson diagonalization with overlap
     ethr =  2.48E-11,  avg # of iterations =  2.5

     negative rho (up, down):  1.707E-03 0.000E+00

     total cpu time spent up to now is    13793.7 secs

     total energy              =  -12723.09729236 Ry
     Harris-Foulkes estimate   =  -12723.09729237 Ry
     estimated scf accuracy    <       0.00000008 Ry

     iteration # 43     ecut=    80.00 Ry     beta=0.70
     Davidson diagonalization with overlap
     ethr =  6.49E-12,  avg # of iterations =  3.0

     negative rho (up, down):  1.700E-03 0.000E+00

     total cpu time spent up to now is    14010.6 secs

     total energy              =  -12723.09729237 Ry
     Harris-Foulkes estimate   =  -12723.09729238 Ry
     estimated scf accuracy    <       0.00000003 Ry

     iteration # 44     ecut=    80.00 Ry     beta=0.70
     Davidson diagonalization with overlap
     ethr =  2.10E-12,  avg # of iterations =  2.2

     negative rho (up, down):  1.669E-03 0.000E+00

     total cpu time spent up to now is    14198.8 secs

     total energy              =  -12723.09729238 Ry
     Harris-Foulkes estimate   =  -12723.09729237 Ry
     estimated scf accuracy    <       0.00000001 Ry

     iteration # 45     ecut=    80.00 Ry     beta=0.70
     Davidson diagonalization with overlap
     ethr =  9.48E-13,  avg # of iterations =  3.0

     negative rho (up, down):  1.662E-03 0.000E+00

     total cpu time spent up to now is    14391.3 secs

     End of self-consistent calculation

          k = 0.0000 0.0000 0.0000 (256287 PWs)   bands (ev):

   -16.0058 -15.6643 -15.5685 -14.9766 -14.5147 -14.4963 -14.0074 -13.9968
   -13.6726 -13.6658 -13.6148 -13.6116 -12.7767 -12.7540 -12.6050 -12.6025
   -12.5938 -12.5922 -10.9727 -10.9545 -10.9398 -10.9352 -10.8531  -9.6923
    -9.1763  -9.1660  -8.9974  -8.9949  -8.1623  -8.1526  -8.1044  -8.1032
    -7.2735  -7.2694  -7.2360  -7.1099  -7.0788  -7.0696  -7.0688  -7.0325
    -7.0304  -6.8871  -6.6585  -5.9103  -5.5746  -5.5677  -5.5510  -5.5485
    -5.4518  -5.4518  -5.4414  -5.4385  -5.3853  -5.3739  -4.7994  -4.3218
    -4.3188  -4.2959  -4.2923  -4.1460  -4.0720  -4.0696  -3.8890  -3.8868
    -3.6796  -3.6633  -3.3102  -3.3085  -3.2373  -3.2331  -3.2007  -3.1992
    -3.1550  -2.9642  -2.9591  -2.9262  -2.9236  -2.9153  -2.9148  -2.9103
    -2.9096  -2.8527  -2.7406  -2.6882  -2.5166  -2.4715  -2.4588  -2.4470
    -2.4171  -2.4127  -2.3928  -2.3893  -2.3649  -2.3599  -2.2068  -2.2029
    -2.2001  -2.1965  -2.1060  -2.1039  -2.0767  -2.0748  -2.0709  -2.0682
    -1.9453  -1.9446  -1.9202  -1.9196  -1.9088  -1.8692  -1.8499  -1.7730
    -1.6985  -1.6562  -1.6543  -1.6506  -1.6446  -1.6414  -1.6333  -1.6144
    -1.5778  -1.5687  -1.5600  -1.5573  -1.5434  -1.5324  -1.5203  -1.5169
    -1.5136  -1.5062  -1.4893  -1.4884  -1.4644  -1.4523  -1.4489  -1.4372
    -1.4347  -1.4232  -1.4113  -1.4089  -1.3727  -1.3714  -1.3322  -1.2751
    -1.2499  -1.2268  -1.2218  -1.2073  -1.2067  -1.1943  -1.1825  -1.1628
    -1.1364  -1.1322  -1.1119  -1.1106  -1.0982  -1.0936  -1.0714  -1.0685
    -1.0024  -0.9822  -0.9814  -0.9726  -0.9689  -0.9623  -0.9607  -0.9581
    -0.9555  -0.9513  -0.9494  -0.9425  -0.9341  -0.9184  -0.9129  -0.9110
    -0.9068  -0.9050  -0.8728  -0.8654  -0.8640  -0.8450  -0.8426  -0.8323
    -0.8231  -0.8050  -0.7954  -0.7929  -0.7867  -0.7800  -0.7733  -0.7694
    -0.7690  -0.7671  -0.7666  -0.7642  -0.7637  -0.7577  -0.7548  -0.7533
    -0.7506  -0.7473  -0.6783  -0.6230  -0.6160  -0.6151  -0.6070  -0.5803
    -0.5688  -0.5631  -0.5608  -0.5584  -0.5522  -0.5470  -0.5444  -0.5378
    -0.5322  -0.5211  -0.5182  -0.5123  -0.4851  -0.4842  -0.4805  -0.4771
    -0.4755  -0.4728  -0.4670  -0.4598  -0.4116  -0.4079  -0.3845  -0.3779
    -0.3744  -0.3707  -0.3643  -0.3505  -0.3474  -0.3426  -0.3414  -0.3403
    -0.3386  -0.3352  -0.3310  -0.3242  -0.3238  -0.3219  -0.3216  -0.3191
    -0.3116  -0.3069  -0.3021  -0.3012  -0.2885  -0.2791  -0.2670  -0.2591
    -0.2568  -0.2485  -0.2364  -0.2351  -0.2304  -0.2139  -0.2115  -0.2071
    -0.2006  -0.1956  -0.1880  -0.1876  -0.1816  -0.1766  -0.1692  -0.1676
    -0.1625  -0.1552  -0.1541  -0.1539  -0.1477  -0.1410  -0.1347  -0.1309
    -0.1287  -0.1132  -0.1114  -0.1089  -0.1066  -0.1033  -0.1027  -0.0875
    -0.0648  -0.0578  -0.0559  -0.0488  -0.0473  -0.0137  -0.0117  -0.0037
     0.0028   0.0036   0.0091   0.0203   0.0236   0.0290   0.0327   0.0335
     0.0434   0.0517   0.0536   0.0559   0.0773   0.0807   0.0873   0.0883
     0.0937   0.1002   0.1016   0.1115   0.1159   0.1198   0.1305   0.1343
     0.1361   0.1392   0.1436   0.1517   0.1521   0.1593   0.1640   0.1731
     0.1770   0.1865   0.1899   0.1991   0.2128   0.2265   0.2278   0.2404
     0.2445   0.2449   0.2458   0.2544   0.2833   0.2854   0.2886   0.2928
     0.2972   0.3260   0.3318   0.3458   0.3550   0.3555   0.3659   0.3747
     0.3837   0.3852   0.4022   0.4050   0.4128   0.4171   0.4217   0.4350
     0.4402   0.4472   0.4480   0.4517   0.4541   0.4616   0.4662   0.4718
     0.4847   0.4879   0.4896   0.5004   0.5140   0.5153   0.5264   0.5349
     0.5410   0.5445   0.5524   0.5537   0.5575   0.5654   0.5706   0.5743
     0.5830   0.5852   0.6016   0.6043   0.6078   0.6105   0.6193   0.6250
     0.6258   0.6288   0.6313   0.6317   0.6340   0.6383   0.6429   0.6498
     0.6564   0.6599   0.6706   0.6744   0.6760   0.6820   0.6847   0.6986
     0.7048   0.7129   0.7186   0.7233   0.7291   0.7309   0.7342   0.7453
     0.7490   0.7516   0.7532   0.7539   0.7548   0.7575   0.7616   0.7682
     0.7692   0.7785   0.7829   0.7872   0.7936   0.7961   0.8009   0.8038
     0.8116   0.8164   0.8167   0.8275   0.8288   0.8311   0.8406   0.8431
     0.8472   0.8626   0.8670   0.8722   0.8816   0.8954   0.8976   0.9152
     0.9217   0.9231   0.9250   0.9293   0.9321   0.9400   0.9446   0.9508
     0.9524   0.9570   0.9601   0.9636   0.9649   0.9685   0.9792   0.9857
     0.9880   0.9905   0.9965   1.0015   1.0017   1.0082   1.0100   1.0128
     1.0201   1.0335   1.0491   1.0528   1.0600   1.0618   1.0649   1.0664
     1.0730   1.0749   1.0830   1.0845   1.0916   1.0949   1.0984   1.1020
     1.1045   1.1087   1.1089   1.1113   1.1125   1.1212   1.1265   1.1327
     1.1399   1.1429   1.1466   1.1494   1.1584   1.1639   1.1675   1.1706
     1.1750   1.1760   1.1799   1.1813   1.1856   1.1899   1.1958   1.1967
     1.2003   1.2028   1.2050   1.2070   1.2100   1.2209   1.2232   1.2353
     1.2453   1.2463   1.2491   1.2514   1.2581   1.2666   1.2772   1.2789
     1.2808   1.2971   1.2984   1.3019   1.3086   1.3095   1.3107   1.3121
     1.3212   1.3239   1.3268   1.3366   1.3389   1.3404   1.3428   1.3454
     1.3478   1.3480   1.3526   1.3556   1.3606   1.3627   1.3736   1.3770
     1.3777   1.3786   1.3805   1.3815   1.3840   1.3862   1.3898   1.3904
     1.4002   1.4071   1.4101   1.4148   1.4158   1.4181   1.4303   1.4318
     1.4369   1.4405   1.4475   1.4493   1.4508   1.4586   1.4634   1.4666
     1.4672   1.4706   1.4810   1.4876   1.4897   1.4916   1.4930   1.4953
     1.4957   1.4980   1.4994   1.5005   1.5024   1.5066   1.5071   1.5164
     1.5217   1.5246   1.5288   1.5295   1.5355   1.5395   1.5422   1.5431
     1.5504   1.5542   1.5702   1.5877   1.5888   1.5899   1.6118   1.6129
     1.6206   1.6230   1.6232   1.6348   1.6397   1.6612   1.6860   1.6871
     1.6923   1.6928   1.6945   1.6956   1.7078   1.7101   1.7256   1.7258
     1.9896   2.0245   2.1286   2.1324   2.1333   2.1732   2.2621   2.2637
     2.2667   2.2672   2.2718   2.2756   2.2925   2.2936   2.4112   2.4147
     2.4812   2.4898   2.4992   2.5169   2.5273   2.5795   2.7350   2.7390
     2.7804   2.7906   3.0258   3.3333   3.3560   3.4427   3.4573   3.4893
     3.5180   3.7927   3.8184   3.8226   3.8375   3.8767   3.8978   3.9038
     3.9315   3.9642   3.9881   4.0024   4.0609   4.0640   4.0743   4.0761
     4.0844   4.1793   4.1906   4.2179   4.2199   4.3747   4.8232   4.9826
     5.1826   5.1977   5.2513   5.2750   5.3155   5.3278   5.3547   5.3827
     5.5539   5.5859   5.7242   5.7421   5.9794   5.9877   6.1208   6.1564
     6.2172   6.3257   6.4068   6.4401   6.4757   6.4881   6.5813   6.6781
     6.6918   6.7450   6.8220   6.9319   6.9397   6.9704   6.9840   7.0056
     7.0320   7.0760   7.1244   7.1455   7.1803   7.1919   7.2804   7.3596
     7.4313   7.4492   7.5523   7.6358   7.6482   7.6990   7.7647   7.9301
     8.0206   8.0507   8.0591   8.0889   8.1130   8.1756   8.2152   8.2503
     8.3254   8.3379   8.3521   8.4019   8.4198   8.5098   8.5445   8.5887
     8.5982   8.6167   8.6302   8.6876   8.7138   8.7605   8.7800   8.8368
     8.8422   8.8603   8.8741   8.8767   8.9221   8.9795   9.0244   9.0444
     9.0519   9.1226   9.1361   9.2817   9.3949   9.4297   9.4895   9.5469
     9.5705   9.5888   9.6111   9.6252   9.6368   9.7343   9.8670   9.8986
     9.9300  10.0720  10.1141  10.1170

          k = 0.0000-0.2165 0.0000 (256176 PWs)   bands (ev):

   -15.9624 -15.8403 -15.2243 -15.1390 -14.9034 -13.9503 -13.9355 -13.8778
   -13.8767 -13.7182 -13.7167 -13.2121 -13.2087 -13.1981 -13.1953 -11.8570
   -11.8461 -11.8330 -11.8318 -11.6887 -11.6721  -9.9937  -9.9807  -9.9745
    -9.9702  -8.7501  -8.7280  -8.5469  -8.5408  -8.4954  -8.4927  -7.6862
    -7.6730  -7.6577  -7.6567  -7.2197  -6.9014  -6.7171  -6.5472  -6.5329
    -6.5146  -6.5095  -6.3645  -6.3586  -6.3550  -6.3400  -5.7803  -5.7728
    -5.6863  -5.6812  -4.7812  -4.7779  -4.7532  -4.7512  -4.7382  -4.7345
    -4.6968  -4.6416  -4.2671  -4.2637  -4.2510  -4.2503  -4.0584  -3.9835
    -3.6919  -3.6852  -3.2141  -3.2120  -3.2103  -3.2015  -3.2005  -3.1562
    -3.0483  -3.0007  -2.9353  -2.9345  -2.7914  -2.7293  -2.6981  -2.6943
    -2.6521  -2.6493  -2.5534  -2.5512  -2.5240  -2.5229  -2.4959  -2.4952
    -2.4884  -2.4876  -2.4849  -2.4795  -2.3636  -2.3618  -2.3453  -2.3380
    -2.2244  -2.2041  -2.1068  -2.1050  -2.0771  -2.0706  -2.0451  -2.0435
    -2.0411  -2.0376  -1.8992  -1.8988  -1.8802  -1.8798  -1.8308  -1.8079
    -1.7822  -1.7796  -1.7728  -1.7325  -1.6984  -1.6913  -1.6801  -1.6698
    -1.6570  -1.6563  -1.6393  -1.6260  -1.5892  -1.5846  -1.5756  -1.5749
    -1.5729  -1.5578  -1.5493  -1.5419  -1.4188  -1.4162  -1.3999  -1.3852
    -1.2921  -1.2886  -1.2702  -1.2553  -1.2402  -1.2375  -1.2162  -1.2143
    -1.2076  -1.2008  -1.1976  -1.1900  -1.1853  -1.1765  -1.1746  -1.1544
    -1.1489  -1.1450  -1.1388  -1.1340  -1.1263  -1.1210  -1.1197  -1.1181
    -1.0450  -1.0324  -1.0057  -1.0024  -0.9930  -0.9848  -0.9790  -0.9757
    -0.9720  -0.9693  -0.9678  -0.9650  -0.9382  -0.9264  -0.9171  -0.9053
    -0.8901  -0.8897  -0.8865  -0.8856  -0.8852  -0.8805  -0.8609  -0.8565
    -0.8511  -0.8478  -0.8472  -0.8320  -0.8266  -0.8198  -0.8039  -0.8006
    -0.7697  -0.7638  -0.7544  -0.7535  -0.7424  -0.7395  -0.7385  -0.7320
    -0.7079  -0.7045  -0.7022  -0.6810  -0.6789  -0.6764  -0.6702  -0.6571
    -0.6066  -0.6023  -0.5584  -0.5578  -0.5457  -0.5442  -0.5368  -0.5335
    -0.5328  -0.5300  -0.5271  -0.5268  -0.5070  -0.4953  -0.4723  -0.4667
    -0.4635  -0.4554  -0.4543  -0.4519  -0.4468  -0.4446  -0.4138  -0.4125
    -0.4082  -0.4065  -0.4019  -0.3879  -0.3856  -0.3791  -0.3759  -0.3701
    -0.3698  -0.3657  -0.3335  -0.3287  -0.3204  -0.3177  -0.2986  -0.2915
    -0.2646  -0.2456  -0.2413  -0.2403  -0.2366  -0.2362  -0.2351  -0.2315
    -0.2312  -0.2253  -0.2101  -0.1974  -0.1852  -0.1846  -0.1793  -0.1785
    -0.1749  -0.1698  -0.1678  -0.1655  -0.1625  -0.1512  -0.1422  -0.1399
    -0.1383  -0.1254  -0.1222  -0.1198  -0.1186  -0.1125  -0.1062  -0.0978
    -0.0852  -0.0782  -0.0777  -0.0715  -0.0670  -0.0656  -0.0583  -0.0541
    -0.0448  -0.0330  -0.0283  -0.0259  -0.0124  -0.0108  -0.0069  -0.0067
     0.0079   0.0105   0.0173   0.0328   0.0357   0.0393   0.0451   0.0530
     0.0613   0.0679   0.0743   0.0768   0.0814   0.0821   0.0973   0.1007
     0.1118   0.1155   0.1211   0.1314   0.1327   0.1358   0.1378   0.1444
     0.1559   0.1623   0.1725   0.1751   0.1784   0.1855   0.1877   0.1974
     0.2017   0.2044   0.2087   0.2156   0.2202   0.2213   0.2249   0.2278
     0.2455   0.2579   0.2599   0.2668   0.2692   0.2720   0.2860   0.2930
     0.2947   0.3023   0.3061   0.3158   0.3488   0.3588   0.3614   0.3731
     0.3746   0.3998   0.4071   0.4206   0.4241   0.4437   0.4469   0.4487
     0.4596   0.4644   0.4754   0.4797   0.4877   0.4915   0.4940   0.5027
     0.5075   0.5101   0.5120   0.5155   0.5181   0.5232   0.5322   0.5343
     0.5462   0.5483   0.5574   0.5614   0.5675   0.5692   0.5701   0.5753
     0.5762   0.5820   0.5910   0.5953   0.5979   0.6004   0.6023   0.6043
     0.6044   0.6047   0.6100   0.6139   0.6206   0.6259   0.6312   0.6357
     0.6359   0.6414   0.6482   0.6532   0.6537   0.6588   0.6623   0.6651
     0.6773   0.6781   0.6801   0.6822   0.6958   0.6974   0.7058   0.7072
     0.7121   0.7126   0.7199   0.7280   0.7303   0.7327   0.7387   0.7463
     0.7535   0.7562   0.7597   0.7620   0.7627   0.7696   0.7757   0.7804
     0.7933   0.8046   0.8080   0.8141   0.8187   0.8277   0.8307   0.8318
     0.8355   0.8416   0.8617   0.8628   0.8659   0.8666   0.8698   0.8720
     0.8996   0.9007   0.9313   0.9404   0.9452   0.9533   0.9595   0.9658
     0.9719   0.9738   0.9759   0.9813   0.9848   0.9899   0.9928   0.9930
     0.9961   0.9970   0.9988   1.0011   1.0043   1.0052   1.0133   1.0223
     1.0241   1.0297   1.0300   1.0331   1.0335   1.0387   1.0397   1.0427
     1.0492   1.0516   1.0520   1.0527   1.0600   1.0620   1.0654   1.0739
     1.0744   1.0771   1.0860   1.0876   1.0907   1.0961   1.1029   1.1048
     1.1067   1.1082   1.1098   1.1130   1.1138   1.1146   1.1203   1.1214
     1.1559   1.1561   1.1568   1.1620   1.1831   1.1954   1.1974   1.1991
     1.2217   1.2256   1.2377   1.2392   1.2430   1.2461   1.2477   1.2493
     1.2560   1.2571   1.2617   1.2653   1.2664   1.2678   1.2715   1.2735
     1.2738   1.2769   1.2772   1.2824   1.2867   1.2915   1.2928   1.2970
     1.2973   1.3016   1.3039   1.3071   1.3120   1.3124   1.3290   1.3295
     1.3315   1.3336   1.3384   1.3460   1.3494   1.3581   1.3586   1.3602
     1.3618   1.3739   1.3756   1.3761   1.3829   1.3853   1.3890   1.3962
     1.4001   1.4016   1.4030   1.4064   1.4237   1.4294   1.4324   1.4333
     1.4444   1.4449   1.4492   1.4497   1.4516   1.4520   1.4540   1.4582
     1.4643   1.4658   1.4740   1.4745   1.4945   1.4986   1.4998   1.5057
     1.5093   1.5171   1.5173   1.5184   1.5196   1.5231   1.5268   1.5351
     1.5407   1.5492   1.5530   1.5575   1.5619   1.5633   1.5657   1.5659
     1.5768   1.5794   1.5804   1.5813   1.5820   1.6042   1.6338   1.6357
     1.6359   1.6386   1.6471   1.6501   1.7123   1.7303   1.7306   1.7570
     1.8268   1.8289   1.8310   1.8320   1.8355   1.8449   1.8504   1.8872
     1.8890   1.8922   1.8998   1.9042   1.9152   1.9413   2.3630   2.3821
     2.4018   2.4046   2.4158   2.4182   2.4627   2.4826   2.5513   2.5660
     2.5756   2.5816   2.5894   2.6254   2.6565   2.6577   2.7319   2.7520
     2.7812   2.7834   2.8068   2.8498   2.9909   2.9917   3.1707   3.2079
     3.2371   3.2383   3.2486   3.3184   3.7200   3.7358   3.9937   4.0004
     4.0684   4.1342   4.2730   4.2878   4.3308   4.3336   4.3560   4.3763
     4.3837   4.3917   4.4005   4.4652   4.4679   4.5699   4.6399   4.7008
     5.1461   5.1676   5.2347   5.2862   5.3979   5.4009   5.4103   5.4213
     5.4803   5.6567   5.7341   5.8991   6.0461   6.1007   6.1405   6.1871
     6.1926   6.2155   6.2272   6.2557   6.2734   6.3216   6.3863   6.5504
     6.6461   6.6748   6.7200   6.7551   6.7859   6.9450   6.9992   7.0660
     7.0831   7.0876   7.1055   7.1292   7.1987   7.2365   7.2581   7.2947
     7.3328   7.3622   7.3674   7.4756   7.6219   7.7400   7.8684   7.9290
     7.9925   8.0038   8.0887   8.1456   8.1710   8.2055   8.2174   8.2469
     8.3332   8.4208   8.4623   8.4841   8.5282   8.5451   8.6492   8.6582
     8.6784   8.6956   8.7276   8.7492   8.7560   8.7779   8.7945   8.8066
     8.8601   8.9125   9.0036   9.0852   9.1166   9.1983   9.2309   9.2924
     9.3102   9.3383   9.3462   9.3794   9.3890   9.4034   9.4184   9.4377
     9.4541   9.4892   9.4945   9.5502   9.5750   9.5770   9.6295   9.8502
     9.8554   9.8619   9.9577   9.9640

          k = 0.2500 0.0000 0.0000 (256240 PWs)   bands (ev):

   -15.8855 -15.5475 -15.4448 -15.0301 -14.7965 -14.4961 -14.4628 -14.3916
   -14.3810 -13.4322 -13.4263 -12.9318 -12.6589 -12.6360 -12.6005 -12.5433
   -11.7347 -11.7133 -11.5739 -11.5657 -10.7572 -10.3157 -10.2679 -10.2152
    -9.9078  -9.5875  -9.3254  -9.3096  -8.8874  -8.6480  -8.6368  -8.2301
    -7.2389  -7.1952  -7.1910  -7.1377  -7.1089  -7.0239  -6.9957  -6.8893
    -6.6723  -6.4912  -6.1744  -5.7777  -5.7320  -5.4926  -5.4694  -5.4549
    -5.4444  -5.2124  -5.2024  -4.8190  -4.8101  -4.6289  -4.3649  -4.2429
    -4.1414  -4.1354  -4.0997  -4.0751  -3.9725  -3.9306  -3.9119  -3.9039
    -3.8974  -3.7429  -3.7408  -3.5490  -3.5233  -3.3765  -3.3480  -3.3096
    -3.3010  -3.1858  -3.1714  -3.0967  -3.0954  -3.0341  -3.0067  -2.9886
    -2.9861  -2.9824  -2.8361  -2.8203  -2.8168  -2.7755  -2.7113  -2.7099
    -2.6169  -2.5747  -2.4652  -2.3929  -2.3154  -2.3118  -2.3085  -2.2249
    -2.2228  -2.0157  -2.0130  -2.0026  -2.0011  -1.9980  -1.9936  -1.9616
    -1.8573  -1.8381  -1.7856  -1.7415  -1.7246  -1.7217  -1.7177  -1.7169
    -1.7120  -1.7109  -1.6943  -1.6891  -1.6789  -1.6781  -1.6750  -1.6625
    -1.6049  -1.5551  -1.5512  -1.5454  -1.4960  -1.4919  -1.4908  -1.4882
    -1.4793  -1.4772  -1.4666  -1.4537  -1.4240  -1.4229  -1.4152  -1.4138
    -1.3318  -1.3158  -1.2899  -1.2672  -1.2630  -1.2453  -1.2390  -1.2346
    -1.2007  -1.1742  -1.1713  -1.1653  -1.1634  -1.1479  -1.1418  -1.1389
    -1.1214  -1.1122  -1.1083  -1.1025  -1.0969  -1.0897  -1.0732  -1.0576
    -1.0550  -1.0501  -1.0405  -1.0325  -1.0229  -1.0202  -1.0171  -1.0117
    -0.9775  -0.9652  -0.9459  -0.9435  -0.9380  -0.9357  -0.9326  -0.9307
    -0.9248  -0.9220  -0.9209  -0.9172  -0.9163  -0.9115  -0.8996  -0.8970
    -0.8901  -0.8860  -0.8792  -0.8782  -0.8717  -0.8628  -0.8260  -0.8102
    -0.7996  -0.7774  -0.7702  -0.7419  -0.7304  -0.7288  -0.7135  -0.7088
    -0.7082  -0.6922  -0.6871  -0.6755  -0.6645  -0.6622  -0.6540  -0.6488
    -0.6437  -0.6408  -0.6255  -0.6107  -0.5445  -0.5337  -0.5224  -0.5117
    -0.4997  -0.4955  -0.4932  -0.4846  -0.4778  -0.4732  -0.4705  -0.4699
    -0.4535  -0.4489  -0.4455  -0.4443  -0.4281  -0.4184  -0.4124  -0.4069
    -0.4048  -0.4011  -0.3997  -0.3962  -0.3908  -0.3895  -0.3852  -0.3839
    -0.3637  -0.3395  -0.3347  -0.3265  -0.3197  -0.3125  -0.3109  -0.2972
    -0.2900  -0.2869  -0.2843  -0.2802  -0.2736  -0.2707  -0.2685  -0.2668
    -0.2396  -0.2297  -0.2285  -0.2189  -0.2157  -0.2124  -0.2116  -0.2052
    -0.1982  -0.1912  -0.1862  -0.1753  -0.1735  -0.1660  -0.1535  -0.1345
    -0.1258  -0.1237  -0.1205  -0.1146  -0.1091  -0.1012  -0.0998  -0.0902
    -0.0885  -0.0873  -0.0707  -0.0665  -0.0604  -0.0525  -0.0484  -0.0420
    -0.0388  -0.0321  -0.0240  -0.0112  -0.0049   0.0040   0.0146   0.0238
     0.0270   0.0390   0.0434   0.0492   0.0522   0.0539   0.0589   0.0687
     0.0719   0.0766   0.0841   0.0892   0.0938   0.0960   0.1002   0.1005
     0.1055   0.1072   0.1107   0.1131   0.1229   0.1246   0.1289   0.1429
     0.1490   0.1537   0.1671   0.1726   0.1780   0.1804   0.1889   0.1910
     0.1961   0.2021   0.2038   0.2142   0.2171   0.2212   0.2238   0.2345
     0.2364   0.2662   0.2823   0.2933   0.3062   0.3135   0.3252   0.3309
     0.3407   0.3421   0.3525   0.3570   0.3576   0.3617   0.3631   0.3659
     0.3692   0.3770   0.3794   0.3990   0.4027   0.4076   0.4087   0.4127
     0.4220   0.4242   0.4317   0.4383   0.4471   0.4509   0.4551   0.4601
     0.4612   0.4815   0.4867   0.4904   0.5039   0.5082   0.5158   0.5194
     0.5245   0.5259   0.5355   0.5378   0.5487   0.5535   0.5574   0.5618
     0.5673   0.5681   0.5730   0.5794   0.5816   0.5837   0.5863   0.5892
     0.5962   0.5998   0.6078   0.6189   0.6249   0.6279   0.6288   0.6357
     0.6375   0.6415   0.6463   0.6489   0.6577   0.6603   0.6640   0.6696
     0.6745   0.6750   0.6827   0.6848   0.6974   0.6994   0.7044   0.7089
     0.7110   0.7156   0.7187   0.7239   0.7291   0.7304   0.7337   0.7404
     0.7444   0.7591   0.7653   0.7722   0.7806   0.7892   0.8014   0.8054
     0.8131   0.8177   0.8234   0.8246   0.8329   0.8364   0.8371   0.8449
     0.8508   0.8582   0.8598   0.8617   0.8645   0.8866   0.8915   0.8975
     0.9030   0.9147   0.9181   0.9215   0.9231   0.9250   0.9286   0.9397
     0.9506   0.9537   0.9550   0.9594   0.9600   0.9643   0.9708   0.9765
     0.9797   0.9823   0.9905   0.9910   0.9933   1.0060   1.0097   1.0120
     1.0254   1.0367   1.0408   1.0549   1.0564   1.0616   1.0676   1.0701
     1.0738   1.0780   1.0798   1.0829   1.0854   1.0862   1.0899   1.0909
     1.0952   1.0962   1.1011   1.1044   1.1092   1.1148   1.1179   1.1204
     1.1256   1.1292   1.1344   1.1347   1.1416   1.1433   1.1486   1.1528
     1.1564   1.1582   1.1627   1.1732   1.1751   1.1797   1.1829   1.1841
     1.1875   1.1892   1.1927   1.1953   1.1958   1.1989   1.2010   1.2084
     1.2162   1.2220   1.2233   1.2287   1.2423   1.2549   1.2566   1.2596
     1.2609   1.2650   1.2720   1.2777   1.2831   1.2929   1.2942   1.3121
     1.3163   1.3194   1.3231   1.3234   1.3273   1.3287   1.3297   1.3413
     1.3424   1.3465   1.3477   1.3543   1.3588   1.3599   1.3663   1.3680
     1.3709   1.3740   1.3747   1.3793   1.3822   1.3848   1.3855   1.3886
     1.3913   1.3949   1.3963   1.4030   1.4116   1.4154   1.4192   1.4196
     1.4261   1.4307   1.4402   1.4486   1.4497   1.4539   1.4666   1.4786
     1.4793   1.4799   1.4821   1.4836   1.4858   1.4953   1.4982   1.5004
     1.5012   1.5018   1.5078   1.5091   1.5128   1.5185   1.5190   1.5249
     1.5268   1.5299   1.5354   1.5436   1.5442   1.5454   1.5484   1.5494
     1.5529   1.5593   1.5612   1.5688   1.5710   1.5719   1.5742   1.5823
     1.5961   1.6133   1.6222   1.6358   1.6463   1.6688   1.6801   1.6871
     1.6892   1.6954   1.7011   1.7247   1.7526   1.7832   1.7930   1.8258
     1.8303   1.8554   1.8707   1.9055   2.0821   2.0861   2.0998   2.1031
     2.1112   2.1287   2.1791   2.2195   2.2255   2.2872   2.3424   2.6032
     2.6131   2.6187   2.6336   2.9856   3.0449   3.0453   3.2294   3.2607
     3.2653   3.2760   3.2856   3.2868   3.3243   3.4772   3.5390   3.5606
     3.6568   3.6737   3.7381   3.7468   3.7509   3.7672   3.8356   3.8753
     3.8968   3.9454   3.9686   4.0302   4.1378   4.3106   4.3697   4.3848
     4.5478   4.6162   4.7829   4.8027   4.8815   4.8886   4.9750   5.0087
     5.2438   5.2518   5.2774   5.3063   5.3807   5.4064   5.4564   5.4618
     5.4777   5.5232   5.5648   5.5909   5.6549   5.6754   5.7015   5.7133
     5.7540   5.8268   6.0472   6.0655   6.0703   6.0910   6.1510   6.2097
     6.4066   6.6211   6.6969   6.7906   6.8041   6.8223   6.8810   6.9472
     6.9835   7.0056   7.0314   7.0692   7.0944   7.1094   7.1310   7.1395
     7.1448   7.1571   7.2324   7.3038   7.3348   7.4837   7.5133   7.5438
     7.5911   7.6611   7.7149   7.8425   7.9086   7.9648   8.0497   8.0688
     8.1136   8.1533   8.2143   8.2245   8.2406   8.2797   8.3201   8.3667
     8.4447   8.4855   8.5162   8.5340   8.6090   8.6558   8.7250   8.8516
     8.9247   8.9999   9.0287   9.0405   9.0553   9.0861   9.1236   9.1525
     9.1794   9.1842   9.2479   9.2655   9.2979   9.3670   9.4179   9.4759
     9.4961   9.5483   9.5718   9.6795   9.7015   9.7199   9.7381   9.7609
     9.7727   9.8413   9.8886   9.9365

          k = 0.2500-0.2165 0.0000 (256316 PWs)   bands (ev):

   -15.8442 -15.7161 -15.1543 -15.0162 -14.9204 -14.7292 -14.7132 -14.0455
   -14.0392 -13.5992 -13.5969 -12.8765 -12.8012 -12.6530 -12.6481 -12.1557
   -12.1402 -11.5835 -11.5616 -10.8822 -10.8791 -10.6992 -10.6794 -10.2318
   -10.1625  -9.1751  -9.1579  -8.7584  -8.7270  -8.6544  -8.6289  -8.0818
    -8.0547  -7.9453  -7.9365  -7.2259  -6.8985  -6.6937  -6.2836  -6.2608
    -6.1911  -6.1772  -6.0327  -5.9903  -5.8914  -5.8617  -5.6401  -5.6356
    -5.6021  -5.5975  -4.7152  -4.7129  -4.5753  -4.5721  -4.5283  -4.4761
    -4.4699  -4.4659  -4.2500  -4.2429  -3.9122  -3.8539  -3.8321  -3.8173
    -3.7884  -3.7755  -3.5533  -3.5469  -3.3649  -3.3629  -3.3138  -3.2712
    -3.2510  -3.2347  -3.1913  -3.1632  -3.0642  -3.0205  -2.9060  -2.8831
    -2.8758  -2.8620  -2.8154  -2.8152  -2.7570  -2.7346  -2.6059  -2.6018
    -2.5908  -2.5857  -2.5738  -2.5704  -2.2806  -2.2718  -2.2326  -2.2205
    -2.1538  -2.1365  -2.0879  -2.0876  -2.0674  -2.0655  -1.9843  -1.9717
    -1.9264  -1.9253  -1.9020  -1.8877  -1.7679  -1.7599  -1.7340  -1.7316
    -1.7159  -1.6928  -1.6402  -1.6281  -1.6262  -1.6216  -1.6064  -1.6007
    -1.5985  -1.5942  -1.5909  -1.5866  -1.5841  -1.5803  -1.5768  -1.5675
    -1.5074  -1.4820  -1.4402  -1.4360  -1.3854  -1.3807  -1.3247  -1.3209
    -1.3059  -1.2923  -1.2520  -1.2502  -1.2234  -1.2059  -1.2037  -1.1976
    -1.1881  -1.1842  -1.1776  -1.1744  -1.1666  -1.1626  -1.1560  -1.1555
    -1.1512  -1.1438  -1.1365  -1.1305  -1.1256  -1.1148  -1.0941  -1.0916
    -1.0877  -1.0814  -1.0731  -1.0578  -1.0527  -1.0289  -1.0266  -1.0237
    -1.0226  -0.9979  -0.9784  -0.9673  -0.9620  -0.9461  -0.9408  -0.9386
    -0.9220  -0.9196  -0.9173  -0.9001  -0.8951  -0.8854  -0.8838  -0.8779
    -0.8761  -0.8705  -0.8652  -0.8511  -0.8494  -0.8378  -0.8343  -0.8295
    -0.8153  -0.7806  -0.7801  -0.7552  -0.7358  -0.7269  -0.6930  -0.6730
    -0.6704  -0.6674  -0.6440  -0.6407  -0.6358  -0.6298  -0.6227  -0.6214
    -0.6156  -0.6018  -0.5916  -0.5908  -0.5677  -0.5632  -0.5355  -0.5333
    -0.5278  -0.5195  -0.5011  -0.4880  -0.4874  -0.4687  -0.4676  -0.4604
    -0.4533  -0.4488  -0.4473  -0.4316  -0.4275  -0.4245  -0.4189  -0.4149
    -0.4099  -0.4013  -0.3948  -0.3654  -0.3629  -0.3580  -0.3538  -0.3484
    -0.3463  -0.3352  -0.3319  -0.3308  -0.3221  -0.3173  -0.3070  -0.3006
    -0.2992  -0.2950  -0.2863  -0.2855  -0.2841  -0.2779  -0.2688  -0.2612
    -0.2555  -0.2546  -0.2392  -0.2366  -0.2252  -0.2135  -0.2088  -0.2011
    -0.1915  -0.1879  -0.1678  -0.1669  -0.1649  -0.1622  -0.1612  -0.1473
    -0.1332  -0.1236  -0.1140  -0.1128  -0.1055  -0.1024  -0.0991  -0.0959
    -0.0785  -0.0638  -0.0507  -0.0378  -0.0303  -0.0280  -0.0231  -0.0212
    -0.0191  -0.0121  -0.0099  -0.0018   0.0055   0.0119   0.0153   0.0198
     0.0308   0.0344   0.0436   0.0475   0.0601   0.0610   0.0625   0.0668
     0.0690   0.0724   0.0772   0.0818   0.0859   0.0888   0.0899   0.0931
     0.0954   0.0993   0.1016   0.1075   0.1085   0.1110   0.1320   0.1378
     0.1439   0.1477   0.1603   0.1631   0.1703   0.1750   0.1799   0.1981
     0.2037   0.2119   0.2159   0.2234   0.2272   0.2285   0.2349   0.2378
     0.2438   0.2456   0.2504   0.2564   0.2587   0.2734   0.2894   0.3067
     0.3123   0.3264   0.3381   0.3472   0.3480   0.3523   0.3606   0.3613
     0.3760   0.3825   0.3878   0.3907   0.3924   0.4066   0.4120   0.4182
     0.4193   0.4261   0.4265   0.4307   0.4437   0.4466   0.4521   0.4553
     0.4603   0.4667   0.4709   0.4767   0.4876   0.4915   0.4947   0.4964
     0.5042   0.5157   0.5270   0.5315   0.5368   0.5504   0.5566   0.5583
     0.5607   0.5633   0.5732   0.5801   0.5820   0.5879   0.5934   0.5981
     0.6007   0.6016   0.6073   0.6133   0.6344   0.6538   0.6614   0.6632
     0.6651   0.6711   0.6742   0.6761   0.6808   0.6838   0.6864   0.6874
     0.6914   0.6968   0.6984   0.7142   0.7168   0.7205   0.7251   0.7284
     0.7364   0.7384   0.7413   0.7456   0.7489   0.7519   0.7561   0.7590
     0.7647   0.7665   0.7686   0.7705   0.7742   0.7773   0.7806   0.7855
     0.7880   0.7910   0.7981   0.8008   0.8066   0.8163   0.8317   0.8340
     0.8346   0.8421   0.8614   0.8656   0.8774   0.8832   0.8840   0.8962
     0.8969   0.9045   0.9113   0.9134   0.9180   0.9206   0.9210   0.9218
     0.9248   0.9296   0.9317   0.9351   0.9378   0.9393   0.9521   0.9539
     0.9720   0.9791   0.9810   0.9827   0.9843   0.9867   0.9892   0.9901
     0.9984   1.0039   1.0085   1.0171   1.0309   1.0321   1.0386   1.0419
     1.0447   1.0708   1.0748   1.0784   1.0810   1.0888   1.1024   1.1089
     1.1159   1.1203   1.1305   1.1337   1.1394   1.1480   1.1484   1.1534
     1.1562   1.1605   1.1639   1.1663   1.1683   1.1718   1.1728   1.1738
     1.1759   1.1789   1.1801   1.1841   1.1859   1.1920   1.2001   1.2041
     1.2163   1.2178   1.2220   1.2231   1.2238   1.2295   1.2359   1.2391
     1.2424   1.2454   1.2482   1.2507   1.2567   1.2610   1.2639   1.2650
     1.2666   1.2690   1.2753   1.2773   1.2832   1.2886   1.2907   1.2925
     1.2935   1.2952   1.2987   1.3014   1.3065   1.3095   1.3146   1.3190
     1.3308   1.3366   1.3377   1.3431   1.3466   1.3491   1.3557   1.3594
     1.3676   1.3692   1.3757   1.3830   1.3870   1.3876   1.3974   1.3997
     1.4026   1.4054   1.4105   1.4131   1.4174   1.4194   1.4244   1.4339
     1.4373   1.4406   1.4412   1.4420   1.4518   1.4542   1.4569   1.4587
     1.4654   1.4742   1.4768   1.4805   1.4834   1.4852   1.4857   1.4866
     1.4895   1.4918   1.4941   1.5015   1.5065   1.5074   1.5125   1.5199
     1.5217   1.5238   1.5285   1.5300   1.5314   1.5363   1.5479   1.5487
     1.5523   1.5739   1.5742   1.5779   1.5791   1.5867   1.5927   1.6009
     1.6129   1.6156   1.6164   1.6318   1.6455   1.6476   1.6957   1.7046
     1.7146   1.7381   1.7565   1.7857   1.7900   1.7946   1.8082   1.8108
     1.8138   1.8249   1.8326   1.8347   1.8442   1.9213   2.0230   2.0931
     2.1891   2.1921   2.2194   2.2213   2.3146   2.3536   2.6456   2.6505
     2.7830   2.7901   2.8084   2.8177   2.8388   2.8502   2.8572   2.8782
     3.0119   3.0414   3.0488   3.1173   3.5034   3.5094   3.5149   3.5639
     3.5704   3.6646   3.8789   3.8922   3.9004   3.9146   4.0274   4.0383
     4.1435   4.1484   4.2240   4.2252   4.4277   4.4312   4.5079   4.5233
     4.6204   4.6683   4.6844   4.7072   4.7225   4.8222   4.8338   4.8701
     4.9899   5.0441   5.0912   5.1194   5.1617   5.1755   5.2995   5.3473
     5.3593   5.4612   5.4902   5.5310   5.6198   5.7029   5.7392   5.8037
     5.8174   5.8343   5.8554   6.2110   6.2947   6.3273   6.3641   6.4142
     6.4953   6.6078   6.6380   6.7111   6.7365   6.7557   6.7990   6.8487
     6.9060   7.0002   7.0271   7.0463   7.2054   7.2426   7.2723   7.2868
     7.3225   7.3507   7.3898   7.4230   7.4544   7.4927   7.5053   7.5871
     7.6122   7.6632   7.7098   7.7700   7.7789   7.8035   7.8650   7.9071
     8.1077   8.1914   8.2112   8.3131   8.4297   8.4655   8.5529   8.5709
     8.5760   8.5985   8.6201   8.6314   8.6661   8.6847   8.7181   8.7356
     8.7866   8.8326   8.8525   8.8802   8.9119   8.9759   8.9862   9.0973
     9.1427   9.1858   9.2129   9.2272   9.2332   9.2837   9.2942   9.3288
     9.3753   9.4217   9.4487   9.5110   9.5297   9.5926   9.6170   9.6555
     9.6866   9.7778   9.8232   9.9257

          k =-0.5000 0.0000 0.0000 (256496 PWs)   bands (ev):

   -15.5936 -15.4572 -15.2352 -15.1147 -15.0842 -15.0651 -14.8342 -14.0449
   -14.0375 -14.0169 -14.0133 -12.3330 -12.3011 -12.2840 -12.2727 -11.6583
   -11.6543 -11.3542 -11.3505 -11.2911 -11.2876 -10.6962 -10.6909 -10.4610
   -10.4137  -9.7098  -9.7005  -9.3028  -9.2747  -8.5278  -8.5177  -8.4896
    -8.4878  -7.2327  -7.1112  -7.0944  -7.0224  -7.0090  -6.9830  -6.9759
    -6.8856  -6.6587  -5.4575  -5.4560  -5.2081  -5.2031  -4.7065  -4.7034
    -4.7005  -4.6943  -4.6669  -4.6598  -4.3242  -4.3199  -4.3082  -4.3019
    -4.2725  -4.2693  -4.2321  -4.2317  -4.1337  -4.1264  -4.0386  -4.0366
    -4.0014  -3.9990  -3.6963  -3.6797  -3.6772  -3.6712  -3.5454  -3.5409
    -3.3262  -3.3255  -3.3247  -3.3219  -3.1832  -3.1415  -3.1144  -3.0917
    -3.0584  -3.0544  -2.9664  -2.9600  -2.9569  -2.9481  -2.5811  -2.5716
    -2.5572  -2.5532  -2.5494  -2.5462  -2.3804  -2.3766  -2.3715  -2.3584
    -2.2850  -2.2813  -2.2708  -2.2243  -1.9261  -1.9159  -1.9007  -1.8974
    -1.8020  -1.7999  -1.7987  -1.7983  -1.7951  -1.7875  -1.7092  -1.7020
    -1.6994  -1.6825  -1.5722  -1.5703  -1.5685  -1.5680  -1.5302  -1.5244
    -1.5151  -1.5108  -1.4525  -1.4452  -1.4240  -1.4184  -1.3517  -1.3442
    -1.3418  -1.3397  -1.3323  -1.3301  -1.2958  -1.2844  -1.2834  -1.2779
    -1.2689  -1.2667  -1.2661  -1.2659  -1.2648  -1.2596  -1.2525  -1.2453
    -1.2209  -1.2187  -1.2172  -1.2127  -1.1894  -1.1864  -1.1841  -1.1829
    -1.1665  -1.1517  -1.1410  -1.1322  -1.1300  -1.1296  -1.1259  -1.1065
    -1.1034  -1.0982  -1.0973  -1.0911  -1.0881  -1.0786  -1.0571  -1.0516
    -1.0464  -1.0444  -1.0320  -1.0265  -1.0158  -1.0138  -0.9970  -0.9946
    -0.9887  -0.9869  -0.9356  -0.9266  -0.9092  -0.9065  -0.9024  -0.8996
    -0.8806  -0.8773  -0.8768  -0.8759  -0.8615  -0.8528  -0.8446  -0.8434
    -0.8346  -0.8330  -0.8315  -0.8297  -0.8227  -0.8112  -0.7547  -0.7493
    -0.7432  -0.7415  -0.7187  -0.7129  -0.6869  -0.6559  -0.6364  -0.6319
    -0.6275  -0.6267  -0.6244  -0.5959  -0.5951  -0.5878  -0.5855  -0.5822
    -0.5783  -0.5581  -0.5405  -0.5306  -0.5247  -0.5178  -0.5135  -0.5117
    -0.5109  -0.5104  -0.5032  -0.5006  -0.4937  -0.4927  -0.3886  -0.3822
    -0.3794  -0.3753  -0.3692  -0.3611  -0.3583  -0.3473  -0.3357  -0.3319
    -0.3310  -0.3303  -0.3301  -0.3208  -0.3038  -0.2942  -0.2928  -0.2885
    -0.2695  -0.2605  -0.2543  -0.2476  -0.2462  -0.2418  -0.2307  -0.2269
    -0.2244  -0.2218  -0.2197  -0.2172  -0.2162  -0.2144  -0.2070  -0.2044
    -0.1749  -0.1719  -0.1625  -0.1579  -0.1347  -0.1342  -0.1296  -0.1285
    -0.0865  -0.0819  -0.0795  -0.0775  -0.0714  -0.0668  -0.0617  -0.0589
    -0.0447  -0.0361  -0.0274  -0.0191  -0.0096  -0.0046   0.0048   0.0100
     0.0219   0.0330   0.0362   0.0378   0.0417   0.0464   0.0499   0.0507
     0.0526   0.0565   0.0627   0.0634   0.0648   0.0754   0.0878   0.1139
     0.1302   0.1318   0.1334   0.1378   0.1411   0.1447   0.1464   0.1481
     0.1514   0.1528   0.1560   0.1590   0.1617   0.1642   0.1659   0.1682
     0.1732   0.1766   0.1807   0.1841   0.1855   0.1972   0.1976   0.2003
     0.2008   0.2045   0.2058   0.2076   0.2136   0.2155   0.2334   0.2357
     0.2405   0.2411   0.2559   0.2601   0.2654   0.2669   0.2769   0.3066
     0.3225   0.3330   0.3431   0.3582   0.3610   0.3628   0.3683   0.3842
     0.3903   0.3911   0.3949   0.4034   0.4144   0.4212   0.4231   0.4288
     0.4300   0.4332   0.4418   0.4539   0.4594   0.4613   0.4627   0.4663
     0.4675   0.4722   0.4787   0.4809   0.4813   0.4846   0.4897   0.4919
     0.5016   0.5199   0.5517   0.5550   0.5594   0.5693   0.5727   0.5831
     0.5842   0.5922   0.5955   0.5966   0.6017   0.6059   0.6142   0.6169
     0.6191   0.6203   0.6214   0.6250   0.6268   0.6293   0.6335   0.6396
     0.6413   0.6419   0.6431   0.6451   0.6594   0.6626   0.6684   0.6698
     0.6826   0.6872   0.6965   0.6995   0.7082   0.7097   0.7116   0.7137
     0.7155   0.7160   0.7187   0.7229   0.7270   0.7280   0.7297   0.7355
     0.7371   0.7395   0.7402   0.7426   0.7630   0.7669   0.7757   0.7874
     0.7893   0.7919   0.7961   0.8012   0.8074   0.8085   0.8088   0.8130
     0.8355   0.8398   0.8413   0.8477   0.8562   0.8591   0.8610   0.8648
     0.8836   0.8963   0.8991   0.9008   0.9021   0.9056   0.9064   0.9081
     0.9102   0.9148   0.9189   0.9214   0.9270   0.9346   0.9397   0.9412
     0.9543   0.9597   0.9607   0.9623   0.9636   0.9640   0.9665   0.9786
     0.9807   0.9814   0.9885   0.9911   0.9959   1.0026   1.0062   1.0075
     1.0437   1.0568   1.0584   1.0707   1.0785   1.0808   1.0845   1.0874
     1.0914   1.0995   1.1044   1.1118   1.1140   1.1303   1.1308   1.1344
     1.1512   1.1525   1.1574   1.1611   1.1642   1.1732   1.1776   1.1784
     1.1800   1.1832   1.1854   1.1888   1.1913   1.1930   1.1993   1.2030
     1.2058   1.2083   1.2089   1.2098   1.2185   1.2209   1.2213   1.2244
     1.2257   1.2280   1.2420   1.2434   1.2456   1.2489   1.2584   1.2636
     1.2713   1.2752   1.2771   1.2832   1.2941   1.2960   1.2974   1.3019
     1.3040   1.3052   1.3075   1.3097   1.3103   1.3105   1.3125   1.3167
     1.3182   1.3219   1.3605   1.3620   1.3650   1.3652   1.3663   1.3685
     1.3694   1.3723   1.3729   1.3758   1.3776   1.3804   1.3818   1.3856
     1.3895   1.3978   1.4003   1.4023   1.4026   1.4060   1.4072   1.4085
     1.4098   1.4115   1.4151   1.4205   1.4219   1.4249   1.4260   1.4275
     1.4298   1.4331   1.4403   1.4520   1.4674   1.4690   1.4702   1.4714
     1.4780   1.4800   1.4824   1.4848   1.4922   1.4987   1.4998   1.5001
     1.5070   1.5078   1.5102   1.5120   1.5198   1.5214   1.5263   1.5314
     1.5323   1.5447   1.5499   1.5536   1.5552   1.5569   1.5579   1.5604
     1.5665   1.5734   1.5777   1.5800   1.5811   1.5839   1.5909   1.6019
     1.6162   1.6280   1.6376   1.6437   1.6584   1.6709   1.6718   1.6728
     1.6845   1.6907   2.0454   2.0520   2.0543   2.0757   2.2327   2.2436
     2.2846   2.3006   2.3525   2.3541   2.3585   2.3599   2.5700   2.5771
     2.5869   2.6702   2.8820   2.8870   2.8920   2.9017   3.2366   3.2505
     3.2587   3.2614   3.4960   3.5283   3.6888   3.7205   3.7260   3.7684
     3.9342   3.9409   3.9474   3.9606   4.0333   4.0526   4.1331   4.1389
     4.1426   4.1726   4.5660   4.5894   4.5988   4.6521   4.7689   4.8162
     4.8709   4.8901   4.8969   4.9081   4.9935   5.0251   5.0435   5.0660
     5.0770   5.0890   5.0987   5.1016   5.1131   5.1247   5.1296   5.1527
     5.3899   5.4345   5.4428   5.4650   5.4696   5.5084   5.5728   5.5810
     5.6488   5.6593   5.8114   5.9280   5.9335   5.9836   6.0033   6.0260
     6.0490   6.0754   6.1345   6.1413   6.2042   6.2258   6.2453   6.2675
     6.6786   6.7210   6.7761   6.8081   6.8337   6.9113   7.0664   7.0789
     7.0846   7.1614   7.3262   7.4266   7.5430   7.5674   7.6140   7.6207
     7.6237   7.6349   7.7121   7.7751   7.8250   7.8493   7.8853   7.9121
     7.9207   7.9362   7.9497   8.0025   8.0458   8.0549   8.0681   8.1196
     8.1760   8.2336   8.6186   8.6898   8.7151   8.7334   8.7652   8.8116
     8.8280   8.8372   8.8612   8.9052   8.9266   9.0147   9.0255   9.0377
     9.0837   9.2636   9.2888   9.3225   9.3471   9.4176   9.4409   9.4972
     9.5038   9.5252   9.5276   9.5328   9.5586   9.5690   9.5902   9.6238
     9.6288   9.6680   9.7649   9.8163

          k =-0.5000-0.2165 0.0000 (256328 PWs)   bands (ev):

   -15.5729 -15.3882 -15.3486 -15.3405 -14.9512 -14.6616 -14.6441 -14.6347
   -14.6026 -13.2628 -13.2539 -13.2246 -13.2228 -11.6111 -11.6048 -11.5291
   -11.5280 -11.2807 -11.2369 -11.2183 -11.2165 -10.9784 -10.9743 -10.9395
   -10.9363  -9.3187  -9.3056  -9.2758  -9.2750  -8.4077  -8.3824  -8.3696
    -8.3501  -7.6552  -7.6433  -7.6171  -7.6154  -7.2257  -6.8944  -6.6662
    -5.6055  -5.6046  -5.5726  -5.5708  -5.0840  -5.0782  -5.0760  -5.0730
    -4.9203  -4.9182  -4.8881  -4.8872  -4.5962  -4.5848  -4.5298  -4.5285
    -4.1017  -4.1006  -4.0987  -4.0959  -4.0382  -4.0341  -3.9966  -3.9831
    -3.7481  -3.7400  -3.7369  -3.7366  -3.4992  -3.4801  -3.4740  -3.4176
    -3.3447  -3.3399  -3.3024  -3.2995  -3.2499  -3.2370  -3.2361  -3.1999
    -3.1625  -3.1614  -3.1556  -3.1512  -2.6577  -2.6367  -2.6236  -2.5972
    -2.4982  -2.4945  -2.4916  -2.4898  -2.4893  -2.4875  -2.4620  -2.4379
    -2.0158  -2.0080  -2.0062  -1.9992  -1.9902  -1.9885  -1.9877  -1.9867
    -1.9819  -1.9763  -1.9712  -1.9455  -1.7363  -1.7194  -1.7181  -1.7101
    -1.6506  -1.6356  -1.6244  -1.6140  -1.5148  -1.5108  -1.5075  -1.5058
    -1.4447  -1.4240  -1.4166  -1.4140  -1.4117  -1.4087  -1.4023  -1.3952
    -1.3577  -1.3562  -1.3440  -1.3417  -1.3297  -1.3206  -1.3085  -1.2998
    -1.2964  -1.2922  -1.2897  -1.2877  -1.2793  -1.2755  -1.2739  -1.2695
    -1.2298  -1.2274  -1.2218  -1.2078  -1.2003  -1.1880  -1.1837  -1.1592
    -1.1285  -1.1227  -1.1118  -1.1075  -1.1012  -1.0974  -1.0862  -1.0770
    -1.0721  -1.0700  -1.0694  -1.0673  -1.0585  -1.0563  -1.0556  -1.0503
    -1.0371  -1.0360  -1.0348  -1.0304  -1.0041  -0.9952  -0.9864  -0.9848
    -0.9754  -0.9697  -0.9615  -0.9572  -0.9558  -0.9498  -0.9490  -0.9459
    -0.9452  -0.9431  -0.9390  -0.9351  -0.8169  -0.8016  -0.7914  -0.7829
    -0.7807  -0.7802  -0.7774  -0.7764  -0.7520  -0.7155  -0.7102  -0.7093
    -0.7057  -0.7023  -0.6978  -0.6936  -0.6912  -0.6907  -0.6792  -0.6761
    -0.6739  -0.6717  -0.6695  -0.6656  -0.6374  -0.6260  -0.6224  -0.6176
    -0.6157  -0.6105  -0.6024  -0.5952  -0.5896  -0.5854  -0.5472  -0.5445
    -0.5218  -0.5091  -0.4913  -0.4768  -0.4558  -0.4502  -0.4486  -0.4457
    -0.4293  -0.4250  -0.4160  -0.4139  -0.3749  -0.3738  -0.3711  -0.3678
    -0.3566  -0.3545  -0.3405  -0.3366  -0.3283  -0.3234  -0.3172  -0.3130
    -0.3097  -0.3016  -0.2966  -0.2919  -0.2419  -0.2387  -0.2308  -0.2216
    -0.2190  -0.2189  -0.1957  -0.1912  -0.1767  -0.1754  -0.1705  -0.1685
    -0.1651  -0.1649  -0.1556  -0.1538  -0.1123  -0.1082  -0.1045  -0.0984
    -0.0941  -0.0937  -0.0866  -0.0856  -0.0738  -0.0709  -0.0694  -0.0684
    -0.0503  -0.0481  -0.0476  -0.0453  -0.0390  -0.0345  -0.0286  -0.0227
    -0.0168  -0.0115  -0.0096  -0.0039  -0.0002   0.0200   0.0409   0.0466
     0.0511   0.0548   0.0791   0.0933   0.1085   0.1194   0.1265   0.1265
     0.1270   0.1301   0.1354   0.1432   0.1498   0.1508   0.1564   0.1607
     0.1622   0.1657   0.1690   0.1695   0.1772   0.1809   0.1813   0.1856
     0.1870   0.1898   0.1925   0.1946   0.1963   0.1971   0.1992   0.2009
     0.2145   0.2221   0.2296   0.2325   0.2353   0.2403   0.2428   0.2507
     0.2567   0.2646   0.2687   0.2769   0.2794   0.2955   0.3007   0.3065
     0.3143   0.3226   0.3244   0.3308   0.3355   0.3599   0.3684   0.3830
     0.3861   0.3888   0.4009   0.4201   0.4299   0.4318   0.4333   0.4387
     0.4510   0.4548   0.4684   0.4691   0.4698   0.4793   0.4823   0.4895
     0.4957   0.4988   0.5061   0.5158   0.5230   0.5288   0.5302   0.5405
     0.5427   0.5431   0.5444   0.5467   0.5473   0.5484   0.5540   0.5633
     0.5681   0.5692   0.5719   0.5750   0.5823   0.5885   0.6037   0.6062
     0.6140   0.6183   0.6248   0.6298   0.6325   0.6387   0.6400   0.6449
     0.6517   0.6525   0.6564   0.6603   0.6733   0.6792   0.6829   0.6865
     0.6897   0.6913   0.6922   0.6945   0.6978   0.6992   0.7036   0.7066
     0.7150   0.7293   0.7304   0.7371   0.7425   0.7448   0.7462   0.7483
     0.7528   0.7544   0.7580   0.7633   0.7699   0.7708   0.7764   0.7787
     0.7957   0.7969   0.7999   0.8021   0.8058   0.8125   0.8152   0.8161
     0.8178   0.8204   0.8237   0.8257   0.8359   0.8535   0.8572   0.8587
     0.8806   0.8846   0.8884   0.8919   0.9032   0.9069   0.9120   0.9199
     0.9273   0.9389   0.9425   0.9435   0.9458   0.9626   0.9701   0.9773
     0.9867   0.9914   0.9988   1.0017   1.0091   1.0102   1.0165   1.0200
     1.0237   1.0297   1.0389   1.0408   1.0498   1.0536   1.0593   1.0631
     1.0707   1.0778   1.0822   1.0879   1.0898   1.0916   1.0998   1.1006
     1.1049   1.1058   1.1100   1.1105   1.1113   1.1141   1.1154   1.1206
     1.1232   1.1246   1.1265   1.1272   1.1303   1.1322   1.1357   1.1398
     1.1460   1.1471   1.1515   1.1586   1.1610   1.1636   1.1666   1.1701
     1.1775   1.1818   1.1926   1.1942   1.1954   1.1990   1.2036   1.2066
     1.2101   1.2118   1.2146   1.2156   1.2481   1.2550   1.2608   1.2635
     1.2656   1.2669   1.2682   1.2705   1.2762   1.2785   1.2811   1.2835
     1.2885   1.2895   1.2920   1.2939   1.2980   1.3015   1.3063   1.3126
     1.3409   1.3438   1.3448   1.3464   1.3471   1.3487   1.3498   1.3509
     1.3534   1.3543   1.3572   1.3594   1.3962   1.3982   1.3999   1.4045
     1.4143   1.4160   1.4170   1.4176   1.4202   1.4215   1.4260   1.4271
     1.4287   1.4305   1.4312   1.4324   1.4338   1.4347   1.4361   1.4391
     1.4398   1.4465   1.4483   1.4570   1.4579   1.4593   1.4632   1.4665
     1.4669   1.4680   1.4712   1.4738   1.4787   1.4798   1.4829   1.4931
     1.5035   1.5069   1.5081   1.5103   1.5109   1.5263   1.5286   1.5290
     1.5379   1.5424   1.5428   1.5484   1.5680   1.5694   1.5724   1.5730
     1.5965   1.5981   1.6019   1.6042   1.6317   1.6352   1.6399   1.6407
     1.6448   1.6459   1.6465   1.6587   1.6673   1.6695   1.6716   1.6831
     1.6858   1.6888   1.6904   1.6913   1.8923   1.8940   1.8959   1.8983
     2.2933   2.2948   2.3365   2.3910   2.6035   2.6144   2.6232   2.6378
     2.8096   2.8128   2.8222   2.8331   3.0355   3.0506   3.0591   3.1453
     3.5142   3.5221   3.5233   3.5236   3.6715   3.6724   3.6769   3.7332
     3.9924   3.9997   4.0008   4.0072   4.1622   4.1699   4.1753   4.2157
     4.2857   4.2924   4.2953   4.3051   4.5086   4.5266   4.5566   4.5864
     4.7239   4.7359   4.7463   4.7634   5.0780   5.1145   5.1204   5.1327
     5.1431   5.1654   5.1860   5.1908   5.1981   5.2121   5.2361   5.2406
     5.2701   5.2864   5.3054   5.4042   5.4214   5.4999   5.5239   5.5430
     5.6191   5.6240   5.6921   5.7222   5.7873   5.7942   5.7989   5.8266
     5.9422   5.9585   6.0070   6.0138   6.6123   6.6819   6.7155   6.8503
     6.9696   7.0263   7.0348   7.0489   7.0555   7.0615   7.0645   7.1063
     7.1427   7.1702   7.1858   7.2450   7.2675   7.3609   7.3750   7.4317
     7.4583   7.4723   7.4806   7.5569   7.7880   7.8083   7.9075   7.9632
     8.0929   8.1510   8.1590   8.1838   8.2209   8.2285   8.2545   8.3024
     8.3713   8.3939   8.4079   8.4177   8.6782   8.7971   8.8714   8.8834
     8.8871   8.9006   8.9206   8.9374   8.9599   8.9691   9.0296   9.0328
     9.0758   9.1348   9.1376   9.1691   9.1951   9.2266   9.2457   9.2984
     9.3167   9.3774   9.3847   9.4176   9.4278   9.4355   9.4382   9.4844
     9.5550   9.6484   9.8150   9.9150

     the Fermi energy is     3.3877 ev

!    total energy              =  -12723.09729239 Ry
     Harris-Foulkes estimate   =  -12723.09729239 Ry
     estimated scf accuracy    <          4.5E-09 Ry

     The total energy is the sum of the following terms:

     one-electron contribution =  -99773.71824780 Ry
     hartree contribution      =   51256.03901867 Ry
     xc contribution           =   -4452.93851850 Ry
     ewald contribution        =   40253.67909072 Ry
     Dispersion Correction     =      -2.81045542 Ry
     smearing contrib. (-TS)   =      -3.34818006 Ry

     convergence has been achieved in  45 iterations

     Writing output data file gc.save
 
     init_run     :    100.45s CPU    107.55s WALL (       1 calls)
     electrons    :  13356.83s CPU  14283.73s WALL (       1 calls)

     Called by init_run:
     wfcinit      :     97.65s CPU    104.46s WALL (       1 calls)
     potinit      :      0.69s CPU      0.73s WALL (       1 calls)

     Called by electrons:
     c_bands      :  12336.09s CPU  13161.48s WALL (      45 calls)
     sum_band     :    846.29s CPU    919.55s WALL (      45 calls)
     v_of_rho     :      3.05s CPU      3.73s WALL (      46 calls)
     newd         :      8.29s CPU     14.87s WALL (      46 calls)
     mix_rho      :    162.99s CPU    184.06s WALL (      45 calls)

     Called by c_bands:
     init_us_2    :     37.61s CPU     38.04s WALL (     546 calls)
     cegterg      :  12172.36s CPU  12991.30s WALL (     284 calls)

     Called by sum_band:
     sum_band:bec :      4.72s CPU      5.42s WALL (     270 calls)
     addusdens    :      8.01s CPU     14.70s WALL (      45 calls)

     Called by *egterg:
     h_psi        :   4404.56s CPU   4757.93s WALL (    2080 calls)
     s_psi        :   1062.34s CPU   1074.53s WALL (    2080 calls)
     g_psi        :     11.16s CPU     11.17s WALL (    1790 calls)
     cdiaghg      :   3577.05s CPU   3718.30s WALL (    2063 calls)

     Called by h_psi:
     add_vuspsi   :   1067.92s CPU   1082.68s WALL (    2080 calls)

     General routines
     calbec       :   1497.37s CPU   1508.85s WALL (    2350 calls)
     fft          :      4.07s CPU      4.53s WALL (     597 calls)
     ffts         :     96.85s CPU    110.10s WALL (   24302 calls)
     fftw         :   2490.86s CPU   2793.91s WALL ( 1378838 calls)
     davcio       :      0.22s CPU      4.14s WALL (       6 calls)
 
     Parallel routines
     fft_scatter  :   1673.90s CPU   1799.47s WALL ( 1403737 calls)
 
     PWSCF        :     3h44m CPU        3h59m WALL

 
   This run was terminated on:  13: 4:20   1May2017            

=------------------------------------------------------------------------------=
   JOB DONE.
=------------------------------------------------------------------------------=
