
     Program PWSCF v.5.4.0 starts on  1May2017 at  8:48:20 

     This program is part of the open-source Quantum ESPRESSO suite
     for quantum simulation of materials; please cite
         "P. Giannozzi et al., J. Phys.:Condens. Matter 21 395502 (2009);
          URL http://www.quantum-espresso.org", 
     in publications or presentations arising from this work. More details at
     http://www.quantum-espresso.org/quote

     Parallel version (MPI & OpenMP), running on      56 processor cores
     Number of MPI processes:                56
     Threads/MPI process:                     1
     R & G space division:  proc/nbgrp/npool/nimage =      56
     Waiting for input...
     Reading input from standard input
Warning: card &IONS ignored
Warning: card / ignored

     Current dimensions of program PWSCF are:
     Max number of different atomic species (ntypx) = 10
     Max number of k-points (npk) =  40000
     Max angular momentum in pseudopotentials (lmaxx) =  3
     WARNING: atomic wfc #  2 for atom type 4 has zero norm
     WARNING: atomic wfc #  4 for atom type 4 has zero norm
     WARNING: atomic wfc #  5 for atom type 4 has zero norm

     -------------------------------------
     Parameters for Dispersion Correction:
     -------------------------------------
       atom      VdW radius       C_6     

        Cu         2.952        374.666
        C_h        2.744         60.710
        C          2.744         60.710
        O          2.536         24.284
        H          1.892          4.857

     Subspace diagonalization in iterative solution of the eigenvalue problem:
     one sub-group per band group will be used
     scalapack distributed-memory algorithm (size of sub-group:  5*  5 procs)

 
     Parallelization info
     --------------------
     sticks:   dense  smooth     PW     G-vecs:    dense   smooth      PW
     Min         204     204     54                36612    36612    4962
     Max         205     205     55                36617    36617    4968
     Sum       11433   11433   3039              2050409  2050409  278033
 


     bravais-lattice index     =            0
     lattice parameter (alat)  =      13.9425  a.u.
     unit-cell volume          =   21209.0878 (a.u.)^3
     number of atoms/cell      =          150
     number of atomic types    =            5
     number of electrons       =      1299.00
     number of Kohn-Sham states=          780
     kinetic-energy cutoff     =      80.0000  Ry
     charge density cutoff     =     320.0000  Ry
     convergence threshold     =      1.0E-08
     mixing beta               =       0.7000
     number of iterations used =            8  local-TF  mixing
     Exchange-correlation      =  SLA  PW   PBE  PBE ( 1  4  3  4 0 0)

     celldm(1)=  13.942539  celldm(2)=   0.000000  celldm(3)=   0.000000
     celldm(4)=   0.000000  celldm(5)=   0.000000  celldm(6)=   0.000000

     crystal axes: (cart. coord. in units of alat)
               a(1) = (   1.000000   0.000000   0.000000 )  
               a(2) = (   0.000000   2.309401   0.000000 )  
               a(3) = (   0.000000   0.000000   3.388418 )  

     reciprocal axes: (cart. coord. in units 2 pi/alat)
               b(1) = (  1.000000  0.000000  0.000000 )  
               b(2) = (  0.000000  0.433013  0.000000 )  
               b(3) = (  0.000000  0.000000  0.295123 )  


     PseudoPot. # 1 for Cu read from file:
     /home/549/hxw549/Short/pseudopotentials/Cu.pbe-n-van_ak.UPF
     MD5 check sum: 601f7c30f7467666bec936e0661ce3e1
     Pseudo is Ultrasoft + core correction, Zval = 11.0
     Generated by new atomic code, or converted to UPF format
     Using radial grid of  867 points,  6 beta functions with: 
                l(1) =   0
                l(2) =   0
                l(3) =   1
                l(4) =   1
                l(5) =   2
                l(6) =   2
     Q(r) pseudized with  8 coefficients,  rinner =    1.400   1.400   1.400
                                                       1.400   1.400

     PseudoPot. # 2 for C  read from file:
     /home/549/hxw549/Short/pseudopotentials/C.star1s-pbe-mt_gipaw.UPF
     MD5 check sum: ef0cb3dee31bd9e4ba2a832a2c716264
     Pseudo is Norm-conserving, Zval =  5.0
     Generated by new atomic code, or converted to UPF format
     Using radial grid of 1073 points,  1 beta functions with: 
                l(1) =   0

     PseudoPot. # 3 for C  read from file:
     /home/549/hxw549/Short/pseudopotentials/C.pbe-mt_gipaw.UPF
     MD5 check sum: 5ac2f21f2c440b14befe521540822c15
     Pseudo is Norm-conserving, Zval =  4.0
     Generated by new atomic code, or converted to UPF format
     Using radial grid of 1073 points,  1 beta functions with: 
                l(1) =   0

     PseudoPot. # 4 for O  read from file:
     /home/549/hxw549/Short/pseudopotentials/O.pbe-van_gipaw.UPF
     MD5 check sum: 5ce2a047509d4f331db576c963e74b29
     Pseudo is Ultrasoft, Zval =  6.0
     Generated by new atomic code, or converted to UPF format
     Using radial grid of 1095 points,  4 beta functions with: 
                l(1) =   0
                l(2) =   0
                l(3) =   1
                l(4) =   1
     Q(r) pseudized with 0 coefficients 


     PseudoPot. # 5 for H  read from file:
     /home/549/hxw549/Short/pseudopotentials/H.pbe-van_ak.UPF
     MD5 check sum: 077eb6d537518a38cb46c6de387227b7
     Pseudo is Ultrasoft, Zval =  1.0
     Generated by new atomic code, or converted to UPF format
     Using radial grid of  615 points,  1 beta functions with: 
                l(1) =   0
     Q(r) pseudized with  8 coefficients,  rinner =    0.800

     atomic species   valence    mass     pseudopotential
        Cu            11.00    63.54600     Cu( 1.00)
        C_h            5.00    12.01070     C ( 1.00)
        C              4.00    12.01070     C ( 1.00)
        O              6.00    15.99940     O ( 1.00)
        H              1.00     1.00783     H ( 1.00)

     No symmetry found



   Cartesian axes

     site n.     atom                  positions (alat units)
         1           Cu  tau(   1) = (   0.0001245  -0.0000826   0.9988218  )
         2           Cu  tau(   2) = (   0.2500938   0.2314176   0.9990096  )
         3           Cu  tau(   3) = (   0.5001173  -0.0000058   0.9988529  )
         4           Cu  tau(   4) = (   0.7501395   0.2314030   0.9990145  )
         5           Cu  tau(   5) = (   0.0001084   0.4623982   0.9990014  )
         6           Cu  tau(   6) = (   0.2500996   0.6930296   0.9986014  )
         7           Cu  tau(   7) = (   0.5001153   0.4623455   0.9989299  )
         8           Cu  tau(   8) = (   0.7501160   0.6930324   0.9986271  )
         9           Cu  tau(   9) = (   0.0001014   0.9236418   0.9982855  )
        10           Cu  tau(  10) = (   0.2501147   1.1542168   0.9983814  )
        11           Cu  tau(  11) = (   0.5001117   0.9236304   0.9982944  )
        12           Cu  tau(  12) = (   0.7501039   1.1542195   0.9984058  )
        13           Cu  tau(  13) = (   0.0001174   1.3846774   0.9987949  )
        14           Cu  tau(  14) = (   0.2501320   1.6151893   0.9991574  )
        15           Cu  tau(  15) = (   0.5001135   1.3847053   0.9988816  )
        16           Cu  tau(  16) = (   0.7501109   1.6151916   0.9991584  )
        17           Cu  tau(  17) = (   0.0001234   1.8461159   0.9990217  )
        18           Cu  tau(  18) = (   0.2501546   2.0775871   0.9988237  )
        19           Cu  tau(  19) = (   0.5001274   1.8460599   0.9990951  )
        20           Cu  tau(  20) = (   0.7500965   2.0775910   0.9988200  )
        21           Cu  tau(  21) = (   0.0001202   0.2312798   1.2470500  )
        22           Cu  tau(  22) = (   0.2501266  -0.0002279   1.2465469  )
        23           Cu  tau(  23) = (   0.5001277   0.2314108   1.2471161  )
        24           Cu  tau(  24) = (   0.7501288  -0.0002220   1.2465597  )
        25           Cu  tau(  25) = (   0.0001151   0.6935290   1.2473932  )
        26           Cu  tau(  26) = (   0.2501287   0.4626528   1.2474123  )
        27           Cu  tau(  27) = (   0.5001061   0.6934427   1.2472910  )
        28           Cu  tau(  28) = (   0.7501074   0.4626399   1.2474111  )
        29           Cu  tau(  29) = (   0.0001084   1.1539136   1.2473399  )
        30           Cu  tau(  30) = (   0.2501012   0.9238036   1.2471593  )
        31           Cu  tau(  31) = (   0.5001013   1.1538543   1.2473491  )
        32           Cu  tau(  32) = (   0.7501099   0.9238066   1.2471850  )
        33           Cu  tau(  33) = (   0.0001167   1.6149989   1.2475846  )
        34           Cu  tau(  34) = (   0.2501326   1.3841796   1.2477159  )
        35           Cu  tau(  35) = (   0.5001188   1.6149564   1.2478131  )
        36           Cu  tau(  36) = (   0.7500895   1.3841885   1.2477151  )
        37           Cu  tau(  37) = (   0.0001271   2.0775972   1.2465320  )
        38           Cu  tau(  38) = (   0.2501315   1.8461849   1.2471166  )
        39           Cu  tau(  39) = (   0.5001280   2.0776237   1.2465139  )
        40           Cu  tau(  40) = (   0.7501148   1.8461863   1.2471266  )
        41           Cu  tau(  41) = (   0.0001445  -0.0006156   1.4955938  )
        42           Cu  tau(  42) = (   0.2502310   0.2310698   1.4959482  )
        43           Cu  tau(  43) = (   0.5001493  -0.0005590   1.4954827  )
        44           Cu  tau(  44) = (   0.7500683   0.2310823   1.4959770  )
        45           Cu  tau(  45) = (   0.0001477   0.4627820   1.4965127  )
        46           Cu  tau(  46) = (   0.2501959   0.6939405   1.4973920  )
        47           Cu  tau(  47) = (   0.5001361   0.4630119   1.4969365  )
        48           Cu  tau(  48) = (   0.7500498   0.6939105   1.4973597  )
        49           Cu  tau(  49) = (   0.0001172   0.9239760   1.4978786  )
        50           Cu  tau(  50) = (   0.2501356   1.1533840   1.4980140  )
        51           Cu  tau(  51) = (   0.5000943   0.9237421   1.4979268  )
        52           Cu  tau(  52) = (   0.7500538   1.1534069   1.4980069  )
        53           Cu  tau(  53) = (   0.0001221   1.3838026   1.4975986  )
        54           Cu  tau(  54) = (   0.2501153   1.6149224   1.4970014  )
        55           Cu  tau(  55) = (   0.5000799   1.3834740   1.4978333  )
        56           Cu  tau(  56) = (   0.7501127   1.6149262   1.4969900  )
        57           Cu  tau(  57) = (   0.0001221   1.8463794   1.4962334  )
        58           Cu  tau(  58) = (   0.2501019   2.0776874   1.4957066  )
        59           Cu  tau(  59) = (   0.5001306   1.8466273   1.4962760  )
        60           Cu  tau(  60) = (   0.7501736   2.0777007   1.4957081  )
        61           Cu  tau(  61) = (   0.0001877   0.2307204   1.7437967  )
        62           Cu  tau(  62) = (   0.2503039  -0.0006554   1.7445778  )
        63           Cu  tau(  63) = (   0.5002047   0.2303883   1.7444964  )
        64           Cu  tau(  64) = (   0.7500508  -0.0006592   1.7445863  )
        65           Cu  tau(  65) = (   0.0001583   0.6934185   1.7468389  )
        66           Cu  tau(  66) = (   0.2506893   0.4624440   1.7452056  )
        67           Cu  tau(  67) = (   0.5001176   0.6942243   1.7485449  )
        68           Cu  tau(  68) = (   0.7496652   0.4624273   1.7452031  )
        69           Cu  tau(  69) = (   0.0001299   1.1535338   1.7489496  )
        70           Cu  tau(  70) = (   0.2504239   0.9236840   1.7494033  )
        71           Cu  tau(  71) = (   0.5000018   1.1525281   1.7494846  )
        72           Cu  tau(  72) = (   0.7497671   0.9236424   1.7492460  )
        73           Cu  tau(  73) = (   0.0000959   1.6153152   1.7458903  )
        74           Cu  tau(  74) = (   0.2499655   1.3836501   1.7471829  )
        75           Cu  tau(  75) = (   0.5000948   1.6154555   1.7450638  )
        76           Cu  tau(  76) = (   0.7501675   1.3837404   1.7470565  )
        77           Cu  tau(  77) = (   0.0001502   2.0777109   1.7452132  )
        78           Cu  tau(  78) = (   0.2498626   1.8469152   1.7451107  )
        79           Cu  tau(  79) = (   0.5001500   2.0781372   1.7451778  )
        80           Cu  tau(  80) = (   0.7503810   1.8469217   1.7450945  )
        81           Cu  tau(  81) = (   0.0001880   0.0003626   1.9899128  )
        82           Cu  tau(  82) = (   0.2503775   0.2304741   1.9897845  )
        83           Cu  tau(  83) = (   0.5002389  -0.0001885   1.9919196  )
        84           Cu  tau(  84) = (   0.7501085   0.2303538   1.9899076  )
        85           Cu  tau(  85) = (   0.0001181   0.4607861   1.9891263  )
        86           Cu  tau(  86) = (   0.2515884   0.6912907   1.9935706  )
        87           Cu  tau(  87) = (   0.5002967   0.4596433   1.9920148  )
        88           Cu  tau(  88) = (   0.7487114   0.6913794   1.9935335  )
        89           Cu  tau(  89) = (   0.0000524   0.9220011   1.9948133  )
        90           Cu  tau(  90) = (   0.2501823   1.1545063   1.9966562  )
        91           Cu  tau(  91) = (   0.5000607   0.9238338   2.0023449  )
        92           Cu  tau(  92) = (   0.7498735   1.1544752   1.9961815  )
        93           Cu  tau(  93) = (  -0.0001053   1.3854653   1.9942316  )
        94           Cu  tau(  94) = (   0.2494940   1.6161283   1.9907123  )
        95           Cu  tau(  95) = (   0.5001117   1.3861732   1.9920235  )
        96           Cu  tau(  96) = (   0.7506231   1.6162460   1.9908327  )
        97           Cu  tau(  97) = (   0.0001162   1.8470478   1.9922548  )
        98           Cu  tau(  98) = (   0.2501982   2.0781576   1.9909844  )
        99           Cu  tau(  99) = (   0.5000966   1.8464318   1.9900467  )
       100           Cu  tau( 100) = (   0.7501237   2.0781271   1.9910173  )
       101           C   tau( 101) = (  -0.0003217   0.0971383   2.3876014  )
       102           C   tau( 102) = (  -0.0001420   0.2894172   2.3859160  )
       103           C   tau( 103) = (   0.1662576   0.0009591   2.3862245  )
       104           C   tau( 104) = (   0.1662773   0.3856249   2.3821414  )
       105           C   tau( 105) = (   0.3327997   0.0971057   2.3843535  )
       106           C   tau( 106) = (   0.3328840   0.2894230   2.3820496  )
       107           C   tau( 107) = (   0.4995919   0.0007445   2.3845572  )
       108           C   tau( 108) = (   0.4997492   0.3861055   2.3809669  )
       109           C   tau( 109) = (   0.6664438   0.0971153   2.3856348  )
       110           C   tau( 110) = (   0.6665990   0.2893991   2.3831185  )
       111           C   tau( 111) = (   0.8329667   0.0009821   2.3869627  )
       112           C   tau( 112) = (   0.8333321   0.3854712   2.3826497  )
       113           C   tau( 113) = (  -0.0002725   0.6741827   2.3779647  )
       114           C   tau( 114) = (  -0.0000973   0.8665586   2.3758157  )
       115           C   tau( 115) = (   0.1661022   0.5779345   2.3783235  )
       116           C   tau( 116) = (   0.1671232   0.9624978   2.3835632  )
       117           C   tau( 117) = (   0.3326950   0.6749417   2.3810696  )
       118           C   tau( 118) = (   0.3310986   0.8656224   2.3892963  )
       119           C   tau( 119) = (   0.4996363   0.5779250   2.3820222  )
       120           C_h tau( 120) = (   0.4996762   0.9618746   2.4439267  )
       121           O   tau( 121) = (   0.4912753   0.9532910   2.6499196  )
       122           H   tau( 122) = (   0.6130058   0.9845079   2.6945064  )
       123           C   tau( 123) = (   0.6667148   0.6746003   2.3810921  )
       124           C   tau( 124) = (   0.6682846   0.8654468   2.3894120  )
       125           C   tau( 125) = (   0.8333502   0.5777349   2.3786748  )
       126           C   tau( 126) = (   0.8325925   0.9624364   2.3836418  )
       127           C   tau( 127) = (  -0.0002104   1.2512703   2.3858857  )
       128           C   tau( 128) = (  -0.0001778   1.4441849   2.3823907  )
       129           C   tau( 129) = (   0.1664529   1.1555908   2.3873834  )
       130           C   tau( 130) = (   0.1666527   1.5405023   2.3817303  )
       131           C   tau( 131) = (   0.3338444   1.2519409   2.3889129  )
       132           C   tau( 132) = (   0.3333805   1.4445803   2.3844802  )
       133           C   tau( 133) = (   0.4996644   1.1579795   2.3964612  )
       134           C   tau( 134) = (   0.4997819   1.5407968   2.3862952  )
       135           C   tau( 135) = (   0.6655175   1.2519948   2.3889844  )
       136           C   tau( 136) = (   0.6662146   1.4447503   2.3853758  )
       137           C   tau( 137) = (   0.8330246   1.1555822   2.3876612  )
       138           C   tau( 138) = (   0.8329924   1.5405701   2.3828489  )
       139           C   tau( 139) = (  -0.0003527   1.8293325   2.3816845  )
       140           C   tau( 140) = (  -0.0005815   2.0217961   2.3839877  )
       141           C   tau( 141) = (   0.1665134   1.7329856   2.3823971  )
       142           C   tau( 142) = (   0.1660514   2.1179503   2.3845032  )
       143           C   tau( 143) = (   0.3329702   1.8292529   2.3851589  )
       144           C   tau( 144) = (   0.3328306   2.0216859   2.3851757  )
       145           C   tau( 145) = (   0.4996230   1.7332577   2.3862450  )
       146           C   tau( 146) = (   0.4993988   2.1177604   2.3867020  )
       147           C   tau( 147) = (   0.6662018   1.8292198   2.3855625  )
       148           C   tau( 148) = (   0.6660217   2.0216721   2.3855138  )
       149           C   tau( 149) = (   0.8328201   1.7330551   2.3830081  )
       150           C   tau( 150) = (   0.8328221   2.1179726   2.3847324  )

     number of k points=     6  gaussian smearing, width (Ry)=  0.1000
                       cart. coord. in units 2pi/alat
        k(    1) = (   0.0000000   0.0000000   0.0000000), wk =   0.2500000
        k(    2) = (   0.0000000  -0.2165064   0.0000000), wk =   0.2500000
        k(    3) = (   0.2500000   0.0000000   0.0000000), wk =   0.5000000
        k(    4) = (   0.2500000  -0.2165064   0.0000000), wk =   0.5000000
        k(    5) = (  -0.5000000   0.0000000   0.0000000), wk =   0.2500000
        k(    6) = (  -0.5000000  -0.2165064   0.0000000), wk =   0.2500000

     Dense  grid:  2050409 G-vectors     FFT dimensions: (  80, 192, 270)

     Largest allocated arrays     est. size (Mb)     dimensions
        Kohn-Sham Wavefunctions        54.80 Mb     (    4604,  780)
        NL pseudopotentials           130.46 Mb     (    4604, 1857)
        Each V/rho on FFT grid          1.17 Mb     (   76800)
        Each G-vector array             0.28 Mb     (   36616)
        G-vector shells                 0.14 Mb     (   17932)
     Largest temporary arrays     est. size (Mb)     dimensions
        Auxiliary wavefunctions       219.18 Mb     (    4604, 3120)
        Each subspace H/S matrix        5.94 Mb     (     624,  624)
        Each <psi_i|beta_j> matrix     22.10 Mb     (    1857,  780)
        Arrays for rho mixing           9.38 Mb     (   76800,    8)

     Initial potential from superposition of free atoms
     Check: negative starting charge=   -0.001759

     starting charge 1273.81750, renormalised to 1299.00000

     negative rho (up, down):  1.794E-03 0.000E+00
     Starting wfc are 1289 randomized atomic wfcs

     total cpu time spent up to now is      106.7 secs

     Self-consistent Calculation

     iteration #  1     ecut=    80.00 Ry     beta=0.70
     Davidson diagonalization with overlap
     c_bands:  2 eigenvalues not converged
     c_bands:  2 eigenvalues not converged
     c_bands:  1 eigenvalues not converged
     c_bands:  1 eigenvalues not converged
     ethr =  1.00E-04,  avg # of iterations = 33.0

     negative rho (up, down):  2.410E+01 0.000E+00

     total cpu time spent up to now is     2021.2 secs

     total energy              =   -9883.24132786 Ry
     Harris-Foulkes estimate   =  -17304.43266280 Ry
     estimated scf accuracy    <  179266.98138088 Ry

     iteration #  2     ecut=    80.00 Ry     beta=0.70
     Davidson diagonalization with overlap
     ethr =  1.00E-02,  avg # of iterations = 11.3

     negative rho (up, down):  2.775E+01 0.000E+00

     total cpu time spent up to now is     2914.6 secs

     total energy              =  -12204.98766272 Ry
     Harris-Foulkes estimate   =  -13652.21307160 Ry
     estimated scf accuracy    <   23553.56975871 Ry

     iteration #  3     ecut=    80.00 Ry     beta=0.70
     Davidson diagonalization with overlap
     ethr =  1.00E-02,  avg # of iterations =  6.5

     negative rho (up, down):  2.875E+01 0.000E+00

     total cpu time spent up to now is     3436.3 secs

     total energy              =  -12440.97375519 Ry
     Harris-Foulkes estimate   =  -13394.40292235 Ry
     estimated scf accuracy    <    5960.45645729 Ry

     iteration #  4     ecut=    80.00 Ry     beta=0.70
     Davidson diagonalization with overlap
     ethr =  1.00E-02,  avg # of iterations =  5.3

     negative rho (up, down):  2.069E+01 0.000E+00

     total cpu time spent up to now is     3996.0 secs

     total energy              =  -12847.17081742 Ry
     Harris-Foulkes estimate   =  -13071.91546055 Ry
     estimated scf accuracy    <    1623.64093858 Ry

     iteration #  5     ecut=    80.00 Ry     beta=0.70
     Davidson diagonalization with overlap
     ethr =  1.00E-02,  avg # of iterations =  3.2

     negative rho (up, down):  1.572E+01 0.000E+00

     total cpu time spent up to now is     4262.7 secs

     total energy              =  -12844.57730231 Ry
     Harris-Foulkes estimate   =  -12946.39053924 Ry
     estimated scf accuracy    <    1020.02890694 Ry

     iteration #  6     ecut=    80.00 Ry     beta=0.70
     Davidson diagonalization with overlap
     ethr =  1.00E-02,  avg # of iterations =  2.0

     negative rho (up, down):  1.061E+01 0.000E+00

     total cpu time spent up to now is     4448.0 secs

     total energy              =  -12831.94545743 Ry
     Harris-Foulkes estimate   =  -12897.01701766 Ry
     estimated scf accuracy    <     528.00611781 Ry

     iteration #  7     ecut=    80.00 Ry     beta=0.70
     Davidson diagonalization with overlap
     ethr =  1.00E-02,  avg # of iterations =  2.0

     negative rho (up, down):  7.695E+00 0.000E+00

     total cpu time spent up to now is     4634.6 secs

     total energy              =  -12813.98484482 Ry
     Harris-Foulkes estimate   =  -12852.86697447 Ry
     estimated scf accuracy    <     401.39345928 Ry

     iteration #  8     ecut=    80.00 Ry     beta=0.70
     Davidson diagonalization with overlap
     ethr =  1.00E-02,  avg # of iterations =  2.0

     negative rho (up, down):  6.349E+00 0.000E+00

     total cpu time spent up to now is     4815.4 secs

     total energy              =  -12804.20440873 Ry
     Harris-Foulkes estimate   =  -12829.54093059 Ry
     estimated scf accuracy    <     376.66518582 Ry

     iteration #  9     ecut=    80.00 Ry     beta=0.70
     Davidson diagonalization with overlap
     ethr =  1.00E-02,  avg # of iterations =  2.2

     negative rho (up, down):  5.457E+00 0.000E+00

     total cpu time spent up to now is     4997.1 secs

     total energy              =  -12803.23697506 Ry
     Harris-Foulkes estimate   =  -12815.19155400 Ry
     estimated scf accuracy    <     191.71666189 Ry

     iteration # 10     ecut=    80.00 Ry     beta=0.70
     Davidson diagonalization with overlap
     ethr =  1.00E-02,  avg # of iterations =  1.0

     negative rho (up, down):  1.668E+00 0.000E+00

     total cpu time spent up to now is     5162.7 secs

     total energy              =  -12772.16294864 Ry
     Harris-Foulkes estimate   =  -12806.18696608 Ry
     estimated scf accuracy    <     144.02720630 Ry

     iteration # 11     ecut=    80.00 Ry     beta=0.70
     Davidson diagonalization with overlap
     ethr =  1.00E-02,  avg # of iterations =  1.3

     negative rho (up, down):  1.199E+00 0.000E+00

     total cpu time spent up to now is     5333.4 secs

     total energy              =  -12763.62285279 Ry
     Harris-Foulkes estimate   =  -12780.83967596 Ry
     estimated scf accuracy    <     342.19426677 Ry

     iteration # 12     ecut=    80.00 Ry     beta=0.70
     Davidson diagonalization with overlap
     ethr =  1.00E-02,  avg # of iterations =  1.2

     negative rho (up, down):  3.146E-01 0.000E+00

     total cpu time spent up to now is     5501.6 secs

     total energy              =  -12761.13327553 Ry
     Harris-Foulkes estimate   =  -12772.76780800 Ry
     estimated scf accuracy    <      80.05019189 Ry

     iteration # 13     ecut=    80.00 Ry     beta=0.70
     Davidson diagonalization with overlap
     ethr =  6.16E-03,  avg # of iterations =  3.0

     negative rho (up, down):  2.228E+00 0.000E+00

     total cpu time spent up to now is     5693.0 secs

     total energy              =  -12748.44098736 Ry
     Harris-Foulkes estimate   =  -12766.33602973 Ry
     estimated scf accuracy    <     106.12062245 Ry

     iteration # 14     ecut=    80.00 Ry     beta=0.70
     Davidson diagonalization with overlap
     ethr =  6.16E-03,  avg # of iterations =  2.8

     negative rho (up, down):  4.086E+00 0.000E+00

     total cpu time spent up to now is     5882.3 secs

     total energy              =  -12748.39473057 Ry
     Harris-Foulkes estimate   =  -12756.25169762 Ry
     estimated scf accuracy    <      82.55695817 Ry

     iteration # 15     ecut=    80.00 Ry     beta=0.70
     Davidson diagonalization with overlap
     ethr =  6.16E-03,  avg # of iterations =  2.0

     negative rho (up, down):  4.252E+00 0.000E+00

     total cpu time spent up to now is     6060.1 secs

     total energy              =  -12747.87096423 Ry
     Harris-Foulkes estimate   =  -12752.55853217 Ry
     estimated scf accuracy    <      47.35205867 Ry

     iteration # 16     ecut=    80.00 Ry     beta=0.70
     Davidson diagonalization with overlap
     ethr =  3.65E-03,  avg # of iterations =  1.5

     negative rho (up, down):  4.441E+00 0.000E+00

     total cpu time spent up to now is     6232.3 secs

     total energy              =  -12748.00722109 Ry
     Harris-Foulkes estimate   =  -12750.55556669 Ry
     estimated scf accuracy    <      21.14487722 Ry

     iteration # 17     ecut=    80.00 Ry     beta=0.70
     Davidson diagonalization with overlap
     ethr =  1.63E-03,  avg # of iterations =  3.8

     negative rho (up, down):  5.419E+00 0.000E+00

     total cpu time spent up to now is     6433.5 secs

     total energy              =  -12746.72441420 Ry
     Harris-Foulkes estimate   =  -12748.57395494 Ry
     estimated scf accuracy    <      14.69394797 Ry

     iteration # 18     ecut=    80.00 Ry     beta=0.70
     Davidson diagonalization with overlap
     ethr =  1.13E-03,  avg # of iterations =  7.2

     negative rho (up, down):  4.448E+00 0.000E+00

     total cpu time spent up to now is     6674.3 secs

     total energy              =  -12745.09481595 Ry
     Harris-Foulkes estimate   =  -12747.20695328 Ry
     estimated scf accuracy    <      10.52903271 Ry

     iteration # 19     ecut=    80.00 Ry     beta=0.70
     Davidson diagonalization with overlap
     ethr =  8.11E-04,  avg # of iterations =  4.8

     negative rho (up, down):  4.143E+00 0.000E+00

     total cpu time spent up to now is     6885.6 secs

     total energy              =  -12744.82301188 Ry
     Harris-Foulkes estimate   =  -12745.55224823 Ry
     estimated scf accuracy    <       9.80449285 Ry

     iteration # 20     ecut=    80.00 Ry     beta=0.70
     Davidson diagonalization with overlap
     ethr =  7.55E-04,  avg # of iterations =  2.2

     negative rho (up, down):  3.493E+00 0.000E+00

     total cpu time spent up to now is     7064.5 secs

     total energy              =  -12744.32354279 Ry
     Harris-Foulkes estimate   =  -12745.17572168 Ry
     estimated scf accuracy    <       6.97225277 Ry

     iteration # 21     ecut=    80.00 Ry     beta=0.70
     Davidson diagonalization with overlap
     ethr =  5.37E-04,  avg # of iterations =  2.5

     negative rho (up, down):  2.425E+00 0.000E+00

     total cpu time spent up to now is     7248.7 secs

     total energy              =  -12743.26135416 Ry
     Harris-Foulkes estimate   =  -12744.47092507 Ry
     estimated scf accuracy    <       6.65414276 Ry

     iteration # 22     ecut=    80.00 Ry     beta=0.70
     Davidson diagonalization with overlap
     ethr =  5.12E-04,  avg # of iterations =  6.2

     negative rho (up, down):  1.304E+00 0.000E+00

     total cpu time spent up to now is     7474.3 secs

     total energy              =  -12742.37233270 Ry
     Harris-Foulkes estimate   =  -12743.41104959 Ry
     estimated scf accuracy    <       9.30142668 Ry

     iteration # 23     ecut=    80.00 Ry     beta=0.70
     Davidson diagonalization with overlap
     ethr =  5.12E-04,  avg # of iterations =  3.7

     negative rho (up, down):  4.874E-01 0.000E+00

     total cpu time spent up to now is     7671.6 secs

     total energy              =  -12741.59525847 Ry
     Harris-Foulkes estimate   =  -12742.48531434 Ry
     estimated scf accuracy    <       5.29707297 Ry

     iteration # 24     ecut=    80.00 Ry     beta=0.70
     Davidson diagonalization with overlap
     ethr =  4.08E-04,  avg # of iterations =  8.0

     negative rho (up, down):  3.033E-01 0.000E+00

     total cpu time spent up to now is     7922.2 secs

     total energy              =  -12740.66966545 Ry
     Harris-Foulkes estimate   =  -12741.86727080 Ry
     estimated scf accuracy    <       5.85128163 Ry

     iteration # 25     ecut=    80.00 Ry     beta=0.70
     Davidson diagonalization with overlap
     ethr =  4.08E-04,  avg # of iterations =  2.2

     negative rho (up, down):  7.173E-02 0.000E+00

     total cpu time spent up to now is     8102.5 secs

     total energy              =  -12740.72739580 Ry
     Harris-Foulkes estimate   =  -12740.85871683 Ry
     estimated scf accuracy    <       5.73268285 Ry

     iteration # 26     ecut=    80.00 Ry     beta=0.70
     Davidson diagonalization with overlap
     ethr =  4.08E-04,  avg # of iterations =  5.3

     negative rho (up, down):  1.854E-01 0.000E+00

     total cpu time spent up to now is     8317.5 secs

     total energy              =  -12740.52375491 Ry
     Harris-Foulkes estimate   =  -12740.94634772 Ry
     estimated scf accuracy    <       2.56954079 Ry

     iteration # 27     ecut=    80.00 Ry     beta=0.70
     Davidson diagonalization with overlap
     ethr =  1.98E-04,  avg # of iterations =  2.3

     negative rho (up, down):  3.709E-01 0.000E+00

     total cpu time spent up to now is     8499.9 secs

     total energy              =  -12740.32485537 Ry
     Harris-Foulkes estimate   =  -12740.58371706 Ry
     estimated scf accuracy    <       1.86736239 Ry

     iteration # 28     ecut=    80.00 Ry     beta=0.70
     Davidson diagonalization with overlap
     ethr =  1.44E-04,  avg # of iterations =  5.0

     negative rho (up, down):  3.201E-01 0.000E+00

     total cpu time spent up to now is     8712.6 secs

     total energy              =  -12740.09401655 Ry
     Harris-Foulkes estimate   =  -12740.35847752 Ry
     estimated scf accuracy    <       1.24002412 Ry

     iteration # 29     ecut=    80.00 Ry     beta=0.70
     Davidson diagonalization with overlap
     ethr =  9.55E-05,  avg # of iterations =  8.7

     negative rho (up, down):  3.688E-02 0.000E+00

     total cpu time spent up to now is     8976.5 secs

     total energy              =  -12739.98982705 Ry
     Harris-Foulkes estimate   =  -12740.12559866 Ry
     estimated scf accuracy    <       0.68917159 Ry

     iteration # 30     ecut=    80.00 Ry     beta=0.70
     Davidson diagonalization with overlap
     ethr =  5.31E-05,  avg # of iterations =  9.3

     negative rho (up, down):  2.470E-04 0.000E+00

     total cpu time spent up to now is     9258.5 secs

     total energy              =  -12739.96934264 Ry
     Harris-Foulkes estimate   =  -12740.03412565 Ry
     estimated scf accuracy    <       0.45424143 Ry

     iteration # 31     ecut=    80.00 Ry     beta=0.70
     Davidson diagonalization with overlap
     ethr =  3.50E-05,  avg # of iterations =  4.3

     negative rho (up, down):  1.906E-01 0.000E+00

     total cpu time spent up to now is     9468.8 secs

     total energy              =  -12739.95487726 Ry
     Harris-Foulkes estimate   =  -12740.02281850 Ry
     estimated scf accuracy    <       0.35944898 Ry

     iteration # 32     ecut=    80.00 Ry     beta=0.70
     Davidson diagonalization with overlap
     ethr =  2.77E-05,  avg # of iterations =  7.2

     negative rho (up, down):  1.205E-01 0.000E+00

     total cpu time spent up to now is     9735.7 secs

     total energy              =  -12739.96833031 Ry
     Harris-Foulkes estimate   =  -12739.98694584 Ry
     estimated scf accuracy    <       0.17551551 Ry

     iteration # 33     ecut=    80.00 Ry     beta=0.70
     Davidson diagonalization with overlap
     c_bands:  2 eigenvalues not converged
     c_bands:  1 eigenvalues not converged
     c_bands:  1 eigenvalues not converged
     ethr =  1.35E-05,  avg # of iterations = 15.3

     negative rho (up, down):  6.803E-02 0.000E+00

     total cpu time spent up to now is    10086.9 secs

     total energy              =  -12739.96918473 Ry
     Harris-Foulkes estimate   =  -12739.97729836 Ry
     estimated scf accuracy    <       0.04270695 Ry

     iteration # 34     ecut=    80.00 Ry     beta=0.70
     Davidson diagonalization with overlap
     ethr =  3.29E-06,  avg # of iterations = 11.0

     negative rho (up, down):  3.603E-02 0.000E+00

     total cpu time spent up to now is    10380.9 secs

     total energy              =  -12739.97024627 Ry
     Harris-Foulkes estimate   =  -12739.97362937 Ry
     estimated scf accuracy    <       0.02385561 Ry

     iteration # 35     ecut=    80.00 Ry     beta=0.70
     Davidson diagonalization with overlap
     ethr =  1.84E-06,  avg # of iterations =  9.7

     negative rho (up, down):  3.535E-02 0.000E+00

     total cpu time spent up to now is    10679.4 secs

     total energy              =  -12739.97080619 Ry
     Harris-Foulkes estimate   =  -12739.97276399 Ry
     estimated scf accuracy    <       0.00789977 Ry

     iteration # 36     ecut=    80.00 Ry     beta=0.70
     Davidson diagonalization with overlap
     c_bands:  1 eigenvalues not converged
     ethr =  6.08E-07,  avg # of iterations = 11.5

     negative rho (up, down):  1.240E-02 0.000E+00

     total cpu time spent up to now is    11007.5 secs

     total energy              =  -12739.97179880 Ry
     Harris-Foulkes estimate   =  -12739.97215589 Ry
     estimated scf accuracy    <       0.00387232 Ry

     iteration # 37     ecut=    80.00 Ry     beta=0.70
     Davidson diagonalization with overlap
     ethr =  2.98E-07,  avg # of iterations = 10.5

     negative rho (up, down):  1.463E-02 0.000E+00

     total cpu time spent up to now is    11303.0 secs

     total energy              =  -12739.97242676 Ry
     Harris-Foulkes estimate   =  -12739.97210636 Ry
     estimated scf accuracy    <       0.00070263 Ry

     iteration # 38     ecut=    80.00 Ry     beta=0.70
     Davidson diagonalization with overlap
     ethr =  5.41E-08,  avg # of iterations =  7.7

     negative rho (up, down):  9.796E-03 0.000E+00

     total cpu time spent up to now is    11568.0 secs

     total energy              =  -12739.97244263 Ry
     Harris-Foulkes estimate   =  -12739.97248106 Ry
     estimated scf accuracy    <       0.00016330 Ry

     iteration # 39     ecut=    80.00 Ry     beta=0.70
     Davidson diagonalization with overlap
     ethr =  1.26E-08,  avg # of iterations =  8.7

     negative rho (up, down):  6.005E-03 0.000E+00

     total cpu time spent up to now is    11834.3 secs

     total energy              =  -12739.97246288 Ry
     Harris-Foulkes estimate   =  -12739.97245379 Ry
     estimated scf accuracy    <       0.00009135 Ry

     iteration # 40     ecut=    80.00 Ry     beta=0.70
     Davidson diagonalization with overlap
     ethr =  7.03E-09,  avg # of iterations =  8.3

     negative rho (up, down):  3.900E-03 0.000E+00

     total cpu time spent up to now is    12105.5 secs

     total energy              =  -12739.97244032 Ry
     Harris-Foulkes estimate   =  -12739.97247013 Ry
     estimated scf accuracy    <       0.00002526 Ry

     iteration # 41     ecut=    80.00 Ry     beta=0.70
     Davidson diagonalization with overlap
     ethr =  1.94E-09,  avg # of iterations =  5.3

     negative rho (up, down):  2.409E-03 0.000E+00

     total cpu time spent up to now is    12334.8 secs

     total energy              =  -12739.97242972 Ry
     Harris-Foulkes estimate   =  -12739.97244334 Ry
     estimated scf accuracy    <       0.00001679 Ry

     iteration # 42     ecut=    80.00 Ry     beta=0.70
     Davidson diagonalization with overlap
     c_bands:  1 eigenvalues not converged
     ethr =  1.29E-09,  avg # of iterations =  8.0

     negative rho (up, down):  2.491E-03 0.000E+00

     total cpu time spent up to now is    12591.9 secs

     total energy              =  -12739.97243116 Ry
     Harris-Foulkes estimate   =  -12739.97243115 Ry
     estimated scf accuracy    <       0.00000371 Ry

     iteration # 43     ecut=    80.00 Ry     beta=0.70
     Davidson diagonalization with overlap
     ethr =  2.85E-10,  avg # of iterations =  4.5

     negative rho (up, down):  2.195E-03 0.000E+00

     total cpu time spent up to now is    12805.9 secs

     total energy              =  -12739.97242992 Ry
     Harris-Foulkes estimate   =  -12739.97243154 Ry
     estimated scf accuracy    <       0.00000176 Ry

     iteration # 44     ecut=    80.00 Ry     beta=0.70
     Davidson diagonalization with overlap
     ethr =  1.36E-10,  avg # of iterations =  3.0

     negative rho (up, down):  1.930E-03 0.000E+00

     total cpu time spent up to now is    13004.3 secs

     total energy              =  -12739.97242983 Ry
     Harris-Foulkes estimate   =  -12739.97243011 Ry
     estimated scf accuracy    <       0.00000072 Ry

     iteration # 45     ecut=    80.00 Ry     beta=0.70
     Davidson diagonalization with overlap
     ethr =  5.50E-11,  avg # of iterations =  3.0

     negative rho (up, down):  2.061E-03 0.000E+00

     total cpu time spent up to now is    13209.4 secs

     total energy              =  -12739.97242983 Ry
     Harris-Foulkes estimate   =  -12739.97242993 Ry
     estimated scf accuracy    <       0.00000031 Ry

     iteration # 46     ecut=    80.00 Ry     beta=0.70
     Davidson diagonalization with overlap
     ethr =  2.35E-11,  avg # of iterations =  2.3

     negative rho (up, down):  2.047E-03 0.000E+00

     total cpu time spent up to now is    13400.4 secs

     total energy              =  -12739.97242988 Ry
     Harris-Foulkes estimate   =  -12739.97242986 Ry
     estimated scf accuracy    <       0.00000005 Ry

     iteration # 47     ecut=    80.00 Ry     beta=0.70
     Davidson diagonalization with overlap
     ethr =  4.10E-12,  avg # of iterations =  3.0

     negative rho (up, down):  2.047E-03 0.000E+00

     total cpu time spent up to now is    13629.8 secs

     total energy              =  -12739.97242988 Ry
     Harris-Foulkes estimate   =  -12739.97242989 Ry
     estimated scf accuracy    <       0.00000003 Ry

     iteration # 48     ecut=    80.00 Ry     beta=0.70
     Davidson diagonalization with overlap
     ethr =  2.29E-12,  avg # of iterations =  2.0

     negative rho (up, down):  2.046E-03 0.000E+00

     total cpu time spent up to now is    13807.1 secs

     End of self-consistent calculation

          k = 0.0000 0.0000 0.0000 (256287 PWs)   bands (ev):

   -19.6142 -16.5097 -16.1157 -16.0426 -15.2028 -14.9963 -14.7145 -14.6335
   -14.2068 -14.1617 -14.0941 -14.0752 -13.4156 -13.2634 -13.1149 -13.0774
   -13.0376 -13.0348 -11.6589 -11.4786 -11.4444 -11.3419 -11.1666 -10.3138
    -9.8186  -9.7182  -9.5717  -9.4880  -8.9745  -8.8043  -8.6322  -8.5563
    -8.0326  -7.9331  -7.8121  -7.6126  -7.5419  -7.5334  -7.4837  -7.4703
    -7.0836  -6.3746  -6.3472  -6.0411  -5.9806  -5.9721  -5.9028  -5.8411
    -5.8067  -5.7952  -5.4427  -5.4367  -5.0402  -4.8631  -4.8217  -4.6590
    -4.5757  -4.5434  -4.4957  -4.3847  -4.1123  -4.1014  -3.9852  -3.9594
    -3.9401  -3.9377  -3.6035  -3.5143  -3.4762  -3.3810  -3.3718  -3.3625
    -3.3616  -3.2352  -3.2110  -3.1420  -3.1207  -2.9748  -2.9693  -2.9641
    -2.9602  -2.9595  -2.9344  -2.8459  -2.7778  -2.7702  -2.7209  -2.6942
    -2.6900  -2.6710  -2.6667  -2.6176  -2.5495  -2.3494  -2.3443  -2.3164
    -2.2989  -2.2703  -2.2032  -2.1485  -2.1477  -2.1311  -2.1081  -2.1077
    -2.1072  -2.1072  -2.0491  -2.0445  -2.0045  -1.9803  -1.9786  -1.9755
    -1.9752  -1.9739  -1.9142  -1.8047  -1.7923  -1.7327  -1.6963  -1.6948
    -1.6937  -1.6891  -1.6526  -1.6318  -1.6279  -1.6152  -1.6106  -1.5954
    -1.5554  -1.5474  -1.5227  -1.5199  -1.5193  -1.5156  -1.4897  -1.4867
    -1.4861  -1.4715  -1.4695  -1.4616  -1.3940  -1.3901  -1.3721  -1.3491
    -1.3466  -1.3360  -1.3262  -1.3085  -1.2993  -1.2547  -1.2200  -1.2182
    -1.2066  -1.1676  -1.1666  -1.1573  -1.1481  -1.1446  -1.1231  -1.1192
    -1.1002  -1.0814  -1.0723  -1.0638  -1.0078  -1.0044  -0.9975  -0.9879
    -0.9834  -0.9785  -0.9779  -0.9776  -0.9768  -0.9735  -0.9722  -0.9606
    -0.9544  -0.9466  -0.9253  -0.9077  -0.9063  -0.8918  -0.8832  -0.8811
    -0.8750  -0.8738  -0.8725  -0.8172  -0.8156  -0.8124  -0.8121  -0.8121
    -0.8112  -0.8104  -0.8095  -0.8065  -0.8051  -0.8037  -0.8036  -0.8033
    -0.8002  -0.7980  -0.7976  -0.7845  -0.7839  -0.7693  -0.7686  -0.7414
    -0.6459  -0.6457  -0.6403  -0.6386  -0.6377  -0.6168  -0.6160  -0.5976
    -0.5974  -0.5776  -0.5758  -0.5662  -0.5610  -0.5570  -0.5555  -0.5440
    -0.5211  -0.5205  -0.5162  -0.5155  -0.5102  -0.5092  -0.4986  -0.4979
    -0.4487  -0.4481  -0.4131  -0.3949  -0.3944  -0.3846  -0.3839  -0.3821
    -0.3781  -0.3667  -0.3649  -0.3612  -0.3599  -0.3595  -0.3587  -0.3561
    -0.3560  -0.3409  -0.3407  -0.3382  -0.3328  -0.3292  -0.3074  -0.3063
    -0.2706  -0.2578  -0.2555  -0.2545  -0.2522  -0.2472  -0.2469  -0.2220
    -0.2219  -0.2178  -0.2174  -0.2031  -0.1981  -0.1979  -0.1968  -0.1962
    -0.1773  -0.1763  -0.1737  -0.1722  -0.1708  -0.1683  -0.1678  -0.1672
    -0.1648  -0.1602  -0.1469  -0.1459  -0.1430  -0.1422  -0.1388  -0.1215
    -0.0763  -0.0745  -0.0740  -0.0728  -0.0712  -0.0281  -0.0260  -0.0241
    -0.0239  -0.0184  -0.0182  -0.0171  -0.0162  -0.0158  -0.0061  -0.0008
     0.0067   0.0268   0.0345   0.0364   0.0369   0.0389   0.0445   0.0624
     0.0635   0.0683   0.0693   0.0720   0.0778   0.0892   0.0904   0.0908
     0.0909   0.0939   0.0980   0.1077   0.1079   0.1082   0.1085   0.1174
     0.1222   0.1231   0.1312   0.1470   0.1477   0.1799   0.1801   0.2015
     0.2100   0.2107   0.2310   0.2394   0.2418   0.2763   0.2780   0.2799
     0.2876   0.2900   0.2902   0.3159   0.3161   0.3179   0.3181   0.3207
     0.3252   0.3254   0.3281   0.3723   0.3853   0.3858   0.3912   0.3935
     0.3938   0.3959   0.4129   0.4218   0.4270   0.4285   0.4303   0.4315
     0.4609   0.4628   0.4653   0.4671   0.4748   0.4815   0.4834   0.4869
     0.4890   0.5251   0.5257   0.5370   0.5383   0.5398   0.5450   0.5457
     0.5524   0.5687   0.5701   0.5737   0.5786   0.5793   0.5803   0.5805
     0.5838   0.5867   0.5887   0.5924   0.5998   0.6003   0.6008   0.6030
     0.6095   0.6101   0.6408   0.6501   0.6502   0.6548   0.6646   0.6920
     0.6925   0.6937   0.6943   0.6973   0.6982   0.6985   0.7001   0.7054
     0.7076   0.7177   0.7224   0.7233   0.7248   0.7264   0.7319   0.7322
     0.7411   0.7440   0.7470   0.7645   0.7646   0.7672   0.7691   0.7770
     0.7776   0.7860   0.7925   0.7931   0.7932   0.7934   0.7986   0.7990
     0.8032   0.8034   0.8124   0.8132   0.8395   0.8503   0.8505   0.8615
     0.8654   0.8665   0.8677   0.8690   0.8699   0.8997   0.9008   0.9149
     0.9155   0.9209   0.9211   0.9348   0.9352   0.9442   0.9444   0.9456
     0.9459   0.9536   0.9632   0.9801   0.9811   0.9848   0.9863   0.9869
     0.9875   0.9952   1.0054   1.0115   1.0216   1.0304   1.0306   1.0422
     1.0469   1.0521   1.0561   1.0568   1.0572   1.0579   1.0588   1.0659
     1.0669   1.0713   1.0729   1.0732   1.0736   1.0746   1.0888   1.0891
     1.1028   1.1074   1.1082   1.1112   1.1121   1.1192   1.1422   1.1486
     1.1489   1.1531   1.1546   1.1556   1.1591   1.1598   1.1635   1.1642
     1.1648   1.1649   1.1650   1.1670   1.1780   1.1809   1.1841   1.2184
     1.2281   1.2301   1.2352   1.2439   1.2471   1.2490   1.2491   1.2513
     1.2531   1.2609   1.2701   1.2786   1.2812   1.2825   1.2837   1.2853
     1.2860   1.2882   1.2897   1.2907   1.2995   1.3137   1.3175   1.3185
     1.3191   1.3215   1.3225   1.3229   1.3243   1.3282   1.3382   1.3389
     1.3399   1.3465   1.3550   1.3551   1.3561   1.3565   1.3573   1.3648
     1.3702   1.3721   1.3888   1.3978   1.3987   1.3993   1.4007   1.4023
     1.4034   1.4058   1.4193   1.4268   1.4325   1.4331   1.4367   1.4465
     1.4548   1.4581   1.4596   1.4680   1.4686   1.4730   1.4766   1.4772
     1.4793   1.4796   1.4804   1.4811   1.4815   1.4837   1.4929   1.4937
     1.4952   1.5105   1.5107   1.5124   1.5134   1.5147   1.5200   1.5266
     1.5274   1.5536   1.5556   1.5597   1.5655   1.6006   1.6022   1.6060
     1.6087   1.6247   1.6249   1.6271   1.6307   1.6348   1.6507   1.6730
     1.6763   1.6777   1.6787   1.6804   1.6875   1.6887   1.6893   1.8194
     1.9417   2.0006   2.1578   2.1589   2.2018   2.2111   2.2495   2.2522
     2.2529   2.2550   2.2704   2.2717   2.2720   2.2865   2.4508   2.4525
     2.5143   2.5152   2.5184   2.5190   2.5284   2.5305   2.7696   2.7702
     2.7724   2.7747   3.0351   3.0561   3.0631   3.2311   3.5233   3.5762
     3.5842   3.8636   3.8689   3.8999   3.9024   3.9029   3.9114   3.9582
     4.0090   4.0404   4.0526   4.0528   4.0547   4.0554   4.0588   4.0657
     4.0687   4.2994   4.3023   4.3075   4.3121   4.4654   4.6326   4.8094
     4.8888   4.9303   4.9329   5.2300   5.3500   5.4384   5.4750   5.4845
     5.7517   5.7642   5.7826   5.7849   5.9759   5.9777   6.3849   6.4034
     6.4146   6.4560   6.5006   6.5225   6.5314   6.5355   6.5937   6.6047
     6.6321   6.6589   6.7694   6.8102   6.8188   6.8303   6.8366   6.8618
     7.0566   7.1000   7.1012   7.1356   7.1398   7.1420   7.2705   7.4032
     7.4054   7.6031   7.6177   7.7371   7.7432   7.7522   7.7568   7.8757
     8.0407   8.0563   8.1830   8.2551   8.2669   8.2783   8.3310   8.3726
     8.3804   8.3828   8.3859   8.4413   8.4478   8.4692   8.5000   8.5936
     8.6037   8.6145   8.7069   8.7178   8.7190   8.7211   8.8255   8.8456
     8.8526   8.8869   8.8894   8.8957   8.9690   9.1127   9.1540   9.1646
     9.1680   9.1791   9.1850   9.2087   9.2375   9.3468   9.3656   9.3927
     9.3959   9.4918   9.5644   9.6223   9.6255   9.6786   9.6984   9.8758
     9.9098  10.0307  10.0882  10.0888

          k = 0.0000-0.2165 0.0000 (256176 PWs)   bands (ev):

   -19.6142 -16.4898 -16.2628 -15.7130 -15.6118 -14.8906 -14.6225 -14.3175
   -14.2989 -14.2215 -14.1726 -13.7812 -13.7323 -13.6729 -13.6415 -12.5741
   -12.3791 -12.3368 -12.2671 -12.1065 -12.0333 -10.6743 -10.4991 -10.4776
   -10.3485  -9.4725  -9.4060  -9.2880  -9.0817  -8.9477  -8.9154  -8.3970
    -8.2907  -8.1758  -8.1165  -7.4967  -7.4329  -7.2256  -6.9289  -6.8886
    -6.8569  -6.8099  -6.7954  -6.7410  -6.1704  -6.0256  -5.8411  -5.8363
    -5.5548  -5.3698  -5.1852  -5.1000  -4.9431  -4.9006  -4.8913  -4.7946
    -4.7915  -4.7084  -4.5863  -4.5659  -4.4272  -4.3892  -4.0333  -4.0107
    -3.8973  -3.7378  -3.5156  -3.4851  -3.2701  -3.2607  -3.2596  -3.2545
    -3.2434  -3.1881  -3.0534  -3.0264  -3.0165  -3.0105  -2.9876  -2.9870
    -2.9377  -2.8561  -2.8305  -2.8161  -2.7832  -2.7452  -2.7282  -2.6412
    -2.5623  -2.5549  -2.5492  -2.5400  -2.5355  -2.5336  -2.5327  -2.5296
    -2.4762  -2.3277  -2.3028  -2.2153  -2.2104  -2.2013  -2.1996  -2.1957
    -2.1182  -2.1038  -2.1028  -2.0996  -2.0766  -1.9966  -1.9425  -1.9423
    -1.9172  -1.9166  -1.8987  -1.8191  -1.8176  -1.7714  -1.7587  -1.7277
    -1.7236  -1.7227  -1.7061  -1.7057  -1.6968  -1.6968  -1.6802  -1.6761
    -1.6227  -1.6032  -1.5986  -1.5657  -1.5358  -1.5161  -1.4793  -1.4264
    -1.4200  -1.4157  -1.4155  -1.3435  -1.3355  -1.3276  -1.3258  -1.3217
    -1.2727  -1.2719  -1.2599  -1.2353  -1.2334  -1.2307  -1.2302  -1.2261
    -1.2252  -1.2061  -1.1903  -1.1847  -1.1811  -1.1788  -1.1764  -1.1667
    -1.1588  -1.1125  -1.1036  -1.1007  -1.0893  -1.0888  -1.0444  -1.0441
    -1.0064  -1.0062  -1.0033  -1.0028  -0.9936  -0.9647  -0.9594  -0.9419
    -0.9408  -0.9377  -0.9349  -0.9333  -0.9321  -0.8842  -0.8826  -0.8755
    -0.8748  -0.8667  -0.8662  -0.8560  -0.8508  -0.8496  -0.8486  -0.8084
    -0.7870  -0.7814  -0.7753  -0.7748  -0.7729  -0.7643  -0.7549  -0.7528
    -0.7512  -0.7396  -0.7343  -0.7235  -0.7109  -0.7107  -0.7025  -0.7011
    -0.6145  -0.6139  -0.6065  -0.6054  -0.5889  -0.5886  -0.5637  -0.5620
    -0.5609  -0.5596  -0.5568  -0.5567  -0.5335  -0.5299  -0.4994  -0.4986
    -0.4977  -0.4954  -0.4951  -0.4932  -0.4915  -0.4890  -0.4605  -0.4596
    -0.4528  -0.4405  -0.4395  -0.4395  -0.4377  -0.4055  -0.4045  -0.4031
    -0.4024  -0.3963  -0.3950  -0.3922  -0.3871  -0.3864  -0.3713  -0.3186
    -0.3179  -0.3081  -0.3077  -0.3036  -0.2838  -0.2817  -0.2615  -0.2592
    -0.2584  -0.2531  -0.2522  -0.2512  -0.2505  -0.2291  -0.2285  -0.2219
    -0.2206  -0.2176  -0.2145  -0.2130  -0.2049  -0.2037  -0.2017  -0.1994
    -0.1994  -0.1992  -0.1914  -0.1872  -0.1664  -0.1631  -0.1628  -0.1590
    -0.1584  -0.1365  -0.0973  -0.0967  -0.0958  -0.0952  -0.0888  -0.0870
    -0.0829  -0.0826  -0.0775  -0.0762  -0.0678  -0.0537  -0.0495  -0.0437
    -0.0431  -0.0384  -0.0370  -0.0343  -0.0333  -0.0314  -0.0305  -0.0292
    -0.0271   0.0145   0.0269   0.0271   0.0288   0.0289   0.0477   0.0493
     0.0495   0.0503   0.0523   0.0596   0.0705   0.0721   0.0755   0.0775
     0.0792   0.0898   0.1014   0.1035   0.1191   0.1201   0.1204   0.1210
     0.1260   0.1385   0.1404   0.1553   0.1557   0.1643   0.1670   0.1763
     0.1791   0.1797   0.1803   0.2203   0.2209   0.2296   0.2314   0.2368
     0.2449   0.2458   0.2466   0.2716   0.2736   0.2931   0.3083   0.3095
     0.3145   0.3368   0.3421   0.3534   0.3874   0.4209   0.4268   0.4270
     0.4335   0.4349   0.4553   0.4555   0.4563   0.4575   0.4790   0.4909
     0.4930   0.4940   0.4967   0.4978   0.4995   0.5026   0.5043   0.5063
     0.5070   0.5177   0.5200   0.5217   0.5220   0.5258   0.5290   0.5298
     0.5332   0.5424   0.5589   0.5612   0.5713   0.5713   0.5719   0.5738
     0.5807   0.5807   0.5991   0.6008   0.6021   0.6033   0.6035   0.6036
     0.6042   0.6051   0.6066   0.6211   0.6240   0.6252   0.6280   0.6282
     0.6293   0.6326   0.6350   0.6411   0.6521   0.6888   0.6901   0.7012
     0.7016   0.7022   0.7121   0.7129   0.7133   0.7151   0.7182   0.7213
     0.7253   0.7266   0.7270   0.7271   0.7289   0.7523   0.7692   0.7693
     0.7700   0.7703   0.7860   0.7865   0.7866   0.7873   0.7879   0.8007
     0.8072   0.8153   0.8184   0.8199   0.8249   0.8268   0.8278   0.8725
     0.8793   0.8900   0.9318   0.9321   0.9322   0.9376   0.9381   0.9402
     0.9489   0.9501   0.9536   0.9549   0.9604   0.9617   0.9680   0.9694
     0.9697   0.9700   0.9818   0.9839   0.9860   0.9864   0.9866   0.9890
     1.0004   1.0054   1.0103   1.0111   1.0112   1.0128   1.0142   1.0145
     1.0176   1.0221   1.0294   1.0322   1.0341   1.0342   1.0370   1.0384
     1.0389   1.0450   1.0560   1.0567   1.0659   1.0704   1.0716   1.0748
     1.0751   1.0821   1.0825   1.0839   1.0840   1.0841   1.0864   1.1001
     1.1348   1.1368   1.1669   1.1719   1.1720   1.1744   1.1907   1.1914
     1.1946   1.1961   1.1981   1.2121   1.2147   1.2167   1.2255   1.2320
     1.2369   1.2376   1.2401   1.2420   1.2440   1.2448   1.2454   1.2460
     1.2468   1.2472   1.2476   1.2540   1.2543   1.2551   1.2684   1.2702
     1.2756   1.2758   1.2780   1.2830   1.2841   1.2853   1.3130   1.3138
     1.3152   1.3180   1.3202   1.3211   1.3221   1.3250   1.3405   1.3423
     1.3432   1.3442   1.3554   1.3563   1.3571   1.3582   1.3596   1.3668
     1.3743   1.3765   1.3773   1.3783   1.3946   1.3949   1.3975   1.4046
     1.4181   1.4188   1.4236   1.4239   1.4245   1.4263   1.4370   1.4390
     1.4405   1.4413   1.4555   1.4564   1.4706   1.4707   1.4713   1.4714
     1.4898   1.4916   1.4919   1.4929   1.4953   1.4954   1.4964   1.4969
     1.5229   1.5244   1.5319   1.5323   1.5365   1.5451   1.5513   1.5609
     1.5632   1.5641   1.5657   1.5688   1.5702   1.5782   1.5813   1.5897
     1.6328   1.6337   1.6348   1.6349   1.7369   1.7381   1.7623   1.7674
     1.7724   1.7751   1.7784   1.7987   1.8345   1.8346   1.8353   1.8361
     1.8568   1.8592   1.8594   1.8676   1.8957   1.9000   2.1255   2.1438
     2.1526   2.4530   2.4619   2.4709   2.4716   2.5349   2.5442   2.5909
     2.6134   2.6148   2.6150   2.6245   2.6268   2.6902   2.7534   2.7612
     2.8138   2.8180   2.8304   2.8331   2.9675   2.9695   3.2143   3.2143
     3.2405   3.2471   3.4613   3.4785   3.7153   3.7179   3.9621   3.9783
     3.9884   4.1246   4.1529   4.1622   4.1690   4.3676   4.3746   4.3826
     4.3828   4.4355   4.5513   4.5549   4.7279   4.7652   4.8232   4.8335
     5.1153   5.1214   5.1471   5.1477   5.4033   5.4041   5.4057   5.4079
     5.4589   5.4761   5.6980   5.7280   5.7344   5.7822   5.8402   5.9935
     6.4112   6.4608   6.4770   6.4803   6.5043   6.5093   6.5985   6.6076
     6.7085   6.7158   6.8567   6.8684   6.9948   7.0697   7.0842   7.1065
     7.1173   7.1358   7.1519   7.1564   7.1836   7.1857   7.2181   7.3395
     7.3923   7.4006   7.4116   7.4638   7.4771   7.6260   7.7046   7.7322
     7.7836   7.8051   8.1912   8.1917   8.2253   8.3774   8.4030   8.4035
     8.4175   8.4711   8.4756   8.5044   8.5152   8.5157   8.5350   8.6716
     8.7478   8.7569   8.7598   8.7702   8.8019   8.8151   8.8202   8.8992
     8.9237   9.0010   9.0367   9.0722   9.1241   9.2024   9.2124   9.2598
     9.2757   9.3021   9.3463   9.4175   9.4210   9.4413   9.4440   9.4710
     9.4956   9.5391   9.5508   9.5601   9.5751   9.6418   9.7231   9.7373
     9.7902   9.8316   9.8347   9.9343

          k = 0.2500 0.0000 0.0000 (256240 PWs)   bands (ev):

   -19.6126 -16.4126 -16.0060 -15.9205 -15.5245 -15.0683 -14.9562 -14.8989
   -14.8429 -14.0394 -13.9085 -13.7049 -13.2055 -13.1204 -13.0454 -13.0005
   -12.3197 -12.1812 -12.1045 -12.0352 -11.2259 -11.0921 -10.7529 -10.6330
   -10.3212 -10.1828  -9.9105  -9.8713  -9.4718  -9.2298  -9.1176  -8.6780
    -8.0111  -7.9061  -7.7505  -7.5291  -7.5099  -7.4074  -7.1539  -7.0325
    -6.8544  -6.2910  -6.1716  -6.0168  -5.9238  -5.8676  -5.7937  -5.4511
    -5.2901  -5.2688  -5.2631  -4.9379  -4.8763  -4.6994  -4.5166  -4.4414
    -4.4294  -4.4198  -4.3874  -4.3630  -4.3152  -4.1979  -3.9709  -3.9584
    -3.9552  -3.9055  -3.8838  -3.7976  -3.7961  -3.7796  -3.6224  -3.5945
    -3.5608  -3.5278  -3.4785  -3.3703  -3.3631  -3.2767  -3.2463  -3.1947
    -3.1679  -3.1046  -3.0450  -2.9857  -2.9106  -2.8540  -2.7559  -2.7549
    -2.7379  -2.7041  -2.6081  -2.5763  -2.5700  -2.4724  -2.4340  -2.3730
    -2.3544  -2.2942  -2.2721  -2.0556  -2.0550  -2.0386  -2.0369  -2.0238
    -1.9667  -1.9559  -1.9304  -1.8610  -1.8485  -1.8250  -1.7895  -1.7584
    -1.7575  -1.7549  -1.7495  -1.7494  -1.7297  -1.7016  -1.6873  -1.6820
    -1.6728  -1.6685  -1.6668  -1.6128  -1.6047  -1.5884  -1.5595  -1.5397
    -1.5364  -1.5356  -1.5344  -1.5343  -1.5298  -1.4818  -1.4721  -1.4601
    -1.4574  -1.4468  -1.4440  -1.3286  -1.2954  -1.2878  -1.2691  -1.2677
    -1.2293  -1.2250  -1.2056  -1.2005  -1.1986  -1.1937  -1.1863  -1.1815
    -1.1643  -1.1631  -1.1566  -1.1410  -1.1382  -1.1337  -1.1230  -1.1068
    -1.0925  -1.0921  -1.0890  -1.0866  -1.0835  -1.0687  -1.0666  -1.0593
    -1.0427  -1.0315  -1.0120  -1.0060  -1.0056  -1.0050  -0.9938  -0.9798
    -0.9726  -0.9688  -0.9654  -0.9588  -0.9525  -0.9486  -0.9388  -0.9379
    -0.9362  -0.9351  -0.9322  -0.9311  -0.9213  -0.9191  -0.9061  -0.9017
    -0.8989  -0.8945  -0.8887  -0.8598  -0.8576  -0.8514  -0.8100  -0.8076
    -0.7719  -0.7717  -0.7538  -0.7508  -0.7441  -0.7272  -0.7267  -0.7133
    -0.7122  -0.7094  -0.7046  -0.6996  -0.6963  -0.6797  -0.6439  -0.5607
    -0.5575  -0.5558  -0.5512  -0.5254  -0.5245  -0.5227  -0.5073  -0.5064
    -0.5052  -0.5047  -0.4982  -0.4862  -0.4833  -0.4827  -0.4800  -0.4747
    -0.4641  -0.4421  -0.4413  -0.4406  -0.4383  -0.4368  -0.4278  -0.4164
    -0.4163  -0.4141  -0.3921  -0.3560  -0.3553  -0.3550  -0.3533  -0.3482
    -0.3441  -0.3364  -0.3277  -0.3213  -0.3129  -0.3125  -0.2909  -0.2891
    -0.2883  -0.2836  -0.2510  -0.2506  -0.2477  -0.2472  -0.2381  -0.2368
    -0.2308  -0.2262  -0.2243  -0.2170  -0.2094  -0.1969  -0.1877  -0.1860
    -0.1796  -0.1568  -0.1551  -0.1542  -0.1521  -0.1482  -0.1385  -0.1369
    -0.1355  -0.1327  -0.1213  -0.1078  -0.1077  -0.0957  -0.0919  -0.0888
    -0.0703  -0.0691  -0.0667  -0.0649  -0.0256  -0.0199  -0.0192  -0.0176
    -0.0118  -0.0108   0.0029   0.0244   0.0249   0.0301   0.0329   0.0347
     0.0368   0.0436   0.0458   0.0491   0.0499   0.0514   0.0527   0.0537
     0.0574   0.0733   0.0780   0.0781   0.0812   0.0853   0.0865   0.1035
     0.1037   0.1163   0.1187   0.1235   0.1386   0.1574   0.1580   0.1605
     0.1612   0.1635   0.1783   0.1838   0.1847   0.1859   0.1872   0.1876
     0.2186   0.2235   0.2333   0.2577   0.2937   0.2969   0.2977   0.3007
     0.3119   0.3149   0.3165   0.3173   0.3186   0.3254   0.3279   0.3305
     0.3325   0.3337   0.3393   0.3417   0.3508   0.3514   0.3525   0.3581
     0.3623   0.3672   0.3701   0.3743   0.3757   0.3805   0.3811   0.4001
     0.4058   0.4112   0.4380   0.4417   0.4498   0.4556   0.4673   0.4677
     0.4865   0.4869   0.4875   0.4915   0.4979   0.5066   0.5207   0.5240
     0.5253   0.5292   0.5298   0.5332   0.5367   0.5396   0.5406   0.5511
     0.5615   0.5703   0.5742   0.5866   0.5888   0.5903   0.5918   0.5934
     0.5958   0.5996   0.6000   0.6130   0.6237   0.6241   0.6272   0.6302
     0.6364   0.6400   0.6408   0.6424   0.6542   0.6548   0.6595   0.6613
     0.6639   0.6810   0.6828   0.7023   0.7024   0.7066   0.7096   0.7144
     0.7149   0.7194   0.7323   0.7463   0.7498   0.7679   0.7722   0.7846
     0.7852   0.7885   0.7901   0.7948   0.8039   0.8099   0.8145   0.8196
     0.8231   0.8238   0.8338   0.8350   0.8464   0.8479   0.8483   0.8587
     0.8660   0.8680   0.8685   0.8815   0.8991   0.8993   0.9015   0.9024
     0.9205   0.9246   0.9314   0.9349   0.9372   0.9386   0.9387   0.9463
     0.9467   0.9508   0.9523   0.9684   0.9859   0.9918   0.9950   0.9972
     0.9993   0.9996   1.0127   1.0145   1.0337   1.0343   1.0358   1.0370
     1.0396   1.0436   1.0457   1.0498   1.0616   1.0624   1.0630   1.0635
     1.0657   1.0665   1.0679   1.0706   1.0750   1.0759   1.0773   1.0808
     1.0839   1.0907   1.1034   1.1045   1.1058   1.1092   1.1137   1.1138
     1.1196   1.1208   1.1319   1.1348   1.1368   1.1482   1.1517   1.1523
     1.1540   1.1559   1.1669   1.1787   1.1813   1.1818   1.1902   1.1931
     1.2000   1.2007   1.2023   1.2056   1.2082   1.2206   1.2286   1.2338
     1.2367   1.2374   1.2682   1.2768   1.2786   1.2842   1.2889   1.2900
     1.2922   1.2971   1.2977   1.2985   1.3011   1.3066   1.3148   1.3211
     1.3232   1.3239   1.3257   1.3328   1.3425   1.3439   1.3447   1.3457
     1.3496   1.3553   1.3576   1.3584   1.3609   1.3618   1.3666   1.3672
     1.3700   1.3774   1.3798   1.3865   1.3929   1.3961   1.4000   1.4018
     1.4021   1.4038   1.4056   1.4217   1.4246   1.4247   1.4254   1.4457
     1.4465   1.4542   1.4554   1.4634   1.4662   1.4667   1.4681   1.4709
     1.4721   1.4735   1.4774   1.4786   1.4794   1.4857   1.4872   1.5001
     1.5083   1.5086   1.5106   1.5113   1.5133   1.5141   1.5213   1.5276
     1.5277   1.5363   1.5394   1.5507   1.5518   1.5558   1.5589   1.5595
     1.5621   1.5791   1.5905   1.5974   1.6194   1.6260   1.6570   1.6676
     1.6701   1.6734   1.7070   1.7121   1.7842   1.8024   1.8059   1.8077
     1.8177   1.8239   1.8450   1.8814   1.9567   2.0744   2.0888   2.1184
     2.1248   2.1351   2.1366   2.2355   2.2965   2.3101   2.4706   2.6072
     2.6101   2.6125   2.6219   3.0198   3.0199   3.0623   3.2372   3.2376
     3.2625   3.2625   3.3184   3.3377   3.5126   3.5300   3.6330   3.6334
     3.6751   3.6786   3.7454   3.7495   3.7636   3.7668   3.8014   3.9158
     3.9199   4.0210   4.0222   4.0522   4.2305   4.2430   4.2548   4.3200
     4.3558   4.4425   4.5433   4.7227   4.8209   4.8720   4.8905   5.2161
     5.2637   5.2653   5.2733   5.2937   5.3902   5.4089   5.5131   5.5198
     5.5491   5.6203   5.6432   5.6509   5.7199   5.7559   5.7728   5.7877
     5.8377   5.8779   5.8848   5.9169   6.0513   6.0592   6.0870   6.0969
     6.5662   6.6356   6.7252   6.7460   6.7508   6.7837   6.7976   6.8350
     6.9206   6.9716   7.0615   7.0824   7.0936   7.0986   7.1144   7.2423
     7.3016   7.3350   7.3725   7.3886   7.5387   7.5785   7.5990   7.6082
     7.6215   7.8042   7.8288   7.8469   7.9947   8.0373   8.0546   8.0723
     8.1054   8.1406   8.2165   8.2455   8.3018   8.3190   8.3604   8.3611
     8.4217   8.4563   8.4902   8.5021   8.6899   8.6933   8.8671   8.9905
     8.9999   9.0201   9.0343   9.0826   9.1644   9.2038   9.2299   9.2564
     9.2626   9.2783   9.3022   9.3215   9.3377   9.3612   9.4122   9.4586
     9.4734   9.4972   9.5062   9.5584   9.6782   9.7093   9.7497   9.7651
     9.7720   9.8108   9.8598   9.8773

          k = 0.2500-0.2165 0.0000 (256316 PWs)   bands (ev):

   -19.6126 -16.3965 -16.1390 -15.6663 -15.4963 -15.4020 -15.1513 -14.6348
   -14.5149 -14.1859 -14.0651 -13.6601 -13.2278 -13.2096 -13.1073 -12.7288
   -12.6139 -12.1119 -11.9771 -11.4896 -11.3888 -11.2491 -11.0784 -10.9154
   -10.5845  -9.8461  -9.7453  -9.3847  -9.3201  -9.0677  -9.0135  -8.6513
    -8.6143  -8.4397  -8.3820  -7.5775  -7.1325  -6.9894  -6.6843  -6.6212
    -6.5543  -6.4499  -6.4090  -6.2691  -6.0487  -5.9790  -5.6630  -5.6587
    -5.4552  -5.2450  -5.0571  -4.9014  -4.7706  -4.7542  -4.6326  -4.6301
    -4.5497  -4.5155  -4.3048  -4.3022  -4.2710  -4.2367  -4.1512  -4.1347
    -4.1051  -3.8741  -3.8204  -3.7375  -3.6989  -3.5785  -3.5332  -3.5276
    -3.4223  -3.4165  -3.4135  -3.3587  -3.3371  -3.2662  -3.1733  -3.0996
    -3.0906  -3.0490  -3.0035  -2.9164  -2.8855  -2.8733  -2.8657  -2.8649
    -2.8151  -2.7779  -2.6725  -2.6418  -2.5921  -2.4607  -2.3218  -2.2718
    -2.2690  -2.2340  -2.1621  -2.1341  -2.1246  -2.1244  -2.1147  -2.0696
    -1.9663  -1.9657  -1.9455  -1.9254  -1.9213  -1.9151  -1.8563  -1.8212
    -1.7751  -1.7692  -1.7684  -1.7482  -1.7304  -1.7060  -1.7051  -1.6808
    -1.6778  -1.6671  -1.6643  -1.6514  -1.6395  -1.6331  -1.6329  -1.6323
    -1.6256  -1.6232  -1.6212  -1.5405  -1.5350  -1.4255  -1.4245  -1.3427
    -1.3240  -1.3225  -1.3132  -1.2865  -1.2854  -1.2379  -1.2335  -1.2329
    -1.2189  -1.2186  -1.2085  -1.2055  -1.2022  -1.1958  -1.1876  -1.1800
    -1.1780  -1.1717  -1.1661  -1.1608  -1.1580  -1.1549  -1.1475  -1.1441
    -1.1390  -1.1003  -1.0886  -1.0861  -1.0848  -1.0784  -1.0773  -1.0704
    -1.0693  -1.0627  -1.0389  -1.0349  -1.0033  -0.9965  -0.9956  -0.9909
    -0.9844  -0.9793  -0.9617  -0.9522  -0.9520  -0.9453  -0.9334  -0.9277
    -0.9183  -0.9175  -0.9162  -0.9122  -0.9116  -0.9032  -0.8980  -0.8815
    -0.8794  -0.8593  -0.8552  -0.8278  -0.8198  -0.8183  -0.8177  -0.7765
    -0.7377  -0.7342  -0.7323  -0.7278  -0.7261  -0.7249  -0.7038  -0.6810
    -0.6772  -0.6690  -0.6687  -0.6619  -0.6616  -0.6517  -0.6495  -0.6428
    -0.6109  -0.6091  -0.5774  -0.5706  -0.5645  -0.5289  -0.5247  -0.5208
    -0.5201  -0.5182  -0.4932  -0.4909  -0.4887  -0.4809  -0.4728  -0.4623
    -0.4576  -0.4566  -0.4440  -0.4427  -0.4210  -0.4147  -0.4132  -0.4097
    -0.4027  -0.3952  -0.3935  -0.3647  -0.3644  -0.3535  -0.3503  -0.3475
    -0.3392  -0.3346  -0.3244  -0.3238  -0.3194  -0.3189  -0.3147  -0.3130
    -0.3081  -0.3076  -0.2926  -0.2873  -0.2860  -0.2734  -0.2729  -0.2476
    -0.2434  -0.2319  -0.2259  -0.2175  -0.2115  -0.2036  -0.1959  -0.1957
    -0.1841  -0.1747  -0.1731  -0.1718  -0.1692  -0.1652  -0.1362  -0.1273
    -0.1105  -0.1101  -0.0730  -0.0728  -0.0642  -0.0640  -0.0613  -0.0599
    -0.0435  -0.0434  -0.0325  -0.0267  -0.0246  -0.0231  -0.0129  -0.0086
    -0.0036  -0.0012   0.0028   0.0050   0.0058   0.0068   0.0276   0.0327
     0.0387   0.0402   0.0410   0.0426   0.0433   0.0456   0.0467   0.0500
     0.0523   0.0556   0.0749   0.0753   0.0757   0.0763   0.1082   0.1098
     0.1170   0.1185   0.1213   0.1234   0.1430   0.1440   0.1491   0.1652
     0.1752   0.1763   0.1823   0.1880   0.1931   0.1962   0.1964   0.1979
     0.2032   0.2111   0.2147   0.2189   0.2229   0.2465   0.2505   0.2816
     0.3121   0.3154   0.3217   0.3226   0.3253   0.3269   0.3290   0.3305
     0.3373   0.3378   0.3395   0.3401   0.3552   0.3620   0.3653   0.3685
     0.3716   0.3746   0.3755   0.3814   0.3829   0.3891   0.4077   0.4155
     0.4242   0.4251   0.4346   0.4376   0.4488   0.4495   0.4841   0.4890
     0.4931   0.4978   0.5003   0.5007   0.5049   0.5105   0.5139   0.5146
     0.5215   0.5235   0.5242   0.5273   0.5292   0.5347   0.5548   0.5570
     0.5623   0.5653   0.5777   0.5801   0.6032   0.6106   0.6113   0.6122
     0.6134   0.6429   0.6462   0.6487   0.6504   0.6510   0.6534   0.6558
     0.6580   0.6677   0.6697   0.6716   0.6740   0.6755   0.6815   0.6888
     0.6963   0.6985   0.7032   0.7112   0.7121   0.7148   0.7151   0.7179
     0.7234   0.7279   0.7306   0.7326   0.7338   0.7439   0.7522   0.7539
     0.7555   0.7596   0.7608   0.7617   0.7635   0.7646   0.7653   0.7923
     0.8003   0.8059   0.8129   0.8148   0.8317   0.8392   0.8519   0.8580
     0.8672   0.8674   0.8689   0.8695   0.8736   0.8749   0.8971   0.8979
     0.8986   0.8989   0.9001   0.9003   0.9104   0.9160   0.9184   0.9268
     0.9283   0.9331   0.9391   0.9417   0.9484   0.9586   0.9725   0.9728
     0.9936   0.9974   0.9987   1.0016   1.0045   1.0076   1.0096   1.0121
     1.0136   1.0198   1.0386   1.0450   1.0464   1.0553   1.0594   1.0627
     1.0640   1.0728   1.0807   1.0843   1.0998   1.1072   1.1098   1.1237
     1.1241   1.1303   1.1315   1.1332   1.1344   1.1352   1.1357   1.1378
     1.1395   1.1403   1.1495   1.1500   1.1594   1.1620   1.1633   1.1691
     1.1817   1.1869   1.2083   1.2097   1.2156   1.2168   1.2188   1.2202
     1.2211   1.2232   1.2296   1.2317   1.2344   1.2351   1.2366   1.2419
     1.2445   1.2461   1.2480   1.2483   1.2540   1.2605   1.2663   1.2670
     1.2677   1.2685   1.2693   1.2716   1.2835   1.2846   1.2888   1.2898
     1.3139   1.3149   1.3217   1.3225   1.3363   1.3389   1.3419   1.3428
     1.3542   1.3544   1.3599   1.3667   1.3673   1.3737   1.3754   1.3776
     1.3779   1.3803   1.3903   1.3914   1.3922   1.3958   1.4027   1.4041
     1.4147   1.4188   1.4255   1.4259   1.4266   1.4277   1.4289   1.4293
     1.4367   1.4370   1.4476   1.4481   1.4531   1.4538   1.4640   1.4656
     1.4666   1.4696   1.4795   1.4802   1.4813   1.4821   1.4864   1.4876
     1.4876   1.4897   1.4943   1.4975   1.4978   1.5168   1.5224   1.5225
     1.5282   1.5333   1.5451   1.5462   1.5645   1.5661   1.5697   1.5724
     1.5931   1.5947   1.6005   1.6023   1.6272   1.6287   1.6494   1.6696
     1.6890   1.7098   1.7120   1.7456   1.7955   1.7997   1.8121   1.8205
     1.8303   1.8322   1.8337   1.8348   1.8561   1.8874   1.8970   2.1646
     2.1697   2.1972   2.2027   2.3061   2.3349   2.3959   2.6275   2.6290
     2.8303   2.8332   2.8344   2.8368   2.8486   2.8577   2.8854   2.8873
     3.0269   3.0281   3.1197   3.1365   3.5773   3.5891   3.6553   3.6600
     3.7205   3.7378   3.8805   3.8822   3.8904   3.8915   4.0373   4.0420
     4.0969   4.1044   4.2041   4.2071   4.3397   4.4166   4.4185   4.4322
     4.5947   4.5973   4.6514   4.6987   4.7311   4.7516   4.7577   4.9449
     4.9874   4.9903   5.0556   5.0934   5.1639   5.2270   5.3258   5.3429
     5.4792   5.4900   5.5012   5.5027   5.5094   5.5297   5.8025   5.8065
     5.9307   5.9406   5.9765   5.9932   6.0191   6.0449   6.6201   6.6353
     6.6511   6.6847   6.7717   6.7960   6.8590   6.9085   6.9450   7.0330
     7.0887   7.1158   7.1212   7.1380   7.1499   7.1793   7.2142   7.2521
     7.2670   7.3615   7.3809   7.3855   7.3873   7.4285   7.4588   7.4863
     7.4915   7.6995   7.7237   7.8180   7.8442   7.8977   8.0080   8.0487
     8.1914   8.2339   8.2549   8.2868   8.3100   8.3800   8.4982   8.6275
     8.6337   8.6419   8.6476   8.6829   8.6900   8.7515   8.7548   8.7951
     8.8764   8.9271   8.9790   8.9976   9.0245   9.1241   9.1758   9.1825
     9.1948   9.2180   9.2230   9.2435   9.2615   9.2734   9.2963   9.3152
     9.3565   9.3926   9.4113   9.4694   9.4746   9.5048   9.5454   9.6366
     9.6609   9.6756   9.8494   9.9730

          k =-0.5000 0.0000 0.0000 (256496 PWs)   bands (ev):

   -19.6110 -16.2120 -15.9661 -15.6674 -15.5790 -15.5743 -15.5138 -14.7084
   -14.5606 -14.4762 -14.4358 -13.1540 -12.8504 -12.7264 -12.6572 -12.4144
   -12.3687 -11.8766 -11.8542 -11.7606 -11.7583 -11.2105 -11.1671 -10.9489
   -10.7104 -10.2859 -10.2555 -10.0418  -9.7156  -9.1612  -9.1112  -8.9418
    -8.9012  -7.8266  -7.7931  -7.5789  -7.3748  -7.3267  -7.3032  -7.0721
    -6.3411  -6.2231  -5.8337  -5.2940  -5.2671  -5.2621  -5.1557  -4.9519
    -4.8130  -4.7649  -4.7620  -4.7605  -4.7569  -4.7528  -4.7235  -4.6945
    -4.6650  -4.6176  -4.5368  -4.4963  -4.4368  -4.3667  -4.3334  -4.3264
    -4.0498  -3.9839  -3.9735  -3.9261  -3.9243  -3.8220  -3.7255  -3.6240
    -3.5221  -3.5139  -3.5051  -3.3917  -3.3829  -3.3769  -3.3765  -3.3756
    -3.3730  -3.3482  -3.3307  -3.3202  -2.9707  -2.8975  -2.8230  -2.8068
    -2.7545  -2.7303  -2.7235  -2.6948  -2.6002  -2.5569  -2.5447  -2.4337
    -2.4030  -2.3773  -2.2653  -2.2563  -2.2543  -2.2510  -2.0275  -1.8609
    -1.8354  -1.8350  -1.8345  -1.8340  -1.8330  -1.8311  -1.8084  -1.7084
    -1.7079  -1.7062  -1.6806  -1.6503  -1.6072  -1.6069  -1.6066  -1.6048
    -1.5591  -1.5582  -1.5570  -1.5558  -1.4600  -1.4561  -1.4443  -1.4440
    -1.4412  -1.4372  -1.4064  -1.3828  -1.3823  -1.3820  -1.3789  -1.3633
    -1.3617  -1.3148  -1.3145  -1.3095  -1.3077  -1.2991  -1.2983  -1.2968
    -1.2945  -1.2917  -1.2850  -1.2483  -1.2480  -1.2465  -1.2444  -1.2250
    -1.2239  -1.2237  -1.2225  -1.1605  -1.1602  -1.1408  -1.1393  -1.1378
    -1.1371  -1.1229  -1.1129  -1.1121  -1.1091  -1.1072  -1.1063  -1.1036
    -1.0931  -1.0642  -1.0641  -1.0626  -1.0621  -1.0500  -1.0422  -1.0410
    -1.0120  -1.0115  -0.9664  -0.9659  -0.9652  -0.9383  -0.9375  -0.9354
    -0.9340  -0.9145  -0.9092  -0.9080  -0.9076  -0.9045  -0.9036  -0.9013
    -0.8912  -0.8888  -0.8851  -0.8841  -0.8839  -0.8603  -0.8587  -0.7985
    -0.7972  -0.7949  -0.7946  -0.7514  -0.7505  -0.7229  -0.6680  -0.6673
    -0.6668  -0.6663  -0.6498  -0.6441  -0.6301  -0.6300  -0.6280  -0.6275
    -0.6273  -0.6207  -0.6099  -0.5899  -0.5890  -0.5876  -0.5850  -0.5771
    -0.5753  -0.5627  -0.5586  -0.5553  -0.5439  -0.5134  -0.4753  -0.4707
    -0.4485  -0.4321  -0.4308  -0.4262  -0.4129  -0.4127  -0.4062  -0.3839
    -0.3700  -0.3671  -0.3632  -0.3629  -0.3604  -0.3599  -0.3585  -0.3374
    -0.3254  -0.3247  -0.3236  -0.3228  -0.3161  -0.2862  -0.2856  -0.2851
    -0.2845  -0.2583  -0.2518  -0.2517  -0.2513  -0.2510  -0.2403  -0.2397
    -0.2073  -0.2072  -0.2052  -0.2044  -0.1999  -0.1941  -0.1880  -0.1710
    -0.1699  -0.1558  -0.1396  -0.0929  -0.0918  -0.0914  -0.0910  -0.0860
    -0.0857  -0.0835  -0.0828  -0.0582  -0.0463  -0.0453  -0.0421  -0.0355
    -0.0093  -0.0076   0.0184   0.0188   0.0201   0.0209   0.0214   0.0220
     0.0228   0.0234   0.0237   0.0244   0.0255   0.0261   0.0493   0.0851
     0.0981   0.1013   0.1041   0.1071   0.1096   0.1127   0.1146   0.1154
     0.1165   0.1198   0.1220   0.1244   0.1248   0.1274   0.1294   0.1299
     0.1307   0.1377   0.1453   0.1454   0.1603   0.1607   0.1622   0.1625
     0.1628   0.1629   0.1716   0.1718   0.1722   0.1723   0.1848   0.1849
     0.1881   0.1972   0.1975   0.1982   0.1988   0.2098   0.2265   0.2282
     0.2558   0.2927   0.2954   0.3286   0.3288   0.3316   0.3317   0.3627
     0.3629   0.3634   0.3644   0.3756   0.3777   0.3792   0.3818   0.3871
     0.3873   0.3880   0.3884   0.3934   0.3935   0.3967   0.3970   0.3983
     0.4032   0.4089   0.4140   0.4157   0.4177   0.4217   0.4277   0.4316
     0.4317   0.4415   0.4416   0.4466   0.4474   0.4712   0.4799   0.5284
     0.5337   0.5364   0.5373   0.5473   0.5496   0.5621   0.5647   0.5697
     0.5705   0.5709   0.5722   0.5744   0.5764   0.5774   0.5778   0.5781
     0.5813   0.5825   0.5831   0.5881   0.5883   0.5903   0.5922   0.6056
     0.6112   0.6278   0.6279   0.6394   0.6404   0.6475   0.6555   0.6608
     0.6617   0.6658   0.6666   0.6736   0.6740   0.6748   0.6777   0.6783
     0.6799   0.6901   0.6926   0.6963   0.6965   0.7099   0.7127   0.7130
     0.7144   0.7445   0.7488   0.7493   0.7507   0.7533   0.7567   0.7615
     0.7702   0.7780   0.8020   0.8073   0.8086   0.8094   0.8101   0.8111
     0.8133   0.8144   0.8503   0.8795   0.8798   0.8839   0.8844   0.8850
     0.8851   0.8895   0.8901   0.8953   0.8955   0.8974   0.8977   0.9077
     0.9097   0.9271   0.9292   0.9311   0.9323   0.9431   0.9460   0.9485
     0.9492   0.9494   0.9515   0.9519   0.9520   0.9850   0.9909   0.9910
     0.9915   1.0032   1.0340   1.0516   1.0565   1.0566   1.0574   1.0598
     1.0894   1.0897   1.0902   1.0910   1.0986   1.1077   1.1079   1.1142
     1.1204   1.1220   1.1346   1.1347   1.1382   1.1528   1.1533   1.1591
     1.1603   1.1616   1.1618   1.1653   1.1669   1.1688   1.1702   1.1785
     1.1787   1.1793   1.1794   1.1808   1.1810   1.1832   1.1839   1.2055
     1.2200   1.2203   1.2208   1.2214   1.2457   1.2496   1.2530   1.2562
     1.2564   1.2568   1.2576   1.2683   1.2738   1.2757   1.2847   1.2850
     1.2859   1.2862   1.2954   1.2963   1.2963   1.2980   1.3028   1.3090
     1.3122   1.3127   1.3238   1.3425   1.3429   1.3487   1.3587   1.3590
     1.3591   1.3595   1.3596   1.3597   1.3605   1.3675   1.3730   1.3735
     1.3740   1.3741   1.3744   1.3759   1.3761   1.3815   1.3833   1.3852
     1.3857   1.3858   1.3865   1.3927   1.3928   1.4074   1.4090   1.4175
     1.4301   1.4309   1.4336   1.4344   1.4348   1.4356   1.4364   1.4391
     1.4537   1.4562   1.4586   1.4589   1.4725   1.4730   1.4798   1.4814
     1.4925   1.4927   1.4930   1.4939   1.5116   1.5127   1.5151   1.5158
     1.5173   1.5214   1.5222   1.5225   1.5227   1.5258   1.5367   1.5421
     1.5442   1.5530   1.5567   1.5572   1.5576   1.5579   1.5670   1.5716
     1.5721   1.6134   1.6221   1.6241   1.6498   1.6506   1.6540   1.6557
     1.6738   2.0530   2.0786   2.0792   2.0807   2.1923   2.2809   2.2953
     2.3050   2.3170   2.3274   2.3351   2.3351   2.3552   2.6642   2.6664
     2.6742   2.6763   2.8737   2.8787   2.8799   2.8821   3.2275   3.2277
     3.2303   3.2318   3.5170   3.5174   3.8022   3.8054   3.8083   3.8109
     3.9649   3.9677   3.9693   3.9727   4.1094   4.1122   4.1145   4.1197
     4.2351   4.2462   4.4167   4.4729   4.5232   4.7038   4.7846   4.7982
     4.8113   4.8179   4.8679   4.8694   4.9000   4.9231   5.0596   5.0601
     5.0716   5.0890   5.0910   5.0926   5.1000   5.1186   5.1193   5.1409
     5.1487   5.1905   5.1928   5.3424   5.5596   5.5807   5.5854   5.6045
     5.7047   5.7356   5.8566   5.9264   6.0319   6.0326   6.0454   6.0518
     6.0784   6.0925   6.0961   6.1032   6.3863   6.4215   6.4383   6.4929
     6.4994   6.5061   6.5243   6.5328   7.1291   7.1421   7.1457   7.1644
     7.1727   7.1743   7.5455   7.6078   7.6388   7.6450   7.6459   7.6475
     7.6563   7.6695   7.6893   7.8537   7.8592   7.9117   7.9305   7.9382
     7.9407   8.0426   8.1016   8.1060   8.1112   8.1577   8.1884   8.1985
     8.2067   8.2862   8.5057   8.6584   8.7462   8.7765   8.8561   8.8748
     8.8792   8.8808   8.9326   9.0165   9.0244   9.0641   9.1147   9.1265
     9.1354   9.1727   9.2192   9.3086   9.3101   9.4640   9.4813   9.5002
     9.5288   9.5332   9.5380   9.5641   9.5707   9.5747   9.5824   9.5912
     9.6405   9.7445   9.7632   9.8570

          k =-0.5000-0.2165 0.0000 (256328 PWs)   bands (ev):

   -19.6110 -16.2068 -15.9332 -15.7778 -15.7571 -15.2828 -15.1647 -15.1149
   -15.0669 -13.9718 -13.7823 -13.6690 -13.6299 -12.6531 -12.3944 -11.9624
   -11.9568 -11.8783 -11.7206 -11.6298 -11.5458 -11.5000 -11.4966 -11.3789
   -11.3626 -10.0346  -9.9819  -9.7372  -9.6854  -9.1879  -8.9161  -8.7507
    -8.7205  -8.2880  -8.2232  -7.9873  -7.9580  -7.2547  -6.5905  -6.4036
    -6.0205  -5.9111  -5.8073  -5.5832  -5.3589  -5.2666  -5.2618  -5.1580
    -5.1397  -5.1380  -5.1377  -5.1300  -4.9792  -4.9662  -4.5592  -4.3735
    -4.3535  -4.2936  -4.2875  -4.2169  -4.2122  -4.1720  -4.1560  -4.1553
    -4.1551  -4.1443  -4.0904  -3.9208  -3.8208  -3.8177  -3.8114  -3.7482
    -3.7131  -3.6941  -3.6522  -3.6460  -3.5502  -3.5478  -3.4508  -3.4419
    -3.4294  -3.3074  -3.0896  -3.0437  -3.0195  -2.9440  -2.7016  -2.6011
    -2.5360  -2.5352  -2.5340  -2.5331  -2.4958  -2.4748  -2.4730  -2.4723
    -2.3896  -2.3677  -2.3000  -2.1027  -2.0759  -2.0588  -2.0556  -2.0549
    -2.0388  -2.0242  -1.9734  -1.9706  -1.9685  -1.9632  -1.9503  -1.7609
    -1.7596  -1.7581  -1.7555  -1.7394  -1.7009  -1.6974  -1.5818  -1.4996
    -1.4632  -1.4598  -1.4497  -1.4493  -1.4491  -1.4490  -1.4129  -1.4103
    -1.4095  -1.4082  -1.3904  -1.3901  -1.3874  -1.3873  -1.3426  -1.3424
    -1.3415  -1.3404  -1.3398  -1.3396  -1.3349  -1.3319  -1.3266  -1.3144
    -1.3143  -1.3138  -1.3136  -1.2680  -1.2665  -1.2630  -1.2627  -1.2514
    -1.1885  -1.1874  -1.1855  -1.1750  -1.1471  -1.1470  -1.1461  -1.1459
    -1.1294  -1.1287  -1.1271  -1.1219  -1.0778  -1.0772  -1.0767  -1.0765
    -1.0720  -1.0717  -1.0717  -1.0701  -1.0543  -1.0479  -1.0447  -1.0367
    -1.0171  -1.0169  -1.0097  -1.0080  -1.0031  -0.9996  -0.9993  -0.9950
    -0.9940  -0.9932  -0.9929  -0.9919  -0.9918  -0.9907  -0.9732  -0.8409
    -0.8399  -0.8385  -0.8367  -0.8090  -0.8087  -0.8083  -0.8080  -0.7323
    -0.7283  -0.7277  -0.7267  -0.7243  -0.7215  -0.7194  -0.7185  -0.7184
    -0.7176  -0.7155  -0.7106  -0.6564  -0.6561  -0.6559  -0.6543  -0.6465
    -0.6457  -0.6454  -0.6442  -0.6277  -0.6266  -0.6209  -0.6176  -0.5372
    -0.5326  -0.5316  -0.5297  -0.5267  -0.5247  -0.5241  -0.5199  -0.4560
    -0.4557  -0.4540  -0.4521  -0.4056  -0.4055  -0.4045  -0.4038  -0.3848
    -0.3848  -0.3837  -0.3832  -0.3701  -0.3593  -0.3577  -0.3568  -0.3463
    -0.3452  -0.3449  -0.3434  -0.3362  -0.3102  -0.3069  -0.3066  -0.2575
    -0.2320  -0.2316  -0.2276  -0.2271  -0.2133  -0.2132  -0.2125  -0.2121
    -0.1974  -0.1963  -0.1963  -0.1943  -0.1148  -0.1136  -0.1132  -0.1106
    -0.1100  -0.1091  -0.1077  -0.1069  -0.1064  -0.1062  -0.1055  -0.1043
    -0.0681  -0.0681  -0.0679  -0.0675  -0.0567  -0.0561  -0.0559  -0.0558
    -0.0514  -0.0510  -0.0509  -0.0494   0.0143   0.0173   0.0177   0.0192
     0.0270   0.0414   0.0447   0.0469   0.0517   0.0883   0.0907   0.0930
     0.0992   0.1014   0.1016   0.1203   0.1237   0.1241   0.1250   0.1258
     0.1302   0.1309   0.1320   0.1330   0.1348   0.1370   0.1374   0.1439
     0.1441   0.1445   0.1455   0.1498   0.1502   0.1518   0.1528   0.1531
     0.1672   0.1672   0.1673   0.1688   0.1948   0.1948   0.1955   0.1956
     0.2041   0.2051   0.2054   0.2082   0.2543   0.2549   0.2550   0.2551
     0.2790   0.2868   0.2872   0.2890   0.3049   0.3406   0.3550   0.3584
     0.3618   0.3667   0.3698   0.3704   0.3716   0.3757   0.3790   0.3877
     0.3884   0.3898   0.3906   0.4005   0.4010   0.4048   0.4085   0.4096
     0.4111   0.4124   0.4149   0.4152   0.4182   0.4201   0.4236   0.4252
     0.4274   0.4364   0.4495   0.4902   0.4929   0.4956   0.4970   0.5005
     0.5009   0.5012   0.5050   0.5131   0.5134   0.5139   0.5149   0.5436
     0.5471   0.5518   0.5530   0.5535   0.5541   0.5607   0.5610   0.5904
     0.5951   0.5964   0.5988   0.6024   0.6043   0.6109   0.6112   0.6116
     0.6129   0.6132   0.6180   0.6188   0.6192   0.6198   0.6228   0.6341
     0.6349   0.6362   0.6364   0.6381   0.6477   0.6524   0.6526   0.7036
     0.7145   0.7207   0.7239   0.7247   0.7266   0.7268   0.7285   0.7289
     0.7297   0.7352   0.7360   0.7444   0.7459   0.7537   0.7598   0.7715
     0.7730   0.7732   0.7739   0.7742   0.7755   0.7756   0.7782   0.8112
     0.8251   0.8269   0.8282   0.8544   0.8547   0.8561   0.8571   0.8639
     0.8663   0.8735   0.8750   0.8906   0.8911   0.8924   0.8942   0.9159
     0.9163   0.9186   0.9188   0.9681   0.9693   0.9699   0.9703   0.9949
     1.0017   1.0022   1.0027   1.0047   1.0525   1.0543   1.0547   1.0585
     1.0708   1.0710   1.0730   1.0791   1.0820   1.0831   1.0835   1.0881
     1.0883   1.0884   1.0889   1.0913   1.0913   1.0920   1.0941   1.0970
     1.0987   1.1082   1.1185   1.1200   1.1213   1.1237   1.1238   1.1245
     1.1252   1.1262   1.1296   1.1317   1.1391   1.1416   1.1440   1.1603
     1.1650   1.1681   1.1684   1.1688   1.1742   1.1773   1.1776   1.1846
     1.1873   1.1878   1.1881   1.2175   1.2342   1.2356   1.2378   1.2386
     1.2394   1.2408   1.2428   1.2595   1.2653   1.2659   1.2661   1.2669
     1.2819   1.2823   1.2864   1.2870   1.2944   1.3017   1.3030   1.3125
     1.3140   1.3142   1.3148   1.3226   1.3226   1.3238   1.3250   1.3293
     1.3306   1.3308   1.3316   1.3640   1.3944   1.3966   1.3967   1.3969
     1.3979   1.3981   1.3985   1.3988   1.4052   1.4066   1.4080   1.4091
     1.4166   1.4166   1.4169   1.4195   1.4239   1.4272   1.4277   1.4281
     1.4307   1.4334   1.4345   1.4379   1.4388   1.4388   1.4390   1.4406
     1.4487   1.4505   1.4511   1.4588   1.4589   1.4599   1.4609   1.4918
     1.4930   1.4930   1.4932   1.5047   1.5080   1.5080   1.5090   1.5111
     1.5225   1.5227   1.5264   1.5363   1.5447   1.5451   1.5455   1.5669
     1.5962   1.5990   1.6000   1.6161   1.6170   1.6171   1.6177   1.6437
     1.6463   1.6472   1.6497   1.6537   1.6569   1.6572   1.6581   1.6587
     1.6599   1.6608   1.6613   1.8718   1.8788   1.8799   1.8802   2.1703
     2.3903   2.3919   2.3982   2.3996   2.6028   2.6039   2.6057   2.6109
     2.8412   2.8430   2.8442   2.8514   3.1389   3.1422   3.1433   3.1464
     3.4959   3.4965   3.4967   3.4982   3.6834   3.6850   3.6899   3.6902
     3.9711   3.9718   3.9723   3.9728   4.2682   4.2684   4.2707   4.2721
     4.3654   4.3837   4.3973   4.4001   4.5538   4.5969   4.6044   4.6124
     4.6164   4.6301   4.6377   4.6398   4.8403   4.9191   4.9229   4.9504
     5.0305   5.0861   5.1042   5.2086   5.2145   5.2158   5.2194   5.2499
     5.3002   5.3139   5.3406   5.3700   5.3874   5.4020   5.4137   5.4215
     5.6335   5.7718   5.7793   5.7917   5.7929   5.7958   5.7964   5.8393
     5.8787   5.9388   5.9556   5.9586   6.8062   6.8084   6.8472   6.8494
     7.0968   7.1580   7.1637   7.1782   7.1841   7.2000   7.2021   7.2048
     7.2446   7.3280   7.3381   7.3427   7.4046   7.4111   7.4128   7.4137
     7.5212   7.6136   7.6671   7.6753   7.6970   7.7761   7.9058   7.9365
     8.0105   8.0308   8.0366   8.0429   8.0783   8.2795   8.2811   8.2828
     8.2944   8.3751   8.3981   8.4411   8.9167   8.9293   8.9346   8.9382
     8.9416   8.9605   8.9645   8.9734   9.0084   9.0120   9.0122   9.0159
     9.0565   9.1448   9.1540   9.1593   9.1723   9.2231   9.2862   9.3710
     9.4413   9.4723   9.5753   9.5835   9.6064   9.6101   9.6259   9.6333
     9.6574   9.6973   9.8252   9.9622

     the Fermi energy is     3.3656 ev

!    total energy              =  -12739.97242987 Ry
     Harris-Foulkes estimate   =  -12739.97242988 Ry
     estimated scf accuracy    <          6.4E-09 Ry

     The total energy is the sum of the following terms:

     one-electron contribution = -108932.69243877 Ry
     hartree contribution      =   55832.91278490 Ry
     xc contribution           =   -4455.41867926 Ry
     ewald contribution        =   44821.58042603 Ry
     Dispersion Correction     =      -3.00587863 Ry
     smearing contrib. (-TS)   =      -3.34864415 Ry

     convergence has been achieved in  48 iterations

     Writing output data file gc.save
 
     init_run     :     98.92s CPU    106.29s WALL (       1 calls)
     electrons    :  12800.08s CPU  13700.63s WALL (       1 calls)

     Called by init_run:
     wfcinit      :     96.33s CPU    103.33s WALL (       1 calls)
     potinit      :      0.51s CPU      0.51s WALL (       1 calls)

     Called by electrons:
     c_bands      :  11721.41s CPU  12510.39s WALL (      48 calls)
     sum_band     :    888.93s CPU    968.56s WALL (      48 calls)
     v_of_rho     :      3.10s CPU      3.92s WALL (      49 calls)
     newd         :      9.29s CPU     16.38s WALL (      49 calls)
     mix_rho      :    177.24s CPU    201.34s WALL (      48 calls)

     Called by c_bands:
     init_us_2    :     40.25s CPU     40.88s WALL (     582 calls)
     cegterg      :  11542.09s CPU  12324.81s WALL (     293 calls)

     Called by sum_band:
     sum_band:bec :      5.05s CPU      5.81s WALL (     288 calls)
     addusdens    :      9.80s CPU     16.19s WALL (      48 calls)

     Called by *egterg:
     h_psi        :   4281.08s CPU   4639.28s WALL (    1960 calls)
     s_psi        :   1035.22s CPU   1047.06s WALL (    1960 calls)
     g_psi        :     10.73s CPU     10.74s WALL (    1661 calls)
     cdiaghg      :   3334.69s CPU   3460.75s WALL (    1949 calls)

     Called by h_psi:
     add_vuspsi   :   1040.87s CPU   1054.69s WALL (    1960 calls)

     General routines
     calbec       :   1483.89s CPU   1495.03s WALL (    2248 calls)
     fft          :      3.95s CPU      4.70s WALL (     636 calls)
     ffts         :    103.12s CPU    117.34s WALL (   27367 calls)
     fftw         :   2463.38s CPU   2758.60s WALL ( 1374608 calls)
     davcio       :      0.38s CPU      4.04s WALL (       6 calls)
 
     Parallel routines
     fft_scatter  :   1586.41s CPU   1745.28s WALL ( 1402611 calls)
 
     PWSCF        :     3h35m CPU        3h50m WALL

 
   This run was terminated on:  12:38:35   1May2017            

=------------------------------------------------------------------------------=
   JOB DONE.
=------------------------------------------------------------------------------=
