
     Program PWSCF v.5.4.0 starts on 21Nov2016 at 12:59: 2 

     This program is part of the open-source Quantum ESPRESSO suite
     for quantum simulation of materials; please cite
         "P. Giannozzi et al., J. Phys.:Condens. Matter 21 395502 (2009);
          URL http://www.quantum-espresso.org", 
     in publications or presentations arising from this work. More details at
     http://www.quantum-espresso.org/quote

     Parallel version (MPI & OpenMP), running on      64 processor cores
     Number of MPI processes:                64
     Threads/MPI process:                     1
     R & G space division:  proc/nbgrp/npool/nimage =      64
     Waiting for input...
     Reading input from standard input

     Current dimensions of program PWSCF are:
     Max number of different atomic species (ntypx) = 10
     Max number of k-points (npk) =  40000
     Max angular momentum in pseudopotentials (lmaxx) =  3

     -------------------------------------
     Parameters for Dispersion Correction:
     -------------------------------------
       atom      VdW radius       C_6     

        Cu         2.952        374.666

     Subspace diagonalization in iterative solution of the eigenvalue problem:
     one sub-group per band group will be used
     scalapack distributed-memory algorithm (size of sub-group:  5*  5 procs)

     Found symmetry operation: I + (  0.2500  0.1000  0.0000)
     This is a supercell, fractional translations are disabled
 
     Parallelization info
     --------------------
     sticks:   dense  smooth     PW     G-vecs:    dense   smooth      PW
     Min         100      89     24                13508    11311    1587
     Max         101      90     26                13521    11337    1594
     Sum        6411    5717   1547               864803   724739  101705
 


     bravais-lattice index     =            0
     lattice parameter (alat)  =      13.9425  a.u.
     unit-cell volume          =   21209.0878 (a.u.)^3
     number of atoms/cell      =          100
     number of atomic types    =            1
     number of electrons       =      1100.00
     number of Kohn-Sham states=          660
     kinetic-energy cutoff     =      40.0000  Ry
     charge density cutoff     =     180.0000  Ry
     convergence threshold     =      1.0E-08
     mixing beta               =       0.7000
     number of iterations used =            8  plain     mixing
     Exchange-correlation      =  SLA  PW   PBE  PBE ( 1  4  3  4 0 0)
     nstep                     =           50


     celldm(1)=  13.942539  celldm(2)=   0.000000  celldm(3)=   0.000000
     celldm(4)=   0.000000  celldm(5)=   0.000000  celldm(6)=   0.000000

     crystal axes: (cart. coord. in units of alat)
               a(1) = (   1.000000   0.000000   0.000000 )  
               a(2) = (   0.000000   2.309401   0.000000 )  
               a(3) = (   0.000000   0.000000   3.388418 )  

     reciprocal axes: (cart. coord. in units 2 pi/alat)
               b(1) = (  1.000000  0.000000  0.000000 )  
               b(2) = (  0.000000  0.433013  0.000000 )  
               b(3) = (  0.000000  0.000000  0.295123 )  


     PseudoPot. # 1 for Cu read from file:
     /home/549/hxw549/Short/pseudopotentials/Cu.pbe-n-van_ak.UPF
     MD5 check sum: 601f7c30f7467666bec936e0661ce3e1
     Pseudo is Ultrasoft + core correction, Zval = 11.0
     Generated by new atomic code, or converted to UPF format
     Using radial grid of  867 points,  6 beta functions with: 
                l(1) =   0
                l(2) =   0
                l(3) =   1
                l(4) =   1
                l(5) =   2
                l(6) =   2
     Q(r) pseudized with  8 coefficients,  rinner =    1.400   1.400   1.400
                                                       1.400   1.400

     atomic species   valence    mass     pseudopotential
        Cu            11.00    63.54600     Cu( 1.00)

      8 Sym. Ops., with inversion, found



   Cartesian axes

     site n.     atom                  positions (alat units)
         1           Cu  tau(   1) = (   0.0000000   0.0000000   1.2056354  )
         2           Cu  tau(   2) = (   0.2500000   0.2309401   1.2056354  )
         3           Cu  tau(   3) = (   0.5000000   0.0000000   1.2056354  )
         4           Cu  tau(   4) = (   0.7500000   0.2309401   1.2056354  )
         5           Cu  tau(   5) = (   0.0000000   0.4618802   1.2056354  )
         6           Cu  tau(   6) = (   0.2500000   0.6928203   1.2056354  )
         7           Cu  tau(   7) = (   0.5000000   0.4618802   1.2056354  )
         8           Cu  tau(   8) = (   0.7500000   0.6928203   1.2056354  )
         9           Cu  tau(   9) = (   0.0000000   0.9237604   1.2056354  )
        10           Cu  tau(  10) = (   0.2500000   1.1547005   1.2056354  )
        11           Cu  tau(  11) = (   0.5000000   0.9237604   1.2056354  )
        12           Cu  tau(  12) = (   0.7500000   1.1547005   1.2056354  )
        13           Cu  tau(  13) = (   0.0000000   1.3856406   1.2056354  )
        14           Cu  tau(  14) = (   0.2500000   1.6165808   1.2056354  )
        15           Cu  tau(  15) = (   0.5000000   1.3856406   1.2056354  )
        16           Cu  tau(  16) = (   0.7500000   1.6165808   1.2056354  )
        17           Cu  tau(  17) = (   0.0000000   1.8475209   1.2056354  )
        18           Cu  tau(  18) = (   0.2500000   2.0784610   1.2056354  )
        19           Cu  tau(  19) = (   0.5000000   1.8475209   1.2056354  )
        20           Cu  tau(  20) = (   0.7500000   2.0784610   1.2056354  )
        21           Cu  tau(  21) = (   0.0000000   0.2309401   1.4464147  )
        22           Cu  tau(  22) = (   0.2500000   0.0000000   1.4464147  )
        23           Cu  tau(  23) = (   0.5000000   0.2309401   1.4464147  )
        24           Cu  tau(  24) = (   0.7500000   0.0000000   1.4464147  )
        25           Cu  tau(  25) = (   0.0000000   0.6928203   1.4464147  )
        26           Cu  tau(  26) = (   0.2500000   0.4618802   1.4464147  )
        27           Cu  tau(  27) = (   0.5000000   0.6928203   1.4464147  )
        28           Cu  tau(  28) = (   0.7500000   0.4618802   1.4464147  )
        29           Cu  tau(  29) = (   0.0000000   1.1547005   1.4464147  )
        30           Cu  tau(  30) = (   0.2500000   0.9237604   1.4464147  )
        31           Cu  tau(  31) = (   0.5000000   1.1547005   1.4464147  )
        32           Cu  tau(  32) = (   0.7500000   0.9237604   1.4464147  )
        33           Cu  tau(  33) = (   0.0000000   1.6165808   1.4464147  )
        34           Cu  tau(  34) = (   0.2500000   1.3856406   1.4464147  )
        35           Cu  tau(  35) = (   0.5000000   1.6165808   1.4464147  )
        36           Cu  tau(  36) = (   0.7500000   1.3856406   1.4464147  )
        37           Cu  tau(  37) = (   0.0000000   2.0784610   1.4464147  )
        38           Cu  tau(  38) = (   0.2500000   1.8475209   1.4464147  )
        39           Cu  tau(  39) = (   0.5000000   2.0784610   1.4464147  )
        40           Cu  tau(  40) = (   0.7500000   1.8475209   1.4464147  )
        41           Cu  tau(  41) = (   0.0000000   0.0000000   1.6942091  )
        42           Cu  tau(  42) = (   0.2500000   0.2309401   1.6942091  )
        43           Cu  tau(  43) = (   0.5000000   0.0000000   1.6942091  )
        44           Cu  tau(  44) = (   0.7500000   0.2309401   1.6942091  )
        45           Cu  tau(  45) = (   0.0000000   0.4618802   1.6942091  )
        46           Cu  tau(  46) = (   0.2500000   0.6928203   1.6942091  )
        47           Cu  tau(  47) = (   0.5000000   0.4618802   1.6942091  )
        48           Cu  tau(  48) = (   0.7500000   0.6928203   1.6942091  )
        49           Cu  tau(  49) = (   0.0000000   0.9237604   1.6942091  )
        50           Cu  tau(  50) = (   0.2500000   1.1547005   1.6942091  )
        51           Cu  tau(  51) = (   0.5000000   0.9237604   1.6942091  )
        52           Cu  tau(  52) = (   0.7500000   1.1547005   1.6942091  )
        53           Cu  tau(  53) = (   0.0000000   1.3856406   1.6942091  )
        54           Cu  tau(  54) = (   0.2500000   1.6165808   1.6942091  )
        55           Cu  tau(  55) = (   0.5000000   1.3856406   1.6942091  )
        56           Cu  tau(  56) = (   0.7500000   1.6165808   1.6942091  )
        57           Cu  tau(  57) = (   0.0000000   1.8475209   1.6942091  )
        58           Cu  tau(  58) = (   0.2500000   2.0784610   1.6942091  )
        59           Cu  tau(  59) = (   0.5000000   1.8475209   1.6942091  )
        60           Cu  tau(  60) = (   0.7500000   2.0784610   1.6942091  )
        61           Cu  tau(  61) = (   0.0000000   0.2309401   1.9420036  )
        62           Cu  tau(  62) = (   0.2500000   0.0000000   1.9420036  )
        63           Cu  tau(  63) = (   0.5000000   0.2309401   1.9420036  )
        64           Cu  tau(  64) = (   0.7500000   0.0000000   1.9420036  )
        65           Cu  tau(  65) = (   0.0000000   0.6928203   1.9420036  )
        66           Cu  tau(  66) = (   0.2500000   0.4618802   1.9420036  )
        67           Cu  tau(  67) = (   0.5000000   0.6928203   1.9420036  )
        68           Cu  tau(  68) = (   0.7500000   0.4618802   1.9420036  )
        69           Cu  tau(  69) = (   0.0000000   1.1547005   1.9420036  )
        70           Cu  tau(  70) = (   0.2500000   0.9237604   1.9420036  )
        71           Cu  tau(  71) = (   0.5000000   1.1547005   1.9420036  )
        72           Cu  tau(  72) = (   0.7500000   0.9237604   1.9420036  )
        73           Cu  tau(  73) = (   0.0000000   1.6165808   1.9420036  )
        74           Cu  tau(  74) = (   0.2500000   1.3856406   1.9420036  )
        75           Cu  tau(  75) = (   0.5000000   1.6165808   1.9420036  )
        76           Cu  tau(  76) = (   0.7500000   1.3856406   1.9420036  )
        77           Cu  tau(  77) = (   0.0000000   2.0784610   1.9420036  )
        78           Cu  tau(  78) = (   0.2500000   1.8475209   1.9420036  )
        79           Cu  tau(  79) = (   0.5000000   2.0784610   1.9420036  )
        80           Cu  tau(  80) = (   0.7500000   1.8475209   1.9420036  )
        81           Cu  tau(  81) = (   0.0000000   0.0000000   2.1827847  )
        82           Cu  tau(  82) = (   0.2500000   0.2309401   2.1827847  )
        83           Cu  tau(  83) = (   0.5000000   0.0000000   2.1827847  )
        84           Cu  tau(  84) = (   0.7500000   0.2309401   2.1827847  )
        85           Cu  tau(  85) = (   0.0000000   0.4618802   2.1827847  )
        86           Cu  tau(  86) = (   0.2500000   0.6928203   2.1827847  )
        87           Cu  tau(  87) = (   0.5000000   0.4618802   2.1827847  )
        88           Cu  tau(  88) = (   0.7500000   0.6928203   2.1827847  )
        89           Cu  tau(  89) = (   0.0000000   0.9237604   2.1827847  )
        90           Cu  tau(  90) = (   0.2500000   1.1547005   2.1827847  )
        91           Cu  tau(  91) = (   0.5000000   0.9237604   2.1827847  )
        92           Cu  tau(  92) = (   0.7500000   1.1547005   2.1827847  )
        93           Cu  tau(  93) = (   0.0000000   1.3856406   2.1827847  )
        94           Cu  tau(  94) = (   0.2500000   1.6165808   2.1827847  )
        95           Cu  tau(  95) = (   0.5000000   1.3856406   2.1827847  )
        96           Cu  tau(  96) = (   0.7500000   1.6165808   2.1827847  )
        97           Cu  tau(  97) = (   0.0000000   1.8475209   2.1827847  )
        98           Cu  tau(  98) = (   0.2500000   2.0784610   2.1827847  )
        99           Cu  tau(  99) = (   0.5000000   1.8475209   2.1827847  )
       100           Cu  tau( 100) = (   0.7500000   2.0784610   2.1827847  )

     number of k points=     4  gaussian smearing, width (Ry)=  0.1000
                       cart. coord. in units 2pi/alat
        k(    1) = (   0.0000000   0.0000000   0.0000000), wk =   0.5000000
        k(    2) = (   0.0000000  -0.2165064   0.0000000), wk =   0.5000000
        k(    3) = (  -0.5000000   0.0000000   0.0000000), wk =   0.5000000
        k(    4) = (  -0.5000000  -0.2165064   0.0000000), wk =   0.5000000

     Dense  grid:   864803 G-vectors     FFT dimensions: (  60, 144, 216)

     Smooth grid:   724739 G-vectors     FFT dimensions: (  60, 135, 192)

     Largest allocated arrays     est. size (Mb)     dimensions
        Kohn-Sham Wavefunctions        14.32 Mb     (    1422,  660)
        NL pseudopotentials            39.06 Mb     (    1422, 1800)
        Each V/rho on FFT grid          0.53 Mb     (   34560)
        Each G-vector array             0.10 Mb     (   13512)
        G-vector shells                 0.05 Mb     (    6720)
     Largest temporary arrays     est. size (Mb)     dimensions
        Auxiliary wavefunctions        57.28 Mb     (    1422, 2640)
        Each subspace H/S matrix        4.25 Mb     (     528,  528)
        Each <psi_i|beta_j> matrix     18.13 Mb     (    1800,  660)
        Arrays for rho mixing           4.22 Mb     (   34560,    8)

     Initial potential from superposition of free atoms
     Check: negative starting charge=   -0.006056

     starting charge 1098.81757, renormalised to 1100.00000

     negative rho (up, down):  6.062E-03 0.000E+00
     Starting wfc are  900 randomized atomic wfcs

     total cpu time spent up to now is       29.5 secs

     Self-consistent Calculation

     iteration #  1     ecut=    40.00 Ry     beta=0.70
     Davidson diagonalization with overlap
     ethr =  1.00E-04,  avg # of iterations =  7.2

     negative rho (up, down):  1.929E-03 0.000E+00

     total cpu time spent up to now is      219.2 secs

     total energy              =  -12124.21159634 Ry
     Harris-Foulkes estimate   =  -12155.55691041 Ry
     estimated scf accuracy    <      37.11304833 Ry

     iteration #  2     ecut=    40.00 Ry     beta=0.70
     Davidson diagonalization with overlap
     ethr =  3.37E-03,  avg # of iterations = 12.0

     total cpu time spent up to now is      577.2 secs

     total energy              =  -11622.48045422 Ry
     Harris-Foulkes estimate   =  -12474.68452758 Ry
     estimated scf accuracy    <   25980.23211703 Ry

     iteration #  3     ecut=    40.00 Ry     beta=0.70
     Davidson diagonalization with overlap
     ethr =  3.37E-03,  avg # of iterations =  6.5

     total cpu time spent up to now is      753.2 secs

     total energy              =  -12139.92625735 Ry
     Harris-Foulkes estimate   =  -12170.75033894 Ry
     estimated scf accuracy    <      98.08150019 Ry

     iteration #  4     ecut=    40.00 Ry     beta=0.70
     Davidson diagonalization with overlap
     ethr =  3.37E-03,  avg # of iterations =  3.5

     total cpu time spent up to now is      854.8 secs

     total energy              =  -12150.26492802 Ry
     Harris-Foulkes estimate   =  -12151.83378889 Ry
     estimated scf accuracy    <       8.97787535 Ry

     iteration #  5     ecut=    40.00 Ry     beta=0.70
     Davidson diagonalization with overlap
     ethr =  8.16E-04,  avg # of iterations =  2.5

     total cpu time spent up to now is      921.2 secs

     total energy              =  -12150.95929048 Ry
     Harris-Foulkes estimate   =  -12151.56254970 Ry
     estimated scf accuracy    <       3.88013890 Ry

     iteration #  6     ecut=    40.00 Ry     beta=0.70
     Davidson diagonalization with overlap
     ethr =  3.53E-04,  avg # of iterations =  1.5

     total cpu time spent up to now is      979.3 secs

     total energy              =  -12151.07262051 Ry
     Harris-Foulkes estimate   =  -12151.34866339 Ry
     estimated scf accuracy    <       3.42672296 Ry

     iteration #  7     ecut=    40.00 Ry     beta=0.70
     Davidson diagonalization with overlap
     ethr =  3.12E-04,  avg # of iterations =  1.0

     total cpu time spent up to now is     1034.1 secs

     total energy              =  -12151.08555360 Ry
     Harris-Foulkes estimate   =  -12151.32553948 Ry
     estimated scf accuracy    <       3.12206989 Ry

     iteration #  8     ecut=    40.00 Ry     beta=0.70
     Davidson diagonalization with overlap
     ethr =  2.84E-04,  avg # of iterations =  1.0

     total cpu time spent up to now is     1089.0 secs

     total energy              =  -12151.14743232 Ry
     Harris-Foulkes estimate   =  -12151.23785507 Ry
     estimated scf accuracy    <       2.13907940 Ry

     iteration #  9     ecut=    40.00 Ry     beta=0.70
     Davidson diagonalization with overlap
     ethr =  1.94E-04,  avg # of iterations =  1.0

     total cpu time spent up to now is     1144.0 secs

     total energy              =  -12151.15839862 Ry
     Harris-Foulkes estimate   =  -12151.19789616 Ry
     estimated scf accuracy    <       1.76706558 Ry

     iteration # 10     ecut=    40.00 Ry     beta=0.70
     Davidson diagonalization with overlap
     ethr =  1.61E-04,  avg # of iterations =  1.0

     total cpu time spent up to now is     1198.9 secs

     total energy              =  -12151.13011892 Ry
     Harris-Foulkes estimate   =  -12151.17887207 Ry
     estimated scf accuracy    <       1.42477976 Ry

     iteration # 11     ecut=    40.00 Ry     beta=0.70
     Davidson diagonalization with overlap
     ethr =  1.30E-04,  avg # of iterations =  1.0

     total cpu time spent up to now is     1253.8 secs

     total energy              =  -12150.55780000 Ry
     Harris-Foulkes estimate   =  -12151.13488261 Ry
     estimated scf accuracy    <       1.05583942 Ry

     iteration # 12     ecut=    40.00 Ry     beta=0.70
     Davidson diagonalization with overlap
     ethr =  9.60E-05,  avg # of iterations =  9.8

     total cpu time spent up to now is     1486.2 secs

     total energy              =  -12149.91196785 Ry
     Harris-Foulkes estimate   =  -12151.67969868 Ry
     estimated scf accuracy    <      10.80279227 Ry

     iteration # 13     ecut=    40.00 Ry     beta=0.70
     Davidson diagonalization with overlap
     ethr =  9.60E-05,  avg # of iterations =  5.2

     total cpu time spent up to now is     1621.3 secs

     total energy              =  -12150.63822097 Ry
     Harris-Foulkes estimate   =  -12150.86220244 Ry
     estimated scf accuracy    <       0.82020912 Ry

     iteration # 14     ecut=    40.00 Ry     beta=0.70
     Davidson diagonalization with overlap
     ethr =  7.46E-05,  avg # of iterations =  3.2

     total cpu time spent up to now is     1695.4 secs

     total energy              =  -12150.62361823 Ry
     Harris-Foulkes estimate   =  -12150.89597066 Ry
     estimated scf accuracy    <       1.41015804 Ry

     iteration # 15     ecut=    40.00 Ry     beta=0.70
     Davidson diagonalization with overlap
     ethr =  7.46E-05,  avg # of iterations =  4.5

     total cpu time spent up to now is     1778.8 secs

     total energy              =  -12150.65066851 Ry
     Harris-Foulkes estimate   =  -12150.88588291 Ry
     estimated scf accuracy    <       1.11987038 Ry

     iteration # 16     ecut=    40.00 Ry     beta=0.70
     Davidson diagonalization with overlap
     ethr =  7.46E-05,  avg # of iterations =  2.5

     total cpu time spent up to now is     1844.8 secs

     total energy              =  -12150.70221718 Ry
     Harris-Foulkes estimate   =  -12150.82716421 Ry
     estimated scf accuracy    <       1.02191393 Ry

     iteration # 17     ecut=    40.00 Ry     beta=0.70
     Davidson diagonalization with overlap
     ethr =  7.46E-05,  avg # of iterations =  3.0

     total cpu time spent up to now is     1913.0 secs

     total energy              =  -12150.73740370 Ry
     Harris-Foulkes estimate   =  -12150.82669687 Ry
     estimated scf accuracy    <       1.53730020 Ry

     iteration # 18     ecut=    40.00 Ry     beta=0.70
     Davidson diagonalization with overlap
     ethr =  7.46E-05,  avg # of iterations =  1.0

     total cpu time spent up to now is     1968.0 secs

     total energy              =  -12150.77718005 Ry
     Harris-Foulkes estimate   =  -12150.78524705 Ry
     estimated scf accuracy    <       0.02166231 Ry

     iteration # 19     ecut=    40.00 Ry     beta=0.70
     Davidson diagonalization with overlap
     ethr =  1.97E-06,  avg # of iterations =  5.8

     total cpu time spent up to now is     2117.3 secs

     total energy              =  -12150.76926685 Ry
     Harris-Foulkes estimate   =  -12150.79469063 Ry
     estimated scf accuracy    <       0.16529786 Ry

     iteration # 20     ecut=    40.00 Ry     beta=0.70
     Davidson diagonalization with overlap
     ethr =  1.97E-06,  avg # of iterations =  4.5

     total cpu time spent up to now is     2237.2 secs

     total energy              =  -12150.77253562 Ry
     Harris-Foulkes estimate   =  -12150.79405943 Ry
     estimated scf accuracy    <       0.14707286 Ry

     iteration # 21     ecut=    40.00 Ry     beta=0.70
     Davidson diagonalization with overlap
     ethr =  1.97E-06,  avg # of iterations =  3.8

     negative rho (up, down):  6.802E-07 0.000E+00

     total cpu time spent up to now is     2323.3 secs

     total energy              =  -12150.78233755 Ry
     Harris-Foulkes estimate   =  -12150.78292394 Ry
     estimated scf accuracy    <       0.00304281 Ry

     iteration # 22     ecut=    40.00 Ry     beta=0.70
     Davidson diagonalization with overlap
     ethr =  2.77E-07,  avg # of iterations =  4.5

     negative rho (up, down):  2.578E-07 0.000E+00

     total cpu time spent up to now is     2418.4 secs

     total energy              =  -12150.78199589 Ry
     Harris-Foulkes estimate   =  -12150.78342194 Ry
     estimated scf accuracy    <       0.00708851 Ry

     iteration # 23     ecut=    40.00 Ry     beta=0.70
     Davidson diagonalization with overlap
     ethr =  2.77E-07,  avg # of iterations =  2.2

     negative rho (up, down):  2.351E-05 0.000E+00

     total cpu time spent up to now is     2484.8 secs

     total energy              =  -12150.78266247 Ry
     Harris-Foulkes estimate   =  -12150.78288265 Ry
     estimated scf accuracy    <       0.00098227 Ry

     iteration # 24     ecut=    40.00 Ry     beta=0.70
     Davidson diagonalization with overlap
     ethr =  8.93E-08,  avg # of iterations =  2.0

     negative rho (up, down):  1.351E-04 0.000E+00

     total cpu time spent up to now is     2558.4 secs

     total energy              =  -12150.78263522 Ry
     Harris-Foulkes estimate   =  -12150.78299183 Ry
     estimated scf accuracy    <       0.00158893 Ry

     iteration # 25     ecut=    40.00 Ry     beta=0.70
     Davidson diagonalization with overlap
     ethr =  8.93E-08,  avg # of iterations =  2.0

     negative rho (up, down):  1.502E-04 0.000E+00

     total cpu time spent up to now is     2622.2 secs

     total energy              =  -12150.78275851 Ry
     Harris-Foulkes estimate   =  -12150.78287420 Ry
     estimated scf accuracy    <       0.00065955 Ry

     iteration # 26     ecut=    40.00 Ry     beta=0.70
     Davidson diagonalization with overlap
     ethr =  6.00E-08,  avg # of iterations =  2.0

     negative rho (up, down):  2.051E-04 0.000E+00

     total cpu time spent up to now is     2683.9 secs

     total energy              =  -12150.78280522 Ry
     Harris-Foulkes estimate   =  -12150.78283681 Ry
     estimated scf accuracy    <       0.00016493 Ry

     iteration # 27     ecut=    40.00 Ry     beta=0.70
     Davidson diagonalization with overlap
     ethr =  1.50E-08,  avg # of iterations =  2.2

     negative rho (up, down):  1.947E-04 0.000E+00

     total cpu time spent up to now is     2748.3 secs

     total energy              =  -12150.78276185 Ry
     Harris-Foulkes estimate   =  -12150.78287193 Ry
     estimated scf accuracy    <       0.00168510 Ry

     iteration # 28     ecut=    40.00 Ry     beta=0.70
     Davidson diagonalization with overlap
     ethr =  1.50E-08,  avg # of iterations =  3.0

     negative rho (up, down):  3.004E-04 0.000E+00

     total cpu time spent up to now is     2816.9 secs

     total energy              =  -12150.78280225 Ry
     Harris-Foulkes estimate   =  -12150.78285037 Ry
     estimated scf accuracy    <       0.00038877 Ry

     iteration # 29     ecut=    40.00 Ry     beta=0.70
     Davidson diagonalization with overlap
     ethr =  1.50E-08,  avg # of iterations =  2.0

     negative rho (up, down):  3.227E-04 0.000E+00

     total cpu time spent up to now is     2878.8 secs

     total energy              =  -12150.78282170 Ry
     Harris-Foulkes estimate   =  -12150.78282840 Ry
     estimated scf accuracy    <       0.00004243 Ry

     iteration # 30     ecut=    40.00 Ry     beta=0.70
     Davidson diagonalization with overlap
     ethr =  3.86E-09,  avg # of iterations =  1.5

     negative rho (up, down):  3.497E-04 0.000E+00

     total cpu time spent up to now is     2937.0 secs

     total energy              =  -12150.78282484 Ry
     Harris-Foulkes estimate   =  -12150.78282550 Ry
     estimated scf accuracy    <       0.00000149 Ry

     iteration # 31     ecut=    40.00 Ry     beta=0.70
     Davidson diagonalization with overlap
     ethr =  1.35E-10,  avg # of iterations =  3.0

     negative rho (up, down):  4.211E-04 0.000E+00

     total cpu time spent up to now is     3040.1 secs

     total energy              =  -12150.78282450 Ry
     Harris-Foulkes estimate   =  -12150.78282581 Ry
     estimated scf accuracy    <       0.00000604 Ry

     iteration # 32     ecut=    40.00 Ry     beta=0.70
     Davidson diagonalization with overlap
     ethr =  1.35E-10,  avg # of iterations =  2.5

     negative rho (up, down):  4.342E-04 0.000E+00

     total cpu time spent up to now is     3118.9 secs

     total energy              =  -12150.78282480 Ry
     Harris-Foulkes estimate   =  -12150.78282534 Ry
     estimated scf accuracy    <       0.00000225 Ry

     iteration # 33     ecut=    40.00 Ry     beta=0.70
     Davidson diagonalization with overlap
     ethr =  1.35E-10,  avg # of iterations =  2.0

     negative rho (up, down):  4.552E-04 0.000E+00

     total cpu time spent up to now is     3184.1 secs

     total energy              =  -12150.78282496 Ry
     Harris-Foulkes estimate   =  -12150.78282521 Ry
     estimated scf accuracy    <       0.00000085 Ry

     iteration # 34     ecut=    40.00 Ry     beta=0.70
     Davidson diagonalization with overlap
     ethr =  7.74E-11,  avg # of iterations =  2.0

     negative rho (up, down):  4.573E-04 0.000E+00

     total cpu time spent up to now is     3245.7 secs

     total energy              =  -12150.78282499 Ry
     Harris-Foulkes estimate   =  -12150.78282514 Ry
     estimated scf accuracy    <       0.00000061 Ry

     iteration # 35     ecut=    40.00 Ry     beta=0.70
     Davidson diagonalization with overlap
     ethr =  5.56E-11,  avg # of iterations =  2.5

     negative rho (up, down):  4.619E-04 0.000E+00

     total cpu time spent up to now is     3311.7 secs

     total energy              =  -12150.78282498 Ry
     Harris-Foulkes estimate   =  -12150.78282515 Ry
     estimated scf accuracy    <       0.00000106 Ry

     iteration # 36     ecut=    40.00 Ry     beta=0.70
     Davidson diagonalization with overlap
     ethr =  5.56E-11,  avg # of iterations =  2.5

     negative rho (up, down):  4.643E-04 0.000E+00

     total cpu time spent up to now is     3377.2 secs

     total energy              =  -12150.78282500 Ry
     Harris-Foulkes estimate   =  -12150.78282514 Ry
     estimated scf accuracy    <       0.00000099 Ry

     iteration # 37     ecut=    40.00 Ry     beta=0.70
     Davidson diagonalization with overlap
     ethr =  5.56E-11,  avg # of iterations =  2.0

     negative rho (up, down):  4.662E-04 0.000E+00

     total cpu time spent up to now is     3438.8 secs

     total energy              =  -12150.78282506 Ry
     Harris-Foulkes estimate   =  -12150.78282508 Ry
     estimated scf accuracy    <       0.00000009 Ry

     iteration # 38     ecut=    40.00 Ry     beta=0.70
     Davidson diagonalization with overlap
     ethr =  8.29E-12,  avg # of iterations =  2.0

     negative rho (up, down):  4.665E-04 0.000E+00

     total cpu time spent up to now is     3499.8 secs

     total energy              =  -12150.78282506 Ry
     Harris-Foulkes estimate   =  -12150.78282507 Ry
     estimated scf accuracy    <       0.00000011 Ry

     iteration # 39     ecut=    40.00 Ry     beta=0.70
     Davidson diagonalization with overlap
     ethr =  8.29E-12,  avg # of iterations =  1.8

     negative rho (up, down):  4.677E-04 0.000E+00

     total cpu time spent up to now is     3559.0 secs

     total energy              =  -12150.78282507 Ry
     Harris-Foulkes estimate   =  -12150.78282507 Ry
     estimated scf accuracy    <       0.00000002 Ry

     iteration # 40     ecut=    40.00 Ry     beta=0.70
     Davidson diagonalization with overlap
     ethr =  1.52E-12,  avg # of iterations =  2.0

     negative rho (up, down):  4.698E-04 0.000E+00

     total cpu time spent up to now is     3620.6 secs

     total energy              =  -12150.78282506 Ry
     Harris-Foulkes estimate   =  -12150.78282507 Ry
     estimated scf accuracy    <       0.00000001 Ry

     iteration # 41     ecut=    40.00 Ry     beta=0.70
     Davidson diagonalization with overlap
     ethr =  1.21E-12,  avg # of iterations =  1.0

     negative rho (up, down):  4.722E-04 0.000E+00

     total cpu time spent up to now is     3675.5 secs

     End of self-consistent calculation

          k = 0.0000 0.0000 0.0000 ( 90535 PWs)   bands (ev):

    -7.4812  -6.9464  -6.9463  -6.3663  -5.8599  -5.8599  -5.4501  -5.4501
    -4.8713  -4.8713  -4.6764  -4.4883  -4.4883  -4.4738  -4.4738  -4.4738
    -4.4738  -4.2307  -4.2307  -3.9814  -3.9814  -3.7676  -3.7676  -3.7676
    -3.7676  -3.6569  -3.6569  -3.6143  -3.6143  -3.6143  -3.6143  -3.4896
    -3.4896  -3.4896  -3.4896  -3.4085  -3.2908  -3.2447  -3.1947  -3.1947
    -3.1947  -3.1947  -3.1691  -3.1691  -3.1213  -3.1213  -3.1159  -3.0468
    -3.0468  -3.0233  -3.0233  -3.0233  -3.0233  -3.0130  -3.0130  -3.0077
    -3.0077  -2.9630  -2.9630  -2.9116  -2.9116  -2.8844  -2.7987  -2.7705
    -2.7705  -2.7705  -2.7705  -2.7464  -2.7292  -2.7292  -2.7050  -2.6568
    -2.6568  -2.6379  -2.6379  -2.6118  -2.6118  -2.4979  -2.4979  -2.4957
    -2.4957  -2.4957  -2.4957  -2.4902  -2.4902  -2.4901  -2.4901  -2.4739
    -2.4739  -2.4689  -2.4607  -2.4607  -2.4580  -2.4580  -2.4553  -2.4182
    -2.3769  -2.3769  -2.3712  -2.3712  -2.3589  -2.3589  -2.3249  -2.3249
    -2.3098  -2.3098  -2.3061  -2.3061  -2.3061  -2.3061  -2.2928  -2.2928
    -2.2890  -2.2890  -2.2841  -2.2841  -2.2841  -2.2722  -2.2722  -2.2630
    -2.1519  -2.1519  -2.1336  -2.1336  -2.1077  -2.1077  -2.0826  -2.0826
    -2.0781  -2.0781  -2.0781  -2.0781  -2.0707  -2.0707  -2.0038  -2.0038
    -2.0038  -2.0038  -2.0016  -1.9999  -1.9999  -1.9673  -1.9673  -1.9485
    -1.9485  -1.9025  -1.9025  -1.8759  -1.8759  -1.8759  -1.8759  -1.8721
    -1.8721  -1.8417  -1.8417  -1.8322  -1.8322  -1.8322  -1.8322  -1.8313
    -1.8313  -1.8020  -1.8020  -1.8020  -1.8020  -1.7958  -1.7958  -1.7655
    -1.7655  -1.7493  -1.7493  -1.7381  -1.6935  -1.6935  -1.6813  -1.6813
    -1.6813  -1.6813  -1.6782  -1.6782  -1.6671  -1.6671  -1.6671  -1.6671
    -1.6223  -1.6223  -1.6223  -1.6223  -1.6149  -1.6119  -1.6119  -1.6119
    -1.6119  -1.6015  -1.6015  -1.6009  -1.6009  -1.5442  -1.5442  -1.5327
    -1.5327  -1.5110  -1.5110  -1.4999  -1.4958  -1.4958  -1.4958  -1.4958
    -1.4869  -1.4754  -1.4754  -1.4481  -1.4481  -1.4481  -1.4481  -1.4463
    -1.3926  -1.3926  -1.3926  -1.3926  -1.3912  -1.3912  -1.3894  -1.3894
    -1.3813  -1.3813  -1.3787  -1.3787  -1.3787  -1.3787  -1.3662  -1.3662
    -1.3662  -1.3662  -1.3630  -1.3630  -1.3630  -1.3630  -1.3616  -1.3616
    -1.2930  -1.2930  -1.2433  -1.2433  -1.2316  -1.2316  -1.2316  -1.2315
    -1.2004  -1.2004  -1.1790  -1.1790  -1.1790  -1.1790  -1.1744  -1.1744
    -1.1124  -1.1124  -1.1124  -1.1124  -1.1064  -1.1037  -1.1037  -1.0821
    -1.0794  -1.0794  -1.0613  -1.0613  -1.0555  -1.0555  -1.0068  -1.0068
    -1.0068  -1.0068  -0.9968  -0.9968  -0.9968  -0.9968  -0.9897  -0.9733
    -0.9733  -0.9733  -0.9733  -0.9631  -0.9631  -0.9420  -0.9420  -0.9420
    -0.9420  -0.9061  -0.9061  -0.9061  -0.9061  -0.8886  -0.8886  -0.8852
    -0.8852  -0.8722  -0.8722  -0.8709  -0.8709  -0.8709  -0.8709  -0.8704
    -0.8517  -0.8517  -0.8459  -0.8398  -0.8398  -0.8142  -0.8030  -0.8030
    -0.7760  -0.7760  -0.7725  -0.7725  -0.7567  -0.7567  -0.7423  -0.7423
    -0.7423  -0.7423  -0.7065  -0.7053  -0.7053  -0.7042  -0.7042  -0.7042
    -0.7042  -0.7041  -0.7041  -0.6948  -0.6948  -0.6932  -0.6932  -0.6779
    -0.6779  -0.6766  -0.6766  -0.6630  -0.6630  -0.6512  -0.6512  -0.6496
    -0.6496  -0.6339  -0.6339  -0.6079  -0.5869  -0.5869  -0.5846  -0.5845
    -0.5845  -0.5845  -0.5822  -0.5822  -0.5378  -0.5378  -0.5264  -0.5264
    -0.5250  -0.5250  -0.5235  -0.5235  -0.5098  -0.5030  -0.5030  -0.4931
    -0.4931  -0.4848  -0.4848  -0.4848  -0.4848  -0.4709  -0.4709  -0.4681
    -0.4681  -0.4657  -0.4657  -0.4617  -0.4370  -0.4243  -0.4243  -0.4232
    -0.4232  -0.4106  -0.4106  -0.4106  -0.3797  -0.3797  -0.3721  -0.3665
    -0.3665  -0.3662  -0.3643  -0.3642  -0.3642  -0.3642  -0.3638  -0.3638
    -0.3589  -0.3589  -0.3178  -0.3178  -0.3102  -0.3102  -0.3102  -0.3102
    -0.3021  -0.3004  -0.3004  -0.3004  -0.3004  -0.2773  -0.2773  -0.2695
    -0.2695  -0.2695  -0.2695  -0.2644  -0.2644  -0.2629  -0.2629  -0.2278
    -0.2278  -0.2200  -0.2200  -0.2200  -0.2200  -0.1898  -0.1898  -0.1890
    -0.1890  -0.1825  -0.1825  -0.1573  -0.1565  -0.1440  -0.1440  -0.1440
    -0.1440  -0.1193  -0.1193  -0.1049  -0.1049  -0.1049  -0.1049  -0.0949
    -0.0914  -0.0886  -0.0886  -0.0829  -0.0829  -0.0819  -0.0819  -0.0814
    -0.0814  -0.0732  -0.0732  -0.0732  -0.0732  -0.0693  -0.0692  -0.0692
    -0.0692  -0.0592  -0.0554  -0.0554  -0.0505  -0.0505  -0.0492  -0.0492
    -0.0331  -0.0331  -0.0288  -0.0288   0.0222   0.0294   0.0306   0.0349
     0.0349   0.0385   0.0385   0.0385   0.0385   0.0390   0.0390   0.0390
     0.0390   0.0414   0.0414   0.0545   0.0545   0.0571   0.0571   0.0636
     0.0767   0.0767   0.0975   0.0975   0.0975   0.0975   0.1000   0.1000
     0.1000   0.1000   0.1068   0.1135   0.1391   0.1391   0.1635   0.1748
     0.1748   0.1825   0.1944   0.1944   0.2132   0.2132   0.2351   0.2436
     0.2436   0.2436   0.2436   0.2560   0.2560   0.2583   0.5335   0.5348
     0.6974   0.6974   0.7003   0.7003   0.7994   0.7994   0.7994   0.7994
     0.8072   0.8072   0.8072   0.8072   1.0101   1.0101   1.0626   1.0626
     1.0626   1.0626   1.0669   1.0669   1.2822   1.2822   1.2822   1.2822
     1.5978   2.1099   2.1099   2.4242   2.4242   2.4242   2.4242   2.4370
     2.4370   2.4506   2.4506   2.5272   2.5272   2.5803   2.5803   2.5803
     2.5803   2.6249   2.6249   2.8013   2.8435   2.8435   2.8435   2.8435
     3.2943   3.8429   3.8429   3.8722   3.8722   4.2174   4.2174   4.3829
     4.3829   4.4639   4.4639   4.8594   4.8594   4.9704   5.0065   5.0145
     5.0145   5.0145   5.0145   5.2925   5.2925   5.2925   5.2925   5.5255
     5.5255   5.5255   5.5255   5.6756   5.6756   5.9104   5.9104   5.9931
     5.9931   6.1648   6.2519   6.2519   6.2519   6.2519   6.4613   6.6453
     6.6724   6.6724   6.7046   6.7046   6.7320   6.7320   6.8830   6.8830
     6.9172   6.9172   6.9172   6.9172   6.9880   7.0001   7.0003   7.2214
     7.2497   7.2497   7.2497   7.2497   7.4818   7.4820   7.4829   7.4829
     7.4829   7.4829   7.6404   7.6404   7.6404   7.6404   7.7682   7.7682
     8.0019   8.0019   8.1347   8.1347   8.1421   8.1836   8.1837   8.4266
     8.6086   8.6087   8.6687   8.6687

          k = 0.0000-0.2165 0.0000 ( 90548 PWs)   bands (ev):

    -7.3462  -7.3462  -6.3002  -6.3002  -6.2379  -6.2379  -5.2576  -5.2576
    -4.7678  -4.7678  -4.7678  -4.7678  -4.5617  -4.5616  -4.4952  -4.4952
    -4.0473  -4.0473  -4.0473  -4.0473  -3.9203  -3.9203  -3.9203  -3.9203
    -3.7310  -3.7310  -3.6721  -3.6721  -3.6010  -3.6010  -3.6010  -3.6010
    -3.4528  -3.4528  -3.4044  -3.4044  -3.3141  -3.3141  -3.2231  -3.2231
    -3.2177  -3.2177  -3.2114  -3.2114  -3.1925  -3.1925  -3.1210  -3.1210
    -3.1210  -3.1210  -3.0877  -3.0877  -2.9409  -2.9409  -2.9409  -2.9409
    -2.8388  -2.8388  -2.8117  -2.8117  -2.7624  -2.7624  -2.7265  -2.7265
    -2.7258  -2.7258  -2.7197  -2.7197  -2.7164  -2.7164  -2.6838  -2.6838
    -2.6814  -2.6814  -2.6604  -2.6604  -2.6566  -2.6566  -2.6566  -2.6566
    -2.5851  -2.5851  -2.5266  -2.5266  -2.4971  -2.4971  -2.4918  -2.4918
    -2.4361  -2.4361  -2.4357  -2.4357  -2.4345  -2.4345  -2.4345  -2.4345
    -2.3939  -2.3939  -2.3635  -2.3635  -2.3625  -2.3625  -2.3441  -2.3441
    -2.3441  -2.3441  -2.3168  -2.3168  -2.3168  -2.3168  -2.2820  -2.2820
    -2.2801  -2.2801  -2.2469  -2.2469  -2.2241  -2.2241  -2.2227  -2.2227
    -2.1774  -2.1774  -2.0988  -2.0988  -2.0988  -2.0988  -2.0660  -2.0660
    -2.0463  -2.0463  -2.0463  -2.0463  -2.0342  -2.0342  -1.9951  -1.9951
    -1.9951  -1.9951  -1.9937  -1.9937  -1.9919  -1.9919  -1.9914  -1.9914
    -1.9803  -1.9803  -1.9436  -1.9436  -1.9126  -1.9126  -1.9126  -1.9126
    -1.8807  -1.8807  -1.8745  -1.8745  -1.8745  -1.8745  -1.7912  -1.7912
    -1.7912  -1.7912  -1.7872  -1.7872  -1.7845  -1.7845  -1.7392  -1.7392
    -1.7267  -1.7267  -1.7267  -1.7267  -1.7228  -1.7228  -1.7035  -1.7035
    -1.6779  -1.6779  -1.6779  -1.6779  -1.6666  -1.6666  -1.6264  -1.6264
    -1.6264  -1.6264  -1.6213  -1.6213  -1.6065  -1.6064  -1.6062  -1.6062
    -1.5958  -1.5958  -1.5958  -1.5958  -1.5568  -1.5568  -1.5552  -1.5552
    -1.5339  -1.5338  -1.5000  -1.5000  -1.5000  -1.5000  -1.4920  -1.4920
    -1.4604  -1.4604  -1.4582  -1.4582  -1.4324  -1.4324  -1.4280  -1.4280
    -1.4280  -1.4280  -1.4278  -1.4278  -1.4278  -1.4278  -1.4070  -1.4070
    -1.4070  -1.4070  -1.3953  -1.3953  -1.3945  -1.3945  -1.3765  -1.3765
    -1.3765  -1.3765  -1.3459  -1.3459  -1.3183  -1.3183  -1.2518  -1.2518
    -1.2513  -1.2513  -1.2513  -1.2513  -1.2428  -1.2428  -1.2385  -1.2385
    -1.2307  -1.2307  -1.2307  -1.2307  -1.2010  -1.2010  -1.1789  -1.1789
    -1.1646  -1.1646  -1.1543  -1.1543  -1.1294  -1.1294  -1.0786  -1.0786
    -1.0327  -1.0327  -1.0327  -1.0327  -1.0093  -1.0093  -0.9851  -0.9851
    -0.9851  -0.9851  -0.9725  -0.9725  -0.9608  -0.9608  -0.9608  -0.9607
    -0.9380  -0.9380  -0.9369  -0.9369  -0.9113  -0.9113  -0.9045  -0.9045
    -0.8976  -0.8976  -0.8976  -0.8976  -0.8893  -0.8893  -0.8839  -0.8839
    -0.8817  -0.8817  -0.8793  -0.8793  -0.8699  -0.8699  -0.8699  -0.8699
    -0.8575  -0.8575  -0.8518  -0.8518  -0.8518  -0.8518  -0.8487  -0.8487
    -0.8487  -0.8487  -0.8212  -0.8212  -0.8159  -0.8159  -0.7669  -0.7669
    -0.7465  -0.7465  -0.7465  -0.7465  -0.7435  -0.7435  -0.7146  -0.7146
    -0.7146  -0.7146  -0.7068  -0.7068  -0.7022  -0.7022  -0.6685  -0.6685
    -0.6660  -0.6660  -0.6630  -0.6630  -0.6511  -0.6511  -0.6442  -0.6442
    -0.6338  -0.6338  -0.6338  -0.6338  -0.6333  -0.6333  -0.6333  -0.6333
    -0.5567  -0.5567  -0.5229  -0.5229  -0.5096  -0.5096  -0.5042  -0.5042
    -0.4910  -0.4910  -0.4737  -0.4737  -0.4737  -0.4737  -0.4713  -0.4713
    -0.4556  -0.4556  -0.4527  -0.4527  -0.4514  -0.4514  -0.4487  -0.4487
    -0.4487  -0.4487  -0.4463  -0.4463  -0.4448  -0.4448  -0.4394  -0.4394
    -0.4303  -0.4303  -0.4285  -0.4285  -0.4254  -0.4254  -0.4104  -0.4104
    -0.4104  -0.4104  -0.3949  -0.3949  -0.3924  -0.3924  -0.3833  -0.3833
    -0.3833  -0.3833  -0.3771  -0.3771  -0.3470  -0.3470  -0.3470  -0.3470
    -0.3421  -0.3421  -0.3171  -0.3171  -0.2825  -0.2825  -0.2774  -0.2774
    -0.2441  -0.2441  -0.2159  -0.2159  -0.2087  -0.2087  -0.1961  -0.1961
    -0.1961  -0.1961  -0.1952  -0.1952  -0.1936  -0.1936  -0.1936  -0.1936
    -0.1762  -0.1762  -0.1762  -0.1762  -0.1757  -0.1757  -0.1689  -0.1689
    -0.1642  -0.1641  -0.1441  -0.1441  -0.1352  -0.1351  -0.1200  -0.1200
    -0.1108  -0.1108  -0.1022  -0.1022  -0.0965  -0.0965  -0.0930  -0.0930
    -0.0930  -0.0930  -0.0920  -0.0920  -0.0768  -0.0768  -0.0653  -0.0652
    -0.0344  -0.0344  -0.0274  -0.0274  -0.0274  -0.0274  -0.0149  -0.0149
    -0.0095  -0.0095  -0.0095  -0.0095   0.0079   0.0079   0.0085   0.0085
     0.0278   0.0278   0.0401   0.0401   0.0419   0.0419   0.0469   0.0469
     0.0611   0.0611   0.0696   0.0696   0.0696   0.0696   0.0743   0.0743
     0.0843   0.0843   0.0906   0.0906   0.0927   0.0927   0.1125   0.1125
     0.1197   0.1197   0.1279   0.1279   0.1336   0.1336   0.1336   0.1336
     0.1991   0.1991   0.1991   0.1991   0.2732   0.2732   0.2741   0.2741
     0.3759   0.3759   0.3760   0.3760   0.3761   0.3761   0.4192   0.4192
     0.4286   0.4286   0.4286   0.4286   0.4443   0.4443   1.0222   1.0222
     1.0222   1.0223   1.0696   1.0696   1.1434   1.1434   1.1434   1.1434
     1.1457   1.1457   1.3066   1.3066   1.3240   1.3240   1.3841   1.3841
     1.5185   1.5185   1.7305   1.7305   1.7324   1.7324   1.8497   1.8497
     2.2613   2.2613   2.6873   2.6873   2.6874   2.6874   2.9108   2.9108
     2.9108   2.9108   3.1025   3.1025   3.1106   3.1106   3.2512   3.2512
     3.6312   3.6312   3.8930   3.8930   3.9233   3.9233   3.9233   3.9233
     4.1349   4.1349   4.8310   4.8310   4.9475   4.9475   4.9475   4.9475
     5.1114   5.1114   5.2231   5.2231   5.3612   5.3612   5.4960   5.4960
     5.5787   5.5787   5.6258   5.6258   5.7013   5.7013   5.7013   5.7013
     5.9459   5.9459   5.9728   5.9728   5.9728   5.9729   6.2919   6.2919
     6.5961   6.5961   6.8364   6.8364   6.8654   6.8654   6.8654   6.8654
     6.9094   6.9094   7.1117   7.1117   7.3041   7.3041   7.3113   7.3113
     7.3860   7.3860   7.3860   7.3860   7.4241   7.4241   7.6222   7.6222
     7.6724   7.6724   7.7014   7.7014   7.9406   7.9406   7.9406   7.9406
     7.9730   7.9730   7.9730   7.9730   8.0971   8.0971   8.2221   8.2221
     8.2737   8.2737   8.3396   8.3396

          k =-0.5000 0.0000 0.0000 ( 90572 PWs)   bands (ev):

    -6.7714  -6.7714  -6.2651  -6.2651  -6.2651  -6.2651  -5.6947  -5.6947
    -5.2440  -5.2440  -5.2440  -5.2440  -4.8845  -4.8845  -4.8845  -4.8845
    -4.1207  -4.1207  -4.1207  -4.1207  -4.0963  -4.0963  -3.7900  -3.7900
    -3.7900  -3.7900  -3.3418  -3.3418  -3.3418  -3.3418  -3.3405  -3.3405
    -3.2444  -3.2444  -3.2444  -3.2444  -3.1119  -3.1119  -3.1119  -3.1119
    -3.0640  -3.0640  -3.0640  -3.0640  -2.9552  -2.9552  -2.9422  -2.9421
    -2.8788  -2.8788  -2.8788  -2.8788  -2.8590  -2.8590  -2.8099  -2.8099
    -2.8099  -2.8099  -2.8068  -2.8068  -2.7971  -2.7971  -2.7971  -2.7971
    -2.7426  -2.7426  -2.7426  -2.7426  -2.7215  -2.7215  -2.7215  -2.7215
    -2.6410  -2.6410  -2.6353  -2.6353  -2.6353  -2.6353  -2.6275  -2.6275
    -2.6275  -2.6275  -2.5897  -2.5897  -2.5897  -2.5896  -2.5740  -2.5740
    -2.5740  -2.5740  -2.5402  -2.5402  -2.5021  -2.5021  -2.4625  -2.4625
    -2.4318  -2.4318  -2.4318  -2.4318  -2.4146  -2.4146  -2.4146  -2.4146
    -2.3870  -2.3870  -2.3870  -2.3870  -2.3863  -2.3863  -2.3863  -2.3863
    -2.3517  -2.3517  -2.2915  -2.2915  -2.2915  -2.2915  -2.2533  -2.2533
    -2.1657  -2.1657  -2.1657  -2.1657  -2.1457  -2.1457  -2.1319  -2.1319
    -2.1319  -2.1319  -2.0808  -2.0808  -2.0808  -2.0808  -2.0489  -2.0489
    -2.0489  -2.0489  -2.0279  -2.0279  -2.0279  -2.0279  -2.0232  -2.0232
    -1.8886  -1.8886  -1.8797  -1.8797  -1.8797  -1.8797  -1.8404  -1.8404
    -1.8404  -1.8404  -1.8374  -1.8374  -1.8374  -1.8374  -1.8324  -1.8324
    -1.8324  -1.8324  -1.7842  -1.7842  -1.7589  -1.7589  -1.7589  -1.7589
    -1.7354  -1.7354  -1.7354  -1.7354  -1.7224  -1.7224  -1.7183  -1.7183
    -1.7183  -1.7183  -1.6874  -1.6874  -1.6874  -1.6874  -1.6432  -1.6432
    -1.6432  -1.6432  -1.5620  -1.5620  -1.5620  -1.5620  -1.5480  -1.5480
    -1.5479  -1.5479  -1.5049  -1.5049  -1.5049  -1.5049  -1.5030  -1.5030
    -1.4362  -1.4362  -1.4362  -1.4362  -1.4300  -1.4300  -1.4300  -1.4300
    -1.4272  -1.4272  -1.4272  -1.4272  -1.3668  -1.3668  -1.3668  -1.3668
    -1.3483  -1.3483  -1.3483  -1.3483  -1.3169  -1.3169  -1.3169  -1.3169
    -1.3117  -1.3117  -1.3091  -1.3091  -1.3002  -1.3002  -1.3002  -1.3002
    -1.2815  -1.2815  -1.2802  -1.2802  -1.2802  -1.2802  -1.2715  -1.2715
    -1.2715  -1.2715  -1.2635  -1.2635  -1.2572  -1.2572  -1.2572  -1.2572
    -1.2347  -1.2347  -1.2347  -1.2347  -1.1719  -1.1719  -1.1085  -1.1085
    -1.1051  -1.1051  -1.1051  -1.1051  -1.0989  -1.0989  -1.0989  -1.0989
    -1.0837  -1.0837  -1.0837  -1.0837  -1.0767  -1.0767  -1.0767  -1.0767
    -1.0762  -1.0762  -1.0762  -1.0762  -1.0567  -1.0567  -1.0327  -1.0327
    -1.0327  -1.0327  -1.0022  -1.0022  -1.0022  -1.0022  -0.9360  -0.9360
    -0.9133  -0.9133  -0.9133  -0.9132  -0.9042  -0.9042  -0.9042  -0.9042
    -0.8951  -0.8951  -0.8951  -0.8951  -0.8901  -0.8901  -0.8901  -0.8901
    -0.8808  -0.8808  -0.8639  -0.8639  -0.8639  -0.8639  -0.8493  -0.8493
    -0.8493  -0.8493  -0.8182  -0.8182  -0.7972  -0.7972  -0.7972  -0.7972
    -0.7832  -0.7832  -0.7832  -0.7832  -0.7643  -0.7643  -0.7643  -0.7643
    -0.7604  -0.7604  -0.7604  -0.7604  -0.7525  -0.7525  -0.7525  -0.7525
    -0.7283  -0.7283  -0.7283  -0.7283  -0.6796  -0.6796  -0.6688  -0.6687
    -0.6687  -0.6687  -0.6301  -0.6301  -0.5973  -0.5973  -0.5973  -0.5973
    -0.5857  -0.5857  -0.5857  -0.5857  -0.5806  -0.5806  -0.5672  -0.5672
    -0.5672  -0.5672  -0.5602  -0.5602  -0.5602  -0.5602  -0.5598  -0.5598
    -0.5394  -0.5394  -0.5208  -0.5208  -0.5208  -0.5208  -0.5135  -0.5134
    -0.5134  -0.5134  -0.4919  -0.4919  -0.4695  -0.4695  -0.4695  -0.4695
    -0.3876  -0.3876  -0.3876  -0.3876  -0.3807  -0.3807  -0.3479  -0.3479
    -0.3479  -0.3479  -0.3443  -0.3443  -0.3443  -0.3443  -0.3278  -0.3278
    -0.2918  -0.2918  -0.2918  -0.2918  -0.2843  -0.2843  -0.2843  -0.2843
    -0.2705  -0.2705  -0.2698  -0.2698  -0.2698  -0.2698  -0.2661  -0.2661
    -0.2661  -0.2661  -0.2536  -0.2536  -0.2536  -0.2536  -0.2501  -0.2501
    -0.2447  -0.2447  -0.2409  -0.2409  -0.1814  -0.1814  -0.1814  -0.1814
    -0.1779  -0.1779  -0.1675  -0.1675  -0.1632  -0.1632  -0.1632  -0.1632
    -0.1543  -0.1543  -0.1543  -0.1543  -0.1502  -0.1502  -0.1502  -0.1502
    -0.0942  -0.0942  -0.0915  -0.0915  -0.0915  -0.0915  -0.0879  -0.0879
    -0.0804  -0.0804  -0.0804  -0.0804  -0.0746  -0.0746  -0.0674  -0.0674
    -0.0674  -0.0674  -0.0591  -0.0591  -0.0590  -0.0590  -0.0463  -0.0463
    -0.0463  -0.0463  -0.0331  -0.0331  -0.0321  -0.0321  -0.0321  -0.0321
    -0.0178  -0.0178   0.0146   0.0146   0.0146   0.0146   0.0299   0.0299
     0.0299   0.0299   0.0455   0.0455   0.0455   0.0455   0.0602   0.0602
     0.0648   0.0648   0.0648   0.0648   0.0702   0.0702   0.0702   0.0702
     0.1090   0.1090   0.1090   0.1090   0.1143   0.1143   0.1143   0.1143
     0.1316   0.1316   0.1316   0.1316   0.1479   0.1479   0.1864   0.1864
     0.1864   0.1864   0.2371   0.2371   0.2397   0.2397   0.6076   0.6076
     0.6076   0.6076   0.7953   0.7953   0.8063   0.8063   0.8798   0.8798
     0.8798   0.8798   1.1624   1.1624   1.1624   1.1624   1.4188   1.4188
     1.4188   1.4188   1.7653   1.7653   1.7653   1.7653   2.0444   2.0444
     2.3305   2.3305   2.3305   2.3305   2.5221   2.5221   2.5221   2.5221
     2.6489   2.6489   2.6606   2.6606   2.6606   2.6606   3.2249   3.2249
     3.2249   3.2249   3.3953   3.3953   3.3953   3.3953   3.5894   3.5894
     3.5894   3.5894   3.6339   3.6339   3.6339   3.6339   3.6983   3.6983
     4.0730   4.0730   4.0730   4.0730   4.0884   4.0884   4.5393   4.5393
     4.5393   4.5393   4.5591   4.5591   4.5591   4.5591   4.8651   4.8651
     4.8651   4.8651   5.6693   5.6693   5.6693   5.6693   5.7655   5.7655
     6.1381   6.1381   6.1381   6.1381   6.1398   6.1398   6.1398   6.1398
     6.3484   6.3484   6.5000   6.5000   6.5000   6.5000   6.5247   6.5247
     6.5247   6.5247   6.6521   6.6521   6.6521   6.6521   6.8403   6.8403
     7.1784   7.1784   7.3399   7.3399   7.3400   7.3400   7.4127   7.4127
     7.4127   7.4127   7.6448   7.6448   7.6627   7.6628   7.6628   7.6628
     7.7156   7.7156   7.7158   7.7158   7.8117   7.8117   8.1153   8.1153
     8.1237   8.1237   8.1239   8.1239

          k =-0.5000-0.2165 0.0000 ( 90676 PWs)   bands (ev):

    -6.6431  -6.6431  -6.6431  -6.6431  -5.6611  -5.6611  -5.6611  -5.6611
    -5.5791  -5.5791  -5.5791  -5.5791  -4.7298  -4.7298  -4.7298  -4.7298
    -4.0463  -4.0463  -4.0463  -4.0463  -4.0132  -4.0132  -4.0132  -4.0132
    -3.5464  -3.5464  -3.5464  -3.5464  -3.5038  -3.5038  -3.5038  -3.5038
    -3.2661  -3.2661  -3.2661  -3.2661  -3.0419  -3.0419  -3.0419  -3.0419
    -2.9495  -2.9495  -2.9495  -2.9495  -2.9061  -2.9061  -2.9061  -2.9061
    -2.8865  -2.8865  -2.8865  -2.8865  -2.8354  -2.8354  -2.8354  -2.8354
    -2.8280  -2.8280  -2.8280  -2.8280  -2.8243  -2.8243  -2.8243  -2.8243
    -2.7715  -2.7715  -2.7715  -2.7714  -2.7012  -2.7012  -2.7012  -2.7012
    -2.6275  -2.6275  -2.6275  -2.6275  -2.6190  -2.6190  -2.6190  -2.6190
    -2.5931  -2.5931  -2.5931  -2.5931  -2.5926  -2.5926  -2.5926  -2.5926
    -2.5740  -2.5740  -2.5740  -2.5740  -2.5104  -2.5104  -2.5104  -2.5104
    -2.4962  -2.4962  -2.4962  -2.4962  -2.4877  -2.4877  -2.4877  -2.4877
    -2.3346  -2.3345  -2.3345  -2.3345  -2.3074  -2.3074  -2.3074  -2.3074
    -2.2632  -2.2632  -2.2632  -2.2632  -2.2290  -2.2290  -2.2290  -2.2290
    -2.2056  -2.2056  -2.2056  -2.2056  -2.1408  -2.1408  -2.1408  -2.1408
    -2.1373  -2.1373  -2.1373  -2.1373  -2.1312  -2.1312  -2.1312  -2.1312
    -2.0114  -2.0114  -2.0114  -2.0114  -1.9730  -1.9730  -1.9730  -1.9730
    -1.9508  -1.9508  -1.9508  -1.9508  -1.8831  -1.8831  -1.8831  -1.8831
    -1.8599  -1.8599  -1.8599  -1.8599  -1.8285  -1.8285  -1.8285  -1.8285
    -1.8078  -1.8078  -1.8078  -1.8078  -1.7592  -1.7592  -1.7592  -1.7592
    -1.7114  -1.7114  -1.7114  -1.7114  -1.6846  -1.6846  -1.6846  -1.6846
    -1.6806  -1.6806  -1.6806  -1.6806  -1.6154  -1.6154  -1.6154  -1.6154
    -1.5791  -1.5791  -1.5791  -1.5791  -1.5789  -1.5789  -1.5789  -1.5789
    -1.5257  -1.5257  -1.5257  -1.5257  -1.5170  -1.5170  -1.5170  -1.5170
    -1.5050  -1.5050  -1.5050  -1.5050  -1.4438  -1.4438  -1.4438  -1.4438
    -1.4337  -1.4337  -1.4337  -1.4337  -1.3393  -1.3393  -1.3393  -1.3393
    -1.3261  -1.3261  -1.3261  -1.3261  -1.3236  -1.3236  -1.3236  -1.3236
    -1.3134  -1.3134  -1.3134  -1.3134  -1.2864  -1.2864  -1.2864  -1.2864
    -1.2838  -1.2838  -1.2838  -1.2838  -1.2769  -1.2769  -1.2769  -1.2769
    -1.2503  -1.2503  -1.2503  -1.2503  -1.2284  -1.2284  -1.2284  -1.2284
    -1.2137  -1.2137  -1.2137  -1.2137  -1.2093  -1.2093  -1.2093  -1.2093
    -1.1702  -1.1702  -1.1702  -1.1702  -1.1098  -1.1098  -1.1098  -1.1098
    -1.0744  -1.0744  -1.0744  -1.0744  -1.0648  -1.0648  -1.0648  -1.0648
    -1.0636  -1.0636  -1.0636  -1.0636  -1.0287  -1.0287  -1.0287  -1.0286
    -0.9635  -0.9635  -0.9635  -0.9635  -0.9528  -0.9528  -0.9528  -0.9528
    -0.9378  -0.9378  -0.9378  -0.9378  -0.9365  -0.9365  -0.9365  -0.9365
    -0.9151  -0.9151  -0.9151  -0.9151  -0.8987  -0.8987  -0.8987  -0.8987
    -0.8626  -0.8626  -0.8626  -0.8626  -0.8558  -0.8558  -0.8558  -0.8558
    -0.8495  -0.8495  -0.8495  -0.8495  -0.8343  -0.8343  -0.8343  -0.8343
    -0.7826  -0.7826  -0.7826  -0.7826  -0.7744  -0.7744  -0.7744  -0.7744
    -0.7547  -0.7547  -0.7547  -0.7547  -0.7359  -0.7359  -0.7359  -0.7359
    -0.6899  -0.6899  -0.6898  -0.6898  -0.6734  -0.6734  -0.6734  -0.6734
    -0.6694  -0.6694  -0.6694  -0.6694  -0.6369  -0.6369  -0.6369  -0.6369
    -0.6274  -0.6274  -0.6274  -0.6274  -0.5888  -0.5888  -0.5888  -0.5888
    -0.5764  -0.5764  -0.5764  -0.5764  -0.5524  -0.5524  -0.5524  -0.5524
    -0.4891  -0.4891  -0.4891  -0.4891  -0.4247  -0.4247  -0.4247  -0.4247
    -0.4052  -0.4052  -0.4052  -0.4052  -0.4021  -0.4021  -0.4021  -0.4021
    -0.3910  -0.3910  -0.3910  -0.3910  -0.3668  -0.3668  -0.3668  -0.3668
    -0.3571  -0.3571  -0.3571  -0.3571  -0.3466  -0.3466  -0.3466  -0.3466
    -0.3288  -0.3288  -0.3288  -0.3288  -0.3220  -0.3220  -0.3220  -0.3220
    -0.3031  -0.3031  -0.3031  -0.3031  -0.2907  -0.2907  -0.2907  -0.2907
    -0.2735  -0.2735  -0.2735  -0.2735  -0.2660  -0.2660  -0.2660  -0.2660
    -0.2032  -0.2031  -0.2031  -0.2031  -0.1942  -0.1942  -0.1942  -0.1942
    -0.1905  -0.1905  -0.1905  -0.1905  -0.1888  -0.1888  -0.1888  -0.1888
    -0.1689  -0.1689  -0.1689  -0.1689  -0.1215  -0.1215  -0.1215  -0.1215
    -0.1100  -0.1100  -0.1100  -0.1100  -0.1093  -0.1093  -0.1093  -0.1093
    -0.0732  -0.0732  -0.0732  -0.0732  -0.0322  -0.0322  -0.0322  -0.0322
    -0.0284  -0.0284  -0.0284  -0.0284  -0.0260  -0.0260  -0.0260  -0.0260
    -0.0217  -0.0217  -0.0217  -0.0217  -0.0140  -0.0140  -0.0140  -0.0140
    -0.0008  -0.0008  -0.0008  -0.0008   0.0046   0.0046   0.0046   0.0046
     0.0267   0.0267   0.0267   0.0267   0.0654   0.0654   0.0654   0.0654
     0.0738   0.0738   0.0738   0.0738   0.0827   0.0827   0.0827   0.0827
     0.1082   0.1082   0.1082   0.1082   0.1343   0.1343   0.1343   0.1343
     0.1937   0.1937   0.1937   0.1937   0.2008   0.2008   0.2008   0.2008
     0.2262   0.2262   0.2263   0.2263   0.2275   0.2275   0.2275   0.2275
     0.4356   0.4356   0.4356   0.4356   0.8897   0.8897   0.8898   0.8898
     1.1324   1.1324   1.1324   1.1324   1.3807   1.3807   1.3807   1.3807
     1.6472   1.6472   1.6472   1.6472   2.0295   2.0295   2.0295   2.0295
     2.2186   2.2186   2.2187   2.2187   2.5120   2.5120   2.5120   2.5120
     2.8002   2.8002   2.8002   2.8002   2.8144   2.8144   2.8144   2.8144
     3.1478   3.1478   3.1478   3.1478   3.2786   3.2786   3.2786   3.2786
     3.7723   3.7723   3.7723   3.7723   3.8105   3.8105   3.8105   3.8105
     3.8568   3.8568   3.8568   3.8568   4.2961   4.2961   4.2961   4.2961
     4.3077   4.3077   4.3077   4.3077   5.3359   5.3359   5.3359   5.3359
     5.6891   5.6891   5.6891   5.6891   5.7416   5.7416   5.7416   5.7416
     5.7575   5.7575   5.7575   5.7575   5.9274   5.9274   5.9274   5.9274
     6.0678   6.0678   6.0678   6.0678   6.5292   6.5292   6.5292   6.5292
     6.8035   6.8035   6.8035   6.8035   6.9661   6.9661   6.9661   6.9661
     7.3129   7.3129   7.3129   7.3129   7.4515   7.4515   7.4515   7.4515
     7.5784   7.5784   7.5784   7.5784   7.6109   7.6109   7.6109   7.6109
     7.7668   7.7668   7.7668   7.7668   8.0207   8.0207   8.0207   8.0207
     8.0375   8.0375   8.0375   8.0375

     the Fermi energy is     1.9409 ev

!    total energy              =  -12150.78282505 Ry
     Harris-Foulkes estimate   =  -12150.78282506 Ry
     estimated scf accuracy    <          2.5E-09 Ry

     The total energy is the sum of the following terms:

     one-electron contribution = -113011.73330323 Ry
     hartree contribution      =   57743.62114995 Ry
     xc contribution           =   -4278.37036760 Ry
     ewald contribution        =   47401.16866081 Ry
     Dispersion Correction     =      -2.39744355 Ry
     smearing contrib. (-TS)   =      -3.07152144 Ry

     convergence has been achieved in  41 iterations

     negative rho (up, down):  4.722E-04 0.000E+00

     Forces acting on atoms (Ry/au):

     atom    1 type  1   force =     0.00000000    0.00000000   -0.00844524
     atom    2 type  1   force =    -0.00000731    0.00001602   -0.00844442
     atom    3 type  1   force =     0.00000000    0.00000000   -0.00844809
     atom    4 type  1   force =     0.00000731    0.00001602   -0.00844442
     atom    5 type  1   force =     0.00000000    0.00002491   -0.00843805
     atom    6 type  1   force =    -0.00000901    0.00001786   -0.00844767
     atom    7 type  1   force =     0.00000000    0.00002586   -0.00844874
     atom    8 type  1   force =     0.00000901    0.00001786   -0.00844767
     atom    9 type  1   force =     0.00000000    0.00000628   -0.00843923
     atom   10 type  1   force =    -0.00000711    0.00000000   -0.00843998
     atom   11 type  1   force =     0.00000000    0.00000803   -0.00844618
     atom   12 type  1   force =     0.00000711    0.00000000   -0.00843998
     atom   13 type  1   force =     0.00000000   -0.00000628   -0.00843923
     atom   14 type  1   force =    -0.00000901   -0.00001786   -0.00844767
     atom   15 type  1   force =     0.00000000   -0.00000803   -0.00844618
     atom   16 type  1   force =     0.00000901   -0.00001786   -0.00844767
     atom   17 type  1   force =     0.00000000   -0.00002491   -0.00843805
     atom   18 type  1   force =    -0.00000731   -0.00001602   -0.00844442
     atom   19 type  1   force =     0.00000000   -0.00002586   -0.00844874
     atom   20 type  1   force =     0.00000731   -0.00001602   -0.00844442
     atom   21 type  1   force =     0.00000000    0.00000960    0.00659665
     atom   22 type  1   force =    -0.00000933    0.00000000    0.00659888
     atom   23 type  1   force =     0.00000000    0.00000685    0.00659174
     atom   24 type  1   force =     0.00000933    0.00000000    0.00659888
     atom   25 type  1   force =     0.00000000    0.00001342    0.00657868
     atom   26 type  1   force =    -0.00001087    0.00001894    0.00658800
     atom   27 type  1   force =     0.00000000    0.00001634    0.00658002
     atom   28 type  1   force =     0.00001087    0.00001894    0.00658800
     atom   29 type  1   force =     0.00000000    0.00000000    0.00658104
     atom   30 type  1   force =    -0.00000956    0.00001198    0.00657858
     atom   31 type  1   force =     0.00000000    0.00000000    0.00658028
     atom   32 type  1   force =     0.00000956    0.00001198    0.00657858
     atom   33 type  1   force =     0.00000000   -0.00001342    0.00657868
     atom   34 type  1   force =    -0.00000956   -0.00001198    0.00657858
     atom   35 type  1   force =     0.00000000   -0.00001634    0.00658002
     atom   36 type  1   force =     0.00000956   -0.00001198    0.00657858
     atom   37 type  1   force =     0.00000000   -0.00000960    0.00659665
     atom   38 type  1   force =    -0.00001087   -0.00001894    0.00658800
     atom   39 type  1   force =     0.00000000   -0.00000685    0.00659174
     atom   40 type  1   force =     0.00001087   -0.00001894    0.00658800
     atom   41 type  1   force =     0.00000000    0.00000000    0.00000000
     atom   42 type  1   force =    -0.00001060    0.00000496    0.00000000
     atom   43 type  1   force =     0.00000000    0.00000000    0.00000000
     atom   44 type  1   force =     0.00001060    0.00000496    0.00000000
     atom   45 type  1   force =     0.00000000    0.00001643    0.00000000
     atom   46 type  1   force =    -0.00001228    0.00001255    0.00000000
     atom   47 type  1   force =     0.00000000    0.00001498    0.00000000
     atom   48 type  1   force =     0.00001228    0.00001255    0.00000000
     atom   49 type  1   force =     0.00000000    0.00000854    0.00000000
     atom   50 type  1   force =    -0.00001250    0.00000000    0.00000000
     atom   51 type  1   force =     0.00000000    0.00000914    0.00000000
     atom   52 type  1   force =     0.00001250    0.00000000    0.00000000
     atom   53 type  1   force =     0.00000000   -0.00000854    0.00000000
     atom   54 type  1   force =    -0.00001228   -0.00001255    0.00000000
     atom   55 type  1   force =     0.00000000   -0.00000914    0.00000000
     atom   56 type  1   force =     0.00001228   -0.00001255    0.00000000
     atom   57 type  1   force =     0.00000000   -0.00001643    0.00000000
     atom   58 type  1   force =    -0.00001060   -0.00000496    0.00000000
     atom   59 type  1   force =     0.00000000   -0.00001498    0.00000000
     atom   60 type  1   force =     0.00001060   -0.00000496    0.00000000
     atom   61 type  1   force =     0.00000000    0.00000960   -0.00659665
     atom   62 type  1   force =    -0.00000933    0.00000000   -0.00659888
     atom   63 type  1   force =     0.00000000    0.00000685   -0.00659174
     atom   64 type  1   force =     0.00000933    0.00000000   -0.00659888
     atom   65 type  1   force =     0.00000000    0.00001342   -0.00657868
     atom   66 type  1   force =    -0.00001087    0.00001894   -0.00658800
     atom   67 type  1   force =     0.00000000    0.00001634   -0.00658002
     atom   68 type  1   force =     0.00001087    0.00001894   -0.00658800
     atom   69 type  1   force =     0.00000000    0.00000000   -0.00658104
     atom   70 type  1   force =    -0.00000956    0.00001198   -0.00657858
     atom   71 type  1   force =     0.00000000    0.00000000   -0.00658028
     atom   72 type  1   force =     0.00000956    0.00001198   -0.00657858
     atom   73 type  1   force =     0.00000000   -0.00001342   -0.00657868
     atom   74 type  1   force =    -0.00000956   -0.00001198   -0.00657858
     atom   75 type  1   force =     0.00000000   -0.00001634   -0.00658002
     atom   76 type  1   force =     0.00000956   -0.00001198   -0.00657858
     atom   77 type  1   force =     0.00000000   -0.00000960   -0.00659665
     atom   78 type  1   force =    -0.00001087   -0.00001894   -0.00658800
     atom   79 type  1   force =     0.00000000   -0.00000685   -0.00659174
     atom   80 type  1   force =     0.00001087   -0.00001894   -0.00658800
     atom   81 type  1   force =     0.00000000    0.00000000    0.00844524
     atom   82 type  1   force =    -0.00000731    0.00001602    0.00844442
     atom   83 type  1   force =     0.00000000    0.00000000    0.00844809
     atom   84 type  1   force =     0.00000731    0.00001602    0.00844442
     atom   85 type  1   force =     0.00000000    0.00002491    0.00843805
     atom   86 type  1   force =    -0.00000901    0.00001786    0.00844767
     atom   87 type  1   force =     0.00000000    0.00002586    0.00844874
     atom   88 type  1   force =     0.00000901    0.00001786    0.00844767
     atom   89 type  1   force =     0.00000000    0.00000628    0.00843923
     atom   90 type  1   force =    -0.00000711    0.00000000    0.00843998
     atom   91 type  1   force =     0.00000000    0.00000803    0.00844618
     atom   92 type  1   force =     0.00000711    0.00000000    0.00843998
     atom   93 type  1   force =     0.00000000   -0.00000628    0.00843923
     atom   94 type  1   force =    -0.00000901   -0.00001786    0.00844767
     atom   95 type  1   force =     0.00000000   -0.00000803    0.00844618
     atom   96 type  1   force =     0.00000901   -0.00001786    0.00844767
     atom   97 type  1   force =     0.00000000   -0.00002491    0.00843805
     atom   98 type  1   force =    -0.00000731   -0.00001602    0.00844442
     atom   99 type  1   force =     0.00000000   -0.00002586    0.00844874
     atom  100 type  1   force =     0.00000731   -0.00001602    0.00844442

     Total force =     0.067729     Total SCF correction =     0.000272

     BFGS Geometry Optimization

     number of scf cycles    =   1
     number of bfgs steps    =   0

     energy   new            =  -12150.7828250521 Ry

     new trust radius        =       0.0084487757 bohr
     new conv_thr            =       0.0000000100 Ry


ATOMIC_POSITIONS (angstrom)
Cu       0.000000000   0.000000000   8.890798317
Cu       1.844514629   1.703901678   8.890798749
Cu       3.689036991   0.000000000   8.890796805
Cu       5.533559354   1.703901678   8.890798749
Cu       0.000000000   3.407799580   8.890802117
Cu       1.844513730   5.111689052   8.890797028
Cu       3.689036991   3.407800083   8.890796464
Cu       5.533560253   5.111689052   8.890797028
Cu       0.000000000   6.815576125   8.890801496
Cu       1.844514733   8.519466000   8.890801097
Cu       3.689036991   6.815577047   8.890797816
Cu       5.533559250   8.519466000   8.890801097
Cu       0.000000000  10.223355875   8.890801496
Cu       1.844513730  11.927242948   8.890797028
Cu       3.689036991  10.223354953   8.890797816
Cu       5.533560253  11.927242948   8.890797028
Cu       0.000000000  13.631132420   8.890802117
Cu       1.844514629  15.335030322   8.890798749
Cu       3.689036991  13.631131917   8.890796464
Cu       5.533559354  15.335030322   8.890798749
Cu       0.000000000   1.703898279  10.675245495
Cu       1.844513556   0.000000000  10.675246675
Cu       3.689036991   1.703896826  10.675242899
Cu       5.533560427   0.000000000  10.675246675
Cu       0.000000000   5.111686703  10.675235988
Cu       1.844512744   3.407796420  10.675240918
Cu       3.689036991   5.111688244  10.675236696
Cu       5.533561239   3.407796420  10.675240918
Cu       0.000000000   8.519466000  10.675237235
Cu       1.844513439   6.815579139  10.675235933
Cu       3.689036991   8.519466000  10.675236833
Cu       5.533560544   6.815579139  10.675235933
Cu       0.000000000  11.927245297  10.675235988
Cu       1.844513439  10.223352861  10.675235933
Cu       3.689036991  11.927243756  10.675236696
Cu       5.533560544  10.223352861  10.675235933
Cu       0.000000000  15.335033721  10.675245495
Cu       1.844512744  13.631135580  10.675240918
Cu       3.689036991  15.335035174  10.675242899
Cu       5.533561239  13.631135580  10.675240918
Cu       0.000000000   0.000000000  12.500000000
Cu       1.844512887   1.703895825  12.500000000
Cu       3.689036991   0.000000000  12.500000000
Cu       5.533561096   1.703895825  12.500000000
Cu       0.000000000   3.407795095  12.500000000
Cu       1.844511996   5.111686239  12.500000000
Cu       3.689036991   3.407794326  12.500000000
Cu       5.533561987   5.111686239  12.500000000
Cu       0.000000000   6.815577322  12.500000000
Cu       1.844511880   8.519466000  12.500000000
Cu       3.689036991   6.815577636  12.500000000
Cu       5.533562103   8.519466000  12.500000000
Cu       0.000000000  10.223354678  12.500000000
Cu       1.844511996  11.927245761  12.500000000
Cu       3.689036991  10.223354364  12.500000000
Cu       5.533561987  11.927245761  12.500000000
Cu       0.000000000  13.631136905  12.500000000
Cu       1.844512887  15.335036175  12.500000000
Cu       3.689036991  13.631137674  12.500000000
Cu       5.533561096  15.335036175  12.500000000
Cu       0.000000000   1.703898279  14.324755775
Cu       1.844513556   0.000000000  14.324754595
Cu       3.689036991   1.703896826  14.324758371
Cu       5.533560427   0.000000000  14.324754595
Cu       0.000000000   5.111686703  14.324765282
Cu       1.844512744   3.407796420  14.324760352
Cu       3.689036991   5.111688244  14.324764574
Cu       5.533561239   3.407796420  14.324760352
Cu       0.000000000   8.519466000  14.324764035
Cu       1.844513439   6.815579139  14.324765337
Cu       3.689036991   8.519466000  14.324764437
Cu       5.533560544   6.815579139  14.324765337
Cu       0.000000000  11.927245297  14.324765282
Cu       1.844513439  10.223352861  14.324765337
Cu       3.689036991  11.927243756  14.324764574
Cu       5.533560544  10.223352861  14.324765337
Cu       0.000000000  15.335033721  14.324755775
Cu       1.844512744  13.631135580  14.324760352
Cu       3.689036991  15.335035174  14.324758371
Cu       5.533561239  13.631135580  14.324760352
Cu       0.000000000   0.000000000  16.109216346
Cu       1.844514629   1.703901678  16.109215914
Cu       3.689036991   0.000000000  16.109217858
Cu       5.533559354   1.703901678  16.109215914
Cu       0.000000000   3.407799580  16.109212546
Cu       1.844513730   5.111689052  16.109217635
Cu       3.689036991   3.407800083  16.109218199
Cu       5.533560253   5.111689052  16.109217635
Cu       0.000000000   6.815576125  16.109213167
Cu       1.844514733   8.519466000  16.109213566
Cu       3.689036991   6.815577047  16.109216847
Cu       5.533559250   8.519466000  16.109213566
Cu       0.000000000  10.223355875  16.109213167
Cu       1.844513730  11.927242948  16.109217635
Cu       3.689036991  10.223354953  16.109216847
Cu       5.533560253  11.927242948  16.109217635
Cu       0.000000000  13.631132420  16.109212546
Cu       1.844514629  15.335030322  16.109215914
Cu       3.689036991  13.631131917  16.109218199
Cu       5.533559354  15.335030322  16.109215914



     Writing output data file copper.save
     Check: negative starting charge=   -0.006056
     NEW-OLD atomic charge density approx. for the potential
     Check: negative starting charge=   -0.006063

     negative rho (up, down):  5.707E-04 0.000E+00

     total cpu time spent up to now is     3692.1 secs

     Self-consistent Calculation

     iteration #  1     ecut=    40.00 Ry     beta=0.70
     Davidson diagonalization with overlap
     ethr =  1.00E-06,  avg # of iterations =  4.0

     Threshold (ethr) on eigenvalues was too large:
     Diagonalizing with lowered threshold

     Davidson diagonalization with overlap
     ethr =  7.01E-08,  avg # of iterations =  1.8

     negative rho (up, down):  4.790E-04 0.000E+00

     total cpu time spent up to now is     3917.2 secs

     total energy              =  -12150.78650736 Ry
     Harris-Foulkes estimate   =  -12150.78709616 Ry
     estimated scf accuracy    <       0.00075171 Ry

     iteration #  2     ecut=    40.00 Ry     beta=0.70
     Davidson diagonalization with overlap
     ethr =  6.83E-08,  avg # of iterations =  3.0

     negative rho (up, down):  4.728E-04 0.000E+00

     total cpu time spent up to now is     4036.2 secs

     total energy              =  -12150.78546671 Ry
     Harris-Foulkes estimate   =  -12150.78811902 Ry
     estimated scf accuracy    <       0.01208192 Ry

     iteration #  3     ecut=    40.00 Ry     beta=0.70
     Davidson diagonalization with overlap
     ethr =  6.83E-08,  avg # of iterations =  3.8

     negative rho (up, down):  4.730E-04 0.000E+00

     total cpu time spent up to now is     4160.7 secs

     total energy              =  -12150.78600475 Ry
     Harris-Foulkes estimate   =  -12150.78762668 Ry
     estimated scf accuracy    <       0.02026664 Ry

     iteration #  4     ecut=    40.00 Ry     beta=0.70
     Davidson diagonalization with overlap
     ethr =  6.83E-08,  avg # of iterations =  3.2

     negative rho (up, down):  4.735E-04 0.000E+00

     total cpu time spent up to now is     4234.3 secs

     total energy              =  -12150.78652679 Ry
     Harris-Foulkes estimate   =  -12150.78725736 Ry
     estimated scf accuracy    <       0.00925413 Ry

     iteration #  5     ecut=    40.00 Ry     beta=0.70
     Davidson diagonalization with overlap
     ethr =  6.83E-08,  avg # of iterations =  3.0

     negative rho (up, down):  4.737E-04 0.000E+00

     total cpu time spent up to now is     4303.9 secs

     total energy              =  -12150.78676262 Ry
     Harris-Foulkes estimate   =  -12150.78712977 Ry
     estimated scf accuracy    <       0.00347872 Ry

     iteration #  6     ecut=    40.00 Ry     beta=0.70
     Davidson diagonalization with overlap
     ethr =  6.83E-08,  avg # of iterations =  2.2

     negative rho (up, down):  4.736E-04 0.000E+00

     total cpu time spent up to now is     4366.5 secs

     total energy              =  -12150.78693842 Ry
     Harris-Foulkes estimate   =  -12150.78694444 Ry
     estimated scf accuracy    <       0.00001175 Ry

     iteration #  7     ecut=    40.00 Ry     beta=0.70
     Davidson diagonalization with overlap
     ethr =  1.07E-09,  avg # of iterations =  3.0

     negative rho (up, down):  4.736E-04 0.000E+00

     total cpu time spent up to now is     4495.5 secs

     total energy              =  -12150.78694192 Ry
     Harris-Foulkes estimate   =  -12150.78695056 Ry
     estimated scf accuracy    <       0.00003125 Ry

     iteration #  8     ecut=    40.00 Ry     beta=0.70
     Davidson diagonalization with overlap
     ethr =  1.07E-09,  avg # of iterations =  3.0

     negative rho (up, down):  4.737E-04 0.000E+00

     total cpu time spent up to now is     4586.2 secs

     total energy              =  -12150.78694290 Ry
     Harris-Foulkes estimate   =  -12150.78695174 Ry
     estimated scf accuracy    <       0.00005792 Ry

     iteration #  9     ecut=    40.00 Ry     beta=0.70
     Davidson diagonalization with overlap
     ethr =  1.07E-09,  avg # of iterations =  2.5

     negative rho (up, down):  4.737E-04 0.000E+00

     total cpu time spent up to now is     4653.3 secs

     total energy              =  -12150.78694690 Ry
     Harris-Foulkes estimate   =  -12150.78694717 Ry
     estimated scf accuracy    <       0.00000168 Ry

     iteration # 10     ecut=    40.00 Ry     beta=0.70
     Davidson diagonalization with overlap
     ethr =  1.53E-10,  avg # of iterations =  2.0

     negative rho (up, down):  4.737E-04 0.000E+00

     total cpu time spent up to now is     4714.3 secs

     total energy              =  -12150.78694687 Ry
     Harris-Foulkes estimate   =  -12150.78694707 Ry
     estimated scf accuracy    <       0.00000056 Ry

     iteration # 11     ecut=    40.00 Ry     beta=0.70
     Davidson diagonalization with overlap
     ethr =  5.11E-11,  avg # of iterations =  2.0

     negative rho (up, down):  4.737E-04 0.000E+00

     total cpu time spent up to now is     4779.5 secs

     total energy              =  -12150.78694681 Ry
     Harris-Foulkes estimate   =  -12150.78694696 Ry
     estimated scf accuracy    <       0.00000031 Ry

     iteration # 12     ecut=    40.00 Ry     beta=0.70
     Davidson diagonalization with overlap
     ethr =  2.82E-11,  avg # of iterations =  3.0

     negative rho (up, down):  4.737E-04 0.000E+00

     total cpu time spent up to now is     4888.2 secs

     total energy              =  -12150.78694666 Ry
     Harris-Foulkes estimate   =  -12150.78694712 Ry
     estimated scf accuracy    <       0.00000219 Ry

     iteration # 13     ecut=    40.00 Ry     beta=0.70
     Davidson diagonalization with overlap
     ethr =  2.82E-11,  avg # of iterations =  3.0

     negative rho (up, down):  4.737E-04 0.000E+00

     total cpu time spent up to now is     4991.2 secs

     total energy              =  -12150.78694666 Ry
     Harris-Foulkes estimate   =  -12150.78694710 Ry
     estimated scf accuracy    <       0.00000424 Ry

     iteration # 14     ecut=    40.00 Ry     beta=0.70
     Davidson diagonalization with overlap
     ethr =  2.82E-11,  avg # of iterations =  3.0

     negative rho (up, down):  4.737E-04 0.000E+00

     total cpu time spent up to now is     5060.7 secs

     total energy              =  -12150.78694669 Ry
     Harris-Foulkes estimate   =  -12150.78694711 Ry
     estimated scf accuracy    <       0.00000606 Ry

     iteration # 15     ecut=    40.00 Ry     beta=0.70
     Davidson diagonalization with overlap
     ethr =  2.82E-11,  avg # of iterations =  3.0

     negative rho (up, down):  4.737E-04 0.000E+00

     total cpu time spent up to now is     5131.1 secs

     total energy              =  -12150.78694681 Ry
     Harris-Foulkes estimate   =  -12150.78694702 Ry
     estimated scf accuracy    <       0.00000200 Ry

     iteration # 16     ecut=    40.00 Ry     beta=0.70
     Davidson diagonalization with overlap
     ethr =  2.82E-11,  avg # of iterations =  2.5

     negative rho (up, down):  4.737E-04 0.000E+00

     total cpu time spent up to now is     5195.9 secs

     total energy              =  -12150.78694691 Ry
     Harris-Foulkes estimate   =  -12150.78694692 Ry
     estimated scf accuracy    <       0.00000006 Ry

     iteration # 17     ecut=    40.00 Ry     beta=0.70
     Davidson diagonalization with overlap
     ethr =  5.44E-12,  avg # of iterations =  2.5

     negative rho (up, down):  4.737E-04 0.000E+00

     total cpu time spent up to now is     5263.7 secs

     total energy              =  -12150.78694691 Ry
     Harris-Foulkes estimate   =  -12150.78694693 Ry
     estimated scf accuracy    <       0.00000008 Ry

     iteration # 18     ecut=    40.00 Ry     beta=0.70
     Davidson diagonalization with overlap
     ethr =  5.44E-12,  avg # of iterations =  2.2

     negative rho (up, down):  4.737E-04 0.000E+00

     total cpu time spent up to now is     5327.2 secs

     total energy              =  -12150.78694691 Ry
     Harris-Foulkes estimate   =  -12150.78694692 Ry
     estimated scf accuracy    <       0.00000002 Ry

     iteration # 19     ecut=    40.00 Ry     beta=0.70
     Davidson diagonalization with overlap
     ethr =  1.86E-12,  avg # of iterations =  2.0

     negative rho (up, down):  4.737E-04 0.000E+00

     total cpu time spent up to now is     5390.4 secs

     total energy              =  -12150.78694691 Ry
     Harris-Foulkes estimate   =  -12150.78694692 Ry
     estimated scf accuracy    <       0.00000003 Ry

     iteration # 20     ecut=    40.00 Ry     beta=0.70
     Davidson diagonalization with overlap
     ethr =  1.86E-12,  avg # of iterations =  2.0

     negative rho (up, down):  4.737E-04 0.000E+00

     total cpu time spent up to now is     5452.3 secs

     End of self-consistent calculation

          k = 0.0000 0.0000 0.0000 ( 90535 PWs)   bands (ev):

    -7.4827  -6.9479  -6.9479  -6.3550  -5.8488  -5.8488  -5.4518  -5.4518
    -4.8730  -4.8730  -4.6751  -4.4778  -4.4778  -4.4756  -4.4756  -4.4756
    -4.4756  -4.2292  -4.2292  -3.9711  -3.9711  -3.7592  -3.7592  -3.7592
    -3.7592  -3.6588  -3.6588  -3.6181  -3.6181  -3.6181  -3.6181  -3.4866
    -3.4866  -3.4866  -3.4866  -3.4063  -3.2907  -3.2436  -3.1908  -3.1907
    -3.1907  -3.1907  -3.1669  -3.1669  -3.1216  -3.1214  -3.1214  -3.0437
    -3.0437  -3.0200  -3.0200  -3.0200  -3.0200  -3.0128  -3.0128  -2.9988
    -2.9988  -2.9671  -2.9671  -2.9093  -2.9093  -2.8776  -2.8008  -2.7599
    -2.7599  -2.7599  -2.7599  -2.7482  -2.7231  -2.7231  -2.7069  -2.6590
    -2.6590  -2.6398  -2.6398  -2.6135  -2.6135  -2.4976  -2.4976  -2.4905
    -2.4905  -2.4905  -2.4905  -2.4815  -2.4815  -2.4815  -2.4815  -2.4743
    -2.4743  -2.4614  -2.4614  -2.4583  -2.4566  -2.4566  -2.4470  -2.4098
    -2.3738  -2.3738  -2.3689  -2.3689  -2.3485  -2.3485  -2.3167  -2.3167
    -2.3081  -2.3081  -2.3081  -2.3081  -2.3022  -2.3022  -2.2954  -2.2954
    -2.2887  -2.2887  -2.2871  -2.2871  -2.2783  -2.2689  -2.2689  -2.2528
    -2.1456  -2.1456  -2.1361  -2.1361  -2.1011  -2.1011  -2.0768  -2.0768
    -2.0704  -2.0704  -2.0704  -2.0704  -2.0640  -2.0640  -2.0054  -2.0054
    -2.0054  -2.0054  -1.9987  -1.9948  -1.9948  -1.9635  -1.9635  -1.9417
    -1.9417  -1.8952  -1.8952  -1.8691  -1.8691  -1.8691  -1.8691  -1.8634
    -1.8634  -1.8398  -1.8398  -1.8342  -1.8342  -1.8342  -1.8342  -1.8311
    -1.8311  -1.7991  -1.7991  -1.7991  -1.7991  -1.7964  -1.7964  -1.7574
    -1.7574  -1.7428  -1.7428  -1.7324  -1.6938  -1.6938  -1.6839  -1.6839
    -1.6839  -1.6839  -1.6750  -1.6750  -1.6613  -1.6613  -1.6613  -1.6613
    -1.6229  -1.6229  -1.6229  -1.6229  -1.6180  -1.6127  -1.6127  -1.6127
    -1.6127  -1.6036  -1.6036  -1.5955  -1.5954  -1.5431  -1.5431  -1.5322
    -1.5322  -1.5044  -1.5044  -1.4973  -1.4973  -1.4973  -1.4973  -1.4943
    -1.4896  -1.4679  -1.4679  -1.4500  -1.4500  -1.4499  -1.4499  -1.4483
    -1.3928  -1.3928  -1.3913  -1.3913  -1.3913  -1.3913  -1.3888  -1.3888
    -1.3836  -1.3836  -1.3778  -1.3778  -1.3778  -1.3778  -1.3625  -1.3625
    -1.3625  -1.3625  -1.3597  -1.3597  -1.3597  -1.3597  -1.3564  -1.3564
    -1.2926  -1.2926  -1.2381  -1.2381  -1.2337  -1.2337  -1.2337  -1.2337
    -1.1941  -1.1941  -1.1808  -1.1808  -1.1808  -1.1807  -1.1766  -1.1766
    -1.1124  -1.1124  -1.1124  -1.1124  -1.1087  -1.0963  -1.0963  -1.0797
    -1.0797  -1.0738  -1.0625  -1.0625  -1.0553  -1.0553  -1.0053  -1.0053
    -1.0053  -1.0053  -0.9991  -0.9991  -0.9991  -0.9991  -0.9882  -0.9696
    -0.9696  -0.9696  -0.9696  -0.9567  -0.9567  -0.9375  -0.9375  -0.9375
    -0.9375  -0.8983  -0.8983  -0.8983  -0.8983  -0.8888  -0.8888  -0.8803
    -0.8803  -0.8725  -0.8694  -0.8694  -0.8674  -0.8674  -0.8674  -0.8674
    -0.8532  -0.8532  -0.8409  -0.8366  -0.8366  -0.8192  -0.8002  -0.8002
[...]
    -1.2409  -1.2409  -1.2408  -1.2408  -1.2207  -1.2206  -1.2206  -1.2206
    -1.1834  -1.1834  -1.1834  -1.1834  -1.1658  -1.1658  -1.1658  -1.1657
    -1.1457  -1.1456  -1.1456  -1.1456  -1.0575  -1.0575  -1.0575  -1.0575
    -1.0524  -1.0524  -1.0523  -1.0523  -1.0363  -1.0363  -1.0363  -1.0362
    -1.0229  -1.0229  -1.0229  -1.0229  -1.0157  -1.0157  -1.0156  -1.0156
    -0.9428  -0.9428  -0.9428  -0.9428  -0.9304  -0.9304  -0.9304  -0.9304
    -0.9256  -0.9256  -0.9256  -0.9256  -0.8859  -0.8859  -0.8859  -0.8859
    -0.8836  -0.8836  -0.8835  -0.8834  -0.8818  -0.8818  -0.8817  -0.8817
    -0.8309  -0.8309  -0.8309  -0.8309  -0.8245  -0.8245  -0.8245  -0.8244
    -0.8092  -0.8092  -0.8091  -0.8091  -0.7936  -0.7936  -0.7936  -0.7936
    -0.7643  -0.7643  -0.7643  -0.7643  -0.7616  -0.7616  -0.7616  -0.7616
    -0.7112  -0.7112  -0.7111  -0.7111  -0.7069  -0.7069  -0.7069  -0.7069
    -0.7003  -0.7003  -0.7003  -0.7003  -0.6625  -0.6625  -0.6625  -0.6625
    -0.6609  -0.6609  -0.6608  -0.6608  -0.6393  -0.6393  -0.6393  -0.6393
    -0.6222  -0.6222  -0.6222  -0.6222  -0.5799  -0.5799  -0.5799  -0.5799
    -0.5474  -0.5474  -0.5474  -0.5474  -0.5346  -0.5346  -0.5346  -0.5346
    -0.4629  -0.4629  -0.4629  -0.4629  -0.4237  -0.4237  -0.4237  -0.4237
    -0.4107  -0.4107  -0.4107  -0.4107  -0.4009  -0.4009  -0.4008  -0.4008
    -0.3604  -0.3604  -0.3604  -0.3604  -0.3573  -0.3573  -0.3572  -0.3572
    -0.3551  -0.3551  -0.3551  -0.3550  -0.3541  -0.3541  -0.3541  -0.3541
    -0.3301  -0.3301  -0.3300  -0.3300  -0.3136  -0.3136  -0.3136  -0.3136
    -0.2973  -0.2973  -0.2973  -0.2973  -0.2818  -0.2818  -0.2818  -0.2818
    -0.2718  -0.2718  -0.2718  -0.2718  -0.2586  -0.2586  -0.2586  -0.2586
    -0.1995  -0.1995  -0.1995  -0.1995  -0.1926  -0.1926  -0.1925  -0.1925
    -0.1899  -0.1899  -0.1899  -0.1899  -0.1840  -0.1840  -0.1840  -0.1840
    -0.1695  -0.1695  -0.1695  -0.1695  -0.1123  -0.1123  -0.1122  -0.1122
    -0.1106  -0.1106  -0.1106  -0.1106  -0.1071  -0.1071  -0.1071  -0.1071
    -0.0691  -0.0691  -0.0691  -0.0691  -0.0384  -0.0384  -0.0384  -0.0384
    -0.0360  -0.0360  -0.0360  -0.0360  -0.0347  -0.0347  -0.0347  -0.0347
    -0.0321  -0.0321  -0.0321  -0.0321  -0.0116  -0.0116  -0.0116  -0.0116
    -0.0032  -0.0032  -0.0032  -0.0032   0.0010   0.0010   0.0010   0.0010
     0.0187   0.0187   0.0187   0.0187   0.0536   0.0536   0.0537   0.0537
     0.0625   0.0625   0.0625   0.0625   0.0791   0.0791   0.0791   0.0791
     0.1009   0.1009   0.1009   0.1009   0.1340   0.1340   0.1340   0.1340
     0.1767   0.1767   0.1767   0.1767   0.1820   0.1820   0.1820   0.1820
     0.2123   0.2123   0.2124   0.2124   0.2252   0.2252   0.2252   0.2252
     0.4308   0.4308   0.4308   0.4308   0.8490   0.8491   0.8491   0.8491
     1.1552   1.1552   1.1553   1.1553   1.3539   1.3539   1.3539   1.3539
     1.5874   1.5874   1.5874   1.5874   2.0541   2.0541   2.0542   2.0542
     2.2349   2.2349   2.2349   2.2349   2.5344   2.5344   2.5345   2.5345
     2.7059   2.7060   2.7060   2.7060   2.8348   2.8348   2.8349   2.8349
     3.0888   3.0889   3.0889   3.0889   3.3018   3.3019   3.3019   3.3019
     3.7602   3.7602   3.7603   3.7603   3.7634   3.7634   3.7634   3.7635
     3.7638   3.7638   3.7638   3.7639   4.1746   4.1747   4.1747   4.1748
     4.3231   4.3231   4.3231   4.3231   5.3833   5.3834   5.3835   5.3836
     5.5770   5.5770   5.5770   5.5770   5.6741   5.6741   5.6742   5.6742
     5.6864   5.6864   5.6864   5.6864   5.9274   5.9275   5.9275   5.9275
     6.0056   6.0056   6.0056   6.0056   6.4562   6.4562   6.4562   6.4562
     6.8206   6.8206   6.8207   6.8208   6.9512   6.9512   6.9513   6.9513
     7.3005   7.3005   7.3005   7.3006   7.4589   7.4589   7.4590   7.4590
     7.4835   7.4835   7.4836   7.4836   7.5452   7.5452   7.5454   7.5454
     7.7515   7.7515   7.7515   7.7515   7.9368   7.9368   7.9368   7.9368
     8.0311   8.0312   8.0312   8.0312

     the Fermi energy is     1.9271 ev

!    total energy              =  -12150.80056099 Ry
     Harris-Foulkes estimate   =  -12150.80056099 Ry
     estimated scf accuracy    <          8.6E-11 Ry

     The total energy is the sum of the following terms:

     one-electron contribution = -111170.29547507 Ry
     hartree contribution      =   56823.53055890 Ry
     xc contribution           =   -4277.62519414 Ry
     ewald contribution        =   46479.08454821 Ry
     Dispersion Correction     =      -2.36774194 Ry
     smearing contrib. (-TS)   =      -3.12725694 Ry

     convergence has been achieved in   9 iterations

     negative rho (up, down):  5.212E-04 0.000E+00

     Forces acting on atoms (Ry/au):

     atom    1 type  1   force =     0.00000000    0.00000000    0.00000246
     atom    2 type  1   force =     0.00000451   -0.00000890   -0.00000099
     atom    3 type  1   force =     0.00000000    0.00000000    0.00000769
     atom    4 type  1   force =    -0.00000451   -0.00000890   -0.00000099
     atom    5 type  1   force =     0.00000000   -0.00001259   -0.00001594
     atom    6 type  1   force =     0.00000799   -0.00000108   -0.00000964
     atom    7 type  1   force =     0.00000000   -0.00000873   -0.00000754
     atom    8 type  1   force =    -0.00000799   -0.00000108   -0.00000964
     atom    9 type  1   force =     0.00000000    0.00000463   -0.00000483
     atom   10 type  1   force =     0.00000872    0.00000000    0.00000736
     atom   11 type  1   force =     0.00000000    0.00000651    0.00000544
     atom   12 type  1   force =    -0.00000872    0.00000000    0.00000736
     atom   13 type  1   force =     0.00000000   -0.00000463   -0.00000483
     atom   14 type  1   force =     0.00000799    0.00000108   -0.00000964
     atom   15 type  1   force =     0.00000000   -0.00000651    0.00000544
     atom   16 type  1   force =    -0.00000799    0.00000108   -0.00000964
     atom   17 type  1   force =     0.00000000    0.00001259   -0.00001594
     atom   18 type  1   force =     0.00000451    0.00000890   -0.00000099
     atom   19 type  1   force =     0.00000000    0.00000873   -0.00000754
     atom   20 type  1   force =    -0.00000451    0.00000890   -0.00000099
     atom   21 type  1   force =     0.00000000   -0.00001282   -0.00001223
     atom   22 type  1   force =     0.00000751    0.00000000   -0.00001091
     atom   23 type  1   force =     0.00000000   -0.00000972   -0.00000966
     atom   24 type  1   force =    -0.00000751    0.00000000   -0.00001091
     atom   25 type  1   force =     0.00000000    0.00001004   -0.00000193
     atom   26 type  1   force =     0.00001145   -0.00000497   -0.00000618
     atom   27 type  1   force =     0.00000000    0.00001298    0.00000085
     atom   28 type  1   force =    -0.00001145   -0.00000497   -0.00000618
     atom   29 type  1   force =     0.00000000    0.00000000    0.00000694
     atom   30 type  1   force =     0.00001722    0.00001704    0.00000811
     atom   31 type  1   force =     0.00000000    0.00000000    0.00000990
     atom   32 type  1   force =    -0.00001722    0.00001704    0.00000811
     atom   33 type  1   force =     0.00000000   -0.00001004   -0.00000193
     atom   34 type  1   force =     0.00001722   -0.00001704    0.00000811
     atom   35 type  1   force =     0.00000000   -0.00001298    0.00000085
     atom   36 type  1   force =    -0.00001722   -0.00001704    0.00000811
     atom   37 type  1   force =     0.00000000    0.00001282   -0.00001223
     atom   38 type  1   force =     0.00001145    0.00000497   -0.00000618
     atom   39 type  1   force =     0.00000000    0.00000972   -0.00000966
     atom   40 type  1   force =    -0.00001145    0.00000497   -0.00000618
     atom   41 type  1   force =     0.00000000    0.00000000    0.00000000
     atom   42 type  1   force =     0.00000995   -0.00001205    0.00000000
     atom   43 type  1   force =     0.00000000    0.00000000    0.00000000
     atom   44 type  1   force =    -0.00000995   -0.00001205    0.00000000
     atom   45 type  1   force =     0.00000000   -0.00000376    0.00000000
     atom   46 type  1   force =     0.00001507    0.00001775    0.00000000
     atom   47 type  1   force =     0.00000000    0.00000063    0.00000000
     atom   48 type  1   force =    -0.00001507    0.00001775    0.00000000
     atom   49 type  1   force =     0.00000000    0.00001991    0.00000000
     atom   50 type  1   force =     0.00001993    0.00000000    0.00000000
     atom   51 type  1   force =     0.00000000    0.00002326    0.00000000
     atom   52 type  1   force =    -0.00001993    0.00000000    0.00000000
     atom   53 type  1   force =     0.00000000   -0.00001991    0.00000000
     atom   54 type  1   force =     0.00001507   -0.00001775    0.00000000
     atom   55 type  1   force =     0.00000000   -0.00002326    0.00000000
     atom   56 type  1   force =    -0.00001507   -0.00001775    0.00000000
     atom   57 type  1   force =     0.00000000    0.00000376    0.00000000
     atom   58 type  1   force =     0.00000995    0.00001205    0.00000000
     atom   59 type  1   force =     0.00000000   -0.00000063    0.00000000
     atom   60 type  1   force =    -0.00000995    0.00001205    0.00000000
     atom   61 type  1   force =     0.00000000   -0.00001282    0.00001223
     atom   62 type  1   force =     0.00000751    0.00000000    0.00001091
     atom   63 type  1   force =     0.00000000   -0.00000972    0.00000966
     atom   64 type  1   force =    -0.00000751    0.00000000    0.00001091
     atom   65 type  1   force =     0.00000000    0.00001004    0.00000193
     atom   66 type  1   force =     0.00001145   -0.00000497    0.00000618
     atom   67 type  1   force =     0.00000000    0.00001298   -0.00000085
     atom   68 type  1   force =    -0.00001145   -0.00000497    0.00000618
     atom   69 type  1   force =     0.00000000    0.00000000   -0.00000694
     atom   70 type  1   force =     0.00001722    0.00001704   -0.00000811
     atom   71 type  1   force =     0.00000000    0.00000000   -0.00000990
     atom   72 type  1   force =    -0.00001722    0.00001704   -0.00000811
     atom   73 type  1   force =     0.00000000   -0.00001004    0.00000193
     atom   74 type  1   force =     0.00001722   -0.00001704   -0.00000811
     atom   75 type  1   force =     0.00000000   -0.00001298   -0.00000085
     atom   76 type  1   force =    -0.00001722   -0.00001704   -0.00000811
     atom   77 type  1   force =     0.00000000    0.00001282    0.00001223
     atom   78 type  1   force =     0.00001145    0.00000497    0.00000618
     atom   79 type  1   force =     0.00000000    0.00000972    0.00000966
     atom   80 type  1   force =    -0.00001145    0.00000497    0.00000618
     atom   81 type  1   force =     0.00000000    0.00000000   -0.00000246
     atom   82 type  1   force =     0.00000451   -0.00000890    0.00000099
     atom   83 type  1   force =     0.00000000    0.00000000   -0.00000769
     atom   84 type  1   force =    -0.00000451   -0.00000890    0.00000099
     atom   85 type  1   force =     0.00000000   -0.00001259    0.00001594
     atom   86 type  1   force =     0.00000799   -0.00000108    0.00000964
     atom   87 type  1   force =     0.00000000   -0.00000873    0.00000754
     atom   88 type  1   force =    -0.00000799   -0.00000108    0.00000964
     atom   89 type  1   force =     0.00000000    0.00000463    0.00000483
     atom   90 type  1   force =     0.00000872    0.00000000   -0.00000736
     atom   91 type  1   force =     0.00000000    0.00000651   -0.00000544
     atom   92 type  1   force =    -0.00000872    0.00000000   -0.00000736
     atom   93 type  1   force =     0.00000000   -0.00000463    0.00000483
     atom   94 type  1   force =     0.00000799    0.00000108    0.00000964
     atom   95 type  1   force =     0.00000000   -0.00000651   -0.00000544
     atom   96 type  1   force =    -0.00000799    0.00000108    0.00000964
     atom   97 type  1   force =     0.00000000    0.00001259    0.00001594
     atom   98 type  1   force =     0.00000451    0.00000890    0.00000099
     atom   99 type  1   force =     0.00000000    0.00000873    0.00000754
     atom  100 type  1   force =    -0.00000451    0.00000890    0.00000099

     Total force =     0.000149     Total SCF correction =     0.000049
     SCF correction compared to forces is large: reduce conv_thr to get better values

     bfgs converged in  16 scf cycles and  15 bfgs steps
     (criteria: energy <  1.0E-06, force <  1.0E-05)

     End of BFGS Geometry Optimization

     Final energy   =  -12150.8005609884 Ry
Begin final coordinates

ATOMIC_POSITIONS (angstrom)
Cu       0.000000000   0.000000000   8.829125450
Cu       1.844496749   1.703944485   8.829129733
Cu       3.689036991   0.000000000   8.829108282
Cu       5.533577234   1.703944485   8.829129733
Cu       0.000000000   3.407852813   8.829169728
Cu       1.844473915   5.111682166   8.829112533
Cu       3.689036991   3.407844337   8.829138927
Cu       5.533600068   5.111682166   8.829112533
Cu       0.000000000   6.815547685   8.829081614
Cu       1.844452291   8.519466000   8.829033812
Cu       3.689036991   6.815549938   8.829051108
Cu       5.533621692   8.519466000   8.829033812
Cu       0.000000000  10.223384315   8.829081614
Cu       1.844473915  11.927249834   8.829112533
Cu       3.689036991  10.223382062   8.829051108
Cu       5.533600068  11.927249834   8.829112533
Cu       0.000000000  13.631079187   8.829169728
Cu       1.844496749  15.334987515   8.829129733
Cu       3.689036991  13.631087663   8.829138927
Cu       5.533577234  15.334987515   8.829129733
Cu       0.000000000   1.703931617  10.660705205
Cu       1.844502597   0.000000000  10.660702619
Cu       3.689036991   1.703930677  10.660694851
Cu       5.533571386   0.000000000  10.660702619
Cu       0.000000000   5.111662627  10.660664230
Cu       1.844483222   3.407817613  10.660677170
Cu       3.689036991   5.111661458  10.660649782
Cu       5.533590761   3.407817613  10.660677170
Cu       0.000000000   8.519466000  10.660620342
Cu       1.844451364   6.815538669  10.660616826
Cu       3.689036991   8.519466000  10.660605754
Cu       5.533622619   6.815538669  10.660616826
Cu       0.000000000  11.927269373  10.660664230
Cu       1.844451364  10.223393331  10.660616826
Cu       3.689036991  11.927270542  10.660649782
Cu       5.533622619  10.223393331  10.660616826
Cu       0.000000000  15.335000383  10.660705205
Cu       1.844483222  13.631114387  10.660677170
Cu       3.689036991  15.335001323  10.660694851
Cu       5.533590761  13.631114387  10.660677170
Cu       0.000000000   0.000000000  12.500000000
Cu       1.844495097   1.703938538  12.500000000
Cu       3.689036991   0.000000000  12.500000000
Cu       5.533578886   1.703938538  12.500000000
Cu       0.000000000   3.407813017  12.500000000
Cu       1.844466556   5.111642522  12.500000000
Cu       3.689036991   3.407808501  12.500000000
Cu       5.533607427   5.111642522  12.500000000
Cu       0.000000000   6.815525900  12.500000000
Cu       1.844443343   8.519466000  12.500000000
Cu       3.689036991   6.815523275  12.500000000
Cu       5.533630640   8.519466000  12.500000000
Cu       0.000000000  10.223406100  12.500000000
Cu       1.844466556  11.927289478  12.500000000
Cu       3.689036991  10.223408725  12.500000000
Cu       5.533607427  11.927289478  12.500000000
Cu       0.000000000  13.631118983  12.500000000
Cu       1.844495097  15.334993462  12.500000000
Cu       3.689036991  13.631123499  12.500000000
Cu       5.533578886  15.334993462  12.500000000
Cu       0.000000000   1.703931617  14.339296065
Cu       1.844502597   0.000000000  14.339298651
Cu       3.689036991   1.703930677  14.339306419
Cu       5.533571386   0.000000000  14.339298651
Cu       0.000000000   5.111662627  14.339337040
Cu       1.844483222   3.407817613  14.339324100
Cu       3.689036991   5.111661458  14.339351488
Cu       5.533590761   3.407817613  14.339324100
Cu       0.000000000   8.519466000  14.339380928
Cu       1.844451364   6.815538669  14.339384444
Cu       3.689036991   8.519466000  14.339395516
Cu       5.533622619   6.815538669  14.339384444
Cu       0.000000000  11.927269373  14.339337040
Cu       1.844451364  10.223393331  14.339384444
Cu       3.689036991  11.927270542  14.339351488
Cu       5.533622619  10.223393331  14.339384444
Cu       0.000000000  15.335000383  14.339296065
Cu       1.844483222  13.631114387  14.339324100
Cu       3.689036991  15.335001323  14.339306419
Cu       5.533590761  13.631114387  14.339324100
Cu       0.000000000   0.000000000  16.170889213
Cu       1.844496749   1.703944485  16.170884930
Cu       3.689036991   0.000000000  16.170906381
Cu       5.533577234   1.703944485  16.170884930
Cu       0.000000000   3.407852813  16.170844935
Cu       1.844473915   5.111682166  16.170902130
Cu       3.689036991   3.407844337  16.170875736
Cu       5.533600068   5.111682166  16.170902130
Cu       0.000000000   6.815547685  16.170933049
Cu       1.844452291   8.519466000  16.170980851
Cu       3.689036991   6.815549938  16.170963555
Cu       5.533621692   8.519466000  16.170980851
Cu       0.000000000  10.223384315  16.170933049
Cu       1.844473915  11.927249834  16.170902130
Cu       3.689036991  10.223382062  16.170963555
Cu       5.533600068  11.927249834  16.170902130
Cu       0.000000000  13.631079187  16.170844935
Cu       1.844496749  15.334987515  16.170884930
Cu       3.689036991  13.631087663  16.170875736
Cu       5.533577234  15.334987515  16.170884930
End final coordinates



     Writing output data file copper.save
 
     init_run     :     27.29s CPU     29.25s WALL (       1 calls)
     electrons    :  25267.70s CPU  26176.07s WALL (      16 calls)
     update_pot   :      5.42s CPU      6.49s WALL (      15 calls)
     forces       :    236.01s CPU    239.98s WALL (      16 calls)

     Called by init_run:
     wfcinit      :     25.84s CPU     27.21s WALL (       1 calls)
     potinit      :      0.11s CPU      0.13s WALL (       1 calls)

     Called by electrons:
     c_bands      :  23255.32s CPU  24085.55s WALL (     316 calls)
     sum_band     :   1968.08s CPU   2028.91s WALL (     316 calls)
     v_of_rho     :     10.77s CPU     12.47s WALL (     323 calls)
     newd         :     28.28s CPU     39.65s WALL (     323 calls)
     mix_rho      :      3.18s CPU      3.98s WALL (     316 calls)

     Called by c_bands:
     init_us_2    :     41.20s CPU     42.20s WALL (    2596 calls)
     cegterg      :  23041.71s CPU  23856.35s WALL (    1264 calls)

     Called by sum_band:
     sum_band:bec :     27.73s CPU     32.43s WALL (    1264 calls)
     addusdens    :     28.81s CPU     40.18s WALL (     316 calls)

     Called by *egterg:
     h_psi        :   8758.16s CPU   8982.40s WALL (    4582 calls)
     s_psi        :   2147.51s CPU   2201.11s WALL (    4582 calls)
     g_psi        :     19.42s CPU     19.43s WALL (    3314 calls)
     cdiaghg      :   7318.26s CPU   7547.13s WALL (    4482 calls)

     Called by h_psi:
     add_vuspsi   :   2107.78s CPU   2161.53s WALL (    4582 calls)

     General routines
     calbec       :   3386.90s CPU   3427.80s WALL (    6102 calls)
     fft          :     15.74s CPU     17.68s WALL (    5331 calls)
     ffts         :      1.47s CPU      1.63s WALL (     639 calls)
     fftw         :   5114.14s CPU   5284.38s WALL ( 4830244 calls)
     interpolate  :      2.97s CPU      3.65s WALL (     639 calls)
     davcio       :      0.07s CPU      0.83s WALL (       4 calls)
 
     Parallel routines
     fft_scatter  :   3848.30s CPU   3888.21s WALL ( 4836214 calls)
 
     PWSCF        :     7h 5m CPU        7h21m WALL

 
   This run was terminated on:  20:20:10  21Nov2016            

=------------------------------------------------------------------------------=
   JOB DONE.
=------------------------------------------------------------------------------=
