
     Program PWSCF v.5.4.0 starts on 26Apr2017 at 20: 8:44 

     This program is part of the open-source Quantum ESPRESSO suite
     for quantum simulation of materials; please cite
         "P. Giannozzi et al., J. Phys.:Condens. Matter 21 395502 (2009);
          URL http://www.quantum-espresso.org", 
     in publications or presentations arising from this work. More details at
     http://www.quantum-espresso.org/quote

     Parallel version (MPI & OpenMP), running on      56 processor cores
     Number of MPI processes:                56
     Threads/MPI process:                     1
     R & G space division:  proc/nbgrp/npool/nimage =      56
     Waiting for input...
     Reading input from standard input
Warning: card &IONS ignored
Warning: card / ignored

     Current dimensions of program PWSCF are:
     Max number of different atomic species (ntypx) = 10
     Max number of k-points (npk) =  40000
     Max angular momentum in pseudopotentials (lmaxx) =  3

     -------------------------------------
     Parameters for Dispersion Correction:
     -------------------------------------
       atom      VdW radius       C_6     

        Cu         2.952        374.666
        C_h        2.744         60.710
        C          2.744         60.710
        H          1.892          4.857

     Subspace diagonalization in iterative solution of the eigenvalue problem:
     one sub-group per band group will be used
     scalapack distributed-memory algorithm (size of sub-group:  5*  5 procs)

 
     Parallelization info
     --------------------
     sticks:   dense  smooth     PW     G-vecs:    dense   smooth      PW
     Min         204     204     54                36612    36612    4962
     Max         205     205     55                36617    36617    4968
     Sum       11433   11433   3039              2050409  2050409  278033
 


     bravais-lattice index     =            0
     lattice parameter (alat)  =      13.9425  a.u.
     unit-cell volume          =   21209.0878 (a.u.)^3
     number of atoms/cell      =          151
     number of atomic types    =            4
     number of electrons       =      1298.00
     number of Kohn-Sham states=          779
     kinetic-energy cutoff     =      80.0000  Ry
     charge density cutoff     =     320.0000  Ry
     convergence threshold     =      1.0E-08
     mixing beta               =       0.7000
     number of iterations used =            8  local-TF  mixing
     Exchange-correlation      =  SLA  PW   PBE  PBE ( 1  4  3  4 0 0)

     celldm(1)=  13.942539  celldm(2)=   0.000000  celldm(3)=   0.000000
     celldm(4)=   0.000000  celldm(5)=   0.000000  celldm(6)=   0.000000

     crystal axes: (cart. coord. in units of alat)
               a(1) = (   1.000000   0.000000   0.000000 )  
               a(2) = (   0.000000   2.309401   0.000000 )  
               a(3) = (   0.000000   0.000000   3.388418 )  

     reciprocal axes: (cart. coord. in units 2 pi/alat)
               b(1) = (  1.000000  0.000000  0.000000 )  
               b(2) = (  0.000000  0.433013  0.000000 )  
               b(3) = (  0.000000  0.000000  0.295123 )  


     PseudoPot. # 1 for Cu read from file:
     /home/549/hxw549/Short/pseudopotentials/Cu.pbe-n-van_ak.UPF
     MD5 check sum: 601f7c30f7467666bec936e0661ce3e1
     Pseudo is Ultrasoft + core correction, Zval = 11.0
     Generated by new atomic code, or converted to UPF format
     Using radial grid of  867 points,  6 beta functions with: 
                l(1) =   0
                l(2) =   0
                l(3) =   1
                l(4) =   1
                l(5) =   2
                l(6) =   2
     Q(r) pseudized with  8 coefficients,  rinner =    1.400   1.400   1.400
                                                       1.400   1.400

     PseudoPot. # 2 for C  read from file:
     /home/549/hxw549/Short/pseudopotentials/C.star1s-pbe-mt_gipaw.UPF
     MD5 check sum: ef0cb3dee31bd9e4ba2a832a2c716264
     Pseudo is Norm-conserving, Zval =  5.0
     Generated by new atomic code, or converted to UPF format
     Using radial grid of 1073 points,  1 beta functions with: 
                l(1) =   0

     PseudoPot. # 3 for C  read from file:
     /home/549/hxw549/Short/pseudopotentials/C.pbe-mt_gipaw.UPF
     MD5 check sum: 5ac2f21f2c440b14befe521540822c15
     Pseudo is Norm-conserving, Zval =  4.0
     Generated by new atomic code, or converted to UPF format
     Using radial grid of 1073 points,  1 beta functions with: 
                l(1) =   0

     PseudoPot. # 4 for H  read from file:
     /home/549/hxw549/Short/pseudopotentials/H.pbe-van_ak.UPF
     MD5 check sum: 077eb6d537518a38cb46c6de387227b7
     Pseudo is Ultrasoft, Zval =  1.0
     Generated by new atomic code, or converted to UPF format
     Using radial grid of  615 points,  1 beta functions with: 
                l(1) =   0
     Q(r) pseudized with  8 coefficients,  rinner =    0.800

     atomic species   valence    mass     pseudopotential
        Cu            11.00    63.54600     Cu( 1.00)
        C_h            5.00    12.01070     C ( 1.00)
        C              4.00    12.01070     C ( 1.00)
        H              1.00     1.00783     H ( 1.00)

     No symmetry found



   Cartesian axes

     site n.     atom                  positions (alat units)
         1           Cu  tau(   1) = (   0.0023701   0.0005531   0.9912775  )
         2           Cu  tau(   2) = (   0.2522943   0.2298133   0.9926653  )
         3           Cu  tau(   3) = (   0.5025296   0.0001495   0.9914819  )
         4           Cu  tau(   4) = (   0.7524013   0.2299767   0.9924321  )
         5           Cu  tau(   5) = (   0.0025375   0.4601610   0.9926740  )
         6           Cu  tau(   6) = (   0.2531029   0.6915518   0.9925774  )
         7           Cu  tau(   7) = (   0.5026857   0.4598738   0.9931577  )
         8           Cu  tau(   8) = (   0.7528923   0.6915806   0.9923958  )
         9           Cu  tau(   9) = (   0.0033284   0.9235327   0.9914067  )
        10           Cu  tau(  10) = (   0.2536458   1.1551632   0.9916268  )
        11           Cu  tau(  11) = (   0.5031110   0.9237667   0.9921888  )
        12           Cu  tau(  12) = (   0.7532464   1.1549911   0.9918572  )
        13           Cu  tau(  13) = (   0.0031228   1.3872533   0.9902750  )
        14           Cu  tau(  14) = (   0.2531675   1.6194281   0.9899745  )
        15           Cu  tau(  15) = (   0.5035730   1.3876186   0.9919566  )
        16           Cu  tau(  16) = (   0.7530729   1.6196848   0.9896121  )
        17           Cu  tau(  17) = (   0.0031753   1.8498056   0.9901986  )
        18           Cu  tau(  18) = (   0.2527161   2.0803759   0.9900461  )
        19           Cu  tau(  19) = (   0.5026297   1.8505913   0.9887375  )
        20           Cu  tau(  20) = (   0.7525822   2.0801547   0.9906741  )
        21           Cu  tau(  21) = (   0.0029714   0.2294365   1.2412071  )
        22           Cu  tau(  22) = (   0.2530781  -0.0006502   1.2409225  )
        23           Cu  tau(  23) = (   0.5031218   0.2294308   1.2412588  )
        24           Cu  tau(  24) = (   0.7530282  -0.0002383   1.2413913  )
        25           Cu  tau(  25) = (   0.0037474   0.6915272   1.2388332  )
        26           Cu  tau(  26) = (   0.2534508   0.4599901   1.2402593  )
        27           Cu  tau(  27) = (   0.5034705   0.6915691   1.2392123  )
        28           Cu  tau(  28) = (   0.7531709   0.4594197   1.2392921  )
        29           Cu  tau(  29) = (   0.0044018   1.1568475   1.2366386  )
        30           Cu  tau(  30) = (   0.2539968   0.9236930   1.2387872  )
        31           Cu  tau(  31) = (   0.5040972   1.1559828   1.2392214  )
        32           Cu  tau(  32) = (   0.7544796   0.9232473   1.2393972  )
        33           Cu  tau(  33) = (   0.0041560   1.6193309   1.2388143  )
        34           Cu  tau(  34) = (   0.2536870   1.3888299   1.2368786  )
        35           Cu  tau(  35) = (   0.5035967   1.6211676   1.2364274  )
        36           Cu  tau(  36) = (   0.7545803   1.3894447   1.2365008  )
        37           Cu  tau(  37) = (   0.0032782   2.0794921   1.2408876  )
        38           Cu  tau(  38) = (   0.2531897   1.8496993   1.2398460  )
        39           Cu  tau(  39) = (   0.5034349   2.0792346   1.2399824  )
        40           Cu  tau(  40) = (   0.7540034   1.8497362   1.2391936  )
        41           Cu  tau(  41) = (   0.0038687  -0.0013266   1.4920112  )
        42           Cu  tau(  42) = (   0.2541654   0.2276460   1.4894066  )
        43           Cu  tau(  43) = (   0.5047584  -0.0006080   1.4915878  )
        44           Cu  tau(  44) = (   0.7547324   0.2291704   1.4909609  )
        45           Cu  tau(  45) = (   0.0039754   0.4590212   1.4890642  )
        46           Cu  tau(  46) = (   0.2548312   0.6910340   1.4878485  )
        47           Cu  tau(  47) = (   0.5047712   0.4598869   1.4896285  )
        48           Cu  tau(  48) = (   0.7553903   0.6899110   1.4873405  )
        49           Cu  tau(  49) = (   0.0070936   0.9252700   1.4857464  )
        50           Cu  tau(  50) = (   0.2544914   1.1583113   1.4855396  )
        51           Cu  tau(  51) = (   0.5052697   0.9225779   1.4862390  )
        52           Cu  tau(  52) = (   0.7578866   1.1594260   1.4829290  )
        53           Cu  tau(  53) = (   0.0061710   1.3887674   1.4884912  )
        54           Cu  tau(  54) = (   0.2537878   1.6193626   1.4889766  )
        55           Cu  tau(  55) = (   0.5051385   1.3936799   1.4817811  )
        56           Cu  tau(  56) = (   0.7568507   1.6201381   1.4883657  )
        57           Cu  tau(  57) = (   0.0050292   1.8504379   1.4908492  )
        58           Cu  tau(  58) = (   0.2543320   2.0794405   1.4914776  )
        59           Cu  tau(  59) = (   0.5047577   1.8492729   1.4900454  )
        60           Cu  tau(  60) = (   0.7543994   2.0791456   1.4919649  )
        61           Cu  tau(  61) = (   0.0047913   0.2306247   1.7402186  )
        62           Cu  tau(  62) = (   0.2550961   0.0001435   1.7427744  )
        63           Cu  tau(  63) = (   0.5057528   0.2283734   1.7411779  )
        64           Cu  tau(  64) = (   0.7561085  -0.0000909   1.7422458  )
        65           Cu  tau(  65) = (   0.0053721   0.6896092   1.7355837  )
        66           Cu  tau(  66) = (   0.2567127   0.4576389   1.7348078  )
        67           Cu  tau(  67) = (   0.5075110   0.6951879   1.7408955  )
        68           Cu  tau(  68) = (   0.7535993   0.4595840   1.7396673  )
        69           Cu  tau(  69) = (   0.0120203   1.1589231   1.7404964  )
        70           Cu  tau(  70) = (   0.2583518   0.9233354   1.7346766  )
        71           Cu  tau(  71) = (   0.5072397   1.1632500   1.7209039  )
        72           Cu  tau(  72) = (   0.7653629   0.9287559   1.7233979  )
        73           Cu  tau(  73) = (   0.0075763   1.6181725   1.7390357  )
        74           Cu  tau(  74) = (   0.2591149   1.3887432   1.7382630  )
        75           Cu  tau(  75) = (   0.5086521   1.6186265   1.7374447  )
        76           Cu  tau(  76) = (   0.7595798   1.3867089   1.7354095  )
        77           Cu  tau(  77) = (   0.0062193   2.0789308   1.7432689  )
        78           Cu  tau(  78) = (   0.2567959   1.8486716   1.7397377  )
        79           Cu  tau(  79) = (   0.5057943   2.0797658   1.7420088  )
        80           Cu  tau(  80) = (   0.7574506   1.8487447   1.7412123  )
        81           Cu  tau(  81) = (   0.0082092   0.0037877   1.9879006  )
        82           Cu  tau(  82) = (   0.2577954   0.2331451   1.9898915  )
        83           Cu  tau(  83) = (   0.5041099  -0.0007611   1.9906134  )
        84           Cu  tau(  84) = (   0.7525444   0.2285047   1.9906828  )
        85           Cu  tau(  85) = (   0.0021013   0.4544026   1.9933688  )
        86           Cu  tau(  86) = (   0.2452862   0.6835861   1.9744261  )
        87           Cu  tau(  87) = (   0.5057712   0.4603167   1.9876923  )
        88           Cu  tau(  88) = (   0.7597420   0.6875193   1.9843476  )
        89           Cu  tau(  89) = (  -0.0020278   0.9227397   1.9804540  )
        90           Cu  tau(  90) = (   0.2658969   1.1508642   1.9808554  )
        91           Cu  tau(  91) = (   0.5535786   0.9522431   1.9653777  )
        92           Cu  tau(  92) = (   0.7814193   1.1797657   1.9977810  )
        93           Cu  tau(  93) = (   0.0275559   1.3952747   1.9930356  )
        94           Cu  tau(  94) = (   0.2664933   1.6238450   1.9869247  )
        95           Cu  tau(  95) = (   0.5089217   1.3860883   1.9818804  )
        96           Cu  tau(  96) = (   0.7605104   1.6117712   1.9851316  )
        97           Cu  tau(  97) = (   0.0059979   1.8447571   1.9877681  )
        98           Cu  tau(  98) = (   0.2555181   2.0758967   1.9879824  )
        99           Cu  tau(  99) = (   0.5132582   1.8489597   1.9856103  )
       100           Cu  tau( 100) = (   0.7595416   2.0816111   1.9885779  )
       101           C   tau( 101) = (  -0.0103769   0.0944376   2.3890921  )
       102           C   tau( 102) = (  -0.0105203   0.2864691   2.4063589  )
       103           C   tau( 103) = (   0.1562699  -0.0021316   2.3849102  )
       104           C   tau( 104) = (   0.1556573   0.3820899   2.4221379  )
       105           C   tau( 105) = (   0.3226180   0.0944783   2.3904494  )
       106           C   tau( 106) = (   0.3223383   0.2862627   2.4088131  )
       107           C   tau( 107) = (   0.4895262  -0.0019479   2.3822011  )
       108           C   tau( 108) = (   0.4890551   0.3830602   2.4146001  )
       109           C   tau( 109) = (   0.6564742   0.0947236   2.3868576  )
       110           C   tau( 110) = (   0.6561136   0.2868244   2.4023497  )
       111           C   tau( 111) = (   0.8229854  -0.0018807   2.3819412  )
       112           C   tau( 112) = (   0.8228886   0.3824320   2.4140750  )
       113           C   tau( 113) = (  -0.0113374   0.6701957   2.4479895  )
       114           C   tau( 114) = (  -0.0122261   0.8629609   2.4539182  )
       115           C   tau( 115) = (   0.1552772   0.5730334   2.4485801  )
       116           C   tau( 116) = (   0.1541436   0.9597968   2.4617561  )
       117           C   tau( 117) = (   0.3213128   0.6692623   2.4599181  )
       118           C   tau( 118) = (   0.3184984   0.8611734   2.4642354  )
       119           C_h tau( 119) = (   0.4884460   0.5740072   2.4346705  )
       120           C   tau( 120) = (   0.4827484   0.9556609   2.3894952  )
       121           C   tau( 121) = (   0.4216377   0.9238752   2.1851263  )
       122           H   tau( 122) = (   0.4104643   0.7731797   2.1656364  )
       123           H   tau( 123) = (   0.2798076   0.9763551   2.1781611  )
       124           C   tau( 124) = (   0.6562846   0.6708059   2.4312793  )
       125           C   tau( 125) = (   0.6576716   0.8611452   2.4235509  )
       126           C   tau( 126) = (   0.8230035   0.5740997   2.4324330  )
       127           C   tau( 127) = (   0.8210756   0.9581713   2.4305772  )
       128           C   tau( 128) = (  -0.0108793   1.2468637   2.4107300  )
       129           C   tau( 129) = (  -0.0105860   1.4397120   2.3925802  )
       130           C   tau( 130) = (   0.1550752   1.1519598   2.4318622  )
       131           C   tau( 131) = (   0.1559600   1.5365928   2.3915931  )
       132           C   tau( 132) = (   0.3225252   1.2490795   2.4182764  )
       133           C   tau( 133) = (   0.3224784   1.4410472   2.4020022  )
       134           C   tau( 134) = (   0.4882033   1.1552145   2.4137647  )
       135           C   tau( 135) = (   0.4891463   1.5364117   2.3919873  )
       136           C   tau( 136) = (   0.6543677   1.2476657   2.4045687  )
       137           C   tau( 137) = (   0.6555603   1.4404126   2.3944468  )
       138           C   tau( 138) = (   0.8223089   1.1510513   2.4117753  )
       139           C   tau( 139) = (   0.8224651   1.5358903   2.3850960  )
       140           C   tau( 140) = (  -0.0103791   1.8251840   2.3752745  )
       141           C   tau( 141) = (  -0.0101573   2.0179628   2.3758076  )
       142           C   tau( 142) = (   0.1564209   1.7289726   2.3810649  )
       143           C   tau( 143) = (   0.1564182   2.1145480   2.3773901  )
       144           C   tau( 144) = (   0.3231115   1.8252836   2.3819357  )
       145           C   tau( 145) = (   0.3233013   2.0180263   2.3790683  )
       146           C   tau( 146) = (   0.4894996   1.7290179   2.3840607  )
       147           C   tau( 147) = (   0.4898444   2.1146176   2.3799633  )
       148           C   tau( 148) = (   0.6561199   1.8251554   2.3789644  )
       149           C   tau( 149) = (   0.6562931   2.0180054   2.3773154  )
       150           C   tau( 150) = (   0.8226788   1.7285066   2.3770501  )
       151           C   tau( 151) = (   0.8231952   2.1146619   2.3757520  )

     number of k points=     6  gaussian smearing, width (Ry)=  0.1000
                       cart. coord. in units 2pi/alat
        k(    1) = (   0.0000000   0.0000000   0.0000000), wk =   0.2500000
        k(    2) = (   0.0000000  -0.2165064   0.0000000), wk =   0.2500000
        k(    3) = (   0.2500000   0.0000000   0.0000000), wk =   0.5000000
        k(    4) = (   0.2500000  -0.2165064   0.0000000), wk =   0.5000000
        k(    5) = (  -0.5000000   0.0000000   0.0000000), wk =   0.2500000
        k(    6) = (  -0.5000000  -0.2165064   0.0000000), wk =   0.2500000

     Dense  grid:  2050409 G-vectors     FFT dimensions: (  80, 192, 270)

     Largest allocated arrays     est. size (Mb)     dimensions
        Kohn-Sham Wavefunctions        54.73 Mb     (    4604,  779)
        NL pseudopotentials           130.04 Mb     (    4604, 1851)
        Each V/rho on FFT grid          1.17 Mb     (   76800)
        Each G-vector array             0.28 Mb     (   36616)
        G-vector shells                 0.14 Mb     (   17932)
     Largest temporary arrays     est. size (Mb)     dimensions
        Auxiliary wavefunctions       218.90 Mb     (    4604, 3116)
        Each subspace H/S matrix        5.92 Mb     (     623,  623)
        Each <psi_i|beta_j> matrix     22.00 Mb     (    1851,  779)
        Arrays for rho mixing           9.38 Mb     (   76800,    8)

     Initial potential from superposition of free atoms
     Check: negative starting charge=   -0.001830

     starting charge 1272.31749, renormalised to 1298.00000

     negative rho (up, down):  1.867E-03 0.000E+00
     Starting wfc are 1294 randomized atomic wfcs

     total cpu time spent up to now is      109.4 secs

     Self-consistent Calculation

     iteration #  1     ecut=    80.00 Ry     beta=0.70
     Davidson diagonalization with overlap
     c_bands:  2 eigenvalues not converged
     c_bands:  3 eigenvalues not converged
     c_bands:  3 eigenvalues not converged
     c_bands:  1 eigenvalues not converged
     c_bands:  3 eigenvalues not converged
     c_bands:  2 eigenvalues not converged
     ethr =  1.00E-04,  avg # of iterations = 40.0

     negative rho (up, down):  2.721E+01 0.000E+00

     total cpu time spent up to now is     2294.2 secs

     total energy              =   -9478.56048756 Ry
     Harris-Foulkes estimate   =  -17589.24879900 Ry
     estimated scf accuracy    <  189420.72804374 Ry

     iteration #  2     ecut=    80.00 Ry     beta=0.70
     Davidson diagonalization with overlap
     ethr =  1.00E-02,  avg # of iterations = 13.7

     negative rho (up, down):  3.109E+01 0.000E+00

     total cpu time spent up to now is     3258.6 secs

     total energy              =  -11787.32402228 Ry
     Harris-Foulkes estimate   =  -13776.84566787 Ry
     estimated scf accuracy    <   34733.29715706 Ry

     iteration #  3     ecut=    80.00 Ry     beta=0.70
     Davidson diagonalization with overlap
     ethr =  1.00E-02,  avg # of iterations = 10.5

     negative rho (up, down):  3.226E+01 0.000E+00

     total cpu time spent up to now is     3836.3 secs

     total energy              =  -12434.48194196 Ry
     Harris-Foulkes estimate   =  -13580.45641769 Ry
     estimated scf accuracy    <    5667.49746247 Ry

     iteration #  4     ecut=    80.00 Ry     beta=0.70
     Davidson diagonalization with overlap
     ethr =  1.00E-02,  avg # of iterations =  5.7

     negative rho (up, down):  2.174E+01 0.000E+00

     total cpu time spent up to now is     4394.5 secs

     total energy              =  -12848.30601108 Ry
     Harris-Foulkes estimate   =  -13110.42626769 Ry
     estimated scf accuracy    <     922.60046093 Ry

     iteration #  5     ecut=    80.00 Ry     beta=0.70
     Davidson diagonalization with overlap
     ethr =  1.00E-02,  avg # of iterations =  2.0

     negative rho (up, down):  1.666E+01 0.000E+00

     total cpu time spent up to now is     4647.7 secs

     total energy              =  -12854.00097345 Ry
     Harris-Foulkes estimate   =  -12924.56366400 Ry
     estimated scf accuracy    <    1117.76137110 Ry

     iteration #  6     ecut=    80.00 Ry     beta=0.70
     Davidson diagonalization with overlap
     ethr =  1.00E-02,  avg # of iterations =  2.0

     negative rho (up, down):  1.214E+01 0.000E+00

     total cpu time spent up to now is     4836.7 secs

     total energy              =  -12826.28836118 Ry
     Harris-Foulkes estimate   =  -12885.52749349 Ry
     estimated scf accuracy    <     627.79857295 Ry

     iteration #  7     ecut=    80.00 Ry     beta=0.70
     Davidson diagonalization with overlap
     ethr =  1.00E-02,  avg # of iterations =  2.0

     negative rho (up, down):  1.076E+01 0.000E+00

     total cpu time spent up to now is     5015.9 secs

     total energy              =  -12834.24534628 Ry
     Harris-Foulkes estimate   =  -12850.40000736 Ry
     estimated scf accuracy    <     577.74146154 Ry

     iteration #  8     ecut=    80.00 Ry     beta=0.70
     Davidson diagonalization with overlap
     ethr =  1.00E-02,  avg # of iterations =  1.0

     negative rho (up, down):  7.170E+00 0.000E+00

     total cpu time spent up to now is     5183.4 secs

     total energy              =  -12802.13426539 Ry
     Harris-Foulkes estimate   =  -12839.94919815 Ry
     estimated scf accuracy    <     397.48179031 Ry

     iteration #  9     ecut=    80.00 Ry     beta=0.70
     Davidson diagonalization with overlap
     ethr =  1.00E-02,  avg # of iterations =  1.0

     negative rho (up, down):  4.843E+00 0.000E+00

     total cpu time spent up to now is     5350.8 secs

     total energy              =  -12781.75810793 Ry
     Harris-Foulkes estimate   =  -12807.09231889 Ry
     estimated scf accuracy    <     222.99600363 Ry

     iteration # 10     ecut=    80.00 Ry     beta=0.70
     Davidson diagonalization with overlap
     ethr =  1.00E-02,  avg # of iterations =  1.0

     negative rho (up, down):  8.325E-01 0.000E+00

     total cpu time spent up to now is     5518.4 secs

     total energy              =  -12745.02422833 Ry
     Harris-Foulkes estimate   =  -12786.61556966 Ry
     estimated scf accuracy    <     251.75683323 Ry

     iteration # 11     ecut=    80.00 Ry     beta=0.70
     Davidson diagonalization with overlap
     ethr =  1.00E-02,  avg # of iterations =  3.0

     negative rho (up, down):  1.306E+00 0.000E+00

     total cpu time spent up to now is     5712.0 secs

     total energy              =  -12737.39921398 Ry
     Harris-Foulkes estimate   =  -12759.41358429 Ry
     estimated scf accuracy    <     311.27078571 Ry

     iteration # 12     ecut=    80.00 Ry     beta=0.70
     Davidson diagonalization with overlap
     ethr =  1.00E-02,  avg # of iterations =  1.0

     negative rho (up, down):  4.719E-01 0.000E+00

     total cpu time spent up to now is     5879.8 secs

     total energy              =  -12732.22509027 Ry
     Harris-Foulkes estimate   =  -12745.85164617 Ry
     estimated scf accuracy    <     150.73694950 Ry

     iteration # 13     ecut=    80.00 Ry     beta=0.70
     Davidson diagonalization with overlap
     ethr =  1.00E-02,  avg # of iterations =  2.0

     negative rho (up, down):  4.008E+00 0.000E+00

     total cpu time spent up to now is     6059.4 secs

     total energy              =  -12731.07052250 Ry
     Harris-Foulkes estimate   =  -12742.36121612 Ry
     estimated scf accuracy    <      42.31672970 Ry

     iteration # 14     ecut=    80.00 Ry     beta=0.70
     Davidson diagonalization with overlap
     ethr =  3.26E-03,  avg # of iterations =  2.7

     negative rho (up, down):  5.121E+00 0.000E+00

     total cpu time spent up to now is     6246.7 secs

     total energy              =  -12728.35366038 Ry
     Harris-Foulkes estimate   =  -12733.00518431 Ry
     estimated scf accuracy    <      29.12965667 Ry

     iteration # 15     ecut=    80.00 Ry     beta=0.70
     Davidson diagonalization with overlap
     ethr =  2.24E-03,  avg # of iterations =  4.3

     negative rho (up, down):  5.036E+00 0.000E+00

     total cpu time spent up to now is     6454.1 secs

     total energy              =  -12727.41319875 Ry
     Harris-Foulkes estimate   =  -12729.75256206 Ry
     estimated scf accuracy    <      17.87180436 Ry

     iteration # 16     ecut=    80.00 Ry     beta=0.70
     Davidson diagonalization with overlap
     ethr =  1.38E-03,  avg # of iterations =  3.5

     negative rho (up, down):  4.697E+00 0.000E+00

     total cpu time spent up to now is     6651.5 secs

     total energy              =  -12726.87846293 Ry
     Harris-Foulkes estimate   =  -12728.06482243 Ry
     estimated scf accuracy    <      14.64456162 Ry

     iteration # 17     ecut=    80.00 Ry     beta=0.70
     Davidson diagonalization with overlap
     ethr =  1.13E-03,  avg # of iterations =  2.8

     negative rho (up, down):  3.043E+00 0.000E+00

     total cpu time spent up to now is     6839.6 secs

     total energy              =  -12725.74861847 Ry
     Harris-Foulkes estimate   =  -12727.21771841 Ry
     estimated scf accuracy    <       9.38602516 Ry

     iteration # 18     ecut=    80.00 Ry     beta=0.70
     Davidson diagonalization with overlap
     ethr =  7.23E-04,  avg # of iterations =  6.3

     negative rho (up, down):  2.923E+00 0.000E+00

     total cpu time spent up to now is     7067.4 secs

     total energy              =  -12724.98514996 Ry
     Harris-Foulkes estimate   =  -12726.13651461 Ry
     estimated scf accuracy    <       7.92271899 Ry

     iteration # 19     ecut=    80.00 Ry     beta=0.70
     Davidson diagonalization with overlap
     ethr =  6.10E-04,  avg # of iterations =  7.3

     negative rho (up, down):  1.674E+00 0.000E+00

     total cpu time spent up to now is     7317.2 secs

     total energy              =  -12723.68978762 Ry
     Harris-Foulkes estimate   =  -12725.13934390 Ry
     estimated scf accuracy    <       6.45375185 Ry

     iteration # 20     ecut=    80.00 Ry     beta=0.70
     Davidson diagonalization with overlap
     ethr =  4.97E-04,  avg # of iterations =  2.7

     negative rho (up, down):  1.673E+00 0.000E+00

     total cpu time spent up to now is     7504.3 secs

     total energy              =  -12723.64865132 Ry
     Harris-Foulkes estimate   =  -12723.93084508 Ry
     estimated scf accuracy    <      13.29039706 Ry

     iteration # 21     ecut=    80.00 Ry     beta=0.70
     Davidson diagonalization with overlap
     ethr =  4.97E-04,  avg # of iterations =  1.8

     negative rho (up, down):  1.634E+00 0.000E+00

     total cpu time spent up to now is     7682.3 secs

     total energy              =  -12723.83690539 Ry
     Harris-Foulkes estimate   =  -12724.06763763 Ry
     estimated scf accuracy    <       6.04510546 Ry

     iteration # 22     ecut=    80.00 Ry     beta=0.70
     Davidson diagonalization with overlap
     ethr =  4.66E-04,  avg # of iterations =  2.3

     negative rho (up, down):  2.918E-02 0.000E+00

     total cpu time spent up to now is     7866.0 secs

     total energy              =  -12721.90229983 Ry
     Harris-Foulkes estimate   =  -12724.01775189 Ry
     estimated scf accuracy    <       5.20111315 Ry

     iteration # 23     ecut=    80.00 Ry     beta=0.70
     Davidson diagonalization with overlap
     ethr =  4.01E-04,  avg # of iterations = 11.0

     negative rho (up, down):  4.036E-02 0.000E+00

     total cpu time spent up to now is     8154.3 secs

     total energy              =  -12721.68530837 Ry
     Harris-Foulkes estimate   =  -12722.10563050 Ry
     estimated scf accuracy    <       8.32193314 Ry

     iteration # 24     ecut=    80.00 Ry     beta=0.70
     Davidson diagonalization with overlap
     ethr =  4.01E-04,  avg # of iterations =  1.0

     negative rho (up, down):  8.329E-02 0.000E+00

     total cpu time spent up to now is     8323.3 secs

     total energy              =  -12721.34194366 Ry
     Harris-Foulkes estimate   =  -12721.75438100 Ry
     estimated scf accuracy    <       6.24435788 Ry

     iteration # 25     ecut=    80.00 Ry     beta=0.70
     Davidson diagonalization with overlap
     ethr =  4.01E-04,  avg # of iterations =  1.0

     negative rho (up, down):  2.845E-02 0.000E+00

     total cpu time spent up to now is     8491.5 secs

     total energy              =  -12720.87882569 Ry
     Harris-Foulkes estimate   =  -12721.51013350 Ry
     estimated scf accuracy    <       5.43731385 Ry

     iteration # 26     ecut=    80.00 Ry     beta=0.70
     Davidson diagonalization with overlap
     ethr =  4.01E-04,  avg # of iterations =  2.8

     negative rho (up, down):  3.885E-01 0.000E+00

     total cpu time spent up to now is     8682.1 secs

     total energy              =  -12720.58856121 Ry
     Harris-Foulkes estimate   =  -12721.20055793 Ry
     estimated scf accuracy    <       2.69840651 Ry

     iteration # 27     ecut=    80.00 Ry     beta=0.70
     Davidson diagonalization with overlap
     ethr =  2.08E-04,  avg # of iterations =  8.7

     negative rho (up, down):  2.797E-01 0.000E+00

     total cpu time spent up to now is     8954.6 secs

     total energy              =  -12720.70238489 Ry
     Harris-Foulkes estimate   =  -12720.80192438 Ry
     estimated scf accuracy    <       0.79240309 Ry

     iteration # 28     ecut=    80.00 Ry     beta=0.70
     Davidson diagonalization with overlap
     ethr =  6.10E-05,  avg # of iterations =  7.2

     negative rho (up, down):  1.022E-01 0.000E+00

     total cpu time spent up to now is     9199.6 secs

     total energy              =  -12720.70808734 Ry
     Harris-Foulkes estimate   =  -12720.73836298 Ry
     estimated scf accuracy    <       0.40072880 Ry

     iteration # 29     ecut=    80.00 Ry     beta=0.70
     Davidson diagonalization with overlap
     ethr =  3.09E-05,  avg # of iterations = 10.7

     negative rho (up, down):  1.009E-01 0.000E+00

     total cpu time spent up to now is     9490.9 secs

     total energy              =  -12720.70789382 Ry
     Harris-Foulkes estimate   =  -12720.71924620 Ry
     estimated scf accuracy    <       0.16929996 Ry

     iteration # 30     ecut=    80.00 Ry     beta=0.70
     Davidson diagonalization with overlap
     c_bands:  3 eigenvalues not converged
     ethr =  1.30E-05,  avg # of iterations =  9.3

     negative rho (up, down):  6.654E-02 0.000E+00

     total cpu time spent up to now is     9766.2 secs

     total energy              =  -12720.71184555 Ry
     Harris-Foulkes estimate   =  -12720.71507673 Ry
     estimated scf accuracy    <       0.06872944 Ry

     iteration # 31     ecut=    80.00 Ry     beta=0.70
     Davidson diagonalization with overlap
     ethr =  5.30E-06,  avg # of iterations = 10.2

     negative rho (up, down):  6.729E-02 0.000E+00

     total cpu time spent up to now is    10060.4 secs

     total energy              =  -12720.71288516 Ry
     Harris-Foulkes estimate   =  -12720.71466415 Ry
     estimated scf accuracy    <       0.01548075 Ry

     iteration # 32     ecut=    80.00 Ry     beta=0.70
     Davidson diagonalization with overlap
     c_bands:  1 eigenvalues not converged
     ethr =  1.19E-06,  avg # of iterations = 10.7

     negative rho (up, down):  4.963E-02 0.000E+00

     total cpu time spent up to now is    10358.7 secs

     total energy              =  -12720.71282302 Ry
     Harris-Foulkes estimate   =  -12720.71378894 Ry
     estimated scf accuracy    <       0.00526533 Ry

     iteration # 33     ecut=    80.00 Ry     beta=0.70
     Davidson diagonalization with overlap
     ethr =  4.06E-07,  avg # of iterations =  8.8

     negative rho (up, down):  3.725E-02 0.000E+00

     total cpu time spent up to now is    10629.1 secs

     total energy              =  -12720.71241226 Ry
     Harris-Foulkes estimate   =  -12720.71310265 Ry
     estimated scf accuracy    <       0.00241100 Ry

     iteration # 34     ecut=    80.00 Ry     beta=0.70
     Davidson diagonalization with overlap
     ethr =  1.86E-07,  avg # of iterations =  9.2

     negative rho (up, down):  2.855E-02 0.000E+00

     total cpu time spent up to now is    10922.9 secs

     total energy              =  -12720.71248258 Ry
     Harris-Foulkes estimate   =  -12720.71279393 Ry
     estimated scf accuracy    <       0.00081256 Ry

     iteration # 35     ecut=    80.00 Ry     beta=0.70
     Davidson diagonalization with overlap
     ethr =  6.26E-08,  avg # of iterations =  6.2

     negative rho (up, down):  1.128E-02 0.000E+00

     total cpu time spent up to now is    11158.9 secs

     total energy              =  -12720.71224428 Ry
     Harris-Foulkes estimate   =  -12720.71257017 Ry
     estimated scf accuracy    <       0.00017286 Ry

     iteration # 36     ecut=    80.00 Ry     beta=0.70
     Davidson diagonalization with overlap
     c_bands:  2 eigenvalues not converged
     c_bands:  1 eigenvalues not converged
     ethr =  1.33E-08,  avg # of iterations = 12.7

     negative rho (up, down):  6.124E-03 0.000E+00

     total cpu time spent up to now is    11490.8 secs

     total energy              =  -12720.71216607 Ry
     Harris-Foulkes estimate   =  -12720.71226050 Ry
     estimated scf accuracy    <       0.00004886 Ry

     iteration # 37     ecut=    80.00 Ry     beta=0.70
     Davidson diagonalization with overlap
     c_bands:  1 eigenvalues not converged
     c_bands:  1 eigenvalues not converged
     c_bands:  1 eigenvalues not converged
     ethr =  3.76E-09,  avg # of iterations = 14.3

     negative rho (up, down):  3.483E-03 0.000E+00

     total cpu time spent up to now is    11828.4 secs

     total energy              =  -12720.71213476 Ry
     Harris-Foulkes estimate   =  -12720.71217154 Ry
     estimated scf accuracy    <       0.00001491 Ry

     iteration # 38     ecut=    80.00 Ry     beta=0.70
     Davidson diagonalization with overlap
     ethr =  1.15E-09,  avg # of iterations = 11.0

     negative rho (up, down):  2.561E-03 0.000E+00

     total cpu time spent up to now is    12123.1 secs

     total energy              =  -12720.71212771 Ry
     Harris-Foulkes estimate   =  -12720.71213613 Ry
     estimated scf accuracy    <       0.00000418 Ry

     iteration # 39     ecut=    80.00 Ry     beta=0.70
     Davidson diagonalization with overlap
     ethr =  3.22E-10,  avg # of iterations =  3.5

     negative rho (up, down):  2.007E-03 0.000E+00

     total cpu time spent up to now is    12337.5 secs

     total energy              =  -12720.71212782 Ry
     Harris-Foulkes estimate   =  -12720.71212828 Ry
     estimated scf accuracy    <       0.00000225 Ry

     iteration # 40     ecut=    80.00 Ry     beta=0.70
     Davidson diagonalization with overlap
     ethr =  1.73E-10,  avg # of iterations =  2.2

     negative rho (up, down):  1.977E-03 0.000E+00

     total cpu time spent up to now is    12526.8 secs

     total energy              =  -12720.71212809 Ry
     Harris-Foulkes estimate   =  -12720.71212804 Ry
     estimated scf accuracy    <       0.00000040 Ry

     iteration # 41     ecut=    80.00 Ry     beta=0.70
     Davidson diagonalization with overlap
     ethr =  3.06E-11,  avg # of iterations =  2.0

     negative rho (up, down):  1.985E-03 0.000E+00

     total cpu time spent up to now is    12736.7 secs

     total energy              =  -12720.71212819 Ry
     Harris-Foulkes estimate   =  -12720.71212816 Ry
     estimated scf accuracy    <       0.00000017 Ry

     iteration # 42     ecut=    80.00 Ry     beta=0.70
     Davidson diagonalization with overlap
     ethr =  1.30E-11,  avg # of iterations =  2.0

     negative rho (up, down):  1.987E-03 0.000E+00

     total cpu time spent up to now is    12925.0 secs

     total energy              =  -12720.71212822 Ry
     Harris-Foulkes estimate   =  -12720.71212821 Ry
     estimated scf accuracy    <       0.00000007 Ry

     iteration # 43     ecut=    80.00 Ry     beta=0.70
     Davidson diagonalization with overlap
     ethr =  5.40E-12,  avg # of iterations =  2.0

     negative rho (up, down):  2.020E-03 0.000E+00

     total cpu time spent up to now is    13111.9 secs

     total energy              =  -12720.71212822 Ry
     Harris-Foulkes estimate   =  -12720.71212823 Ry
     estimated scf accuracy    <       0.00000002 Ry

     iteration # 44     ecut=    80.00 Ry     beta=0.70
     Davidson diagonalization with overlap
     ethr =  1.61E-12,  avg # of iterations =  2.2

     negative rho (up, down):  2.036E-03 0.000E+00

     total cpu time spent up to now is    13293.9 secs

     End of self-consistent calculation

          k = 0.0000 0.0000 0.0000 (256287 PWs)   bands (ev):

   -17.0550 -16.1397 -15.9718 -15.2751 -14.9568 -14.6535 -14.5119 -14.1620
   -14.1085 -14.0541 -13.9608 -13.4559 -13.2005 -13.0116 -13.0000 -12.9841
   -12.9475 -11.6758 -11.4036 -11.3460 -11.2776 -11.1012 -10.4166  -9.9166
    -9.6203  -9.6068  -9.4016  -9.2603  -8.8381  -8.5959  -8.5172  -8.4153
    -7.9198  -7.7698  -7.6576  -7.4961  -7.4614  -7.4268  -7.3958  -7.3124
    -6.2343  -6.2200  -6.0522  -5.9774  -5.9233  -5.8318  -5.7753  -5.7417
    -5.7035  -5.4610  -5.4355  -5.0043  -4.8925  -4.7508  -4.6692  -4.6473
    -4.4941  -4.4074  -4.3717  -4.2152  -4.1684  -4.0173  -3.9378  -3.9136
    -3.8554  -3.7258  -3.5403  -3.4970  -3.4419  -3.3992  -3.3730  -3.3425
    -3.2985  -3.2378  -3.1991  -3.0609  -3.0332  -3.0123  -2.9867  -2.9818
    -2.9631  -2.9556  -2.9365  -2.8760  -2.8005  -2.7464  -2.7212  -2.6995
    -2.6621  -2.5976  -2.5572  -2.5325  -2.4684  -2.4010  -2.3271  -2.3029
    -2.2719  -2.2584  -2.2445  -2.1616  -2.1539  -2.1334  -2.1274  -2.1248
    -2.1191  -2.1177  -2.0977  -2.0288  -1.9964  -1.9910  -1.9873  -1.9847
    -1.9467  -1.9209  -1.8140  -1.7858  -1.7587  -1.7474  -1.7309  -1.7085
    -1.6979  -1.6905  -1.6671  -1.6453  -1.6415  -1.6316  -1.6260  -1.5897
    -1.5597  -1.5450  -1.5420  -1.5273  -1.5238  -1.5129  -1.4989  -1.4927
    -1.4913  -1.4809  -1.4732  -1.4451  -1.4193  -1.3971  -1.3827  -1.3528
    -1.3245  -1.3135  -1.2929  -1.2718  -1.2642  -1.2356  -1.2313  -1.2207
    -1.2164  -1.1908  -1.1790  -1.1647  -1.1578  -1.1412  -1.1335  -1.1208
    -1.0650  -1.0538  -1.0490  -1.0376  -1.0300  -1.0215  -1.0158  -1.0136
    -1.0047  -0.9994  -0.9958  -0.9910  -0.9877  -0.9832  -0.9693  -0.9668
    -0.9552  -0.9341  -0.9201  -0.9167  -0.9107  -0.8969  -0.8947  -0.8866
    -0.8781  -0.8728  -0.8458  -0.8446  -0.8392  -0.8363  -0.8332  -0.8315
    -0.8265  -0.8250  -0.8237  -0.8191  -0.8182  -0.8174  -0.8138  -0.8084
    -0.8076  -0.8025  -0.7823  -0.7729  -0.7616  -0.7522  -0.7270  -0.6977
    -0.6653  -0.6588  -0.6553  -0.6526  -0.6394  -0.6294  -0.6146  -0.6119
    -0.6041  -0.5930  -0.5851  -0.5720  -0.5683  -0.5659  -0.5593  -0.5463
    -0.5381  -0.5368  -0.5345  -0.5325  -0.5233  -0.5138  -0.5061  -0.5002
    -0.4859  -0.4605  -0.4557  -0.4243  -0.4166  -0.4118  -0.4059  -0.3961
    -0.3942  -0.3843  -0.3814  -0.3792  -0.3764  -0.3750  -0.3696  -0.3686
    -0.3629  -0.3595  -0.3566  -0.3555  -0.3489  -0.3351  -0.3279  -0.3212
    -0.3082  -0.2777  -0.2765  -0.2710  -0.2656  -0.2609  -0.2512  -0.2375
    -0.2372  -0.2343  -0.2298  -0.2239  -0.2229  -0.2167  -0.2128  -0.2036
    -0.2030  -0.1997  -0.1993  -0.1910  -0.1876  -0.1826  -0.1756  -0.1720
    -0.1699  -0.1633  -0.1625  -0.1540  -0.1476  -0.1454  -0.1331  -0.1132
    -0.0986  -0.0954  -0.0878  -0.0818  -0.0692  -0.0605  -0.0567  -0.0454
    -0.0373  -0.0361  -0.0326  -0.0273  -0.0264  -0.0217  -0.0146  -0.0006
     0.0079   0.0087   0.0151   0.0265   0.0305   0.0335   0.0397   0.0450
     0.0504   0.0541   0.0571   0.0589   0.0649   0.0681   0.0723   0.0759
     0.0789   0.0838   0.0868   0.0909   0.0958   0.0973   0.1080   0.1159
     0.1193   0.1267   0.1346   0.1352   0.1572   0.1617   0.1658   0.1790
     0.1910   0.1986   0.2074   0.2252   0.2311   0.2442   0.2527   0.2569
     0.2727   0.2764   0.2820   0.2835   0.2882   0.2913   0.3057   0.3116
     0.3217   0.3242   0.3400   0.3579   0.3604   0.3704   0.3722   0.3751
     0.3784   0.3920   0.4025   0.4058   0.4095   0.4168   0.4225   0.4362
     0.4383   0.4450   0.4503   0.4633   0.4656   0.4712   0.4821   0.4851
     0.4900   0.5024   0.5107   0.5141   0.5220   0.5265   0.5332   0.5364
     0.5421   0.5435   0.5489   0.5529   0.5605   0.5616   0.5667   0.5728
     0.5736   0.5779   0.5819   0.5845   0.5898   0.5914   0.5935   0.5993
     0.6021   0.6107   0.6176   0.6333   0.6350   0.6396   0.6517   0.6626
     0.6671   0.6704   0.6763   0.6808   0.6860   0.6884   0.6941   0.6972
     0.7016   0.7041   0.7078   0.7108   0.7167   0.7173   0.7204   0.7264
     0.7271   0.7363   0.7396   0.7435   0.7527   0.7600   0.7615   0.7730
     0.7737   0.7763   0.7771   0.7784   0.7817   0.7840   0.7916   0.7951
     0.7969   0.8010   0.8218   0.8294   0.8334   0.8400   0.8442   0.8450
     0.8530   0.8562   0.8699   0.8770   0.8804   0.8844   0.8938   0.8974
     0.9059   0.9092   0.9119   0.9216   0.9239   0.9288   0.9358   0.9395
     0.9445   0.9491   0.9596   0.9610   0.9654   0.9705   0.9727   0.9798
     0.9844   0.9913   0.9925   1.0067   1.0085   1.0102   1.0151   1.0175
     1.0229   1.0256   1.0289   1.0323   1.0371   1.0458   1.0473   1.0533
     1.0550   1.0606   1.0638   1.0692   1.0716   1.0755   1.0770   1.0877
     1.0934   1.0985   1.1009   1.1060   1.1121   1.1147   1.1194   1.1294
     1.1328   1.1397   1.1416   1.1457   1.1486   1.1492   1.1502   1.1518
     1.1538   1.1570   1.1602   1.1645   1.1701   1.1868   1.1907   1.2003
     1.2067   1.2098   1.2176   1.2211   1.2258   1.2320   1.2352   1.2367
     1.2421   1.2440   1.2449   1.2572   1.2592   1.2631   1.2657   1.2682
     1.2743   1.2773   1.2834   1.2850   1.2883   1.2928   1.2938   1.2976
     1.3022   1.3074   1.3104   1.3143   1.3206   1.3240   1.3256   1.3306
     1.3351   1.3365   1.3397   1.3404   1.3450   1.3474   1.3492   1.3558
     1.3603   1.3670   1.3740   1.3803   1.3825   1.3844   1.3860   1.3887
     1.3914   1.3950   1.4110   1.4149   1.4191   1.4221   1.4258   1.4332
     1.4417   1.4425   1.4427   1.4513   1.4517   1.4535   1.4544   1.4560
     1.4587   1.4603   1.4644   1.4677   1.4694   1.4761   1.4790   1.4854
     1.4887   1.4908   1.4965   1.4990   1.5068   1.5074   1.5114   1.5141
     1.5248   1.5319   1.5493   1.5531   1.5607   1.5752   1.5870   1.5947
     1.6019   1.6113   1.6162   1.6219   1.6376   1.6390   1.6428   1.6523
     1.6579   1.6698   1.6751   1.6767   1.6826   1.6902   1.8468   1.9054
     1.9852   2.0724   2.1418   2.1491   2.1622   2.2063   2.2177   2.2222
     2.2316   2.2391   2.2476   2.2547   2.2609   2.3125   2.4263   2.4444
     2.4677   2.4751   2.4902   2.5336   2.5472   2.7054   2.7313   2.7658
     2.7877   2.8816   2.9857   3.0821   3.1836   3.2513   3.5486   3.6143
     3.7725   3.8160   3.8295   3.8665   3.8809   3.8903   3.9073   3.9423
     3.9721   4.0040   4.0218   4.0234   4.0291   4.0325   4.0786   4.1090
     4.1624   4.2346   4.2593   4.3247   4.4372   4.7416   4.7673   4.8391
     4.9448   5.0268   5.0459   5.3179   5.3370   5.4020   5.4760   5.7187
     5.7238   5.7730   5.7997   5.8962   5.9447   5.9938   6.2299   6.3507
     6.4040   6.4239   6.4485   6.4661   6.4835   6.5288   6.5939   6.6098
     6.7145   6.7475   6.8039   6.8112   6.8266   6.8441   6.9158   6.9208
     7.0298   7.0691   7.1100   7.2098   7.3690   7.3867   7.4128   7.4787
     7.5580   7.5982   7.6553   7.6955   7.7221   7.7371   7.9413   8.0715
     8.0995   8.1491   8.1648   8.2132   8.2830   8.3172   8.3301   8.3354
     8.3585   8.3718   8.3803   8.4275   8.4332   8.4567   8.5536   8.5779
     8.6314   8.6480   8.7069   8.7322   8.7592   8.8076   8.8454   8.8498
     8.8662   8.8913   9.0229   9.0484   9.0756   9.0943   9.1549   9.1719
     9.2403   9.2418   9.2827   9.3517   9.4170   9.5097   9.5571   9.5615
     9.5976   9.6934   9.7344   9.7860   9.8604   9.9063   9.9392  10.0694
    10.0740  10.1303  10.1530

          k = 0.0000-0.2165 0.0000 (256176 PWs)   bands (ev):

   -17.0542 -16.2078 -15.7543 -15.5739 -14.8880 -14.5088 -14.2924 -14.2343
   -14.1887 -14.1242 -13.7065 -13.6465 -13.6289 -13.5435 -12.6027 -12.3116
   -12.2458 -12.1890 -12.0421 -11.9652 -10.6813 -10.4964 -10.3908 -10.2776
    -9.9150  -9.2673  -9.1987  -9.0914  -8.8998  -8.8691  -8.7892  -8.2726
    -8.1332  -8.0684  -7.9821  -7.3313  -7.1896  -6.8940  -6.8661  -6.7968
    -6.7554  -6.7379  -6.6597  -6.0594  -5.9943  -5.8603  -5.8269  -5.3848
    -5.3284  -5.1207  -5.0661  -5.0227  -4.8698  -4.8323  -4.7908  -4.7434
    -4.6620  -4.6224  -4.5772  -4.4960  -4.4022  -4.2132  -3.8396  -3.7614
    -3.7243  -3.6427  -3.5729  -3.5357  -3.2887  -3.2783  -3.2656  -3.2544
    -3.1783  -3.1413  -3.0988  -3.0625  -3.0568  -2.9975  -2.9786  -2.9571
    -2.9216  -2.8344  -2.7929  -2.7778  -2.7422  -2.6943  -2.6694  -2.6069
    -2.5704  -2.5598  -2.5554  -2.5500  -2.5426  -2.5417  -2.5111  -2.4571
    -2.4071  -2.3792  -2.2492  -2.2365  -2.2201  -2.1965  -2.1686  -2.1556
    -2.1259  -2.1211  -2.0922  -2.0761  -2.0572  -1.9623  -1.9549  -1.9349
    -1.9319  -1.9177  -1.8581  -1.8205  -1.8128  -1.7487  -1.7459  -1.7310
    -1.7247  -1.7121  -1.7111  -1.7049  -1.6942  -1.6884  -1.6838  -1.6480
    -1.6228  -1.6164  -1.6026  -1.5793  -1.5514  -1.4844  -1.4531  -1.4442
    -1.4407  -1.4106  -1.3589  -1.3454  -1.3452  -1.3300  -1.3078  -1.2946
    -1.2833  -1.2594  -1.2515  -1.2488  -1.2438  -1.2429  -1.2411  -1.2367
    -1.2217  -1.2117  -1.2050  -1.1993  -1.1951  -1.1931  -1.1702  -1.1683
    -1.1575  -1.1289  -1.1215  -1.1017  -1.0895  -1.0638  -1.0614  -1.0576
    -1.0283  -1.0227  -1.0198  -1.0165  -0.9784  -0.9697  -0.9631  -0.9588
    -0.9547  -0.9488  -0.9459  -0.9369  -0.9297  -0.9043  -0.8994  -0.8942
    -0.8913  -0.8820  -0.8806  -0.8755  -0.8743  -0.8621  -0.8458  -0.8250
    -0.8065  -0.8027  -0.7949  -0.7931  -0.7861  -0.7817  -0.7774  -0.7679
    -0.7550  -0.7510  -0.7392  -0.7361  -0.7235  -0.7201  -0.7004  -0.6586
    -0.6386  -0.6302  -0.6230  -0.6208  -0.6081  -0.6052  -0.5842  -0.5814
    -0.5803  -0.5769  -0.5734  -0.5710  -0.5522  -0.5416  -0.5292  -0.5223
    -0.5159  -0.5107  -0.5065  -0.5024  -0.4985  -0.4920  -0.4782  -0.4740
    -0.4630  -0.4613  -0.4574  -0.4524  -0.4318  -0.4262  -0.4246  -0.4176
    -0.4163  -0.4082  -0.4006  -0.3990  -0.3848  -0.3642  -0.3598  -0.3471
    -0.3343  -0.3239  -0.3197  -0.3075  -0.2969  -0.2873  -0.2856  -0.2804
    -0.2715  -0.2666  -0.2658  -0.2649  -0.2567  -0.2449  -0.2409  -0.2387
    -0.2332  -0.2266  -0.2254  -0.2201  -0.2141  -0.2130  -0.2127  -0.2097
    -0.2034  -0.1936  -0.1880  -0.1866  -0.1796  -0.1721  -0.1717  -0.1654
    -0.1594  -0.1429  -0.1301  -0.1227  -0.1175  -0.1135  -0.1069  -0.1004
    -0.0994  -0.0884  -0.0866  -0.0762  -0.0712  -0.0646  -0.0596  -0.0571
    -0.0532  -0.0504  -0.0480  -0.0450  -0.0412  -0.0384  -0.0284  -0.0179
    -0.0061   0.0055   0.0095   0.0127   0.0195   0.0269   0.0299   0.0375
     0.0379   0.0439   0.0496   0.0540   0.0610   0.0626   0.0654   0.0699
     0.0792   0.0905   0.0976   0.0998   0.1013   0.1034   0.1102   0.1191
     0.1251   0.1264   0.1312   0.1347   0.1476   0.1553   0.1573   0.1647
     0.1662   0.1749   0.1800   0.1943   0.1982   0.2116   0.2171   0.2240
     0.2307   0.2394   0.2454   0.2586   0.2602   0.2833   0.2881   0.2955
     0.3087   0.3156   0.3286   0.3448   0.3469   0.3565   0.3826   0.4091
     0.4120   0.4169   0.4202   0.4315   0.4358   0.4458   0.4514   0.4595
     0.4602   0.4660   0.4721   0.4836   0.4854   0.4862   0.4931   0.4960
     0.4989   0.5001   0.5042   0.5110   0.5155   0.5223   0.5263   0.5287
     0.5433   0.5464   0.5486   0.5492   0.5572   0.5594   0.5641   0.5655
     0.5664   0.5698   0.5730   0.5748   0.5821   0.5862   0.5884   0.5961
     0.5982   0.6011   0.6062   0.6108   0.6134   0.6171   0.6232   0.6259
     0.6303   0.6343   0.6377   0.6424   0.6564   0.6648   0.6754   0.6839
     0.6872   0.6903   0.6925   0.6951   0.6965   0.7016   0.7037   0.7110
     0.7136   0.7176   0.7210   0.7223   0.7363   0.7408   0.7449   0.7531
     0.7550   0.7615   0.7653   0.7722   0.7758   0.7848   0.7863   0.7940
     0.8005   0.8052   0.8092   0.8118   0.8212   0.8272   0.8367   0.8517
     0.8669   0.8749   0.8933   0.9033   0.9119   0.9153   0.9227   0.9250
     0.9282   0.9301   0.9311   0.9419   0.9422   0.9449   0.9469   0.9567
     0.9597   0.9638   0.9654   0.9711   0.9759   0.9806   0.9880   0.9894
     0.9934   0.9942   0.9964   0.9969   1.0007   1.0028   1.0065   1.0090
     1.0142   1.0149   1.0168   1.0185   1.0195   1.0214   1.0240   1.0262
     1.0330   1.0394   1.0457   1.0486   1.0526   1.0593   1.0600   1.0613
     1.0664   1.0680   1.0698   1.0743   1.0825   1.0850   1.0999   1.1108
     1.1196   1.1241   1.1327   1.1509   1.1543   1.1622   1.1717   1.1753
     1.1806   1.1864   1.1910   1.1963   1.1991   1.2047   1.2084   1.2084
     1.2147   1.2169   1.2192   1.2223   1.2234   1.2254   1.2313   1.2345
     1.2347   1.2421   1.2477   1.2502   1.2533   1.2557   1.2568   1.2609
     1.2622   1.2696   1.2722   1.2795   1.2877   1.2891   1.2900   1.2979
     1.2990   1.3043   1.3060   1.3100   1.3172   1.3187   1.3230   1.3280
     1.3312   1.3317   1.3379   1.3400   1.3445   1.3499   1.3530   1.3568
     1.3620   1.3641   1.3656   1.3763   1.3855   1.3901   1.3968   1.3997
     1.4055   1.4072   1.4107   1.4130   1.4150   1.4219   1.4291   1.4336
     1.4393   1.4408   1.4446   1.4523   1.4549   1.4605   1.4617   1.4678
     1.4716   1.4765   1.4790   1.4806   1.4832   1.4857   1.4913   1.4997
     1.5113   1.5130   1.5162   1.5213   1.5237   1.5243   1.5399   1.5447
     1.5461   1.5488   1.5516   1.5548   1.5650   1.5691   1.5804   1.5839
     1.6097   1.6140   1.6174   1.6987   1.7129   1.7247   1.7415   1.7532
     1.7560   1.7848   1.7893   1.7953   1.8020   1.8236   1.8252   1.8377
     1.8389   1.8674   1.8754   1.8878   1.8939   1.9551   2.0887   2.1275
     2.2294   2.4299   2.4335   2.4441   2.5039   2.5240   2.5354   2.5657
     2.5918   2.5975   2.6094   2.6213   2.7127   2.7341   2.7390   2.7744
     2.7841   2.7964   2.8492   2.9484   2.9490   3.1405   3.1976   3.1977
     3.2359   3.2877   3.4151   3.5694   3.7077   3.7577   3.9269   4.0091
     4.0384   4.0891   4.1101   4.1783   4.2241   4.3161   4.3454   4.3749
     4.4657   4.5211   4.5897   4.6387   4.7268   4.7976   4.8232   4.9940
     5.0982   5.1194   5.2523   5.3130   5.3710   5.3869   5.3949   5.4176
     5.5330   5.5685   5.6716   5.7396   5.8142   5.8411   5.9068   6.3132
     6.3511   6.3714   6.4263   6.4499   6.5293   6.5371   6.5895   6.6480
     6.6873   6.7241   6.8257   6.8298   6.9010   7.0595   7.0689   7.0882
     7.0957   7.1319   7.1425   7.1550   7.2060   7.2689   7.3192   7.3473
     7.4121   7.4355   7.4757   7.5136   7.6730   7.6891   7.7413   7.7845
     8.1303   8.1577   8.2022   8.2679   8.3611   8.3700   8.4074   8.4170
     8.4483   8.4585   8.4608   8.4683   8.5420   8.5987   8.6884   8.7041
     8.7100   8.7184   8.7474   8.7623   8.7907   8.8066   8.8871   8.9777
     9.0395   9.0614   9.1017   9.1309   9.2130   9.2524   9.3404   9.3450
     9.3627   9.3695   9.3846   9.4279   9.4568   9.4732   9.4775   9.4874
     9.4942   9.4996   9.5542   9.6994   9.7868   9.8102   9.8478   9.9021
     9.9184  10.0446  10.2050

          k = 0.2500 0.0000 0.0000 (256240 PWs)   bands (ev):

   -17.0004 -16.0284 -15.8520 -15.4848 -15.0594 -14.9368 -14.8146 -14.7642
   -13.9938 -13.8458 -13.6035 -13.1828 -13.0463 -13.0263 -12.9132 -12.2716
   -12.1036 -12.0183 -11.9707 -11.1785 -11.0699 -10.7321 -10.5966 -10.3289
   -10.1052  -9.9332  -9.7563  -9.5239  -9.3335  -9.1142  -8.9314  -8.5428
    -7.8288  -7.6577  -7.5840  -7.4351  -7.4149  -7.3148  -6.9400  -6.7993
    -6.1841  -6.1233  -5.9433  -5.8648  -5.7993  -5.7736  -5.3496  -5.2939
    -5.2672  -5.1970  -4.8720  -4.8020  -4.7369  -4.6607  -4.4863  -4.4304
    -4.3928  -4.3706  -4.2749  -4.2516  -4.1363  -4.0907  -3.9854  -3.9694
    -3.9414  -3.9038  -3.8046  -3.7944  -3.7532  -3.6799  -3.6218  -3.5267
    -3.4994  -3.4664  -3.4483  -3.3478  -3.3156  -3.2880  -3.2547  -3.1610
    -3.1371  -3.0334  -2.9982  -2.9393  -2.8940  -2.8548  -2.7737  -2.7654
    -2.7448  -2.7116  -2.6007  -2.5264  -2.5002  -2.4152  -2.3704  -2.3302
    -2.2826  -2.2655  -2.2246  -2.0756  -2.0670  -2.0599  -2.0451  -2.0015
    -1.9596  -1.9240  -1.8973  -1.8780  -1.8387  -1.8140  -1.7864  -1.7774
    -1.7727  -1.7642  -1.7628  -1.7491  -1.7371  -1.7193  -1.7104  -1.6840
    -1.6723  -1.6397  -1.6178  -1.6134  -1.5940  -1.5771  -1.5600  -1.5582
    -1.5478  -1.5450  -1.5397  -1.5333  -1.5138  -1.4850  -1.4813  -1.4733
    -1.4677  -1.4595  -1.4149  -1.3576  -1.3397  -1.3118  -1.3002  -1.2839
    -1.2408  -1.2336  -1.2187  -1.2154  -1.2089  -1.2060  -1.1967  -1.1780
    -1.1700  -1.1660  -1.1620  -1.1565  -1.1491  -1.1448  -1.1300  -1.1174
    -1.1096  -1.1035  -1.0932  -1.0880  -1.0849  -1.0791  -1.0684  -1.0484
    -1.0459  -1.0263  -1.0199  -1.0174  -1.0081  -1.0004  -0.9953  -0.9906
    -0.9867  -0.9822  -0.9712  -0.9677  -0.9615  -0.9580  -0.9541  -0.9524
    -0.9494  -0.9432  -0.9397  -0.9358  -0.9334  -0.9197  -0.9102  -0.9037
    -0.8877  -0.8742  -0.8698  -0.8520  -0.8278  -0.8216  -0.8122  -0.7966
    -0.7876  -0.7754  -0.7672  -0.7623  -0.7541  -0.7444  -0.7357  -0.7293
    -0.7233  -0.7203  -0.7160  -0.7098  -0.7059  -0.6917  -0.6450  -0.5836
    -0.5751  -0.5720  -0.5625  -0.5512  -0.5424  -0.5361  -0.5263  -0.5234
    -0.5204  -0.5157  -0.5071  -0.5016  -0.4981  -0.4905  -0.4769  -0.4724
    -0.4651  -0.4617  -0.4560  -0.4535  -0.4475  -0.4397  -0.4354  -0.4300
    -0.4256  -0.4038  -0.3878  -0.3794  -0.3729  -0.3697  -0.3650  -0.3631
    -0.3620  -0.3532  -0.3483  -0.3307  -0.3260  -0.3143  -0.3053  -0.3006
    -0.2961  -0.2846  -0.2763  -0.2725  -0.2681  -0.2660  -0.2612  -0.2526
    -0.2444  -0.2384  -0.2340  -0.2296  -0.2247  -0.2193  -0.2089  -0.2022
    -0.1952  -0.1859  -0.1815  -0.1750  -0.1679  -0.1608  -0.1590  -0.1533
    -0.1483  -0.1308  -0.1249  -0.1237  -0.1125  -0.1062  -0.0982  -0.0909
    -0.0886  -0.0826  -0.0759  -0.0652  -0.0483  -0.0404  -0.0352  -0.0317
    -0.0191  -0.0148  -0.0019  -0.0005   0.0042   0.0090   0.0156   0.0183
     0.0210   0.0222   0.0253   0.0293   0.0355   0.0405   0.0441   0.0480
     0.0510   0.0591   0.0622   0.0645   0.0674   0.0738   0.0791   0.0857
     0.0903   0.0986   0.1083   0.1179   0.1272   0.1321   0.1368   0.1399
     0.1499   0.1526   0.1567   0.1693   0.1727   0.1763   0.1834   0.1883
     0.1999   0.2121   0.2299   0.2403   0.2568   0.2708   0.2813   0.2897
     0.2934   0.2966   0.3029   0.3050   0.3110   0.3128   0.3146   0.3166
     0.3195   0.3236   0.3279   0.3331   0.3368   0.3403   0.3476   0.3501
     0.3551   0.3579   0.3618   0.3635   0.3683   0.3707   0.3764   0.3887
     0.4070   0.4153   0.4199   0.4269   0.4376   0.4417   0.4514   0.4602
     0.4658   0.4711   0.4784   0.4793   0.4843   0.4942   0.5002   0.5068
     0.5095   0.5148   0.5174   0.5212   0.5295   0.5312   0.5358   0.5426
     0.5445   0.5532   0.5586   0.5666   0.5717   0.5750   0.5803   0.5846
     0.5917   0.5938   0.5982   0.6046   0.6115   0.6134   0.6171   0.6232
     0.6304   0.6346   0.6395   0.6431   0.6453   0.6490   0.6548   0.6635
     0.6710   0.6737   0.6810   0.6835   0.6887   0.6913   0.6964   0.6992
     0.7121   0.7145   0.7219   0.7355   0.7404   0.7458   0.7558   0.7659
     0.7720   0.7735   0.7786   0.7838   0.7911   0.7976   0.8012   0.8039
     0.8090   0.8131   0.8153   0.8216   0.8323   0.8386   0.8471   0.8505
     0.8571   0.8625   0.8686   0.8804   0.8828   0.8875   0.8930   0.8994
     0.9036   0.9096   0.9145   0.9198   0.9223   0.9263   0.9289   0.9338
     0.9375   0.9449   0.9501   0.9551   0.9593   0.9624   0.9707   0.9819
     0.9853   0.9896   0.9934   1.0052   1.0076   1.0118   1.0135   1.0202
     1.0247   1.0296   1.0327   1.0392   1.0422   1.0464   1.0483   1.0508
     1.0528   1.0564   1.0611   1.0628   1.0662   1.0711   1.0749   1.0783
     1.0825   1.0879   1.0899   1.0937   1.0963   1.0990   1.0999   1.1058
     1.1104   1.1175   1.1222   1.1257   1.1308   1.1354   1.1409   1.1437
     1.1476   1.1530   1.1590   1.1615   1.1639   1.1688   1.1728   1.1781
     1.1818   1.1878   1.1931   1.2002   1.2037   1.2121   1.2155   1.2179
     1.2219   1.2324   1.2443   1.2529   1.2566   1.2626   1.2697   1.2713
     1.2739   1.2826   1.2834   1.2869   1.2903   1.2908   1.2974   1.3012
     1.3053   1.3093   1.3107   1.3149   1.3193   1.3245   1.3297   1.3311
     1.3326   1.3348   1.3371   1.3397   1.3416   1.3463   1.3502   1.3541
     1.3574   1.3611   1.3659   1.3715   1.3803   1.3825   1.3858   1.3899
     1.3911   1.3977   1.4010   1.4055   1.4101   1.4134   1.4246   1.4261
     1.4302   1.4344   1.4452   1.4473   1.4489   1.4521   1.4539   1.4578
     1.4618   1.4641   1.4679   1.4697   1.4710   1.4750   1.4795   1.4834
     1.4875   1.4883   1.4949   1.4970   1.5012   1.5062   1.5131   1.5156
     1.5191   1.5221   1.5259   1.5331   1.5364   1.5423   1.5467   1.5491
     1.5618   1.5764   1.5826   1.5894   1.6090   1.6436   1.6469   1.6516
     1.6556   1.6703   1.6778   1.7433   1.7607   1.7777   1.7938   1.8026
     1.8134   1.8221   1.8660   1.9870   2.0166   2.0556   2.0801   2.0921
     2.1166   2.1567   2.2074   2.2544   2.2894   2.4903   2.5724   2.5798
     2.6160   2.6955   2.9982   3.0028   3.0147   3.1046   3.2092   3.2165
     3.2464   3.2481   3.2751   3.3960   3.4563   3.5059   3.5756   3.6235
     3.6670   3.6851   3.7124   3.7301   3.7416   3.8048   3.8261   3.8817
     3.9416   3.9912   4.0788   4.0940   4.1594   4.2173   4.3163   4.3415
     4.4784   4.5291   4.6939   4.7684   4.8389   4.8546   4.9961   5.1742
     5.2276   5.2408   5.2839   5.3099   5.3972   5.4485   5.4973   5.5339
     5.5509   5.5580   5.6080   5.6567   5.6917   5.7117   5.8054   5.8127
     5.8436   5.9086   5.9977   6.0331   6.0616   6.0683   6.1997   6.2388
     6.4970   6.6539   6.7249   6.7711   6.7868   6.7980   6.8207   6.8519
     6.9340   6.9881   7.0290   7.0821   7.0979   7.1198   7.2159   7.2651
     7.3113   7.3808   7.4529   7.4749   7.5435   7.5739   7.6407   7.7280
     7.7633   7.7709   7.8971   7.9347   7.9984   8.0692   8.0757   8.1162
     8.1746   8.1972   8.2452   8.2838   8.2993   8.3362   8.3569   8.4171
     8.4739   8.5068   8.6534   8.6756   8.8642   8.9534   8.9932   9.0167
     9.0227   9.0376   9.1006   9.1280   9.1606   9.1861   9.2161   9.2368
     9.2664   9.3260   9.3545   9.3984   9.4109   9.4631   9.4724   9.5452
     9.6097   9.6539   9.6980   9.7227   9.7402   9.8314   9.8382   9.8711
     9.8802   9.9137   9.9866

          k = 0.2500-0.2165 0.0000 (256316 PWs)   bands (ev):

   -16.9998 -16.0849 -15.7123 -15.4616 -15.3046 -15.0889 -14.5980 -14.4735
   -14.1401 -13.9956 -13.5656 -13.1963 -13.1387 -13.0435 -12.6320 -12.5663
   -12.1149 -11.9111 -11.4005 -11.2961 -11.1608 -11.0493 -10.9237 -10.5558
    -9.9436  -9.6967  -9.5371  -9.2361  -9.1260  -8.9335  -8.9173  -8.5329
    -8.4660  -8.3259  -8.2567  -7.0888  -6.8678  -6.7241  -6.5766  -6.4881
    -6.3693  -6.3127  -6.1921  -5.9756  -5.9394  -5.6824  -5.6520  -5.3352
    -5.1596  -5.0242  -4.8936  -4.7809  -4.6922  -4.6555  -4.6007  -4.5383
    -4.4388  -4.3837  -4.3236  -4.2997  -4.2625  -4.2383  -4.0769  -4.0495
    -3.9344  -3.8664  -3.7522  -3.6586  -3.6135  -3.5786  -3.5136  -3.4969
    -3.4422  -3.4303  -3.4066  -3.3140  -3.2479  -3.2138  -3.1845  -3.1269
    -3.0300  -3.0038  -2.9507  -2.9157  -2.9024  -2.8673  -2.8599  -2.8116
    -2.7757  -2.6635  -2.6412  -2.5927  -2.5285  -2.4665  -2.2920  -2.2904
    -2.2608  -2.2067  -2.1615  -2.1412  -2.1386  -2.1163  -2.0695  -2.0439
    -1.9815  -1.9754  -1.9646  -1.9370  -1.8995  -1.8405  -1.8091  -1.7940
    -1.7867  -1.7835  -1.7741  -1.7357  -1.7246  -1.7085  -1.6846  -1.6807
    -1.6761  -1.6703  -1.6670  -1.6567  -1.6538  -1.6460  -1.6423  -1.6382
    -1.6286  -1.5943  -1.5569  -1.5530  -1.5068  -1.4456  -1.4362  -1.4011
    -1.3465  -1.3083  -1.3054  -1.2953  -1.2878  -1.2575  -1.2516  -1.2449
    -1.2401  -1.2353  -1.2323  -1.2240  -1.2128  -1.2099  -1.2041  -1.2004
    -1.1985  -1.1909  -1.1825  -1.1771  -1.1724  -1.1621  -1.1528  -1.1490
    -1.1386  -1.1325  -1.1081  -1.1004  -1.0959  -1.0899  -1.0837  -1.0807
    -1.0713  -1.0624  -1.0425  -1.0272  -1.0163  -1.0106  -1.0027  -1.0015
    -0.9933  -0.9792  -0.9710  -0.9660  -0.9644  -0.9458  -0.9406  -0.9336
    -0.9315  -0.9261  -0.9254  -0.9170  -0.9031  -0.8943  -0.8907  -0.8832
    -0.8704  -0.8463  -0.8420  -0.8360  -0.8317  -0.8250  -0.8076  -0.7601
    -0.7570  -0.7496  -0.7472  -0.7391  -0.7377  -0.7269  -0.7052  -0.6947
    -0.6845  -0.6811  -0.6764  -0.6721  -0.6692  -0.6630  -0.6471  -0.6259
    -0.6128  -0.6051  -0.5878  -0.5833  -0.5744  -0.5443  -0.5382  -0.5366
    -0.5322  -0.5279  -0.5095  -0.5034  -0.4965  -0.4914  -0.4845  -0.4787
    -0.4736  -0.4603  -0.4574  -0.4438  -0.4309  -0.4271  -0.4168  -0.4110
    -0.4047  -0.4019  -0.3864  -0.3819  -0.3763  -0.3707  -0.3647  -0.3572
    -0.3525  -0.3493  -0.3414  -0.3394  -0.3353  -0.3333  -0.3297  -0.3237
    -0.3186  -0.3112  -0.3066  -0.3024  -0.2993  -0.2899  -0.2790  -0.2646
    -0.2585  -0.2541  -0.2392  -0.2299  -0.2257  -0.2194  -0.2133  -0.2094
    -0.1998  -0.1965  -0.1928  -0.1891  -0.1707  -0.1597  -0.1504  -0.1343
    -0.1305  -0.1231  -0.1019  -0.0911  -0.0860  -0.0810  -0.0781  -0.0735
    -0.0678  -0.0589  -0.0553  -0.0503  -0.0401  -0.0340  -0.0304  -0.0290
    -0.0223  -0.0171  -0.0119  -0.0101  -0.0028  -0.0013   0.0087   0.0125
     0.0170   0.0193   0.0236   0.0271   0.0312   0.0364   0.0377   0.0394
     0.0435   0.0467   0.0516   0.0549   0.0588   0.0724   0.0802   0.0840
     0.0964   0.1006   0.1031   0.1154   0.1213   0.1352   0.1482   0.1547
     0.1588   0.1643   0.1679   0.1733   0.1768   0.1806   0.1838   0.1906
     0.1967   0.2000   0.2019   0.2086   0.2177   0.2330   0.2391   0.2631
     0.2782   0.2927   0.2981   0.3032   0.3100   0.3150   0.3171   0.3211
     0.3240   0.3276   0.3302   0.3348   0.3413   0.3501   0.3529   0.3561
     0.3592   0.3624   0.3653   0.3705   0.3750   0.3848   0.3971   0.4010
     0.4124   0.4206   0.4250   0.4265   0.4363   0.4420   0.4518   0.4563
     0.4714   0.4814   0.4835   0.4856   0.4918   0.4979   0.5038   0.5075
     0.5106   0.5145   0.5179   0.5217   0.5261   0.5343   0.5411   0.5528
     0.5561   0.5651   0.5752   0.5793   0.5856   0.5935   0.6006   0.6057
     0.6100   0.6177   0.6268   0.6311   0.6357   0.6384   0.6423   0.6488
     0.6551   0.6579   0.6604   0.6665   0.6693   0.6723   0.6778   0.6824
     0.6889   0.6920   0.6957   0.6970   0.6999   0.7020   0.7050   0.7066
     0.7114   0.7185   0.7192   0.7236   0.7289   0.7326   0.7369   0.7403
     0.7444   0.7477   0.7498   0.7541   0.7605   0.7713   0.7772   0.7848
     0.7924   0.7964   0.7996   0.8155   0.8281   0.8310   0.8373   0.8411
     0.8504   0.8547   0.8605   0.8640   0.8689   0.8766   0.8805   0.8830
     0.8839   0.8851   0.8884   0.8923   0.8958   0.8996   0.9139   0.9193
     0.9252   0.9285   0.9325   0.9376   0.9437   0.9506   0.9574   0.9662
     0.9684   0.9723   0.9751   0.9858   0.9904   0.9964   0.9969   1.0014
     1.0073   1.0093   1.0151   1.0233   1.0293   1.0422   1.0457   1.0534
     1.0598   1.0639   1.0714   1.0784   1.0904   1.0934   1.1001   1.1056
     1.1095   1.1135   1.1151   1.1159   1.1185   1.1210   1.1237   1.1254
     1.1281   1.1313   1.1361   1.1386   1.1461   1.1528   1.1590   1.1663
     1.1712   1.1798   1.1869   1.1906   1.1921   1.1955   1.1976   1.2053
     1.2067   1.2102   1.2122   1.2154   1.2179   1.2219   1.2237   1.2269
     1.2311   1.2328   1.2337   1.2366   1.2424   1.2439   1.2483   1.2512
     1.2557   1.2607   1.2656   1.2722   1.2738   1.2792   1.2883   1.2934
     1.2955   1.3015   1.3031   1.3074   1.3120   1.3146   1.3238   1.3308
     1.3345   1.3385   1.3429   1.3477   1.3521   1.3567   1.3623   1.3638
     1.3684   1.3718   1.3745   1.3766   1.3844   1.3878   1.3904   1.3919
     1.3964   1.4002   1.4040   1.4085   1.4099   1.4128   1.4164   1.4183
     1.4216   1.4262   1.4293   1.4327   1.4353   1.4379   1.4433   1.4473
     1.4531   1.4596   1.4612   1.4637   1.4665   1.4684   1.4691   1.4729
     1.4749   1.4796   1.4840   1.4867   1.4995   1.5078   1.5087   1.5155
     1.5225   1.5246   1.5278   1.5309   1.5404   1.5520   1.5550   1.5661
     1.5751   1.5801   1.5825   1.5882   1.6062   1.6135   1.6433   1.6674
     1.6763   1.7005   1.7214   1.7410   1.7742   1.7815   1.7897   1.7947
     1.8049   1.8097   1.8299   1.8465   1.8722   1.9270   2.1488   2.1508
     2.1788   2.1947   2.2625   2.3064   2.4564   2.6048   2.6103   2.7907
     2.8003   2.8073   2.8119   2.8252   2.8289   2.8843   2.9241   2.9880
     3.0147   3.0905   3.1050   3.3062   3.5416   3.5527   3.6117   3.6638
     3.6780   3.7909   3.8418   3.8597   3.8989   3.9737   4.0203   4.0560
     4.0855   4.1399   4.1793   4.1976   4.2370   4.3960   4.4014   4.4664
     4.5635   4.6230   4.6578   4.6904   4.7486   4.7885   4.8486   4.8963
     4.9591   5.0342   5.0447   5.1507   5.2547   5.3048   5.3462   5.3949
     5.4385   5.4686   5.5018   5.5273   5.6691   5.7132   5.7833   5.8110
     5.8906   5.9244   5.9795   6.0199   6.0571   6.5481   6.5648   6.5938
     6.6271   6.6539   6.7432   6.7977   6.8447   6.8944   6.9095   6.9872
     7.0093   7.0377   7.0804   7.1123   7.1464   7.2172   7.2612   7.2702
     7.2974   7.3604   7.4010   7.4316   7.4484   7.4670   7.6040   7.6538
     7.7091   7.7974   7.8289   7.8893   7.9116   7.9421   8.0959   8.1511
     8.2083   8.2333   8.2507   8.3352   8.4172   8.5569   8.5936   8.6289
     8.6395   8.6442   8.6941   8.7239   8.7461   8.7901   8.8579   8.8792
     8.9144   8.9261   8.9414   9.0695   9.0928   9.1194   9.1501   9.1671
     9.2118   9.2267   9.2390   9.2496   9.2889   9.3050   9.3367   9.3608
     9.4350   9.4774   9.5100   9.5435   9.6531   9.6579   9.8324   9.9123
     9.9504   9.9765   9.9888

          k =-0.5000 0.0000 0.0000 (256496 PWs)   bands (ev):

   -16.9343 -15.8473 -15.6541 -15.5611 -15.4936 -15.4000 -14.7432 -14.5321
   -14.3723 -14.3462 -13.1309 -12.7729 -12.6206 -12.5860 -12.4102 -12.2284
   -11.8173 -11.8062 -11.7664 -11.6469 -11.2327 -11.0908 -10.9285 -10.6530
   -10.3082 -10.1463  -9.9977  -9.6197  -9.5289  -9.0103  -8.9737  -8.8236
    -8.7454  -7.6331  -7.5153  -7.4759  -7.3107  -7.2669  -7.2239  -6.0888
    -6.0708  -5.7005  -5.2831  -5.2737  -5.1917  -5.1185  -4.8808  -4.8639
    -4.7870  -4.7817  -4.7726  -4.7534  -4.7275  -4.6927  -4.6441  -4.5872
    -4.5661  -4.5309  -4.4967  -4.4359  -4.3503  -4.3372  -4.2818  -4.2192
    -4.0368  -3.9684  -3.9390  -3.8908  -3.7896  -3.7159  -3.6788  -3.5978
    -3.5504  -3.5025  -3.4764  -3.4159  -3.4020  -3.3841  -3.3578  -3.3171
    -3.2835  -3.2688  -3.2489  -3.2230  -3.1396  -2.8882  -2.7327  -2.7002
    -2.6818  -2.6764  -2.6415  -2.6179  -2.5927  -2.5541  -2.5215  -2.4341
    -2.3460  -2.3217  -2.2975  -2.2772  -2.1902  -2.1421  -1.9009  -1.8572
    -1.8525  -1.8504  -1.8464  -1.8422  -1.8265  -1.7744  -1.7473  -1.7419
    -1.7369  -1.7196  -1.6818  -1.6245  -1.6183  -1.6133  -1.5985  -1.5857
    -1.5776  -1.5735  -1.5690  -1.5449  -1.4993  -1.4707  -1.4640  -1.4604
    -1.4287  -1.4010  -1.3974  -1.3904  -1.3857  -1.3806  -1.3782  -1.3674
    -1.3452  -1.3378  -1.3371  -1.3314  -1.3298  -1.3239  -1.3221  -1.3160
    -1.3051  -1.2969  -1.2795  -1.2694  -1.2673  -1.2668  -1.2451  -1.2435
    -1.2400  -1.2300  -1.2167  -1.1844  -1.1794  -1.1754  -1.1639  -1.1561
    -1.1448  -1.1421  -1.1357  -1.1297  -1.1235  -1.1170  -1.1119  -1.0919
    -1.0888  -1.0860  -1.0769  -1.0654  -1.0600  -1.0571  -1.0501  -1.0293
    -1.0270  -1.0125  -0.9761  -0.9732  -0.9584  -0.9550  -0.9526  -0.9440
    -0.9392  -0.9331  -0.9271  -0.9148  -0.9093  -0.9058  -0.9017  -0.9008
    -0.8986  -0.8951  -0.8939  -0.8886  -0.8768  -0.8669  -0.8569  -0.8326
    -0.8158  -0.8081  -0.7970  -0.7640  -0.7557  -0.7325  -0.6937  -0.6901
    -0.6830  -0.6773  -0.6547  -0.6453  -0.6401  -0.6354  -0.6329  -0.6277
    -0.6145  -0.6088  -0.6010  -0.5989  -0.5958  -0.5917  -0.5854  -0.5802
    -0.5783  -0.5655  -0.5620  -0.5572  -0.5433  -0.5365  -0.4848  -0.4729
    -0.4535  -0.4439  -0.4372  -0.4306  -0.4277  -0.4216  -0.4163  -0.4100
    -0.3985  -0.3823  -0.3810  -0.3765  -0.3726  -0.3588  -0.3515  -0.3435
    -0.3431  -0.3398  -0.3389  -0.3219  -0.3197  -0.3125  -0.3062  -0.3040
    -0.2948  -0.2885  -0.2806  -0.2716  -0.2664  -0.2599  -0.2581  -0.2521
    -0.2341  -0.2268  -0.2257  -0.2215  -0.2199  -0.2062  -0.2050  -0.1904
    -0.1846  -0.1780  -0.1628  -0.1418  -0.1277  -0.1206  -0.1121  -0.1062
    -0.1031  -0.1021  -0.0957  -0.0937  -0.0836  -0.0703  -0.0639  -0.0494
    -0.0430  -0.0334  -0.0170  -0.0098  -0.0071  -0.0003   0.0016   0.0051
     0.0094   0.0105   0.0152   0.0163   0.0214   0.0243   0.0311   0.0580
     0.0652   0.0766   0.0829   0.0884   0.0901   0.0942   0.0965   0.0988
     0.1001   0.1050   0.1074   0.1106   0.1158   0.1188   0.1215   0.1263
     0.1272   0.1281   0.1367   0.1425   0.1436   0.1458   0.1469   0.1488
     0.1524   0.1528   0.1574   0.1596   0.1656   0.1671   0.1693   0.1779
     0.1813   0.1825   0.1883   0.1901   0.1930   0.2072   0.2159   0.2207
     0.2273   0.2630   0.2886   0.3188   0.3221   0.3268   0.3332   0.3415
     0.3446   0.3457   0.3528   0.3565   0.3631   0.3666   0.3682   0.3721
     0.3755   0.3781   0.3809   0.3827   0.3853   0.3869   0.3894   0.3943
     0.3950   0.3985   0.4020   0.4059   0.4083   0.4128   0.4180   0.4210
     0.4301   0.4307   0.4344   0.4399   0.4565   0.4643   0.4823   0.5034
     0.5057   0.5203   0.5238   0.5270   0.5299   0.5382   0.5424   0.5513
     0.5526   0.5564   0.5574   0.5600   0.5622   0.5645   0.5680   0.5709
     0.5742   0.5743   0.5782   0.5807   0.5818   0.5852   0.5894   0.6049
     0.6076   0.6112   0.6137   0.6283   0.6331   0.6369   0.6453   0.6509
     0.6528   0.6558   0.6636   0.6640   0.6658   0.6698   0.6720   0.6745
     0.6820   0.6831   0.6870   0.6882   0.6904   0.6970   0.6995   0.7040
     0.7176   0.7276   0.7312   0.7403   0.7426   0.7454   0.7473   0.7552
     0.7660   0.7713   0.7825   0.7901   0.7945   0.7968   0.8071   0.8291
     0.8319   0.8362   0.8488   0.8571   0.8623   0.8665   0.8682   0.8693
     0.8698   0.8705   0.8758   0.8789   0.8887   0.8919   0.8928   0.8962
     0.9010   0.9108   0.9132   0.9152   0.9182   0.9194   0.9278   0.9339
     0.9395   0.9405   0.9458   0.9509   0.9549   0.9665   0.9734   0.9777
     0.9867   0.9997   1.0165   1.0395   1.0408   1.0409   1.0464   1.0543
     1.0559   1.0678   1.0703   1.0757   1.0827   1.0875   1.0913   1.0981
     1.1059   1.1105   1.1111   1.1144   1.1170   1.1312   1.1377   1.1383
     1.1408   1.1471   1.1497   1.1524   1.1557   1.1566   1.1586   1.1625
     1.1651   1.1691   1.1718   1.1733   1.1763   1.1796   1.1883   1.1962
     1.2039   1.2053   1.2103   1.2151   1.2188   1.2261   1.2287   1.2363
     1.2410   1.2429   1.2454   1.2505   1.2606   1.2647   1.2669   1.2680
     1.2681   1.2699   1.2726   1.2753   1.2777   1.2801   1.2887   1.2917
     1.2991   1.3092   1.3155   1.3238   1.3297   1.3321   1.3381   1.3394
     1.3404   1.3427   1.3438   1.3462   1.3474   1.3490   1.3499   1.3537
     1.3543   1.3561   1.3592   1.3609   1.3628   1.3666   1.3684   1.3697
     1.3718   1.3757   1.3787   1.3806   1.3874   1.3904   1.4001   1.4014
     1.4046   1.4108   1.4137   1.4204   1.4232   1.4333   1.4348   1.4413
     1.4431   1.4458   1.4543   1.4566   1.4585   1.4614   1.4648   1.4697
     1.4719   1.4757   1.4784   1.4815   1.4862   1.4936   1.4950   1.4993
     1.5045   1.5049   1.5103   1.5117   1.5140   1.5165   1.5280   1.5331
     1.5407   1.5434   1.5445   1.5464   1.5469   1.5593   1.5671   1.5769
     1.5977   1.6105   1.6184   1.6326   1.6348   1.6361   1.6492   1.6602
     1.9390   2.0360   2.0638   2.0819   2.1668   2.2454   2.2623   2.2779
     2.3105   2.3146   2.3223   2.3361   2.4255   2.6065   2.6297   2.6660
     2.8222   2.8464   2.8548   2.8762   2.8990   3.1108   3.1989   3.2116
     3.2249   3.2938   3.5002   3.5430   3.7332   3.7700   3.8009   3.8680
     3.9133   3.9224   3.9333   4.0075   4.0654   4.0899   4.0955   4.1230
     4.2035   4.4040   4.5038   4.5364   4.5888   4.6516   4.7168   4.7536
     4.7657   4.8182   4.8351   4.8551   4.8936   4.9264   4.9824   5.0257
     5.0402   5.0448   5.0633   5.0652   5.0755   5.0903   5.1045   5.2203
     5.2457   5.2915   5.3653   5.4582   5.5227   5.5608   5.5685   5.6637
     5.6975   5.7160   5.8829   5.9307   5.9586   5.9924   6.0015   6.0283
     6.0490   6.0783   6.1815   6.2469   6.3653   6.3897   6.4464   6.5006
     6.5268   6.5454   6.6258   7.0508   7.0822   7.1133   7.1545   7.1657
     7.2765   7.5025   7.5645   7.5987   7.6197   7.6233   7.6299   7.6409
     7.7900   7.8280   7.8427   7.8589   7.8832   7.8916   7.9621   8.0043
     8.0345   8.0505   8.0690   8.0895   8.1134   8.1415   8.1882   8.2574
     8.3182   8.7009   8.7441   8.7597   8.7744   8.8181   8.8354   8.8627
     8.8728   8.9356   8.9719   9.0196   9.0274   9.0564   9.0671   9.1590
     9.2442   9.2689   9.3185   9.4060   9.4438   9.4686   9.5009   9.5215
     9.5222   9.5241   9.5282   9.5309   9.5505   9.5737   9.8163   9.8685
     9.8860   9.9687   9.9884

          k =-0.5000-0.2165 0.0000 (256328 PWs)   bands (ev):

   -16.9341 -15.8038 -15.7396 -15.6792 -15.2940 -15.1585 -15.0155 -14.9662
   -14.0058 -13.7238 -13.5680 -13.5463 -12.5276 -12.2666 -12.0212 -11.9048
   -11.8798 -11.6636 -11.5437 -11.4823 -11.4195 -11.4029 -11.3756 -11.2937
   -10.0763  -9.8806  -9.7556  -9.6244  -9.5186  -8.8987  -8.7358  -8.6715
    -8.6354  -8.1224  -8.0830  -7.9080  -7.8858  -6.3866  -6.1269  -6.0585
    -5.8554  -5.6840  -5.5201  -5.2652  -5.2173  -5.1902  -5.1579  -5.1555
    -5.1484  -5.1282  -5.0704  -4.9384  -4.9046  -4.7019  -4.4565  -4.3422
    -4.3166  -4.2771  -4.2207  -4.1942  -4.1790  -4.1711  -4.1586  -4.1262
    -4.1092  -4.0652  -4.0025  -3.8719  -3.8477  -3.8178  -3.7877  -3.7688
    -3.6894  -3.6285  -3.6001  -3.5620  -3.5221  -3.4013  -3.3840  -3.3543
    -3.2481  -3.2023  -3.1294  -3.0822  -2.9977  -2.9009  -2.5797  -2.5567
    -2.5497  -2.5456  -2.5310  -2.5274  -2.5120  -2.5016  -2.4798  -2.4376
    -2.3646  -2.3305  -2.2399  -2.1114  -2.0608  -2.0543  -2.0428  -2.0292
    -2.0136  -2.0064  -1.9976  -1.9579  -1.9379  -1.9141  -1.8867  -1.7831
    -1.7785  -1.7696  -1.7617  -1.6367  -1.6257  -1.5784  -1.5667  -1.5151
    -1.4866  -1.4728  -1.4652  -1.4590  -1.4510  -1.4481  -1.4357  -1.4236
    -1.4159  -1.4128  -1.4054  -1.4044  -1.4019  -1.3898  -1.3623  -1.3586
    -1.3571  -1.3566  -1.3520  -1.3500  -1.3462  -1.3420  -1.3394  -1.3355
    -1.3335  -1.3297  -1.3230  -1.2849  -1.2838  -1.2595  -1.2425  -1.2214
    -1.2120  -1.2047  -1.1826  -1.1714  -1.1694  -1.1631  -1.1584  -1.1514
    -1.1460  -1.1304  -1.1182  -1.1150  -1.1060  -1.1017  -1.0974  -1.0931
    -1.0916  -1.0890  -1.0784  -1.0739  -1.0685  -1.0546  -1.0437  -1.0320
    -1.0309  -1.0251  -1.0223  -1.0195  -1.0184  -1.0112  -1.0110  -1.0101
    -1.0059  -1.0041  -0.9869  -0.9741  -0.9654  -0.9130  -0.8704  -0.8574
    -0.8549  -0.8367  -0.8326  -0.8300  -0.8255  -0.8249  -0.8112  -0.7779
    -0.7575  -0.7463  -0.7458  -0.7398  -0.7358  -0.7315  -0.7288  -0.7255
    -0.7232  -0.7207  -0.7007  -0.6869  -0.6771  -0.6741  -0.6685  -0.6580
    -0.6562  -0.6506  -0.6449  -0.6400  -0.6364  -0.6299  -0.6237  -0.5685
    -0.5498  -0.5446  -0.5444  -0.5304  -0.5279  -0.5224  -0.5131  -0.4793
    -0.4731  -0.4675  -0.4586  -0.4506  -0.4292  -0.4209  -0.4162  -0.4057
    -0.4029  -0.3998  -0.3974  -0.3915  -0.3859  -0.3803  -0.3759  -0.3709
    -0.3672  -0.3564  -0.3534  -0.3403  -0.3243  -0.3223  -0.3072  -0.2817
    -0.2645  -0.2534  -0.2461  -0.2432  -0.2387  -0.2323  -0.2304  -0.2261
    -0.2188  -0.2127  -0.2118  -0.2074  -0.1647  -0.1574  -0.1480  -0.1412
    -0.1385  -0.1304  -0.1282  -0.1262  -0.1217  -0.1203  -0.1123  -0.1099
    -0.1012  -0.0944  -0.0900  -0.0859  -0.0850  -0.0783  -0.0752  -0.0745
    -0.0653  -0.0646  -0.0595  -0.0547  -0.0457  -0.0353  -0.0163  -0.0053
    -0.0025   0.0117   0.0177   0.0320   0.0407   0.0489   0.0532   0.0759
     0.0813   0.0864   0.0906   0.0972   0.0990   0.1031   0.1059   0.1087
     0.1109   0.1127   0.1144   0.1199   0.1216   0.1261   0.1329   0.1350
     0.1367   0.1386   0.1398   0.1427   0.1447   0.1458   0.1489   0.1537
     0.1553   0.1569   0.1594   0.1754   0.1805   0.1819   0.1829   0.1889
     0.1932   0.1973   0.2057   0.2105   0.2295   0.2347   0.2417   0.2495
     0.2518   0.2620   0.2653   0.2725   0.2771   0.2994   0.3256   0.3411
     0.3429   0.3494   0.3526   0.3630   0.3666   0.3734   0.3750   0.3763
     0.3830   0.3858   0.3863   0.3916   0.3942   0.3997   0.4002   0.4039
     0.4045   0.4073   0.4135   0.4182   0.4237   0.4252   0.4332   0.4391
     0.4513   0.4574   0.4628   0.4649   0.4725   0.4821   0.4918   0.4945
     0.4956   0.5005   0.5006   0.5041   0.5077   0.5135   0.5245   0.5298
     0.5324   0.5387   0.5414   0.5478   0.5517   0.5557   0.5605   0.5671
     0.5689   0.5741   0.5786   0.5910   0.5936   0.5971   0.5996   0.6034
     0.6053   0.6101   0.6119   0.6138   0.6155   0.6183   0.6206   0.6253
     0.6299   0.6359   0.6399   0.6463   0.6553   0.6603   0.6691   0.6777
     0.6911   0.7018   0.7041   0.7065   0.7077   0.7136   0.7207   0.7234
     0.7274   0.7334   0.7385   0.7444   0.7452   0.7480   0.7523   0.7537
     0.7586   0.7607   0.7626   0.7668   0.7728   0.7820   0.7912   0.8024
     0.8110   0.8136   0.8255   0.8323   0.8384   0.8458   0.8474   0.8511
     0.8570   0.8606   0.8734   0.8822   0.8841   0.8889   0.8909   0.8964
     0.9051   0.9104   0.9305   0.9433   0.9470   0.9553   0.9648   0.9696
     0.9837   0.9883   0.9931   1.0094   1.0182   1.0257   1.0293   1.0335
     1.0414   1.0443   1.0482   1.0519   1.0532   1.0591   1.0616   1.0658
     1.0658   1.0711   1.0743   1.0755   1.0765   1.0771   1.0787   1.0824
     1.0840   1.0892   1.0907   1.0940   1.1015   1.1058   1.1084   1.1087
     1.1158   1.1200   1.1224   1.1297   1.1304   1.1385   1.1446   1.1475
     1.1482   1.1528   1.1547   1.1576   1.1598   1.1659   1.1680   1.1691
     1.1724   1.1777   1.1887   1.2014   1.2183   1.2191   1.2214   1.2242
     1.2276   1.2326   1.2361   1.2385   1.2431   1.2467   1.2526   1.2588
     1.2610   1.2690   1.2713   1.2776   1.2853   1.2880   1.2889   1.2958
     1.2987   1.3034   1.3079   1.3081   1.3104   1.3128   1.3152   1.3208
     1.3235   1.3284   1.3350   1.3476   1.3597   1.3646   1.3687   1.3711
     1.3789   1.3799   1.3812   1.3838   1.3852   1.3888   1.3899   1.3940
     1.3962   1.3981   1.3995   1.4034   1.4057   1.4073   1.4112   1.4135
     1.4156   1.4188   1.4190   1.4214   1.4225   1.4267   1.4313   1.4322
     1.4343   1.4355   1.4384   1.4411   1.4464   1.4536   1.4615   1.4703
     1.4733   1.4771   1.4804   1.4854   1.4893   1.4926   1.4994   1.5049
     1.5099   1.5194   1.5233   1.5260   1.5321   1.5354   1.5548   1.5621
     1.5741   1.5782   1.5926   1.5961   1.6020   1.6048   1.6100   1.6185
     1.6235   1.6287   1.6319   1.6369   1.6394   1.6438   1.6448   1.6605
     1.6734   1.6988   1.8430   1.8567   1.8859   1.8903   2.1201   2.3522
     2.3575   2.3920   2.5189   2.5741   2.5803   2.5976   2.6109   2.7913
     2.8163   2.8494   2.8799   3.0442   3.0880   3.1234   3.1593   3.3893
     3.4679   3.4839   3.4876   3.4981   3.6520   3.6603   3.7042   3.8201
     3.9447   3.9549   3.9619   3.9688   4.2045   4.2405   4.2446   4.2712
     4.3002   4.3283   4.3464   4.3971   4.4400   4.5366   4.5628   4.5909
     4.6052   4.6116   4.7199   4.7632   4.8545   4.9132   4.9377   4.9925
     5.0640   5.0723   5.1265   5.1561   5.1625   5.1840   5.2126   5.2545
     5.2716   5.3030   5.3289   5.3419   5.3779   5.4580   5.4658   5.6309
     5.6908   5.7300   5.7500   5.7619   5.7678   5.7841   5.8284   5.8748
     5.8895   5.8944   6.1651   6.7518   6.7634   6.8549   6.8599   7.0045
     7.0520   7.0879   7.1004   7.1391   7.1709   7.1873   7.1967   7.2055
     7.2329   7.2920   7.2945   7.3558   7.3737   7.3992   7.4321   7.4474
     7.5423   7.5655   7.6344   7.7866   7.8299   7.8882   7.9429   7.9983
     8.0249   8.0470   8.2214   8.2480   8.2829   8.3140   8.3280   8.3544
     8.4066   8.4197   8.7699   8.8479   8.8810   8.8855   8.9128   8.9269
     8.9300   8.9376   8.9598   8.9609   8.9983   9.0296   9.0936   9.1407
     9.1425   9.1477   9.1526   9.1856   9.3679   9.3863   9.3906   9.4424
     9.4938   9.5179   9.5321   9.5426   9.5554   9.5913   9.5972   9.9446
     9.9837   9.9946  10.0150

     the Fermi energy is     3.3522 ev

!    total energy              =  -12720.71212818 Ry
     Harris-Foulkes estimate   =  -12720.71212823 Ry
     estimated scf accuracy    <          5.8E-09 Ry

     The total energy is the sum of the following terms:

     one-electron contribution = -107938.67712626 Ry
     hartree contribution      =   55334.83400366 Ry
     xc contribution           =   -4452.54461440 Ry
     ewald contribution        =   44342.02850767 Ry
     Dispersion Correction     =      -2.98925395 Ry
     smearing contrib. (-TS)   =      -3.36364489 Ry

     convergence has been achieved in  44 iterations

     Writing output data file gc.save
 
     init_run     :    100.71s CPU    108.77s WALL (       1 calls)
     electrons    :  12294.12s CPU  13184.99s WALL (       1 calls)

     Called by init_run:
     wfcinit      :     98.32s CPU    105.81s WALL (       1 calls)
     potinit      :      0.44s CPU      0.44s WALL (       1 calls)

     Called by electrons:
     c_bands      :  11320.46s CPU  12109.42s WALL (      44 calls)
     sum_band     :    819.60s CPU    894.73s WALL (      44 calls)
     v_of_rho     :      2.90s CPU      3.58s WALL (      45 calls)
     newd         :      8.50s CPU     14.67s WALL (      45 calls)
     mix_rho      :    142.28s CPU    162.29s WALL (      44 calls)

     Called by c_bands:
     init_us_2    :     36.21s CPU     36.82s WALL (     534 calls)
     cegterg      :  11161.51s CPU  11943.95s WALL (     270 calls)

     Called by sum_band:
     sum_band:bec :      4.49s CPU      5.16s WALL (     264 calls)
     addusdens    :      8.12s CPU     14.27s WALL (      44 calls)

     Called by *egterg:
     h_psi        :   4094.95s CPU   4430.68s WALL (    1879 calls)
     s_psi        :   1001.66s CPU   1013.18s WALL (    1879 calls)
     g_psi        :     10.03s CPU     10.04s WALL (    1603 calls)
     cdiaghg      :   3279.08s CPU   3410.11s WALL (    1867 calls)

     Called by h_psi:
     add_vuspsi   :   1007.24s CPU   1020.72s WALL (    1879 calls)

     General routines
     calbec       :   1404.20s CPU   1414.39s WALL (    2143 calls)
     fft          :      3.48s CPU      4.16s WALL (     584 calls)
     ffts         :     83.46s CPU     95.38s WALL (   22263 calls)
     fftw         :   2338.41s CPU   2616.84s WALL ( 1295240 calls)
     davcio       :      0.27s CPU      4.89s WALL (       6 calls)
 
     Parallel routines
     fft_scatter  :   1512.54s CPU   1656.99s WALL ( 1318087 calls)
 
     PWSCF        :     3h26m CPU        3h41m WALL

 
   This run was terminated on:  23:50:24  26Apr2017            

=------------------------------------------------------------------------------=
   JOB DONE.
=------------------------------------------------------------------------------=
