mpirun: INFO: switching to OpenMPI runtime version 1.10.2

     Program PWSCF v.5.4.0 starts on 12May2017 at 10:52: 4 

     This program is part of the open-source Quantum ESPRESSO suite
     for quantum simulation of materials; please cite
         "P. Giannozzi et al., J. Phys.:Condens. Matter 21 395502 (2009);
          URL http://www.quantum-espresso.org", 
     in publications or presentations arising from this work. More details at
     http://www.quantum-espresso.org/quote

     Parallel version (MPI & OpenMP), running on      56 processor cores
     Number of MPI processes:                56
     Threads/MPI process:                     1
     R & G space division:  proc/nbgrp/npool/nimage =      56
     Waiting for input...
     Reading input from standard input
Warning: card &IONS ignored
Warning: card / ignored

     Current dimensions of program PWSCF are:
     Max number of different atomic species (ntypx) = 10
     Max number of k-points (npk) =  40000
     Max angular momentum in pseudopotentials (lmaxx) =  3
     WARNING: atomic wfc #  2 for atom type 4 has zero norm
     WARNING: atomic wfc #  4 for atom type 4 has zero norm
     WARNING: atomic wfc #  5 for atom type 4 has zero norm

     -------------------------------------
     Parameters for Dispersion Correction:
     -------------------------------------
       atom      VdW radius       C_6     

        Cu         2.952        374.666
        C_h        2.744         60.710
        C          2.744         60.710
        O          2.536         24.284
        H          1.892          4.857

     Subspace diagonalization in iterative solution of the eigenvalue problem:
     one sub-group per band group will be used
     scalapack distributed-memory algorithm (size of sub-group:  5*  5 procs)

 
     Parallelization info
     --------------------
     sticks:   dense  smooth     PW     G-vecs:    dense   smooth      PW
     Min         204     204     54                36612    36612    4962
     Max         205     205     55                36617    36617    4968
     Sum       11433   11433   3039              2050409  2050409  278033
 


     bravais-lattice index     =            0
     lattice parameter (alat)  =      13.9425  a.u.
     unit-cell volume          =   21209.0878 (a.u.)^3
     number of atoms/cell      =          152
     number of atomic types    =            5
     number of electrons       =      1309.00
     number of Kohn-Sham states=          786
     kinetic-energy cutoff     =      80.0000  Ry
     charge density cutoff     =     320.0000  Ry
     convergence threshold     =      1.0E-08
     mixing beta               =       0.7000
     number of iterations used =            8  local-TF  mixing
     Exchange-correlation      =  SLA  PW   PBE  PBE ( 1  4  3  4 0 0)

     celldm(1)=  13.942539  celldm(2)=   0.000000  celldm(3)=   0.000000
     celldm(4)=   0.000000  celldm(5)=   0.000000  celldm(6)=   0.000000

     crystal axes: (cart. coord. in units of alat)
               a(1) = (   1.000000   0.000000   0.000000 )  
               a(2) = (   0.000000   2.309401   0.000000 )  
               a(3) = (   0.000000   0.000000   3.388418 )  

     reciprocal axes: (cart. coord. in units 2 pi/alat)
               b(1) = (  1.000000  0.000000  0.000000 )  
               b(2) = (  0.000000  0.433013  0.000000 )  
               b(3) = (  0.000000  0.000000  0.295123 )  


     PseudoPot. # 1 for Cu read from file:
     /home/549/hxw549/Short/pseudopotentials/Cu.pbe-n-van_ak.UPF
     MD5 check sum: 601f7c30f7467666bec936e0661ce3e1
     Pseudo is Ultrasoft + core correction, Zval = 11.0
     Generated by new atomic code, or converted to UPF format
     Using radial grid of  867 points,  6 beta functions with: 
                l(1) =   0
                l(2) =   0
                l(3) =   1
                l(4) =   1
                l(5) =   2
                l(6) =   2
     Q(r) pseudized with  8 coefficients,  rinner =    1.400   1.400   1.400
                                                       1.400   1.400

     PseudoPot. # 2 for C  read from file:
     /home/549/hxw549/Short/pseudopotentials/C.star1s-pbe-mt_gipaw.UPF
     MD5 check sum: ef0cb3dee31bd9e4ba2a832a2c716264
     Pseudo is Norm-conserving, Zval =  5.0
     Generated by new atomic code, or converted to UPF format
     Using radial grid of 1073 points,  1 beta functions with: 
                l(1) =   0

     PseudoPot. # 3 for C  read from file:
     /home/549/hxw549/Short/pseudopotentials/C.pbe-mt_gipaw.UPF
     MD5 check sum: 5ac2f21f2c440b14befe521540822c15
     Pseudo is Norm-conserving, Zval =  4.0
     Generated by new atomic code, or converted to UPF format
     Using radial grid of 1073 points,  1 beta functions with: 
                l(1) =   0

     PseudoPot. # 4 for O  read from file:
     /home/549/hxw549/Short/pseudopotentials/O.pbe-van_gipaw.UPF
     MD5 check sum: 5ce2a047509d4f331db576c963e74b29
     Pseudo is Ultrasoft, Zval =  6.0
     Generated by new atomic code, or converted to UPF format
     Using radial grid of 1095 points,  4 beta functions with: 
                l(1) =   0
                l(2) =   0
                l(3) =   1
                l(4) =   1
     Q(r) pseudized with 0 coefficients 


     PseudoPot. # 5 for H  read from file:
     /home/549/hxw549/Short/pseudopotentials/H.pbe-van_ak.UPF
     MD5 check sum: 077eb6d537518a38cb46c6de387227b7
     Pseudo is Ultrasoft, Zval =  1.0
     Generated by new atomic code, or converted to UPF format
     Using radial grid of  615 points,  1 beta functions with: 
                l(1) =   0
     Q(r) pseudized with  8 coefficients,  rinner =    0.800

     atomic species   valence    mass     pseudopotential
        Cu            11.00    63.54600     Cu( 1.00)
        C_h            5.00    12.01070     C ( 1.00)
        C              4.00    12.01070     C ( 1.00)
        O              6.00    15.99940     O ( 1.00)
        H              1.00     1.00783     H ( 1.00)

     No symmetry found



   Cartesian axes

     site n.     atom                  positions (alat units)
         1           Cu  tau(   1) = (   0.0000842  -0.0003681   0.9999582  )
         2           Cu  tau(   2) = (   0.2500548   0.2313457   0.9998843  )
         3           Cu  tau(   3) = (   0.5000576  -0.0002607   0.9999865  )
         4           Cu  tau(   4) = (   0.7500833   0.2313139   0.9998641  )
         5           Cu  tau(   5) = (   0.0000630   0.4624576   0.9996374  )
         6           Cu  tau(   6) = (   0.2500574   0.6931393   0.9991054  )
         7           Cu  tau(   7) = (   0.5000697   0.4624370   0.9995248  )
         8           Cu  tau(   8) = (   0.7500716   0.6931484   0.9991088  )
         9           Cu  tau(   9) = (   0.0000622   0.9236166   0.9988218  )
        10           Cu  tau(  10) = (   0.2500643   1.1539091   0.9989623  )
        11           Cu  tau(  11) = (   0.5000640   0.9235821   0.9987715  )
        12           Cu  tau(  12) = (   0.7500634   1.1539179   0.9989606  )
        13           Cu  tau(  13) = (   0.0000687   1.3841458   0.9994650  )
        14           Cu  tau(  14) = (   0.2500837   1.6145936   0.9999104  )
        15           Cu  tau(  15) = (   0.5000627   1.3841804   0.9994855  )
        16           Cu  tau(  16) = (   0.7500522   1.6145705   0.9999235  )
        17           Cu  tau(  17) = (   0.0000612   1.8455769   1.0000095  )
        18           Cu  tau(  18) = (   0.2500741   2.0771549   1.0000108  )
        19           Cu  tau(  19) = (   0.5000791   1.8455049   1.0000850  )
        20           Cu  tau(  20) = (   0.7500687   2.0771896   1.0000020  )
        21           Cu  tau(  21) = (   0.0000704   0.2315434   1.2478653  )
        22           Cu  tau(  22) = (   0.2500664  -0.0002381   1.2475273  )
        23           Cu  tau(  23) = (   0.5000670   0.2316783   1.2479035  )
        24           Cu  tau(  24) = (   0.7500740  -0.0002273   1.2475423  )
        25           Cu  tau(  25) = (   0.0000692   0.6936868   1.2480512  )
        26           Cu  tau(  26) = (   0.2500874   0.4630175   1.2481231  )
        27           Cu  tau(  27) = (   0.5000643   0.6936369   1.2480478  )
        28           Cu  tau(  28) = (   0.7500461   0.4629896   1.2480760  )
        29           Cu  tau(  29) = (   0.0000655   1.1534501   1.2482728  )
        30           Cu  tau(  30) = (   0.2500957   0.9236477   1.2480367  )
        31           Cu  tau(  31) = (   0.5000669   1.1533940   1.2482530  )
        32           Cu  tau(  32) = (   0.7500350   0.9236609   1.2480361  )
        33           Cu  tau(  33) = (   0.0000688   1.6141455   1.2484967  )
        34           Cu  tau(  34) = (   0.2500811   1.3834824   1.2485944  )
        35           Cu  tau(  35) = (   0.5000677   1.6141108   1.2487066  )
        36           Cu  tau(  36) = (   0.7500538   1.3834640   1.2486243  )
        37           Cu  tau(  37) = (   0.0000721   2.0771959   1.2475848  )
        38           Cu  tau(  38) = (   0.2500753   1.8454353   1.2480641  )
        39           Cu  tau(  39) = (   0.5000696   2.0772392   1.2474654  )
        40           Cu  tau(  40) = (   0.7500644   1.8454540   1.2480357  )
        41           Cu  tau(  41) = (   0.0000552  -0.0003437   1.4963069  )
        42           Cu  tau(  42) = (   0.2501594   0.2316922   1.4966729  )
        43           Cu  tau(  43) = (   0.5000801  -0.0003239   1.4961498  )
        44           Cu  tau(  44) = (   0.7499692   0.2317424   1.4967073  )
        45           Cu  tau(  45) = (   0.0000623   0.4634405   1.4974589  )
        46           Cu  tau(  46) = (   0.2501391   0.6941193   1.4986964  )
        47           Cu  tau(  47) = (   0.5000667   0.4635838   1.4978574  )
        48           Cu  tau(  48) = (   0.7499975   0.6940653   1.4985995  )
        49           Cu  tau(  49) = (   0.0000719   0.9236097   1.4991718  )
        50           Cu  tau(  50) = (   0.2500634   1.1527743   1.4992825  )
        51           Cu  tau(  51) = (   0.5000695   0.9235140   1.4993108  )
        52           Cu  tau(  52) = (   0.7500770   1.1527397   1.4993345  )
        53           Cu  tau(  53) = (   0.0000750   1.3828780   1.4988430  )
        54           Cu  tau(  54) = (   0.2500890   1.6138847   1.4980387  )
        55           Cu  tau(  55) = (   0.5000679   1.3824979   1.4990271  )
        56           Cu  tau(  56) = (   0.7500488   1.6139412   1.4979863  )
        57           Cu  tau(  57) = (   0.0000808   1.8455483   1.4970029  )
        58           Cu  tau(  58) = (   0.2499997   2.0773826   1.4963591  )
        59           Cu  tau(  59) = (   0.5000580   1.8459184   1.4969695  )
        60           Cu  tau(  60) = (   0.7501390   2.0773614   1.4963585  )
        61           Cu  tau(  61) = (   0.0000295   0.2315309   1.7444207  )
        62           Cu  tau(  62) = (   0.2502029  -0.0002994   1.7446931  )
        63           Cu  tau(  63) = (   0.5000678   0.2311869   1.7451939  )
        64           Cu  tau(  64) = (   0.7499079  -0.0002989   1.7446971  )
        65           Cu  tau(  65) = (   0.0000435   0.6936173   1.7489464  )
        66           Cu  tau(  66) = (   0.2505725   0.4629719   1.7465844  )
        67           Cu  tau(  67) = (   0.5000601   0.6943936   1.7503369  )
        68           Cu  tau(  68) = (   0.7495268   0.4630920   1.7467012  )
        69           Cu  tau(  69) = (   0.0000924   1.1527931   1.7508173  )
        70           Cu  tau(  70) = (   0.2502615   0.9234581   1.7512347  )
        71           Cu  tau(  71) = (   0.5000542   1.1517041   1.7514155  )
        72           Cu  tau(  72) = (   0.7499023   0.9232312   1.7511647  )
        73           Cu  tau(  73) = (   0.0000949   1.6141779   1.7468887  )
        74           Cu  tau(  74) = (   0.2500008   1.3824766   1.7488313  )
        75           Cu  tau(  75) = (   0.5000403   1.6144221   1.7459068  )
        76           Cu  tau(  76) = (   0.7501499   1.3826237   1.7486353  )
        77           Cu  tau(  77) = (   0.0000597   2.0774819   1.7453209  )
        78           Cu  tau(  78) = (   0.2497908   1.8462237   1.7455670  )
        79           Cu  tau(  79) = (   0.5000663   2.0778525   1.7452871  )
        80           Cu  tau(  80) = (   0.7503417   1.8461915   1.7455604  )
        81           Cu  tau(  81) = (   0.0000293   0.0005630   1.9893151  )
        82           Cu  tau(  82) = (   0.2503945   0.2305317   1.9904370  )
        83           Cu  tau(  83) = (   0.5000451  -0.0001654   1.9914204  )
        84           Cu  tau(  84) = (   0.7496550   0.2306286   1.9903824  )
        85           Cu  tau(  85) = (   0.0001352   0.4606957   1.9911783  )
        86           Cu  tau(  86) = (   0.2509809   0.6915100   1.9960722  )
        87           Cu  tau(  87) = (   0.4999039   0.4602277   1.9939597  )
        88           Cu  tau(  88) = (   0.7490330   0.6914184   1.9964879  )
        89           Cu  tau(  89) = (   0.0000790   0.9223187   1.9982276  )
        90           Cu  tau(  90) = (   0.2509422   1.1535728   1.9995783  )
        91           Cu  tau(  91) = (   0.5001296   0.9227220   2.0050881  )
        92           Cu  tau(  92) = (   0.7492111   1.1536228   1.9988463  )
        93           Cu  tau(  93) = (   0.0000122   1.3841067   1.9962199  )
        94           Cu  tau(  94) = (   0.2491204   1.6154633   1.9915726  )
        95           Cu  tau(  95) = (   0.5001393   1.3858631   1.9939386  )
        96           Cu  tau(  96) = (   0.7510023   1.6154462   1.9916054  )
        97           Cu  tau(  97) = (   0.0000452   1.8467905   1.9920833  )
        98           Cu  tau(  98) = (   0.2500174   2.0780821   1.9906638  )
        99           Cu  tau(  99) = (   0.5000701   1.8458323   1.9897529  )
       100           Cu  tau( 100) = (   0.7500815   2.0780660   1.9906233  )
       101           C   tau( 101) = (   0.0000064   0.0982753   2.3856156  )
       102           C   tau( 102) = (   0.0000439   0.2906318   2.3863779  )
       103           C   tau( 103) = (   0.1666622   0.0021375   2.3846841  )
       104           C   tau( 104) = (   0.1665525   0.3867349   2.3858861  )
       105           C   tau( 105) = (   0.3332165   0.0983228   2.3831609  )
       106           C   tau( 106) = (   0.3332256   0.2906221   2.3844894  )
       107           C   tau( 107) = (   0.5000598   0.0019732   2.3803645  )
       108           C   tau( 108) = (   0.5000831   0.3875023   2.3852626  )
       109           C   tau( 109) = (   0.6668708   0.0983910   2.3827119  )
       110           C   tau( 110) = (   0.6669726   0.2907066   2.3839420  )
       111           C   tau( 111) = (   0.8333707   0.0021311   2.3842294  )
       112           C   tau( 112) = (   0.8335622   0.3868739   2.3852090  )
       113           C   tau( 113) = (  -0.0000664   0.6753953   2.3854927  )
       114           C   tau( 114) = (  -0.0000530   0.8677380   2.3850831  )
       115           C   tau( 115) = (   0.1662822   0.5790995   2.3858133  )
       116           C   tau( 116) = (   0.1669701   0.9636455   2.3943290  )
       117           C   tau( 117) = (   0.3328676   0.6759619   2.3925700  )
       118           C   tau( 118) = (   0.3306870   0.8664276   2.4033686  )
       119           C   tau( 119) = (   0.5000557   0.5791262   2.3918876  )
       120           C   tau( 120) = (   0.5005703   0.9642771   2.4585553  )
       121           C   tau( 121) = (   0.6669877   0.6763032   2.3895459  )
       122           C   tau( 122) = (   0.6689183   0.8667870   2.4013501  )
       123           C   tau( 123) = (   0.8335215   0.5793055   2.3841319  )
       124           C   tau( 124) = (   0.8327639   0.9636664   2.3937551  )
       125           C   tau( 125) = (   0.0001775   1.2524267   2.3940154  )
       126           C   tau( 126) = (   0.0002058   1.4454123   2.3866222  )
       127           C   tau( 127) = (   0.1666178   1.1567825   2.3964067  )
       128           C   tau( 128) = (   0.1669769   1.5416877   2.3844312  )
       129           C   tau( 129) = (   0.3342788   1.2531476   2.3945734  )
       130           C   tau( 130) = (   0.3337672   1.4457448   2.3873535  )
       131           C_h tau( 131) = (   0.5000705   1.1600103   2.4042867  )
       132           C   tau( 132) = (   0.5001390   1.5419263   2.3875286  )
       133           C   tau( 133) = (   0.6659113   1.2532485   2.3961466  )
       134           C   tau( 134) = (   0.6665638   1.4459311   2.3883803  )
       135           C   tau( 135) = (   0.8334444   1.1567853   2.3980193  )
       136           C   tau( 136) = (   0.8334256   1.5416843   2.3850458  )
       137           C   tau( 137) = (   0.0000818   1.8305645   2.3801465  )
       138           C   tau( 138) = (   0.0000178   2.0230047   2.3827294  )
       139           C   tau( 139) = (   0.1669767   1.7342100   2.3821412  )
       140           C   tau( 140) = (   0.1666234   2.1191650   2.3827717  )
       141           C   tau( 141) = (   0.3334727   1.8304533   2.3834572  )
       142           C   tau( 142) = (   0.3334464   2.0228704   2.3818320  )
       143           C   tau( 143) = (   0.5000638   1.7343864   2.3850919  )
       144           C   tau( 144) = (   0.5000445   2.1189962   2.3815734  )
       145           C   tau( 145) = (   0.6666800   1.8303624   2.3835727  )
       146           C   tau( 146) = (   0.6666154   2.0227865   2.3818160  )
       147           C   tau( 147) = (   0.8332512   1.7341954   2.3822333  )
       148           C   tau( 148) = (   0.8333765   2.1191374   2.3825846  )
       149           C   tau( 149) = (   0.4878592   0.9658295   2.6754889  )
       150           O   tau( 150) = (   0.3907150   1.0691884   2.7619711  )
       151           O   tau( 151) = (   0.5916853   0.8343731   2.7542978  )
       152           H   tau( 152) = (   0.5700785   0.8427763   2.8860689  )

     number of k points=     6  gaussian smearing, width (Ry)=  0.1000
                       cart. coord. in units 2pi/alat
        k(    1) = (   0.0000000   0.0000000   0.0000000), wk =   0.2500000
        k(    2) = (   0.0000000  -0.2165064   0.0000000), wk =   0.2500000
        k(    3) = (   0.2500000   0.0000000   0.0000000), wk =   0.5000000
        k(    4) = (   0.2500000  -0.2165064   0.0000000), wk =   0.5000000
        k(    5) = (  -0.5000000   0.0000000   0.0000000), wk =   0.2500000
        k(    6) = (  -0.5000000  -0.2165064   0.0000000), wk =   0.2500000

     Dense  grid:  2050409 G-vectors     FFT dimensions: (  80, 192, 270)

     Largest allocated arrays     est. size (Mb)     dimensions
        Kohn-Sham Wavefunctions        55.22 Mb     (    4604,  786)
        NL pseudopotentials           131.09 Mb     (    4604, 1866)
        Each V/rho on FFT grid          1.17 Mb     (   76800)
        Each G-vector array             0.28 Mb     (   36616)
        G-vector shells                 0.14 Mb     (   17932)
     Largest temporary arrays     est. size (Mb)     dimensions
        Auxiliary wavefunctions       220.87 Mb     (    4604, 3144)
        Each subspace H/S matrix        6.02 Mb     (     628,  628)
        Each <psi_i|beta_j> matrix     22.38 Mb     (    1866,  786)
        Arrays for rho mixing           9.38 Mb     (   76800,    8)

     Initial potential from superposition of free atoms
     Check: negative starting charge=   -0.001569

     starting charge 1283.31750, renormalised to 1309.00000

     negative rho (up, down):  1.601E-03 0.000E+00
     Starting wfc are 1301 randomized atomic wfcs

     total cpu time spent up to now is      109.4 secs

     Self-consistent Calculation

     iteration #  1     ecut=    80.00 Ry     beta=0.70
     Davidson diagonalization with overlap
     c_bands:  3 eigenvalues not converged
     c_bands:  3 eigenvalues not converged
     c_bands:  3 eigenvalues not converged
     c_bands:  1 eigenvalues not converged
     ethr =  1.00E-04,  avg # of iterations = 38.5

     negative rho (up, down):  2.257E+01 0.000E+00

     total cpu time spent up to now is     2165.4 secs

     total energy              =  -10167.53202407 Ry
     Harris-Foulkes estimate   =  -17467.94196096 Ry
     estimated scf accuracy    <  182365.93003105 Ry

     iteration #  2     ecut=    80.00 Ry     beta=0.70
     Davidson diagonalization with overlap
     ethr =  1.00E-02,  avg # of iterations = 10.0

     negative rho (up, down):  2.696E+01 0.000E+00

     total cpu time spent up to now is     3061.2 secs

     total energy              =  -12000.60679512 Ry
     Harris-Foulkes estimate   =  -13737.38093838 Ry
     estimated scf accuracy    <   29685.80998079 Ry

     iteration #  3     ecut=    80.00 Ry     beta=0.70
     Davidson diagonalization with overlap
     ethr =  1.00E-02,  avg # of iterations =  7.0

     negative rho (up, down):  2.772E+01 0.000E+00

     total cpu time spent up to now is     3623.6 secs

     total energy              =  -12452.26672367 Ry
     Harris-Foulkes estimate   =  -13524.74919342 Ry
     estimated scf accuracy    <    5889.58297834 Ry

     iteration #  4     ecut=    80.00 Ry     beta=0.70
     Davidson diagonalization with overlap
     ethr =  1.00E-02,  avg # of iterations =  5.2

     negative rho (up, down):  1.823E+01 0.000E+00

     total cpu time spent up to now is     4166.6 secs

     total energy              =  -12866.80055219 Ry
     Harris-Foulkes estimate   =  -13104.58376200 Ry
     estimated scf accuracy    <     853.35145750 Ry

     iteration #  5     ecut=    80.00 Ry     beta=0.70
     Davidson diagonalization with overlap
     ethr =  1.00E-02,  avg # of iterations =  2.8

     negative rho (up, down):  1.581E+01 0.000E+00

     total cpu time spent up to now is     4438.0 secs

     total energy              =  -12891.27375184 Ry
     Harris-Foulkes estimate   =  -12950.04791171 Ry
     estimated scf accuracy    <    1521.02941211 Ry

     iteration #  6     ecut=    80.00 Ry     beta=0.70
     Davidson diagonalization with overlap
     ethr =  1.00E-02,  avg # of iterations =  1.0

     negative rho (up, down):  1.008E+01 0.000E+00

     total cpu time spent up to now is     4607.1 secs

     total energy              =  -12861.59940122 Ry
     Harris-Foulkes estimate   =  -12916.26806845 Ry
     estimated scf accuracy    <     437.80548251 Ry

     iteration #  7     ecut=    80.00 Ry     beta=0.70
     Davidson diagonalization with overlap
     ethr =  1.00E-02,  avg # of iterations =  2.0

     negative rho (up, down):  7.818E+00 0.000E+00

     total cpu time spent up to now is     4796.9 secs

     total energy              =  -12849.91378333 Ry
     Harris-Foulkes estimate   =  -12878.39001007 Ry
     estimated scf accuracy    <     831.17351732 Ry

     iteration #  8     ecut=    80.00 Ry     beta=0.70
     Davidson diagonalization with overlap
     ethr =  1.00E-02,  avg # of iterations =  1.0

     negative rho (up, down):  7.068E+00 0.000E+00

     total cpu time spent up to now is     4966.6 secs

     total energy              =  -12846.93571003 Ry
     Harris-Foulkes estimate   =  -12861.16300374 Ry
     estimated scf accuracy    <     597.23013901 Ry

     iteration #  9     ecut=    80.00 Ry     beta=0.70
     Davidson diagonalization with overlap
     ethr =  1.00E-02,  avg # of iterations =  1.3

     negative rho (up, down):  6.003E+00 0.000E+00

     total cpu time spent up to now is     5140.1 secs

     total energy              =  -12839.15555513 Ry
     Harris-Foulkes estimate   =  -12851.01337233 Ry
     estimated scf accuracy    <     223.93794873 Ry

     iteration # 10     ecut=    80.00 Ry     beta=0.70
     Davidson diagonalization with overlap
     ethr =  1.00E-02,  avg # of iterations =  1.0

     negative rho (up, down):  1.638E+00 0.000E+00

     total cpu time spent up to now is     5309.4 secs

     total energy              =  -12804.52930187 Ry
     Harris-Foulkes estimate   =  -12843.83966938 Ry
     estimated scf accuracy    <     289.01204399 Ry

     iteration # 11     ecut=    80.00 Ry     beta=0.70
     Davidson diagonalization with overlap
     ethr =  1.00E-02,  avg # of iterations =  2.8

     negative rho (up, down):  1.643E+00 0.000E+00

     total cpu time spent up to now is     5501.9 secs

     total energy              =  -12803.80604723 Ry
     Harris-Foulkes estimate   =  -12815.45688052 Ry
     estimated scf accuracy    <     196.74714048 Ry

     iteration # 12     ecut=    80.00 Ry     beta=0.70
     Davidson diagonalization with overlap
     ethr =  1.00E-02,  avg # of iterations =  2.0

     negative rho (up, down):  8.403E-01 0.000E+00

     total cpu time spent up to now is     5683.5 secs

     total energy              =  -12797.32056192 Ry
     Harris-Foulkes estimate   =  -12811.66150434 Ry
     estimated scf accuracy    <      59.95556414 Ry

     iteration # 13     ecut=    80.00 Ry     beta=0.70
     Davidson diagonalization with overlap
     ethr =  4.58E-03,  avg # of iterations =  2.2

     negative rho (up, down):  2.215E+00 0.000E+00

     total cpu time spent up to now is     5866.3 secs

     total energy              =  -12792.98318243 Ry
     Harris-Foulkes estimate   =  -12799.24866920 Ry
     estimated scf accuracy    <      32.40508869 Ry

     iteration # 14     ecut=    80.00 Ry     beta=0.70
     Davidson diagonalization with overlap
     ethr =  2.48E-03,  avg # of iterations =  4.3

     negative rho (up, down):  4.203E+00 0.000E+00

     total cpu time spent up to now is     6075.8 secs

     total energy              =  -12790.29680766 Ry
     Harris-Foulkes estimate   =  -12793.80999729 Ry
     estimated scf accuracy    <      28.76141016 Ry

     iteration # 15     ecut=    80.00 Ry     beta=0.70
     Davidson diagonalization with overlap
     ethr =  2.20E-03,  avg # of iterations =  3.5

     negative rho (up, down):  4.375E+00 0.000E+00

     total cpu time spent up to now is     6275.0 secs

     total energy              =  -12788.88548037 Ry
     Harris-Foulkes estimate   =  -12790.92608063 Ry
     estimated scf accuracy    <      16.04903091 Ry

     iteration # 16     ecut=    80.00 Ry     beta=0.70
     Davidson diagonalization with overlap
     ethr =  1.23E-03,  avg # of iterations =  6.0

     negative rho (up, down):  3.451E+00 0.000E+00

     total cpu time spent up to now is     6506.1 secs

     total energy              =  -12787.81436613 Ry
     Harris-Foulkes estimate   =  -12789.16329448 Ry
     estimated scf accuracy    <      11.39794693 Ry

     iteration # 17     ecut=    80.00 Ry     beta=0.70
     Davidson diagonalization with overlap
     ethr =  8.71E-04,  avg # of iterations =  3.2

     negative rho (up, down):  2.843E+00 0.000E+00

     total cpu time spent up to now is     6703.6 secs

     total energy              =  -12787.07636294 Ry
     Harris-Foulkes estimate   =  -12787.99147161 Ry
     estimated scf accuracy    <       8.53981234 Ry

     iteration # 18     ecut=    80.00 Ry     beta=0.70
     Davidson diagonalization with overlap
     ethr =  6.52E-04,  avg # of iterations =  3.7

     negative rho (up, down):  2.103E+00 0.000E+00

     total cpu time spent up to now is     6905.1 secs

     total energy              =  -12786.03971724 Ry
     Harris-Foulkes estimate   =  -12787.17967721 Ry
     estimated scf accuracy    <       5.26307258 Ry

     iteration # 19     ecut=    80.00 Ry     beta=0.70
     Davidson diagonalization with overlap
     ethr =  4.02E-04,  avg # of iterations =  9.5

     negative rho (up, down):  1.621E+00 0.000E+00

     total cpu time spent up to now is     7182.3 secs

     total energy              =  -12785.59336692 Ry
     Harris-Foulkes estimate   =  -12786.27479560 Ry
     estimated scf accuracy    <       4.41008045 Ry

     iteration # 20     ecut=    80.00 Ry     beta=0.70
     Davidson diagonalization with overlap
     ethr =  3.37E-04,  avg # of iterations =  6.3

     negative rho (up, down):  1.645E+00 0.000E+00

     total cpu time spent up to now is     7414.2 secs

     total energy              =  -12785.56209100 Ry
     Harris-Foulkes estimate   =  -12785.70098507 Ry
     estimated scf accuracy    <       4.43967466 Ry

     iteration # 21     ecut=    80.00 Ry     beta=0.70
     Davidson diagonalization with overlap
     ethr =  3.37E-04,  avg # of iterations =  1.0

     negative rho (up, down):  6.678E-01 0.000E+00

     total cpu time spent up to now is     7585.8 secs

     total energy              =  -12784.44546480 Ry
     Harris-Foulkes estimate   =  -12785.68677588 Ry
     estimated scf accuracy    <       3.29790378 Ry

     iteration # 22     ecut=    80.00 Ry     beta=0.70
     Davidson diagonalization with overlap
     ethr =  2.52E-04,  avg # of iterations =  5.8

     negative rho (up, down):  3.255E-01 0.000E+00

     total cpu time spent up to now is     7813.2 secs

     total energy              =  -12784.10665713 Ry
     Harris-Foulkes estimate   =  -12784.53217731 Ry
     estimated scf accuracy    <       3.75407615 Ry

     iteration # 23     ecut=    80.00 Ry     beta=0.70
     Davidson diagonalization with overlap
     ethr =  2.52E-04,  avg # of iterations =  2.8

     negative rho (up, down):  2.838E-01 0.000E+00

     total cpu time spent up to now is     8004.4 secs

     total energy              =  -12783.70399455 Ry
     Harris-Foulkes estimate   =  -12784.17573601 Ry
     estimated scf accuracy    <       1.57326904 Ry

     iteration # 24     ecut=    80.00 Ry     beta=0.70
     Davidson diagonalization with overlap
     ethr =  1.20E-04,  avg # of iterations =  6.7

     negative rho (up, down):  2.898E-01 0.000E+00

     total cpu time spent up to now is     8242.5 secs

     total energy              =  -12783.61711729 Ry
     Harris-Foulkes estimate   =  -12783.74289922 Ry
     estimated scf accuracy    <       1.42898040 Ry

     iteration # 25     ecut=    80.00 Ry     beta=0.70
     Davidson diagonalization with overlap
     ethr =  1.09E-04,  avg # of iterations =  3.3

     negative rho (up, down):  3.235E-01 0.000E+00

     total cpu time spent up to now is     8441.2 secs

     total energy              =  -12783.45403842 Ry
     Harris-Foulkes estimate   =  -12783.64253761 Ry
     estimated scf accuracy    <       0.79757720 Ry

     iteration # 26     ecut=    80.00 Ry     beta=0.70
     Davidson diagonalization with overlap
     ethr =  6.09E-05,  avg # of iterations =  8.0

     negative rho (up, down):  2.703E-01 0.000E+00

     total cpu time spent up to now is     8717.9 secs

     total energy              =  -12783.40690868 Ry
     Harris-Foulkes estimate   =  -12783.48006697 Ry
     estimated scf accuracy    <       0.47632430 Ry

     iteration # 27     ecut=    80.00 Ry     beta=0.70
     Davidson diagonalization with overlap
     ethr =  3.64E-05,  avg # of iterations =  7.8

     negative rho (up, down):  1.071E-01 0.000E+00

     total cpu time spent up to now is     8984.4 secs

     total energy              =  -12783.41166037 Ry
     Harris-Foulkes estimate   =  -12783.43486083 Ry
     estimated scf accuracy    <       0.20631846 Ry

     iteration # 28     ecut=    80.00 Ry     beta=0.70
     Davidson diagonalization with overlap
     ethr =  1.58E-05,  avg # of iterations = 10.2

     negative rho (up, down):  1.295E-01 0.000E+00

     total cpu time spent up to now is     9271.6 secs

     total energy              =  -12783.41342930 Ry
     Harris-Foulkes estimate   =  -12783.42217677 Ry
     estimated scf accuracy    <       0.07453967 Ry

     iteration # 29     ecut=    80.00 Ry     beta=0.70
     Davidson diagonalization with overlap
     ethr =  5.69E-06,  avg # of iterations =  9.8

     negative rho (up, down):  8.999E-02 0.000E+00

     total cpu time spent up to now is     9586.2 secs

     total energy              =  -12783.41623612 Ry
     Harris-Foulkes estimate   =  -12783.41995751 Ry
     estimated scf accuracy    <       0.02243297 Ry

     iteration # 30     ecut=    80.00 Ry     beta=0.70
     Davidson diagonalization with overlap
     c_bands:  1 eigenvalues not converged
     ethr =  1.71E-06,  avg # of iterations = 16.3

     negative rho (up, down):  7.965E-02 0.000E+00

     total cpu time spent up to now is     9963.5 secs

     total energy              =  -12783.41590415 Ry
     Harris-Foulkes estimate   =  -12783.41764991 Ry
     estimated scf accuracy    <       0.00907848 Ry

     iteration # 31     ecut=    80.00 Ry     beta=0.70
     Davidson diagonalization with overlap
     c_bands:  1 eigenvalues not converged
     ethr =  6.94E-07,  avg # of iterations = 10.8

     negative rho (up, down):  5.206E-02 0.000E+00

     total cpu time spent up to now is    10263.8 secs

     total energy              =  -12783.41590595 Ry
     Harris-Foulkes estimate   =  -12783.41661658 Ry
     estimated scf accuracy    <       0.00535022 Ry

     iteration # 32     ecut=    80.00 Ry     beta=0.70
     Davidson diagonalization with overlap
     ethr =  4.09E-07,  avg # of iterations = 13.8

     negative rho (up, down):  3.054E-02 0.000E+00

     total cpu time spent up to now is    10609.3 secs

     total energy              =  -12783.41557742 Ry
     Harris-Foulkes estimate   =  -12783.41618386 Ry
     estimated scf accuracy    <       0.00214607 Ry

     iteration # 33     ecut=    80.00 Ry     beta=0.70
     Davidson diagonalization with overlap
     ethr =  1.64E-07,  avg # of iterations =  9.2

     negative rho (up, down):  2.481E-02 0.000E+00

     total cpu time spent up to now is    10894.3 secs

     total energy              =  -12783.41547148 Ry
     Harris-Foulkes estimate   =  -12783.41568592 Ry
     estimated scf accuracy    <       0.00076362 Ry

     iteration # 34     ecut=    80.00 Ry     beta=0.70
     Davidson diagonalization with overlap
     ethr =  5.83E-08,  avg # of iterations = 11.2

     negative rho (up, down):  1.974E-02 0.000E+00

     total cpu time spent up to now is    11199.0 secs

     total energy              =  -12783.41538988 Ry
     Harris-Foulkes estimate   =  -12783.41552103 Ry
     estimated scf accuracy    <       0.00048077 Ry

     iteration # 35     ecut=    80.00 Ry     beta=0.70
     Davidson diagonalization with overlap
     ethr =  3.67E-08,  avg # of iterations =  5.3

     negative rho (up, down):  9.372E-03 0.000E+00

     total cpu time spent up to now is    11430.7 secs

     total energy              =  -12783.41520327 Ry
     Harris-Foulkes estimate   =  -12783.41542403 Ry
     estimated scf accuracy    <       0.00020130 Ry

     iteration # 36     ecut=    80.00 Ry     beta=0.70
     Davidson diagonalization with overlap
     ethr =  1.54E-08,  avg # of iterations = 10.7

     negative rho (up, down):  3.839E-03 0.000E+00

     total cpu time spent up to now is    11740.3 secs

     total energy              =  -12783.41512367 Ry
     Harris-Foulkes estimate   =  -12783.41521937 Ry
     estimated scf accuracy    <       0.00006201 Ry

     iteration # 37     ecut=    80.00 Ry     beta=0.70
     Davidson diagonalization with overlap
     ethr =  4.74E-09,  avg # of iterations =  9.2

     negative rho (up, down):  3.314E-03 0.000E+00

     total cpu time spent up to now is    12021.9 secs

     total energy              =  -12783.41511940 Ry
     Harris-Foulkes estimate   =  -12783.41513039 Ry
     estimated scf accuracy    <       0.00002394 Ry

     iteration # 38     ecut=    80.00 Ry     beta=0.70
     Davidson diagonalization with overlap
     ethr =  1.83E-09,  avg # of iterations =  2.2

     negative rho (up, down):  2.067E-03 0.000E+00

     total cpu time spent up to now is    12212.2 secs

     total energy              =  -12783.41511345 Ry
     Harris-Foulkes estimate   =  -12783.41512206 Ry
     estimated scf accuracy    <       0.00000787 Ry

     iteration # 39     ecut=    80.00 Ry     beta=0.70
     Davidson diagonalization with overlap
     ethr =  6.01E-10,  avg # of iterations =  4.7

     negative rho (up, down):  2.136E-03 0.000E+00

     total cpu time spent up to now is    12438.8 secs

     total energy              =  -12783.41511509 Ry
     Harris-Foulkes estimate   =  -12783.41511402 Ry
     estimated scf accuracy    <       0.00000113 Ry

     iteration # 40     ecut=    80.00 Ry     beta=0.70
     Davidson diagonalization with overlap
     ethr =  8.64E-11,  avg # of iterations =  3.0

     negative rho (up, down):  2.069E-03 0.000E+00

     total cpu time spent up to now is    12657.0 secs

     total energy              =  -12783.41511530 Ry
     Harris-Foulkes estimate   =  -12783.41511523 Ry
     estimated scf accuracy    <       0.00000054 Ry

     iteration # 41     ecut=    80.00 Ry     beta=0.70
     Davidson diagonalization with overlap
     ethr =  4.14E-11,  avg # of iterations =  3.0

     negative rho (up, down):  2.022E-03 0.000E+00

     total cpu time spent up to now is    12859.2 secs

     total energy              =  -12783.41511550 Ry
     Harris-Foulkes estimate   =  -12783.41511535 Ry
     estimated scf accuracy    <       0.00000024 Ry

     iteration # 42     ecut=    80.00 Ry     beta=0.70
     Davidson diagonalization with overlap
     ethr =  1.83E-11,  avg # of iterations =  3.0

     negative rho (up, down):  1.967E-03 0.000E+00

     total cpu time spent up to now is    13066.6 secs

     total energy              =  -12783.41511560 Ry
     Harris-Foulkes estimate   =  -12783.41511552 Ry
     estimated scf accuracy    <       0.00000007 Ry

     iteration # 43     ecut=    80.00 Ry     beta=0.70
     Davidson diagonalization with overlap
     ethr =  5.01E-12,  avg # of iterations =  3.0

     negative rho (up, down):  1.920E-03 0.000E+00

     total cpu time spent up to now is    13276.9 secs

     total energy              =  -12783.41511564 Ry
     Harris-Foulkes estimate   =  -12783.41511560 Ry
     estimated scf accuracy    <       0.00000003 Ry

     iteration # 44     ecut=    80.00 Ry     beta=0.70
     Davidson diagonalization with overlap
     ethr =  2.06E-12,  avg # of iterations =  2.8

     negative rho (up, down):  1.918E-03 0.000E+00

     total cpu time spent up to now is    13495.2 secs

     total energy              =  -12783.41511563 Ry
     Harris-Foulkes estimate   =  -12783.41511565 Ry
     estimated scf accuracy    <       0.00000002 Ry

     iteration # 45     ecut=    80.00 Ry     beta=0.70
     Davidson diagonalization with overlap
     ethr =  1.25E-12,  avg # of iterations =  2.7

     negative rho (up, down):  1.901E-03 0.000E+00

     total cpu time spent up to now is    13683.1 secs

     End of self-consistent calculation

          k = 0.0000 0.0000 0.0000 (256287 PWs)   bands (ev):

   -20.2699 -18.0224 -16.9158 -16.1117 -15.9479 -15.2351 -14.9078 -14.5997
   -14.4589 -14.1342 -14.0591 -14.0084 -13.9851 -13.3325 -13.1986 -13.0131
   -12.9804 -12.9393 -12.9259 -11.5896 -11.4045 -11.3380 -11.2332 -11.0741
   -10.1512  -9.7185  -9.5845  -9.5499  -9.3538  -8.8092  -8.7669  -8.6437
    -8.4563  -8.3106  -7.7908  -7.7472  -7.5819  -7.4735  -7.4225  -7.4015
    -7.3733  -7.3307  -6.2545  -6.1937  -5.9532  -5.9239  -5.8943  -5.7970
    -5.7523  -5.7444  -5.6792  -5.4466  -5.3738  -5.3559  -4.9253  -4.7201
    -4.6448  -4.6124  -4.4860  -4.4267  -4.3728  -4.2245  -4.1723  -4.0709
    -3.8899  -3.8778  -3.8495  -3.7906  -3.7618  -3.5519  -3.3975  -3.3741
    -3.3036  -3.2947  -3.2926  -3.2779  -3.2376  -3.1516  -3.0803  -3.0433
    -2.9964  -2.8978  -2.8965  -2.8936  -2.8913  -2.8443  -2.8165  -2.7100
    -2.6813  -2.6319  -2.6291  -2.6209  -2.5933  -2.5809  -2.5478  -2.5176
    -2.3851  -2.2813  -2.2643  -2.2460  -2.2307  -2.2075  -2.1006  -2.0809
    -2.0788  -2.0427  -2.0412  -2.0396  -2.0391  -2.0356  -2.0007  -1.9742
    -1.9583  -1.9116  -1.9115  -1.9075  -1.9073  -1.8480  -1.8006  -1.7690
    -1.7301  -1.6656  -1.6280  -1.6276  -1.6255  -1.6237  -1.5862  -1.5656
    -1.5616  -1.5478  -1.5424  -1.4981  -1.4854  -1.4750  -1.4530  -1.4518
    -1.4475  -1.4402  -1.4253  -1.4170  -1.4142  -1.4044  -1.4025  -1.3697
    -1.3284  -1.3251  -1.3053  -1.2760  -1.2673  -1.2632  -1.2554  -1.2417
    -1.2081  -1.1881  -1.1531  -1.1523  -1.1400  -1.1177  -1.1008  -1.1000
    -1.0812  -1.0780  -1.0563  -1.0523  -1.0160  -1.0100  -1.0009  -0.9919
    -0.9406  -0.9369  -0.9287  -0.9216  -0.9181  -0.9124  -0.9116  -0.9104
    -0.9103  -0.9093  -0.9066  -0.8945  -0.8879  -0.8784  -0.8411  -0.8342
    -0.8285  -0.8256  -0.8151  -0.8085  -0.8072  -0.8059  -0.8024  -0.7520
    -0.7490  -0.7464  -0.7461  -0.7453  -0.7447  -0.7440  -0.7390  -0.7390
    -0.7369  -0.7368  -0.7367  -0.7348  -0.7340  -0.7310  -0.7307  -0.7183
    -0.7174  -0.6955  -0.6730  -0.6602  -0.5794  -0.5790  -0.5725  -0.5720
    -0.5511  -0.5492  -0.5306  -0.5304  -0.5112  -0.5089  -0.5022  -0.4990
    -0.4905  -0.4901  -0.4790  -0.4781  -0.4541  -0.4536  -0.4499  -0.4490
    -0.4435  -0.4431  -0.4326  -0.4316  -0.3820  -0.3811  -0.3787  -0.3646
    -0.3283  -0.3280  -0.3174  -0.3169  -0.3152  -0.3117  -0.3008  -0.2992
    -0.2953  -0.2933  -0.2933  -0.2928  -0.2890  -0.2888  -0.2745  -0.2742
    -0.2712  -0.2677  -0.2601  -0.2399  -0.2391  -0.2216  -0.1902  -0.1890
    -0.1837  -0.1812  -0.1810  -0.1580  -0.1578  -0.1512  -0.1510  -0.1390
    -0.1377  -0.1314  -0.1312  -0.1301  -0.1133  -0.1128  -0.1098  -0.1083
    -0.1055  -0.1052  -0.1016  -0.1000  -0.0986  -0.0974  -0.0808  -0.0794
    -0.0767  -0.0765  -0.0717  -0.0561  -0.0103  -0.0094  -0.0084  -0.0073
    -0.0073   0.0370   0.0390   0.0412   0.0430   0.0465   0.0484   0.0489
     0.0501   0.0510   0.0554   0.0684   0.0736   0.0953   0.1002   0.1015
     0.1028   0.1035   0.1102   0.1266   0.1277   0.1312   0.1357   0.1361
     0.1439   0.1562   0.1565   0.1567   0.1579   0.1614   0.1647   0.1729
     0.1733   0.1740   0.1745   0.1836   0.1866   0.1896   0.1948   0.2124
     0.2143   0.2458   0.2459   0.2688   0.2768   0.2788   0.2906   0.2974
     0.3056   0.3379   0.3394   0.3464   0.3534   0.3582   0.3602   0.3693
     0.3826   0.3827   0.3839   0.3841   0.3894   0.3922   0.3954   0.4406
     0.4418   0.4499   0.4507   0.4586   0.4610   0.4617   0.4711   0.4881
     0.4915   0.4924   0.4930   0.4955   0.5078   0.5249   0.5310   0.5354
     0.5363   0.5466   0.5492   0.5504   0.5519   0.5881   0.5899   0.5998
     0.6006   0.6057   0.6136   0.6137   0.6193   0.6344   0.6362   0.6371
     0.6441   0.6445   0.6447   0.6453   0.6482   0.6507   0.6553   0.6576
     0.6616   0.6641   0.6656   0.6687   0.6740   0.6746   0.6952   0.7091
     0.7148   0.7150   0.7201   0.7310   0.7519   0.7583   0.7589   0.7601
     0.7627   0.7638   0.7648   0.7663   0.7739   0.7761   0.7789   0.7838
     0.7888   0.7896   0.7925   0.7961   0.7968   0.7987   0.8068   0.8092
     0.8279   0.8314   0.8321   0.8336   0.8397   0.8455   0.8464   0.8522
     0.8572   0.8577   0.8578   0.8630   0.8653   0.8656   0.8697   0.8782
     0.8932   0.8977   0.9153   0.9157   0.9276   0.9301   0.9309   0.9312
     0.9370   0.9383   0.9649   0.9661   0.9807   0.9810   0.9855   0.9859
     1.0001   1.0007   1.0089   1.0098   1.0100   1.0105   1.0218   1.0306
     1.0446   1.0477   1.0488   1.0519   1.0521   1.0528   1.0608   1.0719
     1.0884   1.0903   1.0948   1.0969   1.1005   1.1088   1.1171   1.1213
     1.1221   1.1228   1.1233   1.1256   1.1270   1.1321   1.1367   1.1378
     1.1384   1.1390   1.1395   1.1535   1.1539   1.1684   1.1742   1.1750
     1.1763   1.1785   1.1848   1.2103   1.2135   1.2152   1.2192   1.2202
     1.2216   1.2239   1.2255   1.2284   1.2294   1.2296   1.2303   1.2319
     1.2328   1.2443   1.2455   1.2547   1.2794   1.2929   1.2948   1.3025
     1.3074   1.3108   1.3130   1.3155   1.3160   1.3162   1.3213   1.3348
     1.3451   1.3474   1.3492   1.3492   1.3504   1.3539   1.3544   1.3552
     1.3561   1.3647   1.3822   1.3833   1.3840   1.3843   1.3863   1.3875
     1.3887   1.3900   1.4033   1.4044   1.4054   1.4074   1.4137   1.4196
     1.4199   1.4208   1.4215   1.4258   1.4310   1.4348   1.4384   1.4532
     1.4581   1.4635   1.4649   1.4661   1.4666   1.4705   1.4709   1.4843
     1.4920   1.4972   1.4973   1.5023   1.5118   1.5216   1.5229   1.5258
     1.5337   1.5343   1.5354   1.5386   1.5430   1.5436   1.5442   1.5452
     1.5459   1.5465   1.5485   1.5572   1.5587   1.5604   1.5755   1.5763
     1.5772   1.5783   1.5814   1.5897   1.5912   1.5967   1.6172   1.6185
     1.6232   1.6300   1.6651   1.6665   1.6710   1.6737   1.6897   1.6902
     1.6908   1.6968   1.7009   1.7164   1.7378   1.7418   1.7432   1.7434
     1.7453   1.7521   1.7532   1.7546   2.0091   2.0652   2.0991   2.2169
     2.2276   2.2647   2.2743   2.3139   2.3148   2.3178   2.3210   2.3252
     2.3362   2.3368   2.3637   2.5057   2.5117   2.5673   2.5789   2.5818
     2.5822   2.5924   2.5992   2.7823   2.8335   2.8365   2.8375   2.9427
     3.1208   3.1685   3.2903   3.6325   3.6337   3.8080   3.9231   3.9356
     3.9640   3.9667   3.9673   3.9792   4.0207   4.0773   4.0971   4.1165
     4.1172   4.1187   4.1202   4.1220   4.1263   4.1295   4.3611   4.3646
     4.3685   4.3811   4.5114   4.5588   4.8592   4.8732   4.9389   5.0358
     5.4082   5.4715   5.5249   5.5383   5.6379   5.8129   5.8221   5.8503
     5.8647   5.9926   6.0439   6.0704   6.4464   6.4649   6.4843   6.5219
     6.5506   6.5955   6.5968   6.6034   6.6433   6.7040   6.7568   6.8070
     6.8585   6.8924   6.9118   6.9345   7.0036   7.1101   7.1659   7.1864
     7.2050   7.2103   7.2198   7.2525   7.4688   7.4718   7.6721   7.6759
     7.7240   7.8105   7.8159   7.8206   7.8398   7.9457   8.1734   8.2397
     8.3095   8.3264   8.3691   8.4216   8.4226   8.4452   8.4481   8.4729
     8.5061   8.5108   8.5268   8.6185   8.6644   8.6709   8.6963   8.7719
     8.7748   8.7787   8.7941   8.8545   8.8845   8.8968   8.9495   8.9500
     8.9571   8.9588   9.1758   9.2247   9.2337   9.2361   9.2424   9.2484
     9.3053   9.3202   9.4532   9.4582   9.4874   9.5537   9.6739   9.6886
     9.6923   9.7348   9.7703   9.8842   9.9411  10.1264  10.1536  10.1548
    10.1847  10.2555

          k = 0.0000-0.2165 0.0000 (256176 PWs)   bands (ev):

   -20.2699 -18.0224 -16.9145 -16.1839 -15.7368 -15.5197 -14.8530 -14.4342
   -14.2444 -14.2209 -14.1373 -14.0728 -13.6892 -13.6151 -13.5884 -13.5523
   -12.4849 -12.3336 -12.2495 -12.1394 -12.0060 -11.9320 -10.5697 -10.4282
   -10.3681 -10.2474  -9.3348  -9.1980  -9.1902  -9.0397  -8.8969  -8.8224
    -8.4624  -8.2451  -8.1335  -8.0127  -7.9666  -7.1893  -7.1759  -6.8712
    -6.8054  -6.7626  -6.7555  -6.7160  -6.6493  -6.0566  -5.9693  -5.7763
    -5.7734  -5.5895  -5.3492  -5.1762  -5.0594  -4.9876  -4.8880  -4.7686
    -4.7460  -4.7194  -4.6994  -4.6010  -4.4731  -4.4591  -4.3626  -4.2728
    -4.1382  -4.0099  -3.7710  -3.7311  -3.5821  -3.4364  -3.3363  -3.2943
    -3.1930  -3.1926  -3.1857  -3.1829  -3.0961  -3.0357  -2.9609  -2.9459
    -2.9225  -2.9176  -2.9082  -2.8546  -2.7776  -2.7440  -2.7361  -2.6931
    -2.6779  -2.6433  -2.6146  -2.5722  -2.5075  -2.4909  -2.4744  -2.4677
    -2.4674  -2.4665  -2.4643  -2.3847  -2.3539  -2.2460  -2.1929  -2.1627
    -2.1409  -2.1325  -2.1306  -2.1036  -2.0446  -2.0347  -2.0328  -2.0293
    -2.0002  -1.9216  -1.8752  -1.8750  -1.8496  -1.8495  -1.7913  -1.7529
    -1.7494  -1.6995  -1.6808  -1.6575  -1.6567  -1.6552  -1.6392  -1.6385
    -1.6294  -1.6294  -1.6135  -1.6079  -1.5432  -1.5368  -1.5308  -1.4894
    -1.4744  -1.4572  -1.3863  -1.3606  -1.3574  -1.3474  -1.3473  -1.2861
    -1.2662  -1.2613  -1.2588  -1.2125  -1.2058  -1.2054  -1.1689  -1.1674
    -1.1653  -1.1635  -1.1617  -1.1598  -1.1573  -1.1401  -1.1255  -1.1160
    -1.1144  -1.1101  -1.1065  -1.1006  -1.0908  -1.0546  -1.0383  -1.0221
    -1.0211  -1.0149  -0.9790  -0.9775  -0.9685  -0.9398  -0.9394  -0.9365
    -0.9362  -0.8991  -0.8881  -0.8757  -0.8752  -0.8697  -0.8692  -0.8664
    -0.8659  -0.8179  -0.8147  -0.8092  -0.8086  -0.7996  -0.7992  -0.7950
    -0.7923  -0.7811  -0.7811  -0.7264  -0.7221  -0.7141  -0.7086  -0.7082
    -0.7034  -0.6994  -0.6950  -0.6856  -0.6854  -0.6737  -0.6650  -0.6438
    -0.6436  -0.6408  -0.6372  -0.5496  -0.5495  -0.5375  -0.5364  -0.5224
    -0.5221  -0.5190  -0.4970  -0.4951  -0.4945  -0.4911  -0.4903  -0.4902
    -0.4680  -0.4635  -0.4326  -0.4320  -0.4310  -0.4276  -0.4272  -0.4254
    -0.4248  -0.4223  -0.3939  -0.3927  -0.3909  -0.3746  -0.3737  -0.3737
    -0.3684  -0.3428  -0.3386  -0.3374  -0.3370  -0.3360  -0.3335  -0.3316
    -0.3298  -0.3169  -0.3161  -0.2587  -0.2547  -0.2545  -0.2385  -0.2379
    -0.2153  -0.2137  -0.2046  -0.1931  -0.1921  -0.1872  -0.1851  -0.1848
    -0.1833  -0.1829  -0.1652  -0.1644  -0.1527  -0.1520  -0.1503  -0.1467
    -0.1381  -0.1357  -0.1337  -0.1335  -0.1329  -0.1310  -0.1265  -0.1226
    -0.1206  -0.0969  -0.0966  -0.0940  -0.0936  -0.0598  -0.0430  -0.0325
    -0.0302  -0.0283  -0.0260  -0.0229  -0.0204  -0.0171  -0.0165  -0.0131
    -0.0055   0.0120   0.0176   0.0226   0.0230   0.0292   0.0307   0.0321
     0.0338   0.0350   0.0365   0.0378   0.0401   0.0584   0.0928   0.0931
     0.0946   0.0960   0.0992   0.1139   0.1153   0.1164   0.1174   0.1185
     0.1276   0.1366   0.1379   0.1458   0.1470   0.1523   0.1606   0.1697
     0.1708   0.1853   0.1856   0.1866   0.1875   0.2052   0.2073   0.2214
     0.2216   0.2300   0.2320   0.2418   0.2447   0.2448   0.2457   0.2871
     0.2876   0.2945   0.2953   0.2996   0.3120   0.3122   0.3134   0.3371
     0.3382   0.3386   0.3758   0.3766   0.3777   0.3861   0.3982   0.4198
     0.4254   0.4608   0.4933   0.4938   0.4993   0.4999   0.5112   0.5209
     0.5220   0.5237   0.5251   0.5527   0.5537   0.5569   0.5607   0.5640
     0.5647   0.5659   0.5680   0.5731   0.5733   0.5744   0.5859   0.5865
     0.5876   0.5887   0.5915   0.5945   0.5951   0.6013   0.6245   0.6269
     0.6356   0.6364   0.6375   0.6395   0.6452   0.6452   0.6554   0.6663
     0.6666   0.6677   0.6685   0.6693   0.6695   0.6708   0.6723   0.6834
     0.6840   0.6902   0.6913   0.6933   0.6947   0.6967   0.6987   0.7030
     0.7049   0.7217   0.7545   0.7555   0.7659   0.7664   0.7754   0.7764
     0.7786   0.7787   0.7798   0.7818   0.7884   0.7915   0.7916   0.7925
     0.7936   0.7955   0.8322   0.8343   0.8349   0.8351   0.8448   0.8516
     0.8519   0.8536   0.8541   0.8551   0.8642   0.8744   0.8842   0.8844
     0.8892   0.8915   0.8925   0.8943   0.9434   0.9446   0.9948   0.9957
     1.0012   1.0017   1.0036   1.0051   1.0089   1.0142   1.0193   1.0206
     1.0257   1.0266   1.0280   1.0326   1.0347   1.0354   1.0366   1.0476
     1.0509   1.0512   1.0517   1.0519   1.0570   1.0651   1.0670   1.0739
     1.0756   1.0757   1.0769   1.0774   1.0830   1.0831   1.0864   1.0976
     1.0986   1.0989   1.1006   1.1016   1.1036   1.1040   1.1186   1.1219
     1.1270   1.1332   1.1339   1.1364   1.1403   1.1405   1.1473   1.1480
     1.1490   1.1491   1.1491   1.1523   1.1857   1.1989   1.2043   1.2327
     1.2366   1.2372   1.2502   1.2540   1.2591   1.2623   1.2635   1.2666
     1.2795   1.2808   1.2904   1.2958   1.2983   1.3009   1.3030   1.3051
     1.3061   1.3073   1.3101   1.3103   1.3109   1.3118   1.3123   1.3127
     1.3193   1.3199   1.3254   1.3349   1.3388   1.3405   1.3408   1.3423
     1.3490   1.3502   1.3655   1.3788   1.3792   1.3793   1.3838   1.3842
     1.3872   1.3929   1.3990   1.4060   1.4073   1.4083   1.4105   1.4201
     1.4221   1.4224   1.4240   1.4250   1.4390   1.4416   1.4421   1.4434
     1.4540   1.4608   1.4608   1.4622   1.4786   1.4836   1.4877   1.4883
     1.4895   1.4897   1.4981   1.5022   1.5036   1.5057   1.5114   1.5194
     1.5201   1.5350   1.5358   1.5365   1.5408   1.5543   1.5556   1.5567
     1.5584   1.5600   1.5603   1.5609   1.5615   1.5875   1.5889   1.5966
     1.5970   1.5995   1.6132   1.6163   1.6268   1.6278   1.6286   1.6295
     1.6316   1.6441   1.6459   1.6487   1.6575   1.6908   1.6963   1.7003
     1.7005   1.7963   1.8030   1.8165   1.8275   1.8347   1.8429   1.8441
     1.8730   1.8957   1.8979   1.9026   1.9064   1.9213   1.9225   1.9247
     1.9403   1.9593   1.9656   2.0283   2.2057   2.2502   2.5154   2.5192
     2.5386   2.5391   2.6013   2.6113   2.6681   2.6773   2.6791   2.6802
     2.6917   2.6923   2.8175   2.8191   2.8582   2.8670   2.8933   2.8958
     2.9780   3.0329   3.0361   3.2789   3.2790   3.2872   3.3060   3.5075
     3.5485   3.7736   3.7869   3.8251   4.0420   4.0809   4.1829   4.2117
     4.2233   4.2330   4.4326   4.4380   4.4449   4.4478   4.6050   4.6064
     4.7158   4.8038   4.8414   4.8841   4.8974   5.0352   5.2107   5.2159
     5.2338   5.3966   5.4677   5.4691   5.4714   5.4730   5.5443   5.6879
     5.7196   5.7873   5.8406   5.9326   6.3161   6.4429   6.5133   6.5197
     6.5305   6.5689   6.5749   6.5975   6.6732   6.7308   6.7729   6.7839
     6.9265   6.9311   7.1316   7.1503   7.1697   7.1719   7.1883   7.2142
     7.2282   7.2346   7.2462   7.2516   7.3201   7.4354   7.4566   7.4780
     7.5112   7.5281   7.6108   7.8158   7.8178   7.8585   7.9209   8.2483
     8.2512   8.2590   8.4100   8.4679   8.4694   8.4732   8.4952   8.5233
     8.5397   8.5433   8.5883   8.5904   8.7566   8.8178   8.8229   8.8251
     8.8299   8.8463   8.8608   8.8846   9.0324   9.0569   9.0931   9.1198
     9.1500   9.1844   9.2570   9.2696   9.3302   9.3620   9.3891   9.4746
     9.4776   9.5160   9.5202   9.5245   9.5359   9.5751   9.6024   9.6133
     9.6220   9.6427   9.7761   9.7894   9.8980   9.8994   9.9416   9.9994
    10.0008  10.1383

          k = 0.2500 0.0000 0.0000 (256240 PWs)   bands (ev):

   -20.2699 -18.0222 -16.8557 -16.0021 -15.8250 -15.4510 -15.0127 -14.8712
   -14.7909 -14.7511 -13.9472 -13.8248 -13.5394 -13.1291 -13.0532 -12.9489
   -12.8970 -12.2011 -12.1128 -12.0148 -11.9267 -11.1125 -10.9874 -10.6493
   -10.5486 -10.2981 -10.0222  -9.8216  -9.7442  -9.3306  -9.1340  -9.0691
    -8.6788  -8.3973  -7.7681  -7.5766  -7.5393  -7.3958  -7.3620  -7.3017
    -6.9159  -6.7610  -6.1769  -6.0977  -5.9215  -5.8309  -5.7743  -5.7287
    -5.5588  -5.2530  -5.1994  -5.1940  -5.0908  -4.7857  -4.7460  -4.5092
    -4.4124  -4.3850  -4.3582  -4.3404  -4.3239  -4.2931  -4.1719  -4.1171
    -4.0354  -3.9584  -3.8889  -3.8869  -3.8279  -3.7514  -3.7286  -3.7202
    -3.6287  -3.5333  -3.5109  -3.4481  -3.4307  -3.3969  -3.3166  -3.2910
    -3.2320  -3.1789  -3.1318  -3.1054  -3.0387  -2.9726  -2.9291  -2.8940
    -2.8147  -2.7229  -2.6871  -2.6862  -2.6526  -2.5297  -2.5115  -2.5089
    -2.4768  -2.3203  -2.2885  -2.2428  -2.2332  -2.2040  -2.1079  -1.9878
    -1.9870  -1.9708  -1.9693  -1.9483  -1.9020  -1.8803  -1.8550  -1.7865
    -1.7814  -1.7390  -1.7221  -1.6905  -1.6902  -1.6827  -1.6825  -1.6660
    -1.6624  -1.6351  -1.6199  -1.6079  -1.6035  -1.5806  -1.5539  -1.5377
    -1.5332  -1.4974  -1.4928  -1.4726  -1.4705  -1.4681  -1.4669  -1.4667
    -1.4506  -1.4161  -1.4036  -1.3929  -1.3905  -1.3804  -1.3771  -1.3068
    -1.2614  -1.2243  -1.2202  -1.2020  -1.1603  -1.1569  -1.1389  -1.1338
    -1.1321  -1.1271  -1.1224  -1.1111  -1.0976  -1.0912  -1.0763  -1.0742
    -1.0709  -1.0672  -1.0479  -1.0408  -1.0253  -1.0250  -1.0224  -1.0189
    -1.0137  -1.0023  -1.0000  -0.9916  -0.9679  -0.9637  -0.9398  -0.9389
    -0.9378  -0.9356  -0.9130  -0.9055  -0.9028  -0.8985  -0.8960  -0.8909
    -0.8853  -0.8806  -0.8730  -0.8720  -0.8695  -0.8674  -0.8653  -0.8644
    -0.8631  -0.8534  -0.8369  -0.8344  -0.8281  -0.8151  -0.7921  -0.7912
    -0.7899  -0.7839  -0.7435  -0.7411  -0.7047  -0.7045  -0.6863  -0.6852
    -0.6775  -0.6606  -0.6604  -0.6466  -0.6444  -0.6428  -0.6378  -0.6328
    -0.6272  -0.6124  -0.5479  -0.4975  -0.4928  -0.4885  -0.4833  -0.4588
    -0.4579  -0.4556  -0.4404  -0.4401  -0.4385  -0.4383  -0.4300  -0.4211
    -0.4167  -0.4159  -0.4116  -0.4104  -0.3853  -0.3764  -0.3752  -0.3745
    -0.3719  -0.3707  -0.3622  -0.3507  -0.3505  -0.3471  -0.3388  -0.2895
    -0.2893  -0.2887  -0.2868  -0.2815  -0.2773  -0.2700  -0.2671  -0.2516
    -0.2465  -0.2457  -0.2250  -0.2241  -0.2233  -0.2169  -0.2066  -0.1853
    -0.1850  -0.1805  -0.1803  -0.1719  -0.1706  -0.1613  -0.1605  -0.1545
    -0.1489  -0.1433  -0.1297  -0.1207  -0.1190  -0.0925  -0.0889  -0.0880
    -0.0858  -0.0842  -0.0739  -0.0707  -0.0695  -0.0683  -0.0576  -0.0452
    -0.0430  -0.0420  -0.0300  -0.0268  -0.0128  -0.0029  -0.0018  -0.0002
     0.0094   0.0432   0.0445   0.0475   0.0506   0.0561   0.0716   0.0883
     0.0899   0.0907   0.0963   0.0990   0.1017   0.1029   0.1097   0.1159
     0.1162   0.1168   0.1187   0.1194   0.1233   0.1393   0.1426   0.1430
     0.1439   0.1492   0.1513   0.1671   0.1693   0.1829   0.1888   0.1948
     0.2070   0.2234   0.2243   0.2265   0.2273   0.2301   0.2393   0.2456
     0.2499   0.2512   0.2520   0.2526   0.2589   0.2838   0.2909   0.2992
     0.3395   0.3619   0.3625   0.3653   0.3773   0.3798   0.3805   0.3812
     0.3826   0.3874   0.3923   0.3943   0.3976   0.4004   0.4010   0.4078
     0.4125   0.4159   0.4168   0.4195   0.4257   0.4309   0.4346   0.4384
     0.4426   0.4451   0.4494   0.4656   0.4719   0.4757   0.4978   0.5100
     0.5150   0.5226   0.5318   0.5345   0.5386   0.5519   0.5528   0.5539
     0.5568   0.5688   0.5736   0.5854   0.5891   0.5910   0.5963   0.5975
     0.6015   0.6026   0.6057   0.6066   0.6267   0.6291   0.6362   0.6411
     0.6500   0.6548   0.6586   0.6594   0.6613   0.6627   0.6647   0.6667
     0.6852   0.6898   0.6911   0.6939   0.7027   0.7048   0.7066   0.7099
     0.7185   0.7191   0.7246   0.7274   0.7312   0.7469   0.7484   0.7525
     0.7660   0.7685   0.7697   0.7747   0.7789   0.7818   0.7857   0.8006
     0.8122   0.8151   0.8332   0.8384   0.8501   0.8504   0.8545   0.8565
     0.8587   0.8685   0.8755   0.8803   0.8837   0.8856   0.8888   0.8909
     0.9024   0.9073   0.9132   0.9195   0.9251   0.9328   0.9349   0.9358
     0.9552   0.9635   0.9648   0.9663   0.9681   0.9891   0.9897   0.9992
     1.0018   1.0033   1.0038   1.0052   1.0114   1.0123   1.0134   1.0168
     1.0249   1.0521   1.0571   1.0626   1.0637   1.0646   1.0662   1.0780
     1.0801   1.0987   1.1009   1.1015   1.1032   1.1097   1.1100   1.1126
     1.1257   1.1271   1.1278   1.1280   1.1300   1.1306   1.1334   1.1356
     1.1363   1.1406   1.1410   1.1431   1.1497   1.1526   1.1616   1.1653
     1.1706   1.1719   1.1763   1.1785   1.1798   1.1851   1.1860   1.1998
     1.2008   1.2121   1.2161   1.2166   1.2170   1.2211   1.2273   1.2324
     1.2350   1.2452   1.2464   1.2482   1.2562   1.2624   1.2656   1.2676
     1.2695   1.2752   1.2873   1.2939   1.2988   1.3014   1.3027   1.3350
     1.3415   1.3448   1.3512   1.3543   1.3547   1.3603   1.3623   1.3628
     1.3638   1.3701   1.3715   1.3780   1.3830   1.3863   1.3885   1.3890
     1.4013   1.4079   1.4092   1.4095   1.4123   1.4151   1.4201   1.4231
     1.4238   1.4258   1.4271   1.4329   1.4336   1.4348   1.4422   1.4468
     1.4546   1.4574   1.4608   1.4651   1.4662   1.4671   1.4687   1.4720
     1.4875   1.4892   1.4895   1.4908   1.5121   1.5122   1.5212   1.5227
     1.5262   1.5307   1.5316   1.5327   1.5362   1.5370   1.5396   1.5427
     1.5439   1.5458   1.5500   1.5515   1.5687   1.5725   1.5734   1.5750
     1.5757   1.5788   1.5795   1.5914   1.5921   1.5967   1.6012   1.6040
     1.6151   1.6159   1.6193   1.6234   1.6241   1.6280   1.6503   1.6549
     1.6629   1.6885   1.6903   1.7286   1.7321   1.7358   1.7401   1.7700
     1.7814   1.8521   1.8587   1.8698   1.8733   1.8908   1.8956   1.9090
     1.9364   1.9459   2.1399   2.1484   2.1787   2.1882   2.1970   2.1994
     2.2999   2.3609   2.3712   2.6600   2.6716   2.6737   2.6772   2.8455
     3.0850   3.0853   3.1211   3.3020   3.3034   3.3275   3.3276   3.3764
     3.3979   3.5642   3.5883   3.6743   3.6976   3.7227   3.7431   3.7788
     3.8135   3.8249   3.8300   3.8441   3.9508   3.9843   3.9932   4.0846
     4.0886   4.2778   4.3059   4.3156   4.3882   4.4583   4.5028   4.6165
     4.8372   4.8825   4.9302   4.9894   5.2784   5.2942   5.3291   5.3332
     5.3442   5.4306   5.5267   5.5798   5.5901   5.6109   5.6805   5.7049
     5.7320   5.7430   5.7956   5.8169   5.8449   5.8600   5.9441   5.9459
     6.0856   6.1179   6.1223   6.1413   6.1915   6.3523   6.6680   6.8038
     6.8084   6.8252   6.8590   6.8830   6.9204   6.9887   7.0373   7.1273
     7.1513   7.1589   7.1628   7.1775   7.2736   7.3601   7.3769   7.4173
     7.4389   7.5485   7.6276   7.6445   7.6669   7.6844   7.8672   7.8913
     7.9073   8.0194   8.0846   8.1142   8.1254   8.1604   8.1980   8.2514
     8.3325   8.3622   8.3991   8.4215   8.4217   8.4942   8.5187   8.5418
     8.5551   8.7518   8.7558   8.7833   9.0334   9.0574   9.0622   9.0663
     9.0910   9.2408   9.2526   9.2880   9.3038   9.3219   9.3488   9.3664
     9.3825   9.4058   9.4491   9.5254   9.5301   9.5525   9.5578   9.6136
     9.6638   9.7462   9.8193   9.8305   9.8544   9.8883   9.9134   9.9683
    10.0619  10.1075

          k = 0.2500-0.2165 0.0000 (256316 PWs)   bands (ev):

   -20.2699 -18.0222 -16.8548 -16.0600 -15.6947 -15.3996 -15.2649 -15.0733
   -14.5603 -14.4318 -14.0865 -13.9770 -13.5030 -13.1509 -13.1091 -13.0189
   -12.6218 -12.5344 -12.0542 -11.8681 -11.3421 -11.3060 -11.1646 -10.9735
   -10.7851 -10.5044  -9.7971  -9.6840  -9.2886  -9.1217  -8.9888  -8.9206
    -8.6655  -8.4744  -8.3733  -8.2996  -8.1661  -7.0810  -6.8451  -6.6217
    -6.5092  -6.4436  -6.3340  -6.3041  -6.2123  -5.9567  -5.9056  -5.6129
    -5.5955  -5.5151  -5.2676  -5.0585  -4.9138  -4.7936  -4.7058  -4.6093
    -4.5648  -4.5528  -4.4018  -4.3091  -4.2692  -4.2374  -4.2286  -4.2072
    -4.0877  -4.0525  -4.0182  -3.9547  -3.8516  -3.7238  -3.6445  -3.6119
    -3.4999  -3.4609  -3.4248  -3.3798  -3.3471  -3.3457  -3.2950  -3.1994
    -3.1680  -3.1203  -3.0582  -3.0281  -2.9753  -2.8869  -2.8414  -2.8204
    -2.8036  -2.7975  -2.7946  -2.7823  -2.7199  -2.6476  -2.5365  -2.4949
    -2.4603  -2.3285  -2.2055  -2.2044  -2.1947  -2.1504  -2.0778  -2.0664
    -2.0571  -2.0569  -2.0100  -1.9819  -1.8990  -1.8983  -1.8787  -1.8596
    -1.8518  -1.8292  -1.7505  -1.7226  -1.7107  -1.7016  -1.7010  -1.6600
    -1.6380  -1.6369  -1.6203  -1.6116  -1.6003  -1.5968  -1.5877  -1.5826
    -1.5704  -1.5657  -1.5656  -1.5650  -1.5570  -1.5556  -1.5360  -1.4743
    -1.4667  -1.3588  -1.3574  -1.3076  -1.2544  -1.2535  -1.2365  -1.2199
    -1.2184  -1.1774  -1.1676  -1.1655  -1.1518  -1.1517  -1.1457  -1.1387
    -1.1349  -1.1294  -1.1228  -1.1148  -1.1126  -1.1063  -1.0996  -1.0958
    -1.0911  -1.0863  -1.0828  -1.0779  -1.0700  -1.0557  -1.0223  -1.0207
    -1.0187  -1.0098  -1.0073  -1.0029  -1.0024  -0.9902  -0.9728  -0.9670
    -0.9346  -0.9296  -0.9290  -0.9233  -0.9177  -0.9119  -0.8990  -0.8856
    -0.8852  -0.8682  -0.8592  -0.8511  -0.8497  -0.8459  -0.8451  -0.8428
    -0.8373  -0.8159  -0.8132  -0.8111  -0.7992  -0.7879  -0.7746  -0.7630
    -0.7516  -0.7507  -0.7506  -0.7157  -0.6733  -0.6699  -0.6654  -0.6599
    -0.6584  -0.6559  -0.6149  -0.6099  -0.6055  -0.6025  -0.6017  -0.5949
    -0.5932  -0.5853  -0.5816  -0.5664  -0.5460  -0.5412  -0.5200  -0.5034
    -0.4993  -0.4689  -0.4594  -0.4540  -0.4524  -0.4518  -0.4423  -0.4251
    -0.4226  -0.4173  -0.4028  -0.3925  -0.3902  -0.3831  -0.3782  -0.3768
    -0.3542  -0.3488  -0.3432  -0.3384  -0.3370  -0.3260  -0.3230  -0.3103
    -0.2987  -0.2984  -0.2865  -0.2832  -0.2807  -0.2718  -0.2645  -0.2581
    -0.2566  -0.2534  -0.2526  -0.2466  -0.2460  -0.2419  -0.2410  -0.2278
    -0.2218  -0.2189  -0.2070  -0.2069  -0.1813  -0.1753  -0.1641  -0.1599
    -0.1478  -0.1444  -0.1300  -0.1297  -0.1223  -0.1156  -0.1092  -0.1079
    -0.1071  -0.0982  -0.0720  -0.0660  -0.0463  -0.0459  -0.0097  -0.0082
     0.0015   0.0020   0.0028   0.0064   0.0103   0.0218   0.0221   0.0400
     0.0407   0.0439   0.0517   0.0540   0.0588   0.0655   0.0691   0.0717
     0.0733   0.0751   0.0915   0.0993   0.1015   0.1051   0.1069   0.1084
     0.1097   0.1121   0.1125   0.1151   0.1178   0.1187   0.1405   0.1409
     0.1415   0.1418   0.1739   0.1754   0.1774   0.1833   0.1846   0.1903
     0.1991   0.2101   0.2140   0.2253   0.2316   0.2404   0.2410   0.2480
     0.2561   0.2605   0.2608   0.2617   0.2705   0.2761   0.2815   0.2860
     0.2872   0.3119   0.3167   0.3418   0.3759   0.3792   0.3840   0.3849
     0.3911   0.3914   0.3950   0.3963   0.4030   0.4047   0.4076   0.4092
     0.4179   0.4255   0.4273   0.4317   0.4377   0.4383   0.4407   0.4441
     0.4488   0.4530   0.4710   0.4834   0.4900   0.4911   0.4999   0.5037
     0.5093   0.5139   0.5377   0.5509   0.5546   0.5572   0.5634   0.5643
     0.5655   0.5798   0.5813   0.5816   0.5843   0.5883   0.5892   0.5918
     0.5946   0.5967   0.6117   0.6200   0.6242   0.6291   0.6300   0.6426
     0.6450   0.6727   0.6770   0.6780   0.6794   0.6809   0.7064   0.7135
     0.7146   0.7161   0.7179   0.7204   0.7220   0.7230   0.7341   0.7350
     0.7368   0.7413   0.7451   0.7486   0.7516   0.7633   0.7643   0.7694
     0.7771   0.7782   0.7803   0.7804   0.7866   0.7888   0.7948   0.7967
     0.7978   0.8003   0.8095   0.8180   0.8195   0.8206   0.8256   0.8264
     0.8277   0.8304   0.8312   0.8321   0.8627   0.8659   0.8750   0.8777
     0.8931   0.8973   0.9075   0.9167   0.9324   0.9327   0.9335   0.9354
     0.9366   0.9394   0.9409   0.9589   0.9626   0.9630   0.9636   0.9640
     0.9657   0.9675   0.9776   0.9861   0.9934   0.9940   1.0021   1.0053
     1.0095   1.0145   1.0221   1.0375   1.0376   1.0434   1.0623   1.0639
     1.0662   1.0710   1.0725   1.0747   1.0754   1.0769   1.0880   1.1005
     1.1113   1.1123   1.1198   1.1263   1.1282   1.1396   1.1450   1.1467
     1.1585   1.1662   1.1714   1.1744   1.1889   1.1899   1.1954   1.1969
     1.1977   1.1995   1.2008   1.2011   1.2025   1.2062   1.2137   1.2148
     1.2166   1.2256   1.2267   1.2284   1.2429   1.2466   1.2622   1.2690
     1.2744   1.2760   1.2812   1.2828   1.2846   1.2858   1.2881   1.2946
     1.2970   1.2984   1.3012   1.3029   1.3063   1.3108   1.3123   1.3139
     1.3164   1.3205   1.3275   1.3321   1.3325   1.3330   1.3339   1.3350
     1.3440   1.3477   1.3531   1.3544   1.3601   1.3779   1.3789   1.3858
     1.3875   1.4014   1.4036   1.4062   1.4075   1.4179   1.4191   1.4220
     1.4303   1.4318   1.4361   1.4396   1.4406   1.4432   1.4456   1.4539
     1.4565   1.4570   1.4577   1.4684   1.4689   1.4785   1.4840   1.4902
     1.4905   1.4916   1.4939   1.4949   1.4975   1.5011   1.5015   1.5135
     1.5142   1.5151   1.5188   1.5258   1.5292   1.5329   1.5351   1.5448
     1.5457   1.5467   1.5468   1.5529   1.5530   1.5533   1.5560   1.5592
     1.5624   1.5627   1.5866   1.5870   1.5885   1.5918   1.6001   1.6091
     1.6119   1.6296   1.6324   1.6349   1.6377   1.6568   1.6588   1.6639
     1.6675   1.6719   1.6935   1.6950   1.7427   1.7590   1.7736   1.7756
     1.8174   1.8612   1.8636   1.8776   1.8843   1.8941   1.8964   1.8987
     1.9018   1.9305   1.9447   1.9654   2.2336   2.2350   2.2657   2.2679
     2.3860   2.4019   2.6077   2.6925   2.7020   2.8881   2.8999   2.9000
     2.9062   2.9095   2.9280   2.9457   2.9560   3.0898   3.0935   3.1704
     3.2060   3.6242   3.6577   3.7105   3.7210   3.7665   3.8077   3.9421
     3.9501   3.9514   3.9558   4.0861   4.1050   4.1520   4.1751   4.2584
     4.2720   4.3227   4.4674   4.4822   4.4866   4.6210   4.6600   4.6631
     4.7728   4.7813   4.7904   4.8422   5.0215   5.0468   5.0900   5.1229
     5.1679   5.1866   5.3488   5.4129   5.4559   5.5135   5.5436   5.5550
     5.5693   5.5743   5.6434   5.8556   5.8760   5.9552   6.0005   6.0113
     6.0343   6.0915   6.2747   6.5044   6.6780   6.7095   6.7356   6.7450
     6.8575   6.8661   6.9688   6.9843   7.0663   7.1403   7.1851   7.1926
     7.2060   7.2165   7.2448   7.3064   7.3303   7.3408   7.3991   7.4176
     7.4467   7.4609   7.4682   7.5033   7.5488   7.5513   7.7554   7.7972
     7.8741   7.9057   7.9795   8.0512   8.1108   8.1496   8.2994   8.3114
     8.3390   8.3863   8.4012   8.4912   8.6493   8.6954   8.6959   8.7011
     8.7446   8.7479   8.8179   8.8200   8.8822   8.9450   9.0268   9.0399
     9.0437   9.0605   9.0976   9.2345   9.2495   9.2797   9.2883   9.3009
     9.3078   9.3431   9.3545   9.3779   9.3860   9.4111   9.4399   9.4826
     9.5316   9.5502   9.5565   9.6971   9.7055   9.8436   9.9902  10.0161
    10.0396  10.0643

          k =-0.5000 0.0000 0.0000 (256496 PWs)   bands (ev):

   -20.2698 -18.0220 -16.7804 -15.8292 -15.6222 -15.4825 -15.4594 -15.4300
   -14.6476 -14.4908 -14.3687 -14.3343 -13.0170 -12.8072 -12.6121 -12.5521
   -12.2650 -12.2066 -11.7954 -11.7666 -11.6755 -11.6551 -11.1086 -11.0686
   -11.0008 -10.6081 -10.1872 -10.1447  -9.8291  -9.6103  -9.1985  -9.0015
    -8.8229  -8.7667  -8.4372  -7.6062  -7.4472  -7.3742  -7.2664  -7.2107
    -7.2027  -6.0671  -6.0143  -5.6971  -5.6442  -5.1985  -5.1922  -5.1208
    -4.9457  -4.8421  -4.7374  -4.7028  -4.6927  -4.6921  -4.6852  -4.6710
    -4.5990  -4.5580  -4.5529  -4.5294  -4.4707  -4.3916  -4.3164  -4.2866
    -4.2499  -4.2265  -4.1512  -3.9799  -3.9050  -3.8955  -3.8640  -3.8571
    -3.6930  -3.6470  -3.5253  -3.4496  -3.4418  -3.4231  -3.3326  -3.3133
    -3.3079  -3.3076  -3.3035  -3.2503  -3.2433  -3.2258  -3.2128  -3.0753
    -2.8134  -2.7649  -2.7232  -2.6921  -2.6482  -2.6431  -2.5847  -2.5553
    -2.5045  -2.4927  -2.4410  -2.3284  -2.2962  -2.2454  -2.1924  -2.1892
    -2.1874  -2.1783  -1.8308  -1.7677  -1.7674  -1.7673  -1.7658  -1.7655
    -1.7641  -1.7044  -1.6810  -1.6460  -1.6422  -1.6331  -1.5934  -1.5405
    -1.5398  -1.5395  -1.5367  -1.4916  -1.4906  -1.4897  -1.4892  -1.4538
    -1.3931  -1.3858  -1.3780  -1.3768  -1.3512  -1.3427  -1.3184  -1.3147
    -1.3146  -1.3109  -1.3100  -1.2965  -1.2951  -1.2474  -1.2468  -1.2424
    -1.2402  -1.2327  -1.2319  -1.2304  -1.2283  -1.2253  -1.2191  -1.1821
    -1.1815  -1.1802  -1.1782  -1.1576  -1.1570  -1.1569  -1.1562  -1.0943
    -1.0937  -1.0794  -1.0737  -1.0717  -1.0710  -1.0705  -1.0455  -1.0439
    -1.0406  -1.0384  -1.0381  -1.0353  -1.0195  -0.9972  -0.9970  -0.9962
    -0.9957  -0.9802  -0.9749  -0.9735  -0.9456  -0.9451  -0.8996  -0.8986
    -0.8716  -0.8709  -0.8694  -0.8671  -0.8665  -0.8654  -0.8425  -0.8412
    -0.8401  -0.8365  -0.8328  -0.8310  -0.8238  -0.8219  -0.8186  -0.8173
    -0.8138  -0.7931  -0.7928  -0.7475  -0.7311  -0.7293  -0.7272  -0.7264
    -0.6848  -0.6841  -0.6011  -0.6005  -0.5999  -0.5992  -0.5735  -0.5636
    -0.5634  -0.5616  -0.5610  -0.5609  -0.5599  -0.5520  -0.5400  -0.5257
    -0.5214  -0.5197  -0.5156  -0.5114  -0.5058  -0.4945  -0.4893  -0.4884
    -0.4818  -0.4621  -0.4165  -0.4003  -0.3951  -0.3620  -0.3611  -0.3522
    -0.3470  -0.3467  -0.3465  -0.3269  -0.3117  -0.3011  -0.2982  -0.2974
    -0.2971  -0.2947  -0.2924  -0.2663  -0.2630  -0.2590  -0.2582  -0.2578
    -0.2572  -0.2324  -0.2199  -0.2195  -0.2185  -0.2183  -0.1858  -0.1857
    -0.1852  -0.1850  -0.1738  -0.1733  -0.1624  -0.1410  -0.1410  -0.1385
    -0.1379  -0.1320  -0.1253  -0.1104  -0.0987  -0.0966  -0.0897  -0.0334
    -0.0275  -0.0261  -0.0258  -0.0238  -0.0200  -0.0187  -0.0177  -0.0160
     0.0200   0.0205   0.0241   0.0271   0.0572   0.0578   0.0787   0.0834
     0.0837   0.0851   0.0861   0.0863   0.0870   0.0887   0.0895   0.0907
     0.0910   0.0927   0.0944   0.1478   0.1664   0.1687   0.1733   0.1752
     0.1759   0.1789   0.1808   0.1822   0.1830   0.1855   0.1866   0.1891
     0.1906   0.1913   0.1949   0.1958   0.1982   0.2014   0.2084   0.2085
     0.2241   0.2245   0.2278   0.2281   0.2284   0.2286   0.2367   0.2374
     0.2376   0.2377   0.2500   0.2507   0.2609   0.2626   0.2627   0.2635
     0.2647   0.2732   0.2921   0.2943   0.3061   0.3558   0.3788   0.3938
     0.3947   0.3971   0.3974   0.4115   0.4274   0.4283   0.4285   0.4308
     0.4412   0.4417   0.4443   0.4479   0.4510   0.4518   0.4559   0.4561
     0.4574   0.4575   0.4662   0.4667   0.4684   0.4719   0.4763   0.4834
     0.4854   0.4878   0.4917   0.4967   0.4980   0.5060   0.5063   0.5066
     0.5133   0.5164   0.5384   0.5586   0.5956   0.5983   0.6024   0.6034
     0.6119   0.6157   0.6247   0.6302   0.6338   0.6349   0.6356   0.6395
     0.6411   0.6415   0.6435   0.6437   0.6448   0.6472   0.6497   0.6499
     0.6526   0.6555   0.6567   0.6577   0.6722   0.6774   0.6834   0.6936
     0.6936   0.7107   0.7191   0.7231   0.7276   0.7290   0.7293   0.7333
     0.7406   0.7406   0.7416   0.7435   0.7439   0.7482   0.7553   0.7609
     0.7617   0.7621   0.7759   0.7779   0.7797   0.7808   0.8107   0.8131
     0.8152   0.8165   0.8210   0.8248   0.8318   0.8364   0.8415   0.8627
     0.8687   0.8745   0.8759   0.8764   0.8769   0.8779   0.8806   0.9224
     0.9401   0.9445   0.9459   0.9491   0.9495   0.9500   0.9526   0.9551
     0.9575   0.9614   0.9632   0.9634   0.9653   0.9753   0.9758   0.9926
     0.9949   0.9962   0.9979   1.0131   1.0144   1.0152   1.0156   1.0162
     1.0171   1.0177   1.0482   1.0552   1.0562   1.0571   1.0601   1.1124
     1.1212   1.1218   1.1226   1.1233   1.1377   1.1555   1.1560   1.1562
     1.1576   1.1647   1.1754   1.1755   1.1856   1.1860   1.1883   1.1975
     1.2006   1.2102   1.2179   1.2202   1.2229   1.2251   1.2258   1.2267
     1.2327   1.2334   1.2337   1.2361   1.2435   1.2438   1.2451   1.2452
     1.2466   1.2469   1.2485   1.2500   1.2620   1.2847   1.2848   1.2850
     1.2854   1.2974   1.3129   1.3173   1.3194   1.3213   1.3222   1.3234
     1.3251   1.3395   1.3411   1.3495   1.3501   1.3507   1.3509   1.3598
     1.3617   1.3620   1.3629   1.3672   1.3684   1.3813   1.3846   1.3897
     1.4076   1.4085   1.4167   1.4227   1.4231   1.4232   1.4236   1.4238
     1.4243   1.4246   1.4349   1.4373   1.4382   1.4391   1.4400   1.4402
     1.4414   1.4417   1.4462   1.4490   1.4507   1.4510   1.4512   1.4517
     1.4581   1.4582   1.4670   1.4726   1.4738   1.4928   1.4948   1.4978
     1.4989   1.4993   1.5009   1.5019   1.5023   1.5188   1.5204   1.5231
     1.5235   1.5376   1.5379   1.5450   1.5450   1.5569   1.5572   1.5574
     1.5579   1.5759   1.5763   1.5798   1.5809   1.5860   1.5870   1.5874
     1.5879   1.5881   1.5945   1.6027   1.6072   1.6090   1.6159   1.6211
     1.6216   1.6219   1.6222   1.6328   1.6373   1.6398   1.6824   1.6866
     1.6886   1.7142   1.7150   1.7185   1.7203   1.7436   2.1330   2.1389
     2.1423   2.1437   2.3326   2.3464   2.3597   2.3660   2.3908   2.3931
     2.4000   2.4005   2.6240   2.7246   2.7274   2.7372   2.7517   2.9387
     2.9403   2.9450   2.9635   3.2927   3.2934   3.2937   3.2975   3.5705
     3.5813   3.8393   3.8683   3.8707   3.8714   4.0183   4.0291   4.0368
     4.0399   4.1220   4.1759   4.1798   4.1858   4.2208   4.3014   4.3049
     4.5163   4.6071   4.7955   4.8518   4.8549   4.8676   4.8762   4.9343
     4.9348   4.9634   4.9978   5.1262   5.1270   5.1318   5.1498   5.1574
     5.1582   5.1658   5.1819   5.1869   5.1990   5.2095   5.2435   5.2660
     5.5281   5.6014   5.6392   5.6433   5.7000   5.7944   5.7991   5.8624
     5.9694   6.0918   6.0978   6.1164   6.1336   6.1392   6.1540   6.1588
     6.1740   6.3573   6.4387   6.5512   6.5593   6.5753   6.5876   6.6089
     6.6877   7.1849   7.2049   7.2074   7.2281   7.2311   7.2343   7.4615
     7.6672   7.6976   7.6994   7.7104   7.7130   7.7134   7.7228   7.7557
     7.9019   7.9266   7.9650   7.9943   7.9961   8.0019   8.0622   8.1682
     8.1698   8.1728   8.2078   8.2485   8.2571   8.2721   8.3061   8.4446
     8.5489   8.7568   8.7665   8.9133   8.9315   8.9368   8.9430   8.9467
     9.0542   9.0674   9.1196   9.1804   9.1810   9.1876   9.2660   9.3665
     9.3830   9.4755   9.5209   9.5499   9.5665   9.5724   9.5755   9.5893
     9.6256   9.6260   9.6352   9.6424   9.6462   9.6583   9.8318   9.9151
    10.0540  10.1111

          k =-0.5000-0.2165 0.0000 (256328 PWs)   bands (ev):

   -20.2698 -18.0220 -16.7801 -15.7746 -15.6966 -15.6821 -15.2373 -15.0822
   -15.0005 -14.9751 -13.8882 -13.7200 -13.5663 -13.5216 -12.4414 -12.2168
   -11.9498 -11.8708 -11.8519 -11.6083 -11.5300 -11.4467 -11.4036 -11.3885
   -11.2778 -11.2748 -10.0469  -9.8504  -9.6179  -9.5648  -8.9993  -8.9421
    -8.6348  -8.6262  -8.4143  -8.1148  -7.9530  -7.8788  -7.8339  -6.3073
    -6.1213  -6.0263  -5.8043  -5.6729  -5.5625  -5.4234  -5.2227  -5.1761
    -5.1530  -5.0711  -5.0709  -5.0660  -5.0591  -4.9573  -4.8939  -4.8810
    -4.4476  -4.3271  -4.3036  -4.2384  -4.2071  -4.1891  -4.1073  -4.1024
    -4.0869  -4.0858  -4.0779  -4.0562  -4.0343  -3.9302  -3.8128  -3.7737
    -3.7461  -3.6929  -3.6831  -3.6196  -3.5770  -3.5601  -3.5222  -3.4771
    -3.4730  -3.4110  -3.3475  -3.3085  -3.1944  -3.1612  -3.0151  -2.9439
    -2.9083  -2.7179  -2.4718  -2.4679  -2.4675  -2.4670  -2.4500  -2.4287
    -2.4232  -2.4048  -2.4021  -2.3911  -2.2474  -2.1823  -2.1789  -2.0320
    -2.0129  -1.9849  -1.9835  -1.9687  -1.9536  -1.9131  -1.9049  -1.9025
    -1.8971  -1.8494  -1.8368  -1.7082  -1.6934  -1.6925  -1.6903  -1.6871
    -1.6124  -1.5989  -1.4938  -1.4529  -1.3885  -1.3829  -1.3824  -1.3820
    -1.3818  -1.3765  -1.3466  -1.3433  -1.3421  -1.3418  -1.3241  -1.3238
    -1.3203  -1.3202  -1.2762  -1.2751  -1.2747  -1.2746  -1.2724  -1.2717
    -1.2659  -1.2627  -1.2477  -1.2475  -1.2473  -1.2469  -1.2011  -1.1995
    -1.1956  -1.1953  -1.1625  -1.1402  -1.1215  -1.1198  -1.1191  -1.0973
    -1.0817  -1.0815  -1.0787  -1.0785  -1.0612  -1.0609  -1.0594  -1.0509
    -1.0116  -1.0109  -1.0104  -1.0102  -1.0055  -1.0055  -1.0054  -1.0032
    -0.9929  -0.9787  -0.9755  -0.9519  -0.9518  -0.9417  -0.9406  -0.9390
    -0.9346  -0.9343  -0.9284  -0.9269  -0.9253  -0.9248  -0.9242  -0.9227
    -0.9041  -0.8932  -0.8826  -0.7745  -0.7739  -0.7702  -0.7687  -0.7421
    -0.7419  -0.7417  -0.7413  -0.6782  -0.6630  -0.6624  -0.6590  -0.6565
    -0.6538  -0.6521  -0.6519  -0.6512  -0.6501  -0.6484  -0.6401  -0.5922
    -0.5894  -0.5892  -0.5875  -0.5813  -0.5793  -0.5785  -0.5778  -0.5634
    -0.5626  -0.5509  -0.5476  -0.5016  -0.4685  -0.4679  -0.4639  -0.4603
    -0.4569  -0.4545  -0.4510  -0.4160  -0.3894  -0.3890  -0.3875  -0.3856
    -0.3394  -0.3389  -0.3384  -0.3375  -0.3195  -0.3195  -0.3163  -0.3159
    -0.2953  -0.2921  -0.2883  -0.2875  -0.2801  -0.2790  -0.2787  -0.2772
    -0.2493  -0.2393  -0.2373  -0.2325  -0.1669  -0.1667  -0.1605  -0.1600
    -0.1471  -0.1467  -0.1461  -0.1454  -0.1328  -0.1309  -0.1304  -0.1302
    -0.0622  -0.0498  -0.0476  -0.0468  -0.0445  -0.0436  -0.0425  -0.0411
    -0.0409  -0.0398  -0.0394  -0.0387  -0.0042  -0.0034  -0.0032  -0.0026
     0.0066   0.0092   0.0098   0.0099   0.0106   0.0147   0.0150   0.0162
     0.0334   0.0785   0.0828   0.0840   0.0851   0.0887   0.1049   0.1094
     0.1170   0.1183   0.1551   0.1589   0.1619   0.1674   0.1717   0.1777
     0.1874   0.1888   0.1889   0.1895   0.1944   0.1956   0.1962   0.1984
     0.2014   0.2020   0.2046   0.2053   0.2097   0.2098   0.2105   0.2105
     0.2153   0.2156   0.2179   0.2184   0.2324   0.2325   0.2331   0.2335
     0.2594   0.2596   0.2605   0.2605   0.2690   0.2709   0.2714   0.2721
     0.2964   0.3194   0.3201   0.3212   0.3229   0.3470   0.3537   0.3547
     0.3557   0.3615   0.4196   0.4203   0.4327   0.4338   0.4374   0.4377
     0.4406   0.4475   0.4501   0.4515   0.4537   0.4550   0.4593   0.4612
     0.4657   0.4669   0.4719   0.4732   0.4766   0.4771   0.4831   0.4845
     0.4858   0.4880   0.4901   0.4923   0.4957   0.4982   0.5115   0.5426
     0.5577   0.5617   0.5637   0.5661   0.5673   0.5674   0.5722   0.5763
     0.5781   0.5790   0.5796   0.5855   0.6059   0.6125   0.6183   0.6192
     0.6195   0.6212   0.6295   0.6310   0.6430   0.6591   0.6602   0.6664
     0.6692   0.6746   0.6761   0.6763   0.6789   0.6790   0.6809   0.6839
     0.6844   0.6855   0.6888   0.6898   0.6980   0.7019   0.7033   0.7043
     0.7109   0.7136   0.7199   0.7233   0.7575   0.7803   0.7853   0.7888
     0.7908   0.7924   0.7932   0.7947   0.7952   0.7976   0.8010   0.8020
     0.8045   0.8162   0.8202   0.8246   0.8370   0.8381   0.8388   0.8399
     0.8404   0.8410   0.8420   0.8462   0.8756   0.8915   0.8930   0.8940
     0.8989   0.9197   0.9200   0.9228   0.9231   0.9334   0.9441   0.9499
     0.9554   0.9555   0.9589   0.9611   0.9815   0.9822   0.9839   0.9847
     1.0340   1.0350   1.0355   1.0360   1.0660   1.0665   1.0700   1.0703
     1.0901   1.1082   1.1181   1.1219   1.1229   1.1276   1.1349   1.1367
     1.1403   1.1476   1.1483   1.1487   1.1491   1.1530   1.1533   1.1535
     1.1537   1.1557   1.1559   1.1598   1.1605   1.1700   1.1796   1.1844
     1.1849   1.1865   1.1887   1.1899   1.1909   1.1917   1.1940   1.1981
     1.1996   1.2044   1.2086   1.2088   1.2261   1.2291   1.2337   1.2346
     1.2354   1.2419   1.2430   1.2447   1.2505   1.2517   1.2527   1.2536
     1.2915   1.2982   1.3007   1.3017   1.3032   1.3042   1.3071   1.3091
     1.3288   1.3303   1.3308   1.3314   1.3351   1.3472   1.3474   1.3509
     1.3521   1.3600   1.3690   1.3695   1.3782   1.3796   1.3798   1.3808
     1.3871   1.3873   1.3900   1.3909   1.3939   1.3954   1.3959   1.3966
     1.4212   1.4602   1.4614   1.4619   1.4620   1.4630   1.4631   1.4634
     1.4635   1.4693   1.4707   1.4740   1.4742   1.4801   1.4811   1.4817
     1.4846   1.4883   1.4903   1.4933   1.4938   1.4945   1.4983   1.5001
     1.5019   1.5028   1.5045   1.5048   1.5055   1.5147   1.5156   1.5167
     1.5236   1.5247   1.5253   1.5259   1.5565   1.5570   1.5572   1.5576
     1.5705   1.5728   1.5738   1.5739   1.5798   1.5863   1.5893   1.5928
     1.6013   1.6099   1.6102   1.6107   1.6324   1.6631   1.6637   1.6662
     1.6807   1.6811   1.6814   1.6826   1.7087   1.7116   1.7117   1.7146
     1.7184   1.7204   1.7208   1.7217   1.7245   1.7246   1.7262   1.7268
     1.9406   1.9434   1.9438   1.9448   2.4137   2.4443   2.4642   2.4667
     2.5259   2.6675   2.6696   2.6710   2.6721   2.8994   2.9058   2.9076
     2.9262   3.1924   3.2039   3.2068   3.2093   3.5619   3.5625   3.5626
     3.5655   3.7308   3.7468   3.7572   3.7575   4.0345   4.0369   4.0389
     4.0401   4.3186   4.3337   4.3366   4.3392   4.3685   4.4301   4.4673
     4.4689   4.5042   4.6423   4.6662   4.6691   4.6771   4.6889   4.6981
     4.7107   4.8201   4.9033   4.9921   5.0052   5.1033   5.1377   5.1797
     5.2492   5.2743   5.2758   5.2857   5.3013   5.3612   5.3873   5.4106
     5.4430   5.4566   5.4658   5.4707   5.5286   5.6907   5.8124   5.8484
     5.8570   5.8577   5.8616   5.8658   5.9291   5.9890   6.0276   6.0310
     6.3497   6.8403   6.8615   6.9037   6.9285   6.9342   7.2061   7.2123
     7.2514   7.2555   7.2621   7.2637   7.2690   7.2959   7.3874   7.3954
     7.4072   7.4314   7.4749   7.4771   7.4786   7.4852   7.6128   7.7310
     7.7327   7.7444   7.7730   7.8138   8.0404   8.0915   8.0944   8.0991
     8.1048   8.1647   8.3376   8.3443   8.3522   8.3660   8.3688   8.4531
     8.5293   8.9509   8.9863   8.9907   8.9970   9.0022   9.0196   9.0367
     9.0394   9.0559   9.0763   9.0780   9.0799   9.0878   9.1457   9.1720
     9.2073   9.2128   9.2305   9.3651   9.4104   9.5319   9.6237   9.6349
     9.6657   9.6744   9.6775   9.6949   9.7013   9.7058   9.9014   9.9299
    10.0168  10.0540

     the Fermi energy is     3.4298 ev

!    total energy              =  -12783.41511566 Ry
     Harris-Foulkes estimate   =  -12783.41511563 Ry
     estimated scf accuracy    <          2.2E-09 Ry

     The total energy is the sum of the following terms:

     one-electron contribution = -107447.59753406 Ry
     hartree contribution      =   55098.14623207 Ry
     xc contribution           =   -4465.85381830 Ry
     ewald contribution        =   44038.26846873 Ry
     Dispersion Correction     =      -3.01374636 Ry
     smearing contrib. (-TS)   =      -3.36471774 Ry

     convergence has been achieved in  45 iterations

     Writing output data file gc.save
 
     init_run     :    101.95s CPU    109.20s WALL (       1 calls)
     electrons    :  12703.77s CPU  13573.88s WALL (       1 calls)

     Called by init_run:
     wfcinit      :     99.41s CPU    106.28s WALL (       1 calls)
     potinit      :      0.48s CPU      0.52s WALL (       1 calls)

     Called by electrons:
     c_bands      :  11669.68s CPU  12436.44s WALL (      45 calls)
     sum_band     :    842.02s CPU    915.82s WALL (      45 calls)
     v_of_rho     :      2.95s CPU      3.68s WALL (      46 calls)
     newd         :      9.43s CPU     15.39s WALL (      46 calls)
     mix_rho      :    179.53s CPU    202.49s WALL (      45 calls)

     Called by c_bands:
     init_us_2    :     37.89s CPU     38.50s WALL (     546 calls)
     cegterg      :  11500.74s CPU  12261.57s WALL (     276 calls)

     Called by sum_band:
     sum_band:bec :      4.78s CPU      5.43s WALL (     270 calls)
     addusdens    :      9.40s CPU     15.48s WALL (      45 calls)

     Called by *egterg:
     h_psi        :   4163.94s CPU   4504.80s WALL (    1960 calls)
     s_psi        :   1021.41s CPU   1032.98s WALL (    1960 calls)
     g_psi        :     10.50s CPU     10.52s WALL (    1678 calls)
     cdiaghg      :   3457.82s CPU   3590.11s WALL (    1948 calls)

     Called by h_psi:
     add_vuspsi   :   1026.65s CPU   1040.08s WALL (    1960 calls)

     General routines
     calbec       :   1425.08s CPU   1435.29s WALL (    2230 calls)
     fft          :      3.85s CPU      4.43s WALL (     597 calls)
     ffts         :    104.85s CPU    118.61s WALL (   27396 calls)
     fftw         :   2387.89s CPU   2665.91s WALL ( 1320866 calls)
     davcio       :      0.24s CPU      3.58s WALL (       6 calls)
 
     Parallel routines
     fft_scatter  :   1564.63s CPU   1717.26s WALL ( 1348859 calls)
 
     PWSCF        :     3h33m CPU        3h48m WALL

 
   This run was terminated on:  14:40:14  12May2017            

=------------------------------------------------------------------------------=
   JOB DONE.
=------------------------------------------------------------------------------=
