
     Program PWSCF v.5.4.0 starts on  7Dec2016 at 20:50:26 

     This program is part of the open-source Quantum ESPRESSO suite
     for quantum simulation of materials; please cite
         "P. Giannozzi et al., J. Phys.:Condens. Matter 21 395502 (2009);
          URL http://www.quantum-espresso.org", 
     in publications or presentations arising from this work. More details at
     http://www.quantum-espresso.org/quote

     Parallel version (MPI & OpenMP), running on      64 processor cores
     Number of MPI processes:                64
     Threads/MPI process:                     1
     R & G space division:  proc/nbgrp/npool/nimage =      64
     Waiting for input...
     Reading input from standard input

     Current dimensions of program PWSCF are:
     Max number of different atomic species (ntypx) = 10
     Max number of k-points (npk) =  40000
     Max angular momentum in pseudopotentials (lmaxx) =  3

     -------------------------------------
     Parameters for Dispersion Correction:
     -------------------------------------
       atom      VdW radius       C_6     

        Cu         2.952        374.666
        C          2.744         60.710

     Subspace diagonalization in iterative solution of the eigenvalue problem:
     one sub-group per band group will be used
     scalapack distributed-memory algorithm (size of sub-group:  5*  5 procs)

 
     Parallelization info
     --------------------
     sticks:   dense  smooth     PW     G-vecs:    dense   smooth      PW
     Min         178     178     47                32032    32032    4341
     Max         179     179     48                32043    32043    4347
     Sum       11433   11433   3039              2050409  2050409  278033
 


     bravais-lattice index     =            0
     lattice parameter (alat)  =      13.9425  a.u.
     unit-cell volume          =   21209.0878 (a.u.)^3
     number of atoms/cell      =          148
     number of atomic types    =            2
     number of electrons       =      1292.00
     number of Kohn-Sham states=          775
     kinetic-energy cutoff     =      80.0000  Ry
     charge density cutoff     =     320.0000  Ry
     convergence threshold     =      1.0E-08
     mixing beta               =       0.7000
     number of iterations used =            8  local-TF  mixing
     Exchange-correlation      =  SLA  PW   PBX  PBC ( 1  4  3  4 0 0)
     nstep                     =           50


     celldm(1)=  13.942539  celldm(2)=   0.000000  celldm(3)=   0.000000
     celldm(4)=   0.000000  celldm(5)=   0.000000  celldm(6)=   0.000000

     crystal axes: (cart. coord. in units of alat)
               a(1) = (   1.000000   0.000000   0.000000 )  
               a(2) = (   0.000000   2.309401   0.000000 )  
               a(3) = (   0.000000   0.000000   3.388418 )  

     reciprocal axes: (cart. coord. in units 2 pi/alat)
               b(1) = (  1.000000  0.000000  0.000000 )  
               b(2) = (  0.000000  0.433013  0.000000 )  
               b(3) = (  0.000000  0.000000  0.295123 )  


     PseudoPot. # 1 for Cu read from file:
     /home/549/hxw549/Short/pseudopotentials/Cu.pbe-n-van_ak.UPF
     MD5 check sum: 601f7c30f7467666bec936e0661ce3e1
     Pseudo is Ultrasoft + core correction, Zval = 11.0
     Generated by new atomic code, or converted to UPF format
     Using radial grid of  867 points,  6 beta functions with: 
                l(1) =   0
                l(2) =   0
                l(3) =   1
                l(4) =   1
                l(5) =   2
                l(6) =   2
     Q(r) pseudized with  8 coefficients,  rinner =    1.400   1.400   1.400
                                                       1.400   1.400

     PseudoPot. # 2 for C  read from file:
     /home/549/hxw549/Short/pseudopotentials/C.pbe-mt_gipaw.UPF
     MD5 check sum: 5ac2f21f2c440b14befe521540822c15
     Pseudo is Norm-conserving, Zval =  4.0
     Generated by new atomic code, or converted to UPF format
     Using radial grid of 1073 points,  1 beta functions with: 
                l(1) =   0

     atomic species   valence    mass     pseudopotential
        Cu            11.00    63.54600     Cu( 1.00)
        C              4.00    12.01070     C ( 1.00)

      2 Sym. Ops. (no inversion) found



   Cartesian axes

     site n.     atom                  positions (alat units)
         1           Cu  tau(   1) = (   0.0000000   0.0000653   0.9968651  )
         2           Cu  tau(   2) = (   0.2499900   0.2309829   0.9969977  )
         3           Cu  tau(   3) = (   0.5000000   0.0000397   0.9968884  )
         4           Cu  tau(   4) = (   0.7500100   0.2309829   0.9969977  )
         5           Cu  tau(   5) = (   0.0000000   0.4618412   0.9970578  )
         6           Cu  tau(   6) = (   0.2499829   0.6927646   0.9969191  )
         7           Cu  tau(   7) = (   0.5000000   0.4618736   0.9969826  )
         8           Cu  tau(   8) = (   0.7500171   0.6927646   0.9969191  )
         9           Cu  tau(   9) = (   0.0000000   0.9237510   0.9968177  )
        10           Cu  tau(  10) = (   0.2500185   1.1547467   0.9968753  )
        11           Cu  tau(  11) = (   0.5000000   0.9237413   0.9968310  )
        12           Cu  tau(  12) = (   0.7499815   1.1547467   0.9968753  )
        13           Cu  tau(  13) = (   0.0000000   1.3856591   0.9969611  )
        14           Cu  tau(  14) = (   0.2500047   1.6165576   0.9970165  )
        15           Cu  tau(  15) = (   0.5000000   1.3857095   0.9970150  )
        16           Cu  tau(  16) = (   0.7499953   1.6165576   0.9970165  )
        17           Cu  tau(  17) = (   0.0000000   1.8474864   0.9969150  )
        18           Cu  tau(  18) = (   0.2500021   2.0784506   0.9968277  )
        19           Cu  tau(  19) = (   0.5000000   1.8474369   0.9969086  )
        20           Cu  tau(  20) = (   0.7499979   2.0784506   0.9968277  )
        21           Cu  tau(  21) = (   0.0000000   0.2308192   1.2453255  )
        22           Cu  tau(  22) = (   0.2500045  -0.0000890   1.2451540  )
        23           Cu  tau(  23) = (   0.5000000   0.2309028   1.2452571  )
        24           Cu  tau(  24) = (   0.7499955  -0.0000890   1.2451540  )
        25           Cu  tau(  25) = (   0.0000000   0.6929674   1.2452101  )
        26           Cu  tau(  26) = (   0.2499965   0.4619208   1.2453131  )
        27           Cu  tau(  27) = (   0.5000000   0.6928831   1.2451903  )
        28           Cu  tau(  28) = (   0.7500035   0.4619208   1.2453131  )
        29           Cu  tau(  29) = (   0.0000000   1.1546447   1.2451531  )
        30           Cu  tau(  30) = (   0.2500047   0.9237853   1.2450940  )
        31           Cu  tau(  31) = (   0.5000000   1.1545823   1.2451513  )
        32           Cu  tau(  32) = (   0.7499953   0.9237853   1.2450940  )
        33           Cu  tau(  33) = (   0.0000000   1.6165961   1.2452698  )
        34           Cu  tau(  34) = (   0.2500082   1.3855627   1.2452822  )
        35           Cu  tau(  35) = (   0.5000000   1.6166425   1.2453604  )
        36           Cu  tau(  36) = (   0.7499918   1.3855627   1.2452822  )
        37           Cu  tau(  37) = (   0.0000000   2.0784760   1.2451012  )
        38           Cu  tau(  38) = (   0.2500009   1.8476225   1.2451977  )
        39           Cu  tau(  39) = (   0.5000000   2.0784916   1.2451013  )
        40           Cu  tau(  40) = (   0.7499991   1.8476225   1.2451977  )
        41           Cu  tau(  41) = (   0.0000000  -0.0002680   1.4949626  )
        42           Cu  tau(  42) = (   0.2500513   0.2307459   1.4947309  )
        43           Cu  tau(  43) = (   0.5000000  -0.0002009   1.4948465  )
        44           Cu  tau(  44) = (   0.7499487   0.2307459   1.4947309  )
        45           Cu  tau(  45) = (   0.0000000   0.4619935   1.4945936  )
        46           Cu  tau(  46) = (   0.2500454   0.6930883   1.4948317  )
        47           Cu  tau(  47) = (   0.5000000   0.4619774   1.4948300  )
        48           Cu  tau(  48) = (   0.7499546   0.6930883   1.4948317  )
        49           Cu  tau(  49) = (   0.0000000   0.9238555   1.4949898  )
        50           Cu  tau(  50) = (   0.2499683   1.1544673   1.4948837  )
        51           Cu  tau(  51) = (   0.5000000   0.9237819   1.4949498  )
        52           Cu  tau(  52) = (   0.7500317   1.1544673   1.4948837  )
        53           Cu  tau(  53) = (   0.0000000   1.3854631   1.4948135  )
        54           Cu  tau(  54) = (   0.2499536   1.6166846   1.4946975  )
        55           Cu  tau(  55) = (   0.5000000   1.3854278   1.4946693  )
        56           Cu  tau(  56) = (   0.7500464   1.6166846   1.4946975  )
        57           Cu  tau(  57) = (   0.0000000   1.8477583   1.4948154  )
        58           Cu  tau(  58) = (   0.2499944   2.0785163   1.4949548  )
        59           Cu  tau(  59) = (   0.5000000   1.8478148   1.4948823  )
        60           Cu  tau(  60) = (   0.7500056   2.0785163   1.4949548  )
        61           Cu  tau(  61) = (   0.0000000   0.2310642   1.7437403  )
        62           Cu  tau(  62) = (   0.2500882  -0.0001093   1.7445953  )
        63           Cu  tau(  63) = (   0.5000000   0.2306161   1.7441900  )
        64           Cu  tau(  64) = (   0.7499118  -0.0001093   1.7445953  )
        65           Cu  tau(  65) = (   0.0000000   0.6927751   1.7441921  )
        66           Cu  tau(  66) = (   0.2502863   0.4619448   1.7437613  )
        67           Cu  tau(  67) = (   0.5000000   0.6931120   1.7446674  )
        68           Cu  tau(  68) = (   0.7497137   0.4619448   1.7437613  )
        69           Cu  tau(  69) = (   0.0000000   1.1545479   1.7448728  )
        70           Cu  tau(  70) = (   0.2500163   0.9237892   1.7448900  )
        71           Cu  tau(  71) = (   0.5000000   1.1546622   1.7444647  )
        72           Cu  tau(  72) = (   0.7499837   0.9237892   1.7448900  )
        73           Cu  tau(  73) = (   0.0000000   1.6167673   1.7440263  )
        74           Cu  tau(  74) = (   0.2497563   1.3855270   1.7439046  )
        75           Cu  tau(  75) = (   0.5000000   1.6164965   1.7436160  )
        76           Cu  tau(  76) = (   0.7502437   1.3855270   1.7439046  )
        77           Cu  tau(  77) = (   0.0000000   2.0783572   1.7450109  )
        78           Cu  tau(  78) = (   0.2498662   1.8476487   1.7443582  )
        79           Cu  tau(  79) = (   0.5000000   2.0786080   1.7449128  )
        80           Cu  tau(  80) = (   0.7501338   1.8476487   1.7443582  )
        81           Cu  tau(  81) = (   0.0000000   0.0009702   1.9903958  )
        82           Cu  tau(  82) = (   0.2502795   0.2314093   1.9901669  )
        83           Cu  tau(  83) = (   0.5000000   0.0000894   1.9919397  )
        84           Cu  tau(  84) = (   0.7497205   0.2314093   1.9901669  )
        85           Cu  tau(  85) = (   0.0000000   0.4618592   1.9899479  )
        86           Cu  tau(  86) = (   0.2507835   0.6922197   1.9906583  )
        87           Cu  tau(  87) = (   0.5000000   0.4613642   1.9908256  )
        88           Cu  tau(  88) = (   0.7492165   0.6922197   1.9906583  )
        89           Cu  tau(  89) = (   0.0000000   0.9225687   1.9911839  )
        90           Cu  tau(  90) = (   0.2491902   1.1552193   1.9908706  )
        91           Cu  tau(  91) = (   0.5000000   0.9247090   1.9915821  )
        92           Cu  tau(  92) = (   0.7508098   1.1552193   1.9908706  )
        93           Cu  tau(  93) = (   0.0000000   1.3864965   1.9911288  )
        94           Cu  tau(  94) = (   0.2499662   1.6163210   1.9899984  )
        95           Cu  tau(  95) = (   0.5000000   1.3857676   1.9899573  )
        96           Cu  tau(  96) = (   0.7500338   1.6163210   1.9899984  )
        97           Cu  tau(  97) = (   0.0000000   1.8469114   1.9918048  )
        98           Cu  tau(  98) = (   0.2497725   2.0783324   1.9910751  )
        99           Cu  tau(  99) = (   0.5000000   1.8468616   1.9901459  )
       100           Cu  tau( 100) = (   0.7502275   2.0783324   1.9910751  )
       101           C   tau( 101) = (   0.0000000   0.0962791   2.3894833  )
       102           C   tau( 102) = (   0.0000000   0.2886611   2.3906052  )
       103           C   tau( 103) = (   0.1666625   0.0000550   2.3886429  )
       104           C   tau( 104) = (   0.1664763   0.3848870   2.3892321  )
       105           C   tau( 105) = (   0.3331194   0.0962166   2.3869544  )
       106           C   tau( 106) = (   0.3331304   0.2886755   2.3865235  )
       107           C   tau( 107) = (   0.5000000  -0.0000948   2.3855250  )
       108           C   tau( 108) = (   0.5000000   0.3849500   2.3851665  )
       109           C   tau( 109) = (   0.6668806   0.0962166   2.3869544  )
       110           C   tau( 110) = (   0.6668696   0.2886755   2.3865235  )
       111           C   tau( 111) = (   0.8333375   0.0000550   2.3886429  )
       112           C   tau( 112) = (   0.8335237   0.3848870   2.3892321  )
       113           C   tau( 113) = (   0.0000000   0.6735386   2.3899613  )
       114           C   tau( 114) = (   0.0000000   0.8659619   2.3878803  )
       115           C   tau( 115) = (   0.1664559   0.5773215   2.3889019  )
       116           C   tau( 116) = (   0.1667706   0.9622115   2.3879371  )
       117           C   tau( 117) = (   0.3332015   0.6735875   2.3866838  )
       118           C   tau( 118) = (   0.3331828   0.8660534   2.3875659  )
       119           C   tau( 119) = (   0.5000000   0.5773754   2.3858309  )
       120           C   tau( 120) = (   0.5000000   0.9623241   2.3869821  )
       121           C   tau( 121) = (   0.6667985   0.6735875   2.3866838  )
       122           C   tau( 122) = (   0.6668172   0.8660534   2.3875659  )
       123           C   tau( 123) = (   0.8335441   0.5773215   2.3889019  )
       124           C   tau( 124) = (   0.8332294   0.9622115   2.3879371  )
       125           C   tau( 125) = (   0.0000000   1.2508664   2.3862812  )
       126           C   tau( 126) = (   0.0000000   1.4432986   2.3850001  )
       127           C   tau( 127) = (   0.1667459   1.1546778   2.3868684  )
       128           C   tau( 128) = (   0.1668881   1.5395992   2.3865517  )
       129           C   tau( 129) = (   0.3335265   1.2509699   2.3885873  )
       130           C   tau( 130) = (   0.3334897   1.4434094   2.3892347  )
       131           C   tau( 131) = (   0.5000000   1.1547638   2.3893878  )
       132           C   tau( 132) = (   0.5000000   1.5396335   2.3906346  )
       133           C   tau( 133) = (   0.6664735   1.2509699   2.3885873  )
       134           C   tau( 134) = (   0.6665103   1.4434094   2.3892347  )
       135           C   tau( 135) = (   0.8332541   1.1546778   2.3868684  )
       136           C   tau( 136) = (   0.8331119   1.5395992   2.3865517  )
       137           C   tau( 137) = (   0.0000000   1.8283755   2.3851411  )
       138           C   tau( 138) = (   0.0000000   2.0208234   2.3873763  )
       139           C   tau( 139) = (   0.1668941   1.7320553   2.3867649  )
       140           C   tau( 140) = (   0.1666211   2.1169974   2.3874388  )
       141           C   tau( 141) = (   0.3333929   1.8282212   2.3889277  )
       142           C   tau( 142) = (   0.3334397   2.0206739   2.3878120  )
       143           C   tau( 143) = (   0.5000000   1.7320008   2.3900666  )
       144           C   tau( 144) = (   0.5000000   2.1168548   2.3880249  )
       145           C   tau( 145) = (   0.6666071   1.8282212   2.3889277  )
       146           C   tau( 146) = (   0.6665603   2.0206739   2.3878120  )
       147           C   tau( 147) = (   0.8331059   1.7320553   2.3867649  )
       148           C   tau( 148) = (   0.8333789   2.1169974   2.3874388  )

     number of k points=     6  gaussian smearing, width (Ry)=  0.1000
                       cart. coord. in units 2pi/alat
        k(    1) = (   0.0000000   0.0000000   0.0000000), wk =   0.2500000
        k(    2) = (   0.0000000  -0.2165064   0.0000000), wk =   0.2500000
        k(    3) = (   0.2500000   0.0000000   0.0000000), wk =   0.5000000
        k(    4) = (   0.2500000  -0.2165064   0.0000000), wk =   0.5000000
        k(    5) = (  -0.5000000   0.0000000   0.0000000), wk =   0.2500000
        k(    6) = (  -0.5000000  -0.2165064   0.0000000), wk =   0.2500000

     Dense  grid:  2050409 G-vectors     FFT dimensions: (  80, 192, 270)

     Largest allocated arrays     est. size (Mb)     dimensions
        Kohn-Sham Wavefunctions        47.35 Mb     (    4004,  775)
        NL pseudopotentials           112.91 Mb     (    4004, 1848)
        Each V/rho on FFT grid          1.17 Mb     (   76800)
        Each G-vector array             0.24 Mb     (   32034)
        G-vector shells                 0.12 Mb     (   15554)
     Largest temporary arrays     est. size (Mb)     dimensions
        Auxiliary wavefunctions       189.40 Mb     (    4004, 3100)
        Each subspace H/S matrix        5.87 Mb     (     620,  620)
        Each <psi_i|beta_j> matrix     21.85 Mb     (    1848,  775)
        Arrays for rho mixing           9.38 Mb     (   76800,    8)

     Initial potential from superposition of free atoms
     Check: negative starting charge=   -0.001836

     starting charge 1266.81751, renormalised to 1292.00000

     negative rho (up, down):  1.873E-03 0.000E+00
     Starting wfc are 1284 randomized atomic wfcs

     total cpu time spent up to now is      149.3 secs

     Self-consistent Calculation

     iteration #  1     ecut=    80.00 Ry     beta=0.70
     Davidson diagonalization with overlap
     c_bands:  4 eigenvalues not converged
     ethr =  1.00E-04,  avg # of iterations = 22.0

     negative rho (up, down):  2.928E+01 0.000E+00

     total cpu time spent up to now is     2775.3 secs

     total energy              =   -9202.69644322 Ry
     Harris-Foulkes estimate   =  -17117.33345199 Ry
     estimated scf accuracy    <  179453.99569834 Ry

     iteration #  2     ecut=    80.00 Ry     beta=0.70
     Davidson diagonalization with overlap
     ethr =  1.00E-02,  avg # of iterations = 13.7

     negative rho (up, down):  3.107E+01 0.000E+00

     total cpu time spent up to now is     4159.6 secs

     total energy              =  -12334.43864754 Ry
     Harris-Foulkes estimate   =  -13623.10645812 Ry
     estimated scf accuracy    <   17345.59959412 Ry

     iteration #  3     ecut=    80.00 Ry     beta=0.70
     Davidson diagonalization with overlap
     ethr =  1.00E-02,  avg # of iterations =  7.3

     negative rho (up, down):  3.296E+01 0.000E+00

     total cpu time spent up to now is     5016.6 secs

     total energy              =  -12505.95266567 Ry
     Harris-Foulkes estimate   =  -13341.52033630 Ry
     estimated scf accuracy    <    6020.11675924 Ry

     iteration #  4     ecut=    80.00 Ry     beta=0.70
     Davidson diagonalization with overlap
     ethr =  1.00E-02,  avg # of iterations =  5.5

     negative rho (up, down):  2.962E+01 0.000E+00

     total cpu time spent up to now is     5770.2 secs

     total energy              =  -12839.12142167 Ry
     Harris-Foulkes estimate   =  -13153.89799773 Ry
     estimated scf accuracy    <    6366.44463767 Ry

     iteration #  5     ecut=    80.00 Ry     beta=0.70
     Davidson diagonalization with overlap
     ethr =  1.00E-02,  avg # of iterations =  5.0

     negative rho (up, down):  2.053E+01 0.000E+00

     total cpu time spent up to now is     6309.1 secs

     total energy              =  -12863.31978959 Ry
     Harris-Foulkes estimate   =  -13043.78915193 Ry
     estimated scf accuracy    <    1028.64609337 Ry

     iteration #  6     ecut=    80.00 Ry     beta=0.70
     Davidson diagonalization with overlap
     ethr =  1.00E-02,  avg # of iterations =  3.0

     negative rho (up, down):  1.207E+01 0.000E+00

     total cpu time spent up to now is     6645.3 secs

     total energy              =  -12841.43546694 Ry
     Harris-Foulkes estimate   =  -12920.04495013 Ry
     estimated scf accuracy    <     652.74385348 Ry

     iteration #  7     ecut=    80.00 Ry     beta=0.70
     Davidson diagonalization with overlap
     ethr =  1.00E-02,  avg # of iterations =  2.0

     negative rho (up, down):  9.041E+00 0.000E+00

     total cpu time spent up to now is     6899.0 secs

     total energy              =  -12818.32658519 Ry
     Harris-Foulkes estimate   =  -12854.32489498 Ry
     estimated scf accuracy    <     852.66724608 Ry

     iteration #  8     ecut=    80.00 Ry     beta=0.70
     Davidson diagonalization with overlap
     ethr =  1.00E-02,  avg # of iterations =  1.5

     negative rho (up, down):  3.251E+00 0.000E+00

     total cpu time spent up to now is     7137.0 secs

     total energy              =  -12760.32097181 Ry
     Harris-Foulkes estimate   =  -12823.50731544 Ry
     estimated scf accuracy    <     320.81635160 Ry

     iteration #  9     ecut=    80.00 Ry     beta=0.70
     Davidson diagonalization with overlap
     ethr =  1.00E-02,  avg # of iterations =  3.2

     negative rho (up, down):  1.885E+00 0.000E+00

     total cpu time spent up to now is     7429.8 secs

     total energy              =  -12756.00863957 Ry
     Harris-Foulkes estimate   =  -12788.82128564 Ry
     estimated scf accuracy    <    1059.36305715 Ry

     iteration # 10     ecut=    80.00 Ry     beta=0.70
     Davidson diagonalization with overlap
     ethr =  1.00E-02,  avg # of iterations =  1.7

     negative rho (up, down):  1.028E+00 0.000E+00

     total cpu time spent up to now is     7670.5 secs

     total energy              =  -12706.91487993 Ry
     Harris-Foulkes estimate   =  -12764.34952572 Ry
     estimated scf accuracy    <     676.40219184 Ry

     iteration # 11     ecut=    80.00 Ry     beta=0.70
     Davidson diagonalization with overlap
     ethr =  1.00E-02,  avg # of iterations =  3.2

     negative rho (up, down):  9.448E-01 0.000E+00

     total cpu time spent up to now is     7936.7 secs

     total energy              =  -12709.74632380 Ry
     Harris-Foulkes estimate   =  -12735.88396489 Ry
     estimated scf accuracy    <     116.31426080 Ry

     iteration # 12     ecut=    80.00 Ry     beta=0.70
     Davidson diagonalization with overlap
     ethr =  9.00E-03,  avg # of iterations =  2.5

     negative rho (up, down):  2.804E+00 0.000E+00

     total cpu time spent up to now is     8241.7 secs

     total energy              =  -12677.71453719 Ry
     Harris-Foulkes estimate   =  -12755.67318425 Ry
     estimated scf accuracy    <     604.34979171 Ry

     iteration # 13     ecut=    80.00 Ry     beta=0.70
     Davidson diagonalization with overlap
     ethr =  9.00E-03,  avg # of iterations =  2.3

     negative rho (up, down):  5.084E+00 0.000E+00

     total cpu time spent up to now is     8548.9 secs

     total energy              =  -12709.54044419 Ry
     Harris-Foulkes estimate   =  -12722.31506010 Ry
     estimated scf accuracy    <     132.92000553 Ry

     iteration # 14     ecut=    80.00 Ry     beta=0.70
     Davidson diagonalization with overlap
     ethr =  9.00E-03,  avg # of iterations =  1.2

     negative rho (up, down):  3.825E+00 0.000E+00

     total cpu time spent up to now is     8781.3 secs

     total energy              =  -12707.61693892 Ry
     Harris-Foulkes estimate   =  -12713.59733086 Ry
     estimated scf accuracy    <      60.18924693 Ry

     iteration # 15     ecut=    80.00 Ry     beta=0.70
     Davidson diagonalization with overlap
     ethr =  4.66E-03,  avg # of iterations =  1.0

     negative rho (up, down):  6.183E+00 0.000E+00

     total cpu time spent up to now is     9012.3 secs

     total energy              =  -12707.43369125 Ry
     Harris-Foulkes estimate   =  -12710.06228900 Ry
     estimated scf accuracy    <      37.76580038 Ry

     iteration # 16     ecut=    80.00 Ry     beta=0.70
     Davidson diagonalization with overlap
     ethr =  2.92E-03,  avg # of iterations =  3.2

     negative rho (up, down):  3.433E+00 0.000E+00

     total cpu time spent up to now is     9277.1 secs

     total energy              =  -12705.23824966 Ry
     Harris-Foulkes estimate   =  -12708.03296634 Ry
     estimated scf accuracy    <      25.78151272 Ry

     iteration # 17     ecut=    80.00 Ry     beta=0.70
     Davidson diagonalization with overlap
     ethr =  2.00E-03,  avg # of iterations =  4.0

     negative rho (up, down):  2.769E+00 0.000E+00

     total cpu time spent up to now is     9558.0 secs

     total energy              =  -12703.66371655 Ry
     Harris-Foulkes estimate   =  -12705.69547623 Ry
     estimated scf accuracy    <      10.12443860 Ry

     iteration # 18     ecut=    80.00 Ry     beta=0.70
     Davidson diagonalization with overlap
     ethr =  7.84E-04,  avg # of iterations =  5.8

     negative rho (up, down):  2.741E+00 0.000E+00

     total cpu time spent up to now is     9876.6 secs

     total energy              =  -12704.04523363 Ry
     Harris-Foulkes estimate   =  -12704.06174774 Ry
     estimated scf accuracy    <      15.82390031 Ry

     iteration # 19     ecut=    80.00 Ry     beta=0.70
     Davidson diagonalization with overlap
     ethr =  7.84E-04,  avg # of iterations =  3.0

     negative rho (up, down):  2.386E+00 0.000E+00

     total cpu time spent up to now is    10137.0 secs

     total energy              =  -12703.79670383 Ry
     Harris-Foulkes estimate   =  -12704.52817474 Ry
     estimated scf accuracy    <       7.86622609 Ry

     iteration # 20     ecut=    80.00 Ry     beta=0.70
     Davidson diagonalization with overlap
     ethr =  6.09E-04,  avg # of iterations =  1.0

     negative rho (up, down):  8.765E-01 0.000E+00

     total cpu time spent up to now is    10368.8 secs

     total energy              =  -12701.02403117 Ry
     Harris-Foulkes estimate   =  -12703.90840862 Ry
     estimated scf accuracy    <       7.28642005 Ry

     iteration # 21     ecut=    80.00 Ry     beta=0.70
     Davidson diagonalization with overlap
     ethr =  5.64E-04,  avg # of iterations =  2.2

     negative rho (up, down):  1.007E+00 0.000E+00

     total cpu time spent up to now is    10617.6 secs

     total energy              =  -12700.23896469 Ry
     Harris-Foulkes estimate   =  -12701.43527551 Ry
     estimated scf accuracy    <      22.42843571 Ry

     iteration # 22     ecut=    80.00 Ry     beta=0.70
     Davidson diagonalization with overlap
     ethr =  5.64E-04,  avg # of iterations =  5.7

     negative rho (up, down):  6.823E-01 0.000E+00

     total cpu time spent up to now is    10929.8 secs

     total energy              =  -12699.33712712 Ry
     Harris-Foulkes estimate   =  -12700.45668253 Ry
     estimated scf accuracy    <      10.17161138 Ry

     iteration # 23     ecut=    80.00 Ry     beta=0.70
     Davidson diagonalization with overlap
     ethr =  5.64E-04,  avg # of iterations =  3.2

     negative rho (up, down):  1.098E+00 0.000E+00

     total cpu time spent up to now is    11196.3 secs

     total energy              =  -12699.00958927 Ry
     Harris-Foulkes estimate   =  -12699.58927784 Ry
     estimated scf accuracy    <       3.96360568 Ry

     iteration # 24     ecut=    80.00 Ry     beta=0.70
     Davidson diagonalization with overlap
     ethr =  3.07E-04,  avg # of iterations =  8.7

     negative rho (up, down):  1.112E+00 0.000E+00

     total cpu time spent up to now is    11581.2 secs

     total energy              =  -12699.08854433 Ry
     Harris-Foulkes estimate   =  -12699.20836038 Ry
     estimated scf accuracy    <       1.05591526 Ry

     iteration # 25     ecut=    80.00 Ry     beta=0.70
     Davidson diagonalization with overlap
     ethr =  8.17E-05,  avg # of iterations =  5.7

     negative rho (up, down):  8.142E-01 0.000E+00

     total cpu time spent up to now is    11890.8 secs

     total energy              =  -12698.97664105 Ry
     Harris-Foulkes estimate   =  -12699.12012971 Ry
     estimated scf accuracy    <       0.68460869 Ry

     iteration # 26     ecut=    80.00 Ry     beta=0.70
     Davidson diagonalization with overlap
     ethr =  5.30E-05,  avg # of iterations =  6.5

     negative rho (up, down):  5.197E-01 0.000E+00

     total cpu time spent up to now is    12215.7 secs

     total energy              =  -12698.90100286 Ry
     Harris-Foulkes estimate   =  -12699.01408716 Ry
     estimated scf accuracy    <       0.87426643 Ry

     iteration # 27     ecut=    80.00 Ry     beta=0.70
     Davidson diagonalization with overlap
     ethr =  5.30E-05,  avg # of iterations =  5.2

     negative rho (up, down):  3.153E-01 0.000E+00

     total cpu time spent up to now is    12523.7 secs

     total energy              =  -12698.88253957 Ry
     Harris-Foulkes estimate   =  -12698.92989507 Ry
     estimated scf accuracy    <       0.22631230 Ry

     iteration # 28     ecut=    80.00 Ry     beta=0.70
     Davidson diagonalization with overlap
     ethr =  1.75E-05,  avg # of iterations =  6.8

     negative rho (up, down):  1.811E-01 0.000E+00

     total cpu time spent up to now is    12868.7 secs

     total energy              =  -12698.89198020 Ry
     Harris-Foulkes estimate   =  -12698.90486548 Ry
     estimated scf accuracy    <       0.04266716 Ry

     iteration # 29     ecut=    80.00 Ry     beta=0.70
     Davidson diagonalization with overlap
     c_bands:  1 eigenvalues not converged
     ethr =  3.30E-06,  avg # of iterations = 11.8

     negative rho (up, down):  1.018E-01 0.000E+00

     total cpu time spent up to now is    13337.4 secs

     total energy              =  -12698.89163544 Ry
     Harris-Foulkes estimate   =  -12698.89658477 Ry
     estimated scf accuracy    <       0.01724562 Ry

     iteration # 30     ecut=    80.00 Ry     beta=0.70
     Davidson diagonalization with overlap
     ethr =  1.33E-06,  avg # of iterations =  7.5

     negative rho (up, down):  3.983E-02 0.000E+00

     total cpu time spent up to now is    13692.1 secs

     total energy              =  -12698.89124973 Ry
     Harris-Foulkes estimate   =  -12698.89315839 Ry
     estimated scf accuracy    <       0.00644505 Ry

     iteration # 31     ecut=    80.00 Ry     beta=0.70
     Davidson diagonalization with overlap
     ethr =  4.99E-07,  avg # of iterations =  8.5

     negative rho (up, down):  1.608E-02 0.000E+00

     total cpu time spent up to now is    14064.7 secs

     total energy              =  -12698.89125025 Ry
     Harris-Foulkes estimate   =  -12698.89177747 Ry
     estimated scf accuracy    <       0.00115390 Ry

     iteration # 32     ecut=    80.00 Ry     beta=0.70
     Davidson diagonalization with overlap
     c_bands:  2 eigenvalues not converged
     c_bands:  1 eigenvalues not converged
     ethr =  8.93E-08,  avg # of iterations = 10.5

     negative rho (up, down):  5.052E-03 0.000E+00

     total cpu time spent up to now is    14478.3 secs

     total energy              =  -12698.89111478 Ry
     Harris-Foulkes estimate   =  -12698.89134280 Ry
     estimated scf accuracy    <       0.00024576 Ry

     iteration # 33     ecut=    80.00 Ry     beta=0.70
     Davidson diagonalization with overlap
     ethr =  1.90E-08,  avg # of iterations =  7.5

     negative rho (up, down):  3.612E-03 0.000E+00

     total cpu time spent up to now is    14837.9 secs

     total energy              =  -12698.89112090 Ry
     Harris-Foulkes estimate   =  -12698.89114851 Ry
     estimated scf accuracy    <       0.00008449 Ry

     iteration # 34     ecut=    80.00 Ry     beta=0.70
     Davidson diagonalization with overlap
     ethr =  6.54E-09,  avg # of iterations =  4.0

     negative rho (up, down):  2.983E-03 0.000E+00

     total cpu time spent up to now is    15133.3 secs

     total energy              =  -12698.89112118 Ry
     Harris-Foulkes estimate   =  -12698.89113153 Ry
     estimated scf accuracy    <       0.00002166 Ry

     iteration # 35     ecut=    80.00 Ry     beta=0.70
     Davidson diagonalization with overlap
     c_bands:  4 eigenvalues not converged
     ethr =  1.68E-09,  avg # of iterations =  8.0

     negative rho (up, down):  2.725E-03 0.000E+00

     total cpu time spent up to now is    15502.5 secs

     total energy              =  -12698.89112295 Ry
     Harris-Foulkes estimate   =  -12698.89112375 Ry
     estimated scf accuracy    <       0.00000494 Ry

     iteration # 36     ecut=    80.00 Ry     beta=0.70
     Davidson diagonalization with overlap
     ethr =  3.83E-10,  avg # of iterations =  3.3

     negative rho (up, down):  2.285E-03 0.000E+00

     total cpu time spent up to now is    15824.4 secs

     total energy              =  -12698.89112273 Ry
     Harris-Foulkes estimate   =  -12698.89112379 Ry
     estimated scf accuracy    <       0.00000393 Ry

     iteration # 37     ecut=    80.00 Ry     beta=0.70
     Davidson diagonalization with overlap
     ethr =  3.04E-10,  avg # of iterations =  2.0

     negative rho (up, down):  1.962E-03 0.000E+00

     total cpu time spent up to now is    16078.4 secs

     total energy              =  -12698.89112345 Ry
     Harris-Foulkes estimate   =  -12698.89112300 Ry
     estimated scf accuracy    <       0.00000105 Ry

     iteration # 38     ecut=    80.00 Ry     beta=0.70
     Davidson diagonalization with overlap
     ethr =  8.15E-11,  avg # of iterations =  3.0

     negative rho (up, down):  1.933E-03 0.000E+00

     total cpu time spent up to now is    16357.9 secs

     total energy              =  -12698.89112370 Ry
     Harris-Foulkes estimate   =  -12698.89112355 Ry
     estimated scf accuracy    <       0.00000033 Ry

     iteration # 39     ecut=    80.00 Ry     beta=0.70
     Davidson diagonalization with overlap
     ethr =  2.57E-11,  avg # of iterations =  3.0

     negative rho (up, down):  1.930E-03 0.000E+00

     total cpu time spent up to now is    16641.2 secs

     total energy              =  -12698.89112382 Ry
     Harris-Foulkes estimate   =  -12698.89112374 Ry
     estimated scf accuracy    <       0.00000007 Ry

     iteration # 40     ecut=    80.00 Ry     beta=0.70
     Davidson diagonalization with overlap
     ethr =  5.47E-12,  avg # of iterations =  3.0

     negative rho (up, down):  1.929E-03 0.000E+00

     total cpu time spent up to now is    16979.6 secs

     total energy              =  -12698.89112388 Ry
     Harris-Foulkes estimate   =  -12698.89112383 Ry
     estimated scf accuracy    <       0.00000006 Ry

     iteration # 41     ecut=    80.00 Ry     beta=0.70
     Davidson diagonalization with overlap
     ethr =  4.33E-12,  avg # of iterations =  2.0

     negative rho (up, down):  1.921E-03 0.000E+00

     total cpu time spent up to now is    17228.8 secs

     total energy              =  -12698.89112394 Ry
     Harris-Foulkes estimate   =  -12698.89112388 Ry
     estimated scf accuracy    <       0.00000002 Ry

     iteration # 42     ecut=    80.00 Ry     beta=0.70
     Davidson diagonalization with overlap
     ethr =  1.66E-12,  avg # of iterations =  2.7

     negative rho (up, down):  1.910E-03 0.000E+00

     total cpu time spent up to now is    17485.5 secs

     End of self-consistent calculation

          k = 0.0000 0.0000 0.0000 (256287 PWs)   bands (ev):

   -16.0816 -15.7095 -15.7093 -14.6030 -14.6030 -14.1189 -14.1163 -13.7564
   -13.7562 -13.7537 -13.7537 -12.8033 -12.8016 -12.6871 -12.6870 -12.6845
   -12.6845 -10.9932 -10.9917 -10.9911 -10.9891 -10.7828  -9.7888  -9.1062
    -9.1056  -9.1030  -9.1021  -8.2283  -8.2274  -8.2244  -8.2242  -7.2373
    -7.2347  -7.1623  -7.1621  -7.1589  -7.1589  -7.1470  -7.1469  -5.7064
    -5.6062  -5.6044  -5.6015  -5.5999  -5.4431  -5.4412  -5.4409  -5.4402
    -5.1731  -5.1710  -4.7809  -4.3063  -4.2935  -4.2906  -4.2878  -4.2826
    -3.9626  -3.9626  -3.8232  -3.8223  -3.6753  -3.6753  -3.1502  -3.1502
    -3.1498  -3.1498  -3.0946  -3.0937  -3.0022  -2.9892  -2.9871  -2.9243
    -2.9242  -2.8742  -2.6956  -2.6948  -2.6937  -2.6929  -2.6381  -2.6380
    -2.5224  -2.5224  -2.4332  -2.4307  -2.3660  -2.3659  -2.3335  -2.3319
    -2.3318  -2.3299  -2.0553  -2.0551  -2.0546  -2.0544  -2.0162  -2.0155
    -1.8787  -1.8787  -1.8384  -1.8384  -1.8381  -1.8381  -1.7466  -1.7463
    -1.7460  -1.7458  -1.7065  -1.7065  -1.7065  -1.7064  -1.6477  -1.6263
    -1.6263  -1.5265  -1.4613  -1.4227  -1.4227  -1.4226  -1.4225  -1.3792
    -1.3790  -1.3556  -1.3429  -1.3412  -1.2880  -1.2826  -1.2512  -1.2511
    -1.2489  -1.2470  -1.2193  -1.2190  -1.2185  -1.2183  -1.1995  -1.1981
    -1.1271  -1.1266  -1.1004  -1.0548  -1.0546  -1.0537  -1.0537  -1.0362
    -0.9820  -0.9753  -0.9740  -0.9482  -0.9465  -0.9338  -0.8949  -0.8945
    -0.8748  -0.8729  -0.8504  -0.8476  -0.8208  -0.8171  -0.7851  -0.7851
    -0.7840  -0.7838  -0.7309  -0.7287  -0.7164  -0.7095  -0.7094  -0.7091
    -0.7091  -0.7056  -0.7043  -0.6992  -0.6991  -0.6812  -0.6563  -0.6544
    -0.6352  -0.6149  -0.6145  -0.6058  -0.6017  -0.6010  -0.6003  -0.5417
    -0.5414  -0.5398  -0.5392  -0.5384  -0.5383  -0.5378  -0.5374  -0.5364
    -0.5319  -0.5314  -0.5314  -0.5299  -0.5253  -0.5253  -0.5152  -0.5151
    -0.4871  -0.4870  -0.4870  -0.4869  -0.4689  -0.3729  -0.3728  -0.3662
    -0.3657  -0.3433  -0.3419  -0.3246  -0.3246  -0.3133  -0.3113  -0.3030
    -0.3030  -0.2879  -0.2875  -0.2868  -0.2862  -0.2702  -0.2476  -0.2471
    -0.2453  -0.2449  -0.2369  -0.2362  -0.2249  -0.2245  -0.1750  -0.1748
    -0.1210  -0.1208  -0.1108  -0.1095  -0.1093  -0.1080  -0.0937  -0.0937
    -0.0875  -0.0875  -0.0871  -0.0871  -0.0833  -0.0832  -0.0682  -0.0682
    -0.0580  -0.0579  -0.0579  -0.0578  -0.0333  -0.0328   0.0172   0.0190
     0.0195   0.0246   0.0248   0.0530   0.0530   0.0531   0.0531   0.0701
     0.0702   0.0716   0.0738   0.0738   0.0955   0.0960   0.0967   0.0973
     0.1032   0.1032   0.1033   0.1033   0.1064   0.1092   0.1264   0.1271
     0.1283   0.1286   0.1290   0.1488   0.1970   0.1971   0.1993   0.1994
     0.2025   0.2498   0.2498   0.2500   0.2501   0.2546   0.2554   0.2555
     0.2559   0.2559   0.2693   0.2702   0.3072   0.3081   0.3099   0.3102
     0.3188   0.3384   0.3384   0.3387   0.3388   0.3447   0.3478   0.3627
     0.3631   0.3658   0.3661   0.3668   0.3676   0.3788   0.3795   0.3805
     0.3807   0.3936   0.3946   0.3948   0.3954   0.3957   0.3960   0.4174
     0.4184   0.4526   0.4528   0.4797   0.4801   0.4803   0.4803   0.5054
     0.5087   0.5563   0.5564   0.5568   0.5569   0.5580   0.5610   0.5864
     0.5872   0.5915   0.5920   0.5923   0.5927   0.6041   0.6042   0.6443
     0.6573   0.6573   0.6587   0.6663   0.6665   0.6671   0.6679   0.6952
     0.7010   0.7016   0.7019   0.7022   0.7304   0.7392   0.7395   0.7395
     0.7395   0.7546   0.7557   0.7564   0.7574   0.7942   0.7946   0.8123
     0.8139   0.8141   0.8143   0.8143   0.8276   0.8476   0.8496   0.8509
     0.8522   0.8533   0.8534   0.8541   0.8564   0.8579   0.8650   0.8651
     0.8700   0.8709   0.8714   0.8723   0.8806   0.8808   0.9136   0.9214
     0.9215   0.9347   0.9348   0.9669   0.9669   0.9674   0.9674   0.9701
     0.9702   0.9705   0.9707   0.9864   0.9870   0.9905   0.9970   0.9975
     0.9977   0.9994   1.0053   1.0055   1.0089   1.0141   1.0150   1.0370
     1.0374   1.0375   1.0379   1.0483   1.0486   1.0610   1.0630   1.0630
     1.0641   1.0687   1.0700   1.0733   1.0756   1.0858   1.1032   1.1079
     1.1090   1.1159   1.1239   1.1239   1.1340   1.1350   1.1424   1.1425
     1.1428   1.1431   1.1740   1.1746   1.1889   1.1898   1.1944   1.1944
     1.2091   1.2091   1.2164   1.2169   1.2184   1.2197   1.2270   1.2412
     1.2553   1.2563   1.2575   1.2597   1.2608   1.2617   1.2793   1.2846
     1.2958   1.3043   1.3044   1.3151   1.3258   1.3259   1.3293   1.3295
     1.3314   1.3316   1.3318   1.3414   1.3437   1.3450   1.3469   1.3471
     1.3472   1.3484   1.3497   1.3590   1.3591   1.3816   1.3817   1.3835
     1.3836   1.3906   1.3911   1.4231   1.4236   1.4262   1.4268   1.4276
     1.4281   1.4297   1.4300   1.4341   1.4342   1.4344   1.4347   1.4389
     1.4398   1.4521   1.4522   1.4701   1.4903   1.4981   1.4990   1.5203
     1.5204   1.5206   1.5220   1.5223   1.5235   1.5323   1.5429   1.5436
     1.5560   1.5562   1.5570   1.5584   1.5589   1.5596   1.5643   1.5650
     1.5651   1.5733   1.5924   1.5935   1.5949   1.5954   1.5960   1.5960
     1.5971   1.5971   1.6129   1.6138   1.6146   1.6221   1.6286   1.6287
     1.6297   1.6298   1.6324   1.6405   1.6411   1.6422   1.6601   1.6728
     1.6736   1.6738   1.6745   1.6747   1.6761   1.6778   1.6825   1.6949
     1.7025   1.7049   1.7067   1.7117   1.7196   1.7346   1.7346   1.7413
     1.7413   1.7503   1.7504   1.7518   1.7521   1.7526   1.7528   1.7534
     1.7535   1.7552   1.7564   1.7619   1.7621   1.7681   1.7854   1.7854
     1.7864   1.7864   1.7925   1.7962   1.7963   1.8277   1.8280   1.8293
     1.8306   1.8372   1.8756   1.8763   1.8768   1.8768   1.8956   1.8957
     1.8986   1.9083   1.9106   1.9245   1.9477   1.9485   1.9492   1.9502
     1.9505   1.9611   1.9615   1.9618   2.2214   2.2721   2.4211   2.4212
     2.4575   2.4587   2.5229   2.5230   2.5236   2.5236   2.5409   2.5412
     2.5414   2.5417   2.7149   2.7150   2.7781   2.7783   2.7790   2.7790
     2.7948   2.7950   3.0328   3.0329   3.0329   3.0330   3.3711   3.3911
     3.3937   3.3948   3.4370   3.8267   3.8268   4.1290   4.1290   4.1621
     4.1621   4.1637   4.1637   4.2200   4.2599   4.2648   4.2813   4.3164
     4.3177   4.3217   4.3221   4.3227   4.3230   4.5520   4.5525   4.5545
     4.5555   4.6774   4.8911   5.0758   5.2581   5.2608   5.2837   5.2884
     5.6170   5.6798   5.6808   5.7235   5.9920   5.9922   6.0275   6.0299
     6.2429   6.2454   6.6268   6.6288   6.7074   6.7211   6.7694   6.7698
     6.7701   6.7721   6.9402   6.9406   6.9410   6.9412   7.0975   7.0990
     7.1011   7.1012   7.1727   7.1990   7.3497   7.3600   7.3801   7.3805
     7.3806   7.3813   7.4026   7.6686   7.6712   7.8121   7.8122   7.8552
     7.8562   7.9560   7.9964   7.9966   8.0087   8.0095   8.4348   8.4777
     8.4820   8.4821   8.5011   8.5626   8.5633   8.6487   8.6488   8.6697
     8.6737   8.7166   8.7201   8.7798   8.8555   8.8959   8.8967   8.8989
     8.8994   8.9588   8.9591   8.9599   8.9604   9.1429   9.1432   9.1437
     9.1439   9.2751   9.2755   9.3536   9.3537   9.3870   9.3872   9.3874
     9.3874   9.4236   9.4472   9.6550   9.6572   9.7999   9.8063   9.8902
     9.8905  10.0235  10.0237  10.0497  10.0497  10.1448  10.2439

          k = 0.0000-0.2165 0.0000 (256176 PWs)   bands (ev):

   -15.9884 -15.9884 -15.2465 -15.2464 -14.0280 -14.0279 -14.0254 -14.0254
   -13.7849 -13.7848 -13.3117 -13.3092 -13.3026 -13.2999 -11.9145 -11.9122
   -11.9010 -11.8984 -11.6844 -11.6843  -9.9980  -9.9980  -9.9962  -9.9960
    -8.7524  -8.7524  -8.5931  -8.5931  -8.5910  -8.5910  -7.7653  -7.7648
    -7.7614  -7.7609  -6.5865  -6.5864  -6.5855  -6.5855  -6.4340  -6.4296
    -6.4283  -6.4239  -5.6140  -5.6139  -5.5716  -5.5715  -4.7753  -4.7752
    -4.7702  -4.7702  -4.6576  -4.6575  -4.5259  -4.5259  -4.2170  -4.2162
    -4.2117  -4.2108  -4.1706  -4.1706  -3.7050  -3.7049  -3.2592  -3.2591
    -2.9905  -2.9904  -2.9897  -2.9896  -2.9099  -2.9099  -2.7606  -2.7606
    -2.7184  -2.7180  -2.6584  -2.6583  -2.6563  -2.6561  -2.4738  -2.4732
    -2.4711  -2.4705  -2.3708  -2.3708  -2.2794  -2.2793  -2.2791  -2.2788
    -2.2664  -2.2658  -2.2658  -2.2652  -2.2007  -2.2007  -2.0188  -2.0186
    -1.9471  -1.9470  -1.9467  -1.9464  -1.9358  -1.9357  -1.8293  -1.8291
    -1.8291  -1.8290  -1.6965  -1.6964  -1.6716  -1.6715  -1.6460  -1.6460
    -1.5530  -1.5530  -1.4532  -1.4532  -1.4526  -1.4526  -1.4506  -1.4504
    -1.4350  -1.4350  -1.4268  -1.4268  -1.4069  -1.4069  -1.3295  -1.3294
    -1.2382  -1.2381  -1.2381  -1.2379  -1.1509  -1.1508  -1.1504  -1.1504
    -1.0587  -1.0582  -1.0550  -1.0550  -1.0000  -1.0000  -0.9673  -0.9669
    -0.9632  -0.9628  -0.9587  -0.9585  -0.9553  -0.9553  -0.9336  -0.9328
    -0.9120  -0.9120  -0.9079  -0.9079  -0.8984  -0.8983  -0.8317  -0.8316
    -0.8303  -0.8302  -0.8187  -0.8185  -0.7721  -0.7721  -0.7338  -0.7338
    -0.7305  -0.7305  -0.6860  -0.6859  -0.6673  -0.6672  -0.6661  -0.6660
    -0.6610  -0.6610  -0.6106  -0.6105  -0.6028  -0.6024  -0.5949  -0.5948
    -0.5821  -0.5821  -0.5818  -0.5817  -0.5123  -0.5123  -0.5018  -0.5016
    -0.5013  -0.5008  -0.4984  -0.4981  -0.4792  -0.4790  -0.4646  -0.4645
    -0.4379  -0.4379  -0.4344  -0.4342  -0.3376  -0.3375  -0.3371  -0.3371
    -0.3163  -0.3161  -0.2901  -0.2896  -0.2889  -0.2883  -0.2847  -0.2847
    -0.2578  -0.2578  -0.2249  -0.2249  -0.2238  -0.2237  -0.2192  -0.2182
    -0.2178  -0.2168  -0.1867  -0.1867  -0.1695  -0.1695  -0.1638  -0.1627
    -0.1311  -0.1306  -0.1303  -0.1298  -0.1192  -0.1191  -0.1187  -0.1186
    -0.1124  -0.1110  -0.0407  -0.0407  -0.0404  -0.0403  -0.0105  -0.0085
     0.0142   0.0142   0.0206   0.0207   0.0222   0.0227   0.0227   0.0228
     0.0468   0.0470   0.0473   0.0474   0.0646   0.0646   0.0652   0.0658
     0.0691   0.0703   0.0703   0.0712   0.0742   0.0742   0.0848   0.0848
     0.1110   0.1110   0.1126   0.1127   0.1650   0.1728   0.1749   0.1751
     0.1751   0.1752   0.1848   0.1856   0.1876   0.1878   0.1965   0.1967
     0.2078   0.2144   0.2195   0.2224   0.2295   0.2295   0.2321   0.2323
     0.2400   0.2402   0.2429   0.2432   0.2435   0.2438   0.3005   0.3006
     0.3038   0.3040   0.3205   0.3207   0.3225   0.3225   0.3288   0.3289
     0.3303   0.3338   0.3472   0.3474   0.3479   0.3480   0.3660   0.3730
     0.3749   0.3759   0.3916   0.3917   0.3921   0.3921   0.4107   0.4129
     0.4284   0.4284   0.4402   0.4402   0.4522   0.4528   0.4529   0.4536
     0.4973   0.4982   0.5010   0.5016   0.5128   0.5129   0.5194   0.5197
     0.5467   0.5468   0.5809   0.5813   0.5814   0.5832   0.6181   0.6181
     0.6615   0.6623   0.7032   0.7036   0.7040   0.7044   0.7314   0.7315
     0.7320   0.7321   0.7408   0.7410   0.7675   0.7691   0.7721   0.7722
     0.7723   0.7723   0.7741   0.7744   0.7825   0.7869   0.7955   0.7955
     0.7969   0.7971   0.7991   0.7995   0.8012   0.8023   0.8341   0.8341
     0.8442   0.8445   0.8448   0.8449   0.8511   0.8511   0.8738   0.8741
     0.8743   0.8750   0.8751   0.8754   0.8755   0.8758   0.8769   0.8807
     0.8994   0.8997   0.9006   0.9010   0.9010   0.9011   0.9013   0.9020
     0.9180   0.9180   0.9623   0.9627   0.9746   0.9749   0.9869   0.9871
     0.9875   0.9877   0.9930   0.9930   0.9944   0.9945   0.9984   0.9984
     0.9985   0.9985   1.0418   1.0423   1.0423   1.0427   1.0591   1.0591
     1.0610   1.0619   1.0622   1.0632   1.0712   1.0714   1.0926   1.0933
     1.0975   1.0978   1.0987   1.0990   1.1517   1.1524   1.2016   1.2017
     1.2119   1.2124   1.2128   1.2168   1.2220   1.2221   1.2288   1.2289
     1.2351   1.2356   1.2445   1.2445   1.2452   1.2453   1.2571   1.2580
     1.2584   1.2585   1.2596   1.2615   1.2732   1.2734   1.2812   1.2812
     1.2865   1.2865   1.2882   1.2884   1.2897   1.2898   1.2958   1.2958
     1.3039   1.3039   1.3082   1.3083   1.3087   1.3087   1.3297   1.3297
     1.3424   1.3431   1.3446   1.3453   1.3478   1.3482   1.3567   1.3568
     1.3578   1.3578   1.3578   1.3578   1.4061   1.4073   1.4326   1.4363
     1.4455   1.4455   1.4575   1.4576   1.4745   1.4758   1.4769   1.4782
     1.4873   1.4873   1.5041   1.5042   1.5107   1.5108   1.5147   1.5148
     1.5149   1.5150   1.5160   1.5164   1.5190   1.5194   1.5212   1.5219
     1.5285   1.5286   1.5411   1.5432   1.5462   1.5465   1.5470   1.5473
     1.5581   1.5594   1.5856   1.5861   1.5884   1.5884   1.5951   1.5951
     1.5959   1.5960   1.6133   1.6134   1.6144   1.6147   1.6279   1.6279
     1.6320   1.6328   1.6334   1.6338   1.6507   1.6508   1.6519   1.6519
     1.6707   1.6709   1.6736   1.6737   1.6868   1.6868   1.6970   1.6975
     1.6979   1.6983   1.7114   1.7114   1.7139   1.7139   1.7303   1.7309
     1.7445   1.7445   1.7471   1.7472   1.7646   1.7646   1.7675   1.7676
     1.7676   1.7681   1.7690   1.7695   1.7973   1.7974   1.8042   1.8042
     1.8152   1.8152   1.8231   1.8238   1.8372   1.8372   1.8377   1.8377
     1.8472   1.8472   1.8593   1.8593   1.9027   1.9027   1.9032   1.9032
     2.0024   2.0024   2.0230   2.0230   2.0547   2.0552   2.0552   2.0558
     2.1017   2.1017   2.1139   2.1141   2.1294   2.1299   2.1301   2.1309
     2.1696   2.1696   2.4487   2.4495   2.4548   2.4561   2.7297   2.7298
     2.7299   2.7300   2.8118   2.8118   2.8741   2.8744   2.8765   2.8765
     2.8931   2.8936   3.0240   3.0258   3.0648   3.0649   3.0915   3.0918
     3.2391   3.2401   3.4764   3.4765   3.5035   3.5040   3.6787   3.6788
     3.9837   3.9837   4.3006   4.3008   4.3130   4.3132   4.4248   4.4249
     4.4347   4.4347   4.6311   4.6315   4.6319   4.6324   4.8023   4.8039
     4.9608   4.9610   5.0464   5.0465   5.3985   5.3986   5.4139   5.4139
     5.6691   5.6701   5.6702   5.6714   5.7412   5.7412   5.9836   5.9838
     6.1182   6.1309   6.1752   6.1872   6.6585   6.6587   6.7135   6.7150
     6.7169   6.7196   6.8524   6.8529   6.9780   6.9781   7.0949   7.0950
     7.3190   7.3278   7.3519   7.3607   7.3920   7.3924   7.4236   7.4237
     7.4327   7.4330   7.4764   7.4764   7.6430   7.6430   7.6927   7.6946
     7.7296   7.7336   8.0643   8.0649   8.0875   8.0875   8.1066   8.1093
     8.4536   8.4538   8.4850   8.4850   8.6678   8.6683   8.6931   8.6934
     8.6945   8.6952   8.8641   8.8645   8.9039   8.9039   9.0214   9.0220
     9.0276   9.0281   9.0712   9.0714   9.1385   9.1385   9.1742   9.1744
     9.3296   9.3297   9.4361   9.4375   9.5273   9.5314   9.5339   9.5366
     9.6932   9.6935   9.6937   9.6940   9.7562   9.7578   9.7594   9.7597
     9.8929   9.8929  10.1782  10.1784  10.1784  10.1785  10.3689

          k = 0.2500 0.0000 0.0000 (256240 PWs)   bands (ev):

   -15.9574 -15.5858 -15.5856 -14.9701 -14.6031 -14.6030 -14.4813 -14.4813
   -13.5159 -13.5159 -13.0407 -12.6868 -12.6859 -12.6856 -12.6847 -11.7653
   -11.7637 -11.6561 -11.6561 -10.6773 -10.3625 -10.3611 -10.3523  -9.8358
    -9.6839  -9.3838  -9.3835  -8.9831  -8.7281  -8.7281  -8.1702  -7.1628
    -7.1612  -7.1604  -7.1591  -7.0454  -7.0432  -6.5819  -6.3090  -5.7411
    -5.5413  -5.5413  -5.5298  -5.5297  -5.5267  -5.0000  -4.9978  -4.8012
    -4.7992  -4.6164  -4.2971  -4.1539  -4.1364  -4.1354  -4.1316  -3.9840
    -3.9840  -3.9624  -3.9607  -3.6884  -3.6864  -3.6746  -3.6739  -3.5281
    -3.5280  -3.5214  -3.3617  -3.2341  -3.2341  -3.1514  -3.1508  -3.1498
    -3.1487  -3.0453  -3.0453  -2.9476  -2.9475  -2.9337  -2.7934  -2.7934
    -2.7619  -2.7240  -2.5711  -2.5706  -2.4863  -2.4862  -2.4160  -2.4160
    -2.3137  -2.3113  -2.0955  -2.0955  -2.0872  -2.0204  -2.0203  -1.7859
    -1.7858  -1.7694  -1.7678  -1.7181  -1.6945  -1.6354  -1.6353  -1.6277
    -1.6255  -1.5835  -1.5822  -1.5252  -1.4863  -1.4863  -1.4789  -1.4789
    -1.4583  -1.4313  -1.4141  -1.4050  -1.4050  -1.3909  -1.3909  -1.3323
    -1.3316  -1.2872  -1.2776  -1.2762  -1.2674  -1.2659  -1.2642  -1.2642
    -1.2601  -1.2598  -1.2133  -1.2084  -1.1882  -1.1864  -1.1763  -1.1746
    -1.0570  -1.0191  -1.0182  -0.9965  -0.9950  -0.9520  -0.9520  -0.9279
    -0.9270  -0.9210  -0.9167  -0.9166  -0.8992  -0.8991  -0.8909  -0.8684
    -0.8672  -0.8622  -0.8538  -0.8190  -0.8177  -0.8171  -0.8168  -0.8161
    -0.8156  -0.7967  -0.7949  -0.7723  -0.7627  -0.7347  -0.7332  -0.7327
    -0.7323  -0.7320  -0.7306  -0.7027  -0.6971  -0.6957  -0.6846  -0.6795
    -0.6794  -0.6664  -0.6664  -0.6657  -0.6653  -0.6600  -0.6597  -0.6483
    -0.6321  -0.6319  -0.6290  -0.6259  -0.6243  -0.6116  -0.6113  -0.5874
    -0.5851  -0.5847  -0.5837  -0.5794  -0.5361  -0.5355  -0.5000  -0.5000
    -0.4807  -0.4796  -0.4694  -0.4539  -0.4537  -0.4406  -0.4375  -0.4357
    -0.4335  -0.4264  -0.4255  -0.4058  -0.2862  -0.2852  -0.2815  -0.2796
    -0.2514  -0.2499  -0.2498  -0.2335  -0.2335  -0.2322  -0.2312  -0.2124
    -0.2124  -0.2106  -0.2105  -0.1966  -0.1965  -0.1720  -0.1710  -0.1678
    -0.1676  -0.1656  -0.1656  -0.1440  -0.1440  -0.1397  -0.0864  -0.0839
    -0.0824  -0.0823  -0.0804  -0.0740  -0.0724  -0.0642  -0.0588  -0.0587
    -0.0396  -0.0395  -0.0199  -0.0159  -0.0158  -0.0105   0.0211   0.0211
     0.0249   0.0249   0.0356   0.0356   0.0456   0.0514   0.0515   0.0612
     0.0613   0.0797   0.0800   0.0880   0.1128   0.1187   0.1190   0.1192
     0.1212   0.1238   0.1354   0.1361   0.1364   0.1365   0.1623   0.1630
     0.1654   0.1655   0.1773   0.1792   0.2026   0.2065   0.2065   0.2125
     0.2135   0.2511   0.2529   0.2547   0.2619   0.2638   0.2722   0.2987
     0.2988   0.3054   0.3057   0.3108   0.3117   0.3120   0.3194   0.3214
     0.3220   0.3232   0.3252   0.3261   0.3300   0.3475   0.3475   0.3502
     0.3507   0.3579   0.3579   0.3762   0.3762   0.3913   0.3924   0.4048
     0.4150   0.4189   0.4329   0.4332   0.4343   0.4344   0.4357   0.4508
     0.4541   0.4584   0.4587   0.4588   0.4592   0.4937   0.4937   0.5268
     0.5275   0.5719   0.5721   0.5727   0.5871   0.5888   0.5922   0.5926
     0.5969   0.6003   0.6006   0.6022   0.6052   0.6052   0.6093   0.6094
     0.6119   0.6239   0.6240   0.6256   0.6257   0.6389   0.6389   0.6443
     0.6465   0.6512   0.6518   0.6751   0.6760   0.6789   0.7131   0.7132
     0.7230   0.7335   0.7342   0.7438   0.7442   0.7604   0.7604   0.7615
     0.7644   0.7749   0.7776   0.7940   0.7952   0.7953   0.8031   0.8034
     0.8076   0.8079   0.8137   0.8138   0.8347   0.8413   0.8413   0.8612
     0.8612   0.8625   0.8626   0.8692   0.8713   0.8716   0.8729   0.8736
     0.8904   0.8970   0.8971   0.9097   0.9104   0.9108   0.9116   0.9147
     0.9275   0.9276   0.9306   0.9355   0.9356   0.9550   0.9554   0.9734
     0.9737   0.9805   0.9806   0.9862   0.9862   0.9866   1.0076   1.0187
     1.0225   1.0414   1.0438   1.0465   1.0584   1.0584   1.0629   1.0631
     1.0674   1.0836   1.0889   1.0915   1.0955   1.0960   1.1060   1.1069
     1.1171   1.1207   1.1211   1.1331   1.1418   1.1423   1.1432   1.1464
     1.1684   1.1696   1.1734   1.1737   1.1767   1.1974   1.1998   1.2093
     1.2094   1.2108   1.2110   1.2165   1.2186   1.2220   1.2234   1.2296
     1.2631   1.2638   1.2646   1.2716   1.2726   1.2727   1.2770   1.2859
     1.2875   1.3049   1.3050   1.3079   1.3110   1.3185   1.3192   1.3207
     1.3332   1.3347   1.3347   1.3365   1.3403   1.3405   1.3449   1.3464
     1.3467   1.3488   1.3498   1.3522   1.3593   1.3639   1.3749   1.3751
     1.3797   1.3842   1.3842   1.3893   1.3941   1.3944   1.3954   1.4069
     1.4087   1.4233   1.4250   1.4260   1.4268   1.4284   1.4379   1.4490
     1.4525   1.4526   1.4642   1.4642   1.4720   1.4730   1.4745   1.4748
     1.4822   1.4951   1.4998   1.5057   1.5093   1.5097   1.5202   1.5408
     1.5430   1.5574   1.5590   1.5600   1.5623   1.5712   1.5714   1.5724
     1.5728   1.5804   1.5875   1.5922   1.5922   1.5971   1.5972   1.6059
     1.6136   1.6147   1.6191   1.6193   1.6245   1.6302   1.6306   1.6314
     1.6345   1.6346   1.6414   1.6422   1.6436   1.6441   1.6474   1.6542
     1.6670   1.6675   1.6695   1.6723   1.6724   1.6747   1.6786   1.6966
     1.6968   1.6998   1.6999   1.7010   1.7233   1.7235   1.7319   1.7363
     1.7377   1.7411   1.7414   1.7443   1.7452   1.7453   1.7517   1.7530
     1.7536   1.7576   1.7582   1.7666   1.7801   1.7801   1.7820   1.7829
     1.7830   1.7879   1.7880   1.8006   1.8009   1.8098   1.8122   1.8230
     1.8234   1.8288   1.8289   1.8327   1.8359   1.8412   1.8644   1.8709
     1.8913   1.8986   1.9001   1.9418   1.9427   1.9462   1.9624   1.9856
     1.9929   2.0608   2.0677   2.0785   2.0785   2.1029   2.1099   2.1531
     2.1578   2.3176   2.3473   2.3787   2.3788   2.3980   2.3980   2.4549
     2.5044   2.5545   2.5560   2.8756   2.8774   2.8776   2.8816   3.2908
     3.2908   3.3148   3.5086   3.5086   3.5326   3.5326   3.5740   3.5813
     3.7393   3.7747   3.8833   3.8834   3.9408   3.9409   4.0104   4.0106
     4.0263   4.0279   4.0636   4.1798   4.1800   4.2733   4.2734   4.3318
     4.4627   4.4656   4.5110   4.5934   4.6674   4.7325   4.7455   4.9427
     5.0356   5.1445   5.1451   5.4345   5.5283   5.5284   5.5403   5.6306
     5.6308   5.6626   5.7710   5.7722   5.8185   5.8631   5.8776   5.8809
     5.9530   5.9549   6.0388   6.0399   6.1039   6.1041   6.1765   6.1845
     6.3214   6.3235   6.3636   6.3647   6.9355   6.9960   6.9962   7.0274
     7.0658   7.0942   7.0991   7.1278   7.1338   7.2866   7.3251   7.3410
     7.3413   7.3461   7.3801   7.5184   7.5442   7.5447   7.6007   7.6012
     7.7628   7.7718   7.8587   7.8722   7.9484   8.0231   8.0233   8.0234
     8.0262   8.0788   8.1311   8.3068   8.3161   8.3693   8.3695   8.5176
     8.5349   8.6108   8.6119   8.6227   8.6229   8.6569   8.6574   8.6924
     8.6956   8.7542   8.8611   8.9450   8.9534   8.9536   9.2144   9.2226
     9.4029   9.4128   9.4392   9.4396   9.4560   9.4794   9.4967   9.4985
     9.4990   9.5035   9.5036   9.5192   9.5295   9.5576   9.5737   9.6982
     9.6986   9.7943   9.7943  10.0291  10.0519  10.0524  10.2608

          k = 0.2500-0.2165 0.0000 (256316 PWs)   bands (ev):

   -15.8643 -15.8643 -15.1235 -15.1235 -14.8782 -14.8781 -14.1474 -14.1473
   -13.6652 -13.6651 -12.9517 -12.9516 -12.7166 -12.7166 -12.2494 -12.2493
   -11.5725 -11.5724 -10.9508 -10.9507 -10.6932 -10.6931 -10.3088 -10.3088
    -9.2610  -9.2610  -8.7384  -8.7383  -8.6579  -8.6579  -8.0962  -8.0962
    -8.0069  -8.0069  -6.2785  -6.2784  -6.2537  -6.2536  -6.1368  -6.1368
    -5.9093  -5.9093  -5.5737  -5.5736  -5.3934  -5.3933  -4.7773  -4.7772
    -4.4951  -4.4950  -4.4512  -4.4512  -4.3625  -4.3624  -4.0348  -4.0347
    -4.0162  -4.0162  -3.8131  -3.8130  -3.7662  -3.7660  -3.5585  -3.5582
    -3.4279  -3.4278  -3.2560  -3.2559  -3.1847  -3.1845  -3.1460  -3.1460
    -3.1242  -3.1241  -2.8396  -2.8395  -2.8298  -2.8298  -2.6994  -2.6994
    -2.6171  -2.6170  -2.5967  -2.5963  -2.4994  -2.4993  -2.4849  -2.4848
    -2.2109  -2.2107  -2.1604  -2.1603  -2.0011  -2.0011  -1.9325  -1.9323
    -1.8690  -1.8689  -1.8553  -1.8552  -1.6953  -1.6951  -1.6598  -1.6598
    -1.6212  -1.6209  -1.5653  -1.5652  -1.5061  -1.5060  -1.4989  -1.4989
    -1.4407  -1.4407  -1.4080  -1.4080  -1.3942  -1.3942  -1.3802  -1.3802
    -1.3768  -1.3766  -1.3631  -1.3631  -1.3614  -1.3613  -1.3524  -1.3523
    -1.2663  -1.2663  -1.1537  -1.1536  -1.0526  -1.0521  -1.0389  -1.0382
    -1.0142  -1.0142  -0.9610  -0.9610  -0.9598  -0.9598  -0.9468  -0.9467
    -0.9335  -0.9335  -0.9230  -0.9229  -0.9113  -0.9113  -0.8961  -0.8961
    -0.8877  -0.8875  -0.8806  -0.8805  -0.8705  -0.8705  -0.8151  -0.8150
    -0.8118  -0.8118  -0.8055  -0.8055  -0.7973  -0.7973  -0.7685  -0.7685
    -0.7653  -0.7652  -0.7240  -0.7240  -0.7121  -0.7121  -0.7098  -0.7097
    -0.6798  -0.6798  -0.6557  -0.6556  -0.6453  -0.6453  -0.6399  -0.6399
    -0.6341  -0.6340  -0.6073  -0.6072  -0.5887  -0.5886  -0.5513  -0.5513
    -0.5462  -0.5458  -0.4761  -0.4758  -0.4622  -0.4622  -0.4572  -0.4572
    -0.4511  -0.4507  -0.4324  -0.4324  -0.4050  -0.4050  -0.3961  -0.3961
    -0.3901  -0.3901  -0.3779  -0.3779  -0.3403  -0.3403  -0.3356  -0.3355
    -0.2986  -0.2980  -0.2499  -0.2499  -0.2489  -0.2484  -0.2380  -0.2377
    -0.2163  -0.2162  -0.2043  -0.2042  -0.1850  -0.1838  -0.1717  -0.1715
    -0.1410  -0.1409  -0.1302  -0.1301  -0.1255  -0.1255  -0.0912  -0.0912
    -0.0782  -0.0782  -0.0638  -0.0635  -0.0598  -0.0598  -0.0528  -0.0527
    -0.0508  -0.0507  -0.0478  -0.0475  -0.0399  -0.0398  -0.0350  -0.0350
    -0.0176  -0.0176  -0.0006  -0.0006   0.0271   0.0271   0.0435   0.0439
     0.0577   0.0577   0.0770   0.0771   0.0876   0.0876   0.1001   0.1001
     0.1037   0.1037   0.1378   0.1380   0.1632   0.1633   0.1983   0.1983
     0.2084   0.2084   0.2120   0.2131   0.2299   0.2299   0.2346   0.2346
     0.2462   0.2462   0.2617   0.2618   0.2688   0.2689   0.2753   0.2753
     0.2780   0.2785   0.3034   0.3035   0.3115   0.3116   0.3139   0.3144
     0.3159   0.3163   0.3181   0.3182   0.3242   0.3249   0.3484   0.3485
     0.3488   0.3488   0.3835   0.3836   0.3915   0.3915   0.3954   0.3956
     0.4161   0.4167   0.4262   0.4263   0.4492   0.4492   0.4531   0.4533
     0.4572   0.4574   0.4686   0.4687   0.4720   0.4720   0.4869   0.4870
     0.4938   0.4941   0.5225   0.5226   0.5871   0.5871   0.5993   0.5993
     0.6009   0.6011   0.6044   0.6045   0.6066   0.6069   0.6096   0.6105
     0.6347   0.6348   0.6367   0.6367   0.6471   0.6472   0.6487   0.6488
     0.6520   0.6520   0.6827   0.6827   0.6989   0.6994   0.7116   0.7116
     0.7198   0.7200   0.7612   0.7613   0.7670   0.7670   0.7713   0.7716
     0.7749   0.7749   0.7867   0.7867   0.7970   0.7973   0.7976   0.7987
     0.7990   0.7994   0.8297   0.8297   0.8354   0.8355   0.8495   0.8496
     0.8845   0.8845   0.8854   0.8866   0.9116   0.9131   0.9171   0.9173
     0.9200   0.9210   0.9260   0.9262   0.9322   0.9322   0.9428   0.9443
     0.9471   0.9475   0.9546   0.9547   0.9663   0.9663   0.9777   0.9780
     0.9834   0.9835   0.9858   0.9858   0.9952   0.9953   1.0043   1.0044
     1.0066   1.0066   1.0225   1.0226   1.0270   1.0271   1.0337   1.0338
     1.0368   1.0368   1.0402   1.0404   1.0741   1.0743   1.0826   1.0826
     1.1086   1.1134   1.1239   1.1241   1.1406   1.1407   1.1427   1.1427
     1.1481   1.1486   1.1686   1.1686   1.1715   1.1717   1.1729   1.1730
     1.1818   1.1820   1.1991   1.1993   1.2009   1.2019   1.2130   1.2131
     1.2227   1.2231   1.2432   1.2432   1.2667   1.2677   1.2704   1.2709
     1.2784   1.2793   1.2825   1.2829   1.2891   1.2891   1.3066   1.3067
     1.3186   1.3192   1.3355   1.3355   1.3455   1.3458   1.3555   1.3557
     1.3806   1.3810   1.3844   1.3848   1.3982   1.3982   1.4036   1.4037
     1.4052   1.4053   1.4071   1.4071   1.4114   1.4115   1.4227   1.4232
     1.4345   1.4346   1.4351   1.4353   1.4546   1.4547   1.4823   1.4823
     1.4869   1.4873   1.4914   1.4917   1.4926   1.4931   1.5021   1.5027
     1.5081   1.5081   1.5106   1.5110   1.5146   1.5147   1.5189   1.5193
     1.5274   1.5278   1.5321   1.5322   1.5404   1.5405   1.5424   1.5425
     1.5535   1.5535   1.5631   1.5631   1.5874   1.5875   1.5959   1.5959
     1.6106   1.6107   1.6119   1.6119   1.6278   1.6279   1.6334   1.6344
     1.6362   1.6363   1.6472   1.6472   1.6533   1.6550   1.6643   1.6644
     1.6658   1.6659   1.6782   1.6783   1.6893   1.6893   1.6988   1.6989
     1.6994   1.6994   1.7067   1.7068   1.7096   1.7097   1.7241   1.7242
     1.7277   1.7278   1.7372   1.7391   1.7418   1.7418   1.7520   1.7521
     1.7538   1.7538   1.7602   1.7603   1.7626   1.7627   1.7657   1.7676
     1.7714   1.7714   1.7957   1.7957   1.8042   1.8043   1.8184   1.8184
     1.8375   1.8379   1.8451   1.8452   1.8680   1.8680   1.8743   1.8743
     1.8982   1.8982   1.9345   1.9345   1.9633   1.9635   1.9762   1.9762
     2.0632   2.0635   2.0756   2.0766   2.0963   2.0964   2.1009   2.1012
     2.1231   2.1237   2.1449   2.1450   2.4421   2.4425   2.4721   2.4721
     2.5993   2.5993   2.8991   2.8992   3.0952   3.0955   3.1011   3.1012
     3.1103   3.1108   3.1345   3.1346   3.2964   3.2965   3.3796   3.3796
     3.8446   3.8446   3.9068   3.9069   3.9408   3.9410   4.1488   4.1489
     4.1562   4.1563   4.2997   4.3010   4.3731   4.3731   4.4737   4.4744
     4.6793   4.6794   4.6863   4.6864   4.8482   4.8495   4.9694   4.9698
     5.0192   5.0200   5.0876   5.0883   5.2032   5.2036   5.2884   5.2886
     5.4554   5.4558   5.5504   5.5508   5.7417   5.7419   5.7641   5.7641
     5.7814   5.7814   6.0719   6.0723   6.1734   6.1739   6.2665   6.2666
     6.3325   6.3332   6.8811   6.8813   6.9008   6.9029   7.0376   7.0393
     7.1380   7.1397   7.3010   7.3012   7.3769   7.3820   7.3827   7.3830
     7.4611   7.4651   7.5228   7.5231   7.6341   7.6370   7.6402   7.6427
     7.6449   7.6452   7.6972   7.6972   7.7319   7.7319   7.9657   7.9660
     8.0922   8.0924   8.2619   8.2620   8.2630   8.2631   8.4972   8.4973
     8.5445   8.5446   8.6523   8.6523   8.7744   8.7747   8.8908   8.8909
     8.9291   8.9296   8.9838   8.9838   8.9975   8.9975   9.0688   9.0688
     9.1838   9.1840   9.2488   9.2490   9.3133   9.3133   9.4227   9.4229
     9.4804   9.4806   9.5150   9.5151   9.5748   9.5748   9.6296   9.6320
     9.6538   9.6539   9.6601   9.6601   9.7396   9.7413  10.0522

          k =-0.5000 0.0000 0.0000 (256496 PWs)   bands (ev):

   -15.5857 -15.5857 -15.2158 -15.2158 -15.2156 -15.2156 -14.1181 -14.1181
   -14.1171 -14.1171 -12.3384 -12.3382 -12.3366 -12.3364 -11.7642 -11.7642
   -11.4336 -11.4335 -11.4330 -11.4328 -10.7833 -10.7833 -10.3612 -10.3612
    -9.7882  -9.7882  -9.3842  -9.3842  -8.5451  -8.5446  -8.5432  -8.5427
    -7.0438  -7.0438  -6.9784  -6.9780  -6.9754  -6.9750  -5.5303  -5.5303
    -4.9971  -4.9970  -4.8004  -4.8004  -4.4915  -4.4915  -4.4895  -4.4894
    -4.3822  -4.3820  -4.3810  -4.3808  -4.2951  -4.2951  -4.2925  -4.2925
    -4.1344  -4.1344  -4.0012  -4.0012  -4.0003  -4.0003  -3.6793  -3.6792
    -3.6767  -3.6764  -3.6665  -3.6665  -3.2418  -3.2416  -3.2410  -3.2409
    -3.1070  -3.1069  -3.1068  -3.1067  -3.0014  -3.0013  -2.9889  -2.9889
    -2.9866  -2.9866  -2.4393  -2.4392  -2.4379  -2.4379  -2.3972  -2.3971
    -2.3954  -2.3954  -2.2987  -2.2986  -2.1120  -2.1120  -2.1115  -2.1115
    -1.9929  -1.9926  -1.9908  -1.9905  -1.5655  -1.5654  -1.5648  -1.5648
    -1.5620  -1.5619  -1.4411  -1.4411  -1.4408  -1.4407  -1.3358  -1.3358
    -1.3355  -1.3355  -1.2876  -1.2875  -1.2864  -1.2862  -1.2747  -1.2746
    -1.1917  -1.1917  -1.1741  -1.1740  -1.1107  -1.1107  -1.1101  -1.1100
    -1.0905  -1.0905  -1.0808  -1.0808  -1.0790  -1.0789  -1.0416  -1.0415
    -1.0388  -1.0388  -1.0275  -1.0272  -1.0265  -1.0264  -1.0235  -1.0232
    -0.9772  -0.9771  -0.9756  -0.9755  -0.9525  -0.9524  -0.9519  -0.9519
    -0.8882  -0.8882  -0.8664  -0.8662  -0.8657  -0.8655  -0.8392  -0.8392
    -0.8386  -0.8386  -0.8340  -0.8340  -0.8333  -0.8333  -0.7926  -0.7925
    -0.7916  -0.7916  -0.7692  -0.7691  -0.7390  -0.7389  -0.6936  -0.6936
    -0.6648  -0.6646  -0.6633  -0.6632  -0.6372  -0.6371  -0.6367  -0.6366
    -0.6279  -0.6278  -0.6273  -0.6273  -0.6254  -0.6254  -0.6155  -0.6154
    -0.6133  -0.6133  -0.5860  -0.5859  -0.5240  -0.5238  -0.5220  -0.5218
    -0.4778  -0.4778  -0.3959  -0.3958  -0.3955  -0.3955  -0.3611  -0.3606
    -0.3566  -0.3566  -0.3558  -0.3556  -0.3509  -0.3500  -0.3421  -0.3408
    -0.3153  -0.3148  -0.3134  -0.3130  -0.2988  -0.2985  -0.2837  -0.2834
    -0.2820  -0.2817  -0.1915  -0.1913  -0.1903  -0.1901  -0.1462  -0.1462
    -0.1447  -0.1447  -0.1392  -0.1391  -0.0925  -0.0925  -0.0920  -0.0919
    -0.0891  -0.0891  -0.0876  -0.0875  -0.0569  -0.0568  -0.0539  -0.0539
    -0.0536  -0.0536  -0.0125  -0.0124  -0.0116  -0.0115   0.0211   0.0211
     0.0211   0.0211   0.0332   0.0332   0.0657   0.0657   0.0670   0.0671
     0.0757   0.0759   0.0769   0.0771   0.1075   0.1076   0.1186   0.1188
     0.1814   0.1814   0.1824   0.1825   0.1874   0.1874   0.1881   0.1881
     0.2289   0.2290   0.2307   0.2308   0.2647   0.2647   0.2911   0.2913
     0.2930   0.2931   0.2953   0.2954   0.2954   0.2955   0.2961   0.2961
     0.2962   0.2962   0.3417   0.3417   0.3787   0.3789   0.3824   0.3827
     0.3847   0.3852   0.3896   0.3896   0.3899   0.3899   0.3954   0.3955
     0.3972   0.3974   0.4022   0.4029   0.4070   0.4076   0.4190   0.4190
     0.4320   0.4320   0.4325   0.4325   0.4326   0.4326   0.4451   0.4451
     0.4455   0.4455   0.4580   0.4580   0.4701   0.4701   0.4704   0.4705
     0.4761   0.4761   0.5002   0.5002   0.5788   0.5795   0.5910   0.5915
     0.6042   0.6043   0.6059   0.6060   0.6376   0.6377   0.6384   0.6385
     0.6522   0.6523   0.6581   0.6584   0.6626   0.6628   0.6642   0.6644
     0.6694   0.6694   0.6696   0.6698   0.6712   0.6712   0.6844   0.6845
     0.6955   0.6956   0.7011   0.7013   0.7066   0.7069   0.7118   0.7121
     0.7199   0.7200   0.7674   0.7675   0.8097   0.8097   0.8102   0.8111
     0.8195   0.8202   0.8413   0.8414   0.8436   0.8437   0.8461   0.8462
     0.8465   0.8467   0.8481   0.8484   0.8501   0.8506   0.8545   0.8546
     0.8616   0.8617   0.8621   0.8623   0.8839   0.8841   0.9010   0.9010
     0.9228   0.9234   0.9326   0.9327   0.9349   0.9362   0.9389   0.9396
     0.9471   0.9472   0.9478   0.9480   0.9517   0.9518   0.9653   0.9654
     0.9683   0.9683   0.9843   0.9845   0.9851   0.9851   1.0242   1.0244
     1.0248   1.0249   1.0251   1.0251   1.0431   1.0431   1.0771   1.0771
     1.0822   1.0823   1.0863   1.0864   1.0877   1.0878   1.1300   1.1303
     1.1506   1.1507   1.1546   1.1546   1.1553   1.1553   1.1622   1.1625
     1.1700   1.1702   1.1706   1.1710   1.1823   1.1830   1.2029   1.2029
     1.2044   1.2045   1.2164   1.2165   1.2234   1.2235   1.2241   1.2242
     1.2257   1.2258   1.2602   1.2603   1.2608   1.2609   1.3204   1.3207
     1.3300   1.3300   1.3308   1.3308   1.3649   1.3650   1.3652   1.3653
     1.3692   1.3692   1.3859   1.3859   1.3938   1.3938   1.4044   1.4050
     1.4095   1.4103   1.4288   1.4288   1.4321   1.4322   1.4327   1.4329
     1.4397   1.4397   1.4448   1.4448   1.4501   1.4501   1.4541   1.4542
     1.4551   1.4552   1.4565   1.4565   1.4873   1.4873   1.4917   1.4917
     1.5211   1.5217   1.5252   1.5259   1.5297   1.5297   1.5298   1.5299
     1.5483   1.5483   1.5580   1.5580   1.5584   1.5586   1.5682   1.5683
     1.5688   1.5689   1.5747   1.5748   1.5869   1.5872   1.5936   1.5939
     1.6163   1.6163   1.6316   1.6317   1.6319   1.6320   1.6329   1.6329
     1.6332   1.6332   1.6459   1.6461   1.6464   1.6464   1.6473   1.6473
     1.6490   1.6490   1.6539   1.6541   1.6585   1.6587   1.6593   1.6595
     1.6676   1.6676   1.6823   1.6824   1.6957   1.6958   1.6968   1.6969
     1.7105   1.7106   1.7116   1.7117   1.7281   1.7281   1.7315   1.7315
     1.7473   1.7473   1.7534   1.7534   1.7643   1.7643   1.7646   1.7646
     1.7843   1.7843   1.7845   1.7846   1.7921   1.7922   1.7977   1.7978
     1.7982   1.7982   1.8079   1.8079   1.8166   1.8166   1.8300   1.8300
     1.8303   1.8304   1.8443   1.8444   1.8450   1.8450   1.8941   1.8942
     1.9244   1.9244   1.9285   1.9285   1.9449   1.9451   2.3403   2.3403
     2.3407   2.3407   2.5470   2.5470   2.5554   2.5555   2.5998   2.5998
     2.6068   2.6068   2.9158   2.9160   2.9183   2.9184   3.1423   3.1424
     3.1476   3.1477   3.4978   3.4981   3.5009   3.5012   3.7811   3.7811
     4.0559   4.0559   4.0562   4.0562   4.2289   4.2290   4.2329   4.2329
     4.3815   4.3821   4.3856   4.3863   4.4571   4.4571   4.7435   4.7438
     4.8749   4.8752   5.0191   5.0207   5.0255   5.0270   5.1368   5.1368
     5.1775   5.1775   5.3328   5.3336   5.3558   5.3560   5.3574   5.3574
     5.3807   5.3812   5.3989   5.3994   5.4799   5.4814   5.4886   5.4900
     5.8416   5.8434   5.8487   5.8508   5.9378   5.9380   6.1965   6.1966
     6.3000   6.3004   6.3105   6.3105   6.3227   6.3233   6.3333   6.3342
     6.6969   6.6970   6.7236   6.7238   6.8039   6.8049   6.8101   6.8112
     7.3912   7.3921   7.4055   7.4071   7.4270   7.4276   7.8879   7.8881
     7.8951   7.8951   7.8957   7.8958   7.9330   7.9334   8.0234   8.0235
     8.1277   8.1278   8.1812   8.1818   8.1835   8.1841   8.3619   8.3628
     8.3659   8.3669   8.4000   8.4001   8.4070   8.4073   8.5247   8.5247
     8.5257   8.5258   8.6563   8.6563   9.1219   9.1219   9.1261   9.1262
     9.1803   9.1803   9.1807   9.1808   9.3555   9.3557   9.3591   9.3593
     9.4393   9.4393   9.5704   9.5705   9.7939   9.7940   9.7962   9.7964
     9.8045   9.8045   9.8255   9.8257   9.8377   9.8377   9.9242

          k =-0.5000-0.2165 0.0000 (256328 PWs)   bands (ev):

   -15.4943 -15.4943 -15.4917 -15.4917 -14.7560 -14.7560 -14.7558 -14.7557
   -13.3075 -13.3075 -13.3074 -13.3074 -11.6800 -11.6800 -11.6799 -11.6798
   -11.2394 -11.2394 -11.2384 -11.2384 -11.0591 -11.0591 -11.0590 -11.0589
    -9.3605  -9.3605  -9.3605  -9.3604  -8.3980  -8.3980  -8.3900  -8.3900
    -7.6290  -7.6290  -7.6289  -7.6289  -5.5526  -5.5525  -5.5525  -5.5524
    -4.9285  -4.9285  -4.9283  -4.9283  -4.8687  -4.8686  -4.8682  -4.8681
    -4.7023  -4.7023  -4.6916  -4.6916  -4.0230  -4.0230  -4.0118  -4.0117
    -3.8858  -3.8856  -3.8856  -3.8856  -3.8286  -3.8286  -3.8284  -3.8284
    -3.5626  -3.5626  -3.5586  -3.5585  -3.2788  -3.2788  -3.2783  -3.2783
    -3.2773  -3.2772  -3.2766  -3.2766  -3.1310  -3.1309  -3.1307  -3.1307
    -2.7414  -2.7414  -2.7412  -2.7412  -2.2664  -2.2663  -2.2661  -2.2660
    -2.2158  -2.2158  -2.2150  -2.2150  -1.9530  -1.9530  -1.9529  -1.9529
    -1.7807  -1.7806  -1.7803  -1.7803  -1.7051  -1.7050  -1.7044  -1.7043
    -1.6481  -1.6481  -1.6455  -1.6455  -1.4883  -1.4883  -1.4874  -1.4873
    -1.3995  -1.3994  -1.3988  -1.3987  -1.1797  -1.1796  -1.1795  -1.1793
    -1.1783  -1.1782  -1.1782  -1.1781  -1.1409  -1.1409  -1.1407  -1.1406
    -1.1190  -1.1190  -1.1190  -1.1189  -1.0679  -1.0678  -1.0677  -1.0675
    -1.0662  -1.0660  -1.0658  -1.0657  -1.0441  -1.0441  -1.0440  -1.0440
    -0.9928  -0.9927  -0.9923  -0.9923  -0.9183  -0.9183  -0.9176  -0.9176
    -0.8744  -0.8744  -0.8743  -0.8742  -0.8536  -0.8536  -0.8534  -0.8533
    -0.8059  -0.8059  -0.8058  -0.8058  -0.8013  -0.8013  -0.8013  -0.8013
    -0.7743  -0.7743  -0.7742  -0.7742  -0.7405  -0.7404  -0.7403  -0.7402
    -0.7234  -0.7234  -0.7233  -0.7233  -0.7214  -0.7213  -0.7210  -0.7210
    -0.6663  -0.6663  -0.6512  -0.6512  -0.5658  -0.5658  -0.5655  -0.5655
    -0.5368  -0.5368  -0.5365  -0.5364  -0.4537  -0.4535  -0.4531  -0.4527
    -0.4516  -0.4515  -0.4511  -0.4508  -0.4449  -0.4449  -0.4445  -0.4445
    -0.3838  -0.3838  -0.3836  -0.3835  -0.3726  -0.3725  -0.3716  -0.3715
    -0.3506  -0.3506  -0.3506  -0.3506  -0.2543  -0.2543  -0.2540  -0.2540
    -0.2505  -0.2504  -0.2498  -0.2497  -0.1821  -0.1821  -0.1816  -0.1816
    -0.1321  -0.1321  -0.1317  -0.1317  -0.1110  -0.1109  -0.1104  -0.1103
    -0.0852  -0.0851  -0.0845  -0.0845  -0.0721  -0.0721  -0.0713  -0.0713
    -0.0290  -0.0289  -0.0284  -0.0283   0.0435   0.0435   0.0441   0.0442
     0.0596   0.0596   0.0600   0.0601   0.0753   0.0753   0.0758   0.0758
     0.1570   0.1570   0.1573   0.1573   0.1629   0.1629   0.1632   0.1632
     0.1672   0.1673   0.1674   0.1674   0.2039   0.2039   0.2040   0.2040
     0.2173   0.2174   0.2180   0.2180   0.2205   0.2207   0.2208   0.2208
     0.2900   0.2901   0.2912   0.2912   0.3167   0.3168   0.3171   0.3172
     0.3665   0.3665   0.3688   0.3689   0.3780   0.3781   0.3805   0.3805
     0.3975   0.3975   0.3980   0.3980   0.4048   0.4048   0.4060   0.4061
     0.4093   0.4094   0.4107   0.4107   0.4185   0.4185   0.4191   0.4193
     0.4219   0.4219   0.4222   0.4222   0.4407   0.4407   0.4408   0.4408
     0.4681   0.4681   0.4682   0.4682   0.4785   0.4785   0.4787   0.4788
     0.5275   0.5275   0.5280   0.5280   0.5613   0.5613   0.5615   0.5616
     0.6233   0.6243   0.6287   0.6293   0.6454   0.6456   0.6463   0.6464
     0.6616   0.6618   0.6624   0.6627   0.6705   0.6720   0.6727   0.6736
     0.6786   0.6786   0.6794   0.6794   0.6858   0.6866   0.6869   0.6878
     0.6917   0.6921   0.6927   0.6934   0.7127   0.7131   0.7140   0.7141
     0.7682   0.7685   0.7687   0.7687   0.7761   0.7761   0.7768   0.7769
     0.7817   0.7818   0.7824   0.7826   0.8255   0.8255   0.8260   0.8262
     0.8268   0.8271   0.8273   0.8274   0.8721   0.8722   0.8722   0.8723
     0.8844   0.8845   0.8852   0.8853   0.8859   0.8861   0.8871   0.8872
     0.8936   0.8937   0.8937   0.8938   0.9087   0.9088   0.9091   0.9093
     0.9250   0.9250   0.9263   0.9263   0.9959   0.9959   0.9971   0.9973
     1.0006   1.0007   1.0009   1.0010   1.0054   1.0059   1.0070   1.0071
     1.0224   1.0225   1.0253   1.0253   1.0439   1.0440   1.0445   1.0445
     1.0482   1.0482   1.0483   1.0483   1.0989   1.0991   1.1005   1.1007
     1.1293   1.1295   1.1296   1.1298   1.1444   1.1446   1.1460   1.1465
     1.1628   1.1628   1.1634   1.1634   1.1879   1.1880   1.1901   1.1901
     1.2432   1.2433   1.2438   1.2439   1.2765   1.2766   1.2778   1.2779
     1.3306   1.3307   1.3308   1.3312   1.3420   1.3423   1.3434   1.3441
     1.3566   1.3569   1.3573   1.3574   1.3610   1.3610   1.3612   1.3613
     1.3641   1.3642   1.3652   1.3652   1.3859   1.3867   1.3891   1.3892
     1.3929   1.3934   1.3944   1.3946   1.3969   1.3973   1.3986   1.3995
     1.4124   1.4127   1.4131   1.4135   1.4371   1.4372   1.4376   1.4377
     1.4481   1.4484   1.4485   1.4486   1.4573   1.4573   1.4574   1.4575
     1.5086   1.5086   1.5100   1.5100   1.5100   1.5101   1.5156   1.5157
     1.5388   1.5389   1.5389   1.5389   1.5531   1.5531   1.5563   1.5564
     1.5706   1.5706   1.5710   1.5712   1.5880   1.5881   1.5885   1.5885
     1.5964   1.5964   1.5978   1.5978   1.6043   1.6043   1.6043   1.6043
     1.6705   1.6706   1.6713   1.6713   1.6719   1.6720   1.6723   1.6724
     1.6790   1.6790   1.6800   1.6806   1.6885   1.6888   1.6892   1.6895
     1.6976   1.6977   1.6981   1.6983   1.7040   1.7042   1.7047   1.7048
     1.7106   1.7106   1.7109   1.7109   1.7214   1.7215   1.7221   1.7222
     1.7328   1.7328   1.7334   1.7334   1.7648   1.7648   1.7649   1.7650
     1.7782   1.7782   1.7793   1.7793   1.7956   1.7956   1.7969   1.7969
     1.8179   1.8179   1.8181   1.8182   1.8680   1.8682   1.8698   1.8699
     1.8907   1.8907   1.8913   1.8913   1.9198   1.9199   1.9203   1.9205
     1.9227   1.9227   1.9231   1.9233   1.9329   1.9330   1.9334   1.9335
     2.1489   2.1489   2.1495   2.1495   2.6416   2.6416   2.6448   2.6448
     2.8713   2.8714   2.8735   2.8735   3.1034   3.1034   3.1037   3.1038
     3.3898   3.3899   3.3899   3.3899   3.7665   3.7665   3.7667   3.7667
     3.9518   3.9518   3.9537   3.9537   4.2426   4.2426   4.2430   4.2431
     4.5381   4.5382   4.5401   4.5401   4.6018   4.6019   4.6086   4.6086
     4.8601   4.8601   4.8622   4.8623   4.9073   4.9078   4.9089   4.9091
     5.1909   5.1910   5.1926   5.1929   5.3643   5.3644   5.3897   5.3897
     5.4815   5.4816   5.4857   5.4861   5.6018   5.6020   5.6170   5.6202
     5.6285   5.6285   5.6310   5.6332   6.0242   6.0243   6.0257   6.0261
     6.0568   6.0569   6.0578   6.0579   6.1550   6.1553   6.1589   6.1593
     7.0956   7.0957   7.0966   7.0966   7.4243   7.4244   7.4259   7.4260
     7.4561   7.4562   7.4562   7.4563   7.5313   7.5314   7.5315   7.5316
     7.6588   7.6588   7.6590   7.6590   7.9035   7.9036   7.9038   7.9040
     8.1478   8.1478   8.1506   8.1506   8.2648   8.2649   8.2675   8.2678
     8.3398   8.3401   8.3424   8.3429   8.5493   8.5495   8.5566   8.5567
     8.7873   8.7873   8.7878   8.7878   9.0993   9.0993   9.0996   9.0996
     9.1981   9.1981   9.1988   9.1989   9.2737   9.2737   9.2737   9.2738
     9.3069   9.3069   9.3079   9.3079   9.5606   9.5606   9.5634   9.5634
     9.8310   9.8316   9.8316   9.8443   9.8447   9.8448   9.8448

     the Fermi energy is     3.6458 ev

!    total energy              =  -12698.89112393 Ry
     Harris-Foulkes estimate   =  -12698.89112394 Ry
     estimated scf accuracy    <          6.3E-09 Ry

     The total energy is the sum of the following terms:

     one-electron contribution = -109194.03057639 Ry
     hartree contribution      =   55974.34981704 Ry
     xc contribution           =   -4447.10468635 Ry
     ewald contribution        =   44974.20142327 Ry
     Dispersion Correction     =      -2.98485774 Ry
     smearing contrib. (-TS)   =      -3.32224375 Ry

     convergence has been achieved in  42 iterations

[...]
     atom   12 type  1   force =     0.00000731    0.00000513    0.00003747
     atom   13 type  1   force =     0.00000000    0.00000599    0.00001537
     atom   14 type  1   force =    -0.00001049   -0.00000390    0.00004422
     atom   15 type  1   force =     0.00000000   -0.00000305    0.00006369
     atom   16 type  1   force =     0.00001049   -0.00000390    0.00004422
     atom   17 type  1   force =     0.00000000   -0.00002073    0.00003102
     atom   18 type  1   force =    -0.00000018   -0.00000073    0.00004139
     atom   19 type  1   force =     0.00000000    0.00001159    0.00005721
     atom   20 type  1   force =     0.00000018   -0.00000073    0.00004139
     atom   21 type  1   force =     0.00000000    0.00001619    0.00006351
     atom   22 type  1   force =     0.00001354   -0.00000405    0.00008425
     atom   23 type  1   force =     0.00000000   -0.00001050    0.00010402
     atom   24 type  1   force =    -0.00001354   -0.00000405    0.00008425
     atom   25 type  1   force =     0.00000000   -0.00000929    0.00007243
     atom   26 type  1   force =    -0.00000268   -0.00000110    0.00008212
     atom   27 type  1   force =     0.00000000    0.00000943    0.00010254
     atom   28 type  1   force =     0.00000268   -0.00000110    0.00008212
     atom   29 type  1   force =     0.00000000   -0.00000371    0.00009647
     atom   30 type  1   force =    -0.00000020   -0.00000145    0.00008824
     atom   31 type  1   force =     0.00000000    0.00000027    0.00007919
     atom   32 type  1   force =     0.00000020   -0.00000145    0.00008824
     atom   33 type  1   force =     0.00000000    0.00000954    0.00010943
     atom   34 type  1   force =    -0.00000909    0.00000447    0.00008529
     atom   35 type  1   force =     0.00000000   -0.00000610    0.00006301
     atom   36 type  1   force =     0.00000909    0.00000447    0.00008529
     atom   37 type  1   force =     0.00000000   -0.00001105    0.00008967
     atom   38 type  1   force =    -0.00001734    0.00000177    0.00008612
     atom   39 type  1   force =     0.00000000    0.00000520    0.00008264
     atom   40 type  1   force =     0.00001734    0.00000177    0.00008612
     atom   41 type  1   force =     0.00000000    0.00002388    0.00002345
     atom   42 type  1   force =     0.00001156    0.00000636    0.00002155
     atom   43 type  1   force =     0.00000000   -0.00001834   -0.00000125
     atom   44 type  1   force =    -0.00001156    0.00000636    0.00002155
     atom   45 type  1   force =     0.00000000   -0.00000535    0.00000763
     atom   46 type  1   force =     0.00000110   -0.00000571    0.00001669
     atom   47 type  1   force =     0.00000000   -0.00000007    0.00003369
     atom   48 type  1   force =    -0.00000110   -0.00000571    0.00001669
     atom   49 type  1   force =     0.00000000   -0.00002362    0.00001384
     atom   50 type  1   force =    -0.00000459    0.00000727    0.00001122
     atom   51 type  1   force =     0.00000000    0.00002301    0.00000654
     atom   52 type  1   force =     0.00000459    0.00000727    0.00001122
     atom   53 type  1   force =     0.00000000   -0.00000390    0.00002260
     atom   54 type  1   force =    -0.00001936   -0.00000376    0.00002061
     atom   55 type  1   force =     0.00000000    0.00001377    0.00001320
     atom   56 type  1   force =     0.00001936   -0.00000376    0.00002061
     atom   57 type  1   force =     0.00000000    0.00001058    0.00000139
     atom   58 type  1   force =    -0.00000139   -0.00000133    0.00000587
     atom   59 type  1   force =     0.00000000   -0.00002258    0.00002233
     atom   60 type  1   force =     0.00000139   -0.00000133    0.00000587
     atom   61 type  1   force =     0.00000000   -0.00001479   -0.00006206
     atom   62 type  1   force =    -0.00002812   -0.00000301   -0.00007304
     atom   63 type  1   force =     0.00000000    0.00001796   -0.00006234
     atom   64 type  1   force =     0.00002812   -0.00000301   -0.00007304
     atom   65 type  1   force =     0.00000000    0.00000748   -0.00007834
     atom   66 type  1   force =     0.00000022    0.00000373   -0.00006159
     atom   67 type  1   force =     0.00000000    0.00000281   -0.00006733
     atom   68 type  1   force =    -0.00000022    0.00000373   -0.00006159
     atom   69 type  1   force =     0.00000000   -0.00001764   -0.00007134
     atom   70 type  1   force =    -0.00001109   -0.00000197   -0.00007678
     atom   71 type  1   force =     0.00000000    0.00000751   -0.00007747
     atom   72 type  1   force =     0.00001109   -0.00000197   -0.00007678
     atom   73 type  1   force =     0.00000000   -0.00001162   -0.00006470
     atom   74 type  1   force =     0.00000230   -0.00000335   -0.00006388
     atom   75 type  1   force =     0.00000000    0.00001114   -0.00005954
     atom   76 type  1   force =    -0.00000230   -0.00000335   -0.00006388
     atom   77 type  1   force =     0.00000000    0.00003248   -0.00007701
     atom   78 type  1   force =     0.00002036    0.00000220   -0.00007379
     atom   79 type  1   force =     0.00000000   -0.00003379   -0.00007965
     atom   80 type  1   force =    -0.00002036    0.00000220   -0.00007379
     atom   81 type  1   force =     0.00000000    0.00000011   -0.00003818
     atom   82 type  1   force =    -0.00003393   -0.00000347   -0.00003907
     atom   83 type  1   force =     0.00000000    0.00000139   -0.00007043
     atom   84 type  1   force =     0.00003393   -0.00000347   -0.00003907
     atom   85 type  1   force =     0.00000000    0.00000271   -0.00003509
     atom   86 type  1   force =    -0.00001887    0.00000516   -0.00004268
     atom   87 type  1   force =     0.00000000   -0.00000319   -0.00007135
     atom   88 type  1   force =     0.00001887    0.00000516   -0.00004268
     atom   89 type  1   force =     0.00000000   -0.00000670   -0.00005928
     atom   90 type  1   force =     0.00001142   -0.00000245   -0.00004410
     atom   91 type  1   force =     0.00000000    0.00000917   -0.00006753
     atom   92 type  1   force =    -0.00001142   -0.00000245   -0.00004410
     atom   93 type  1   force =     0.00000000    0.00000377   -0.00006790
     atom   94 type  1   force =     0.00003738   -0.00000005   -0.00003926
     atom   95 type  1   force =     0.00000000   -0.00000679   -0.00002811
     atom   96 type  1   force =    -0.00003738   -0.00000005   -0.00003926
     atom   97 type  1   force =     0.00000000   -0.00000502   -0.00007040
     atom   98 type  1   force =     0.00000120    0.00000151   -0.00005181
     atom   99 type  1   force =     0.00000000    0.00000484   -0.00002911
     atom  100 type  1   force =    -0.00000120    0.00000151   -0.00005181
     atom  101 type  2   force =     0.00000000   -0.00004906   -0.00013957
     atom  102 type  2   force =     0.00000000   -0.00003471    0.00006983
     atom  103 type  2   force =    -0.00004456   -0.00008583   -0.00001846
     atom  104 type  2   force =     0.00002733   -0.00005915   -0.00006317
     atom  105 type  2   force =     0.00012376    0.00009151    0.00009282
     atom  106 type  2   force =    -0.00000817    0.00003455    0.00003208
     atom  107 type  2   force =     0.00000000   -0.00007579   -0.00015169
     atom  108 type  2   force =     0.00000000   -0.00000978   -0.00000389
     atom  109 type  2   force =    -0.00012376    0.00009151    0.00009282
     atom  110 type  2   force =     0.00000817    0.00003455    0.00003208
     atom  111 type  2   force =     0.00004456   -0.00008583   -0.00001846
     atom  112 type  2   force =    -0.00002733   -0.00005915   -0.00006317
     atom  113 type  2   force =     0.00000000    0.00009220    0.00010637
     atom  114 type  2   force =     0.00000000    0.00000200   -0.00018498
     atom  115 type  2   force =     0.00001097    0.00001275   -0.00008399
     atom  116 type  2   force =    -0.00007098    0.00013545    0.00003573
     atom  117 type  2   force =    -0.00004068    0.00000644   -0.00001765
     atom  118 type  2   force =     0.00009098   -0.00013780    0.00006391
     atom  119 type  2   force =     0.00000000    0.00004436    0.00008359
     atom  120 type  2   force =     0.00000000    0.00002901   -0.00018312
     atom  121 type  2   force =     0.00004068    0.00000644   -0.00001765
     atom  122 type  2   force =    -0.00009098   -0.00013780    0.00006391
     atom  123 type  2   force =    -0.00001097    0.00001275   -0.00008399
     atom  124 type  2   force =     0.00007098    0.00013545    0.00003573
     atom  125 type  2   force =     0.00000000   -0.00003453    0.00011765
     atom  126 type  2   force =     0.00000000   -0.00002027   -0.00005050
     atom  127 type  2   force =     0.00005517   -0.00004025   -0.00003543
     atom  128 type  2   force =    -0.00002725   -0.00002207    0.00005275
     atom  129 type  2   force =    -0.00001916    0.00002606   -0.00008879
     atom  130 type  2   force =    -0.00002270    0.00004715   -0.00006076
     atom  131 type  2   force =     0.00000000   -0.00010161    0.00012264
     atom  132 type  2   force =     0.00000000    0.00000402    0.00003125
     atom  133 type  2   force =     0.00001916    0.00002606   -0.00008879
     atom  134 type  2   force =     0.00002270    0.00004715   -0.00006076
     atom  135 type  2   force =    -0.00005517   -0.00004025   -0.00003543
     atom  136 type  2   force =     0.00002725   -0.00002207    0.00005275
     atom  137 type  2   force =     0.00000000    0.00008013   -0.00013005
     atom  138 type  2   force =     0.00000000   -0.00005696    0.00013923
     atom  139 type  2   force =    -0.00011194   -0.00005593    0.00008489
     atom  140 type  2   force =     0.00007356    0.00010384   -0.00005413
     atom  141 type  2   force =     0.00002640    0.00004590   -0.00004266
     atom  142 type  2   force =    -0.00006290   -0.00010281   -0.00006663
     atom  143 type  2   force =     0.00000000    0.00004168   -0.00008647
     atom  144 type  2   force =     0.00000000    0.00008917    0.00014342
     atom  145 type  2   force =    -0.00002640    0.00004590   -0.00004266
     atom  146 type  2   force =     0.00006290   -0.00010281   -0.00006663
     atom  147 type  2   force =     0.00011194   -0.00005593    0.00008489
     atom  148 type  2   force =    -0.00007356    0.00010384   -0.00005413

     Total force =     0.001032     Total SCF correction =     0.000066

     number of scf cycles    =  16
     number of bfgs steps    =  15

     energy   old            =  -12698.8911668210 Ry
     energy   new            =  -12698.8911695242 Ry

     CASE: energy  _new < energy  _old

     new trust radius        =       0.0010580550 bohr
     new conv_thr            =       0.0000000003 Ry


ATOMIC_POSITIONS (angstrom)
Cu       0.000000000   0.000418475   7.356821029
Cu       1.844464273   1.704158296   7.358113474
Cu       3.689036991   0.000230648   7.357039041
Cu       5.533609710   1.704158296   7.358113474
Cu       0.000000000   3.407517063   7.358466518
Cu       1.844400743   5.111308876   7.357351579
Cu       3.689036991   3.407727228   7.358240984
Cu       5.533673240   5.111308876   7.357351579
Cu       0.000000000   6.815511010   7.356398114
Cu       1.844634168   8.519772057   7.356953132
Cu       3.689036991   6.815461467   7.356476022
Cu       5.533439815   8.519772057   7.356953132
Cu       0.000000000  10.223468654   7.358028091
Cu       1.844539688  11.927112673   7.358331490
Cu       3.689036991  10.223807389   7.358156514
Cu       5.533534295  11.927112673   7.358331490
Cu       0.000000000  13.630948247   7.357392531
Cu       1.844550038  15.334971289   7.356489427
Cu       3.689036991  13.630621770   7.357247606
Cu       5.533523945  15.334971289   7.356489427
Cu       0.000000000   1.702907129   9.191341473
Cu       1.844438909  -0.000744907   9.189954839
Cu       3.689036991   1.703551598   9.190679517
Cu       5.533635074  -0.000744907   9.189954839
Cu       0.000000000   5.112847222   9.190428845
Cu       1.844425335   3.408148815   9.191205379
Cu       3.689036991   5.112276176   9.190183685
Cu       5.533648648   3.408148815   9.191205379
Cu       0.000000000   8.518829327   9.189889741
Cu       1.844504161   6.815753367   9.189500749
Cu       3.689036991   8.518549154   9.189981167
Cu       5.533569822   6.815753367   9.189500749
Cu       0.000000000  11.927416048   9.190800411
Cu       1.844637084  10.222684267   9.190965266
Cu       3.689036991  11.927804152   9.191618641
Cu       5.533436899  10.222684267   9.190965266
Cu       0.000000000  15.335321394   9.189510302
Cu       1.844637124  13.632015116   9.190283899
Cu       3.689036991  15.335146265   9.189503368
Cu       5.533436859  13.632015116   9.190283899
Cu       0.000000000  -0.002347759  11.033396523
Cu       1.844683866   1.702259156  11.031458639
Cu       3.689036991  -0.001519276  11.032267751
Cu       5.533390117   1.702259156  11.031458639
Cu       0.000000000   3.408857710  11.030642113
Cu       1.844768883   5.113909116  11.032291860
Cu       3.689036991   3.408593163  11.031802605
Cu       5.533305100   5.113909116  11.032291860
Cu       0.000000000   6.816453312  11.033573094
Cu       1.844303176   8.517491616  11.032710091
Cu       3.689036991   6.815593925  11.033225129
Cu       5.533770807   8.517491616  11.032710091
Cu       0.000000000  10.221917940  11.031744996
Cu       1.844415754  11.928144920  11.031178595
Cu       3.689036991  10.221406937  11.031213977
Cu       5.533658229  11.928144920  11.031178595
Cu       0.000000000  13.632997106  11.031923194
Cu       1.844467030  15.335513963  11.033238175
Cu       3.689036991  13.633767403  11.032805114
Cu       5.533606953  15.335513963  11.033238175
Cu       0.000000000   1.704875650  12.867934385
Cu       1.845321668  -0.000954660  12.875092349
Cu       3.689036991   1.701417347  12.871776807
Cu       5.532752315  -0.000954660  12.875092349
Cu       0.000000000   5.111525457  12.871831684
Cu       1.846671710   3.408325014  12.868243939
Cu       3.689036991   5.113751396  12.875711780
Cu       5.531402273   3.408325014  12.868243939
Cu       0.000000000   8.518568354  12.877323819
Cu       1.844681040   6.815796680  12.877568455
Cu       3.689036991   8.518723412  12.874088368
Cu       5.533392943   6.815796680  12.877568455
Cu       0.000000000  11.928716179  12.870367591
Cu       1.842628110  10.222406618  12.869377470
Cu       3.689036991  11.926587526  12.866795139
Cu       5.535445873  10.222406618  12.869377470
Cu       0.000000000  15.333645149  12.878438474
Cu       1.843357431  13.632293836  12.873121412
Cu       3.689036991  15.336814532  12.877692087
Cu       5.534716552  13.632293836  12.873121412
Cu       0.000000000   0.007917974  14.687318150
Cu       1.846771772   1.707766144  14.685965650
Cu       3.689036991   0.000984897  14.700568619
Cu       5.531302211   1.707766144  14.685965650
Cu       0.000000000   3.407473856  14.683679325
Cu       1.850746496   5.106622004  14.689953189
Cu       3.689036991   3.403544200  14.692223105
Cu       5.527327487   5.106622004  14.689953189
Cu       0.000000000   6.806050961  14.694111852
Cu       1.838080764   8.523830065  14.691694563
Cu       3.689036991   6.823063270  14.697547063
Cu       5.539993219   8.523830065  14.691694563
Cu       0.000000000  10.230366392  14.694390747
Cu       1.844173456  11.925111814  14.684617429
Cu       3.689036991  10.224581410  14.683695270
Cu       5.533900527  11.925111814  14.684617429
Cu       0.000000000  13.626061327  14.699493142
Cu       1.842719093  15.333986336  14.693533347
Cu       3.689036991  13.625683241  14.685205226
Cu       5.535354890  15.333986336  14.693533347
C        0.000000000   0.710480657  17.625386117
C        0.000000000   2.129994783  17.634123029
C        1.229425460   0.000320977  17.617690007
C        1.228375583   2.839795767  17.623815585
C        2.457811762   0.709899315  17.604200808
C        2.457842752   2.129775886  17.601740771
C        3.689036991  -0.000603345  17.593524322
C        3.689036991   2.840024919  17.591092369
C        4.920262220   0.709899315  17.604200808
C        4.920231230   2.129775886  17.601740771
C        6.148648523   0.000320977  17.617690007
C        6.149698400   2.839795767  17.623815585
C        0.000000000   4.969253366  17.628070084
C        0.000000000   6.388967846  17.612170705
C        1.228271187   4.259528860  17.620937268
C        1.230240519   7.099286667  17.611657488
C        2.458443888   4.969859069  17.602643948
C        2.458397003   6.389808595  17.608620661
C        3.689036991   4.259867347  17.595573641
C        3.689036991   7.100201309  17.604692956
C        4.919630094   4.969859069  17.602643948
C        4.919676979   6.389808595  17.608620661
C        6.149802796   4.259528860  17.620937268
C        6.147833464   7.099286667  17.611657488
C        0.000000000   9.229134521  17.598686238
C        0.000000000  10.648995568  17.589971090
C        1.230190473   8.519246232  17.603860742
C        1.231355762  11.359359108  17.602000991
C        2.460657871   9.229717785  17.618068300
C        2.460488616  10.649481002  17.623712035
C        3.689036991   8.520001451  17.622907345
C        3.689036991  11.359355542  17.634650696
C        4.917416111   9.229717785  17.618068300
C        4.917585366  10.649481002  17.623712035
C        6.147883510   8.519246232  17.603860742
C        6.146718221  11.359359108  17.602000991
C        0.000000000  13.489708798  17.590817762
C        0.000000000  14.909574070  17.606592100
C        1.231370325  12.779202422  17.603127410
C        1.229324681  15.619367815  17.608024663
C        2.459963907  13.488866414  17.620434265
C        2.460109581  14.908699225  17.611138635
C        3.689036991  12.778795233  17.630201440
C        3.689036991  15.618463298  17.611608756
C        4.918110075  13.488866414  17.620434265
C        4.917964401  14.908699225  17.611138635
C        6.146703658  12.779202422  17.603127410
C        6.148749302  15.619367815  17.608024663



     Writing output data file gc.save
     Check: negative starting charge=   -0.001841
     NEW-OLD atomic charge density approx. for the potential
     Check: negative starting charge=   -0.001840

     negative rho (up, down):  1.915E-03 0.000E+00

     total cpu time spent up to now is    75199.9 secs

     Self-consistent Calculation

     iteration #  1     ecut=    80.00 Ry     beta=0.70
     Davidson diagonalization with overlap
     ethr =  1.00E-06,  avg # of iterations =  2.0

     Threshold (ethr) on eigenvalues was too large:
     Diagonalizing with lowered threshold

     Davidson diagonalization with overlap
     ethr =  2.32E-08,  avg # of iterations =  2.7

     negative rho (up, down):  1.847E-03 0.000E+00

     total cpu time spent up to now is    75790.8 secs

     total energy              =  -12698.89116246 Ry
     Harris-Foulkes estimate   =  -12698.89118389 Ry
     estimated scf accuracy    <       0.00027639 Ry

     iteration #  2     ecut=    80.00 Ry     beta=0.70
     Davidson diagonalization with overlap
     ethr =  2.14E-08,  avg # of iterations =  1.0

     negative rho (up, down):  1.813E-03 0.000E+00

     total cpu time spent up to now is    76035.7 secs

     total energy              =  -12698.89116507 Ry
     Harris-Foulkes estimate   =  -12698.89117788 Ry
     estimated scf accuracy    <       0.00007388 Ry

     iteration #  3     ecut=    80.00 Ry     beta=0.70
     Davidson diagonalization with overlap
     ethr =  5.72E-09,  avg # of iterations =  2.0

     negative rho (up, down):  1.756E-03 0.000E+00

     total cpu time spent up to now is    76307.2 secs

     total energy              =  -12698.89116847 Ry
     Harris-Foulkes estimate   =  -12698.89117507 Ry
     estimated scf accuracy    <       0.00007204 Ry

     iteration #  4     ecut=    80.00 Ry     beta=0.70
     Davidson diagonalization with overlap
