mpirun: INFO: switching to OpenMPI runtime version 1.10.2

     Program PWSCF v.5.4.0 starts on 16Sep2017 at 17:39:15 

     This program is part of the open-source Quantum ESPRESSO suite
     for quantum simulation of materials; please cite
         "P. Giannozzi et al., J. Phys.:Condens. Matter 21 395502 (2009);
          URL http://www.quantum-espresso.org", 
     in publications or presentations arising from this work. More details at
     http://www.quantum-espresso.org/quote

     Parallel version (MPI & OpenMP), running on      28 processor cores
     Number of MPI processes:                28
     Threads/MPI process:                     1
     R & G space division:  proc/nbgrp/npool/nimage =      28
     Waiting for input...
     Reading input from standard input
Warning: card &IONS ignored
Warning: card / ignored

     Current dimensions of program PWSCF are:
     Max number of different atomic species (ntypx) = 10
     Max number of k-points (npk) =  40000
     Max angular momentum in pseudopotentials (lmaxx) =  3
     WARNING: atomic wfc #  2 for atom type 4 has zero norm
     WARNING: atomic wfc #  4 for atom type 4 has zero norm
     WARNING: atomic wfc #  5 for atom type 4 has zero norm

     -------------------------------------
     Parameters for Dispersion Correction:
     -------------------------------------
       atom      VdW radius       C_6     

        Cu         2.952        374.666
        C_h        2.744         60.710
        C          2.744         60.710
        O          2.536         24.284

     Subspace diagonalization in iterative solution of the eigenvalue problem:
     one sub-group per band group will be used
     scalapack distributed-memory algorithm (size of sub-group:  3*  3 procs)

 
     Parallelization info
     --------------------
     sticks:   dense  smooth     PW     G-vecs:    dense   smooth      PW
     Min         408     408    108                73226    73226    9928
     Max         410     410    109                73231    73231    9931
     Sum       11433   11433   3039              2050409  2050409  278033
 


     bravais-lattice index     =            0
     lattice parameter (alat)  =      13.9425  a.u.
     unit-cell volume          =   21209.0878 (a.u.)^3
     number of atoms/cell      =          150
     number of atomic types    =            4
     number of electrons       =      1302.00
     number of Kohn-Sham states=          781
     kinetic-energy cutoff     =      80.0000  Ry
     charge density cutoff     =     320.0000  Ry
     convergence threshold     =      1.0E-08
     mixing beta               =       0.7000
     number of iterations used =            8  local-TF  mixing
     Exchange-correlation      =  SLA  PW   PBX  PBC ( 1  4  3  4 0 0)

     celldm(1)=  13.942539  celldm(2)=   0.000000  celldm(3)=   0.000000
     celldm(4)=   0.000000  celldm(5)=   0.000000  celldm(6)=   0.000000

     crystal axes: (cart. coord. in units of alat)
               a(1) = (   1.000000   0.000000   0.000000 )  
               a(2) = (   0.000000   2.309401   0.000000 )  
               a(3) = (   0.000000   0.000000   3.388418 )  

     reciprocal axes: (cart. coord. in units 2 pi/alat)
               b(1) = (  1.000000  0.000000  0.000000 )  
               b(2) = (  0.000000  0.433013  0.000000 )  
               b(3) = (  0.000000  0.000000  0.295123 )  


     PseudoPot. # 1 for Cu read from file:
     /home/549/hxw549/Short/pseudopotentials/Cu.pbe-n-van_ak.UPF
     MD5 check sum: 601f7c30f7467666bec936e0661ce3e1
     Pseudo is Ultrasoft + core correction, Zval = 11.0
     Generated by new atomic code, or converted to UPF format
     Using radial grid of  867 points,  6 beta functions with: 
                l(1) =   0
                l(2) =   0
                l(3) =   1
                l(4) =   1
                l(5) =   2
                l(6) =   2
     Q(r) pseudized with  8 coefficients,  rinner =    1.400   1.400   1.400
                                                       1.400   1.400

     PseudoPot. # 2 for C  read from file:
     /home/549/hxw549/Short/pseudopotentials/C.star1s-pbe-mt_gipaw.UPF
     MD5 check sum: ef0cb3dee31bd9e4ba2a832a2c716264
     Pseudo is Norm-conserving, Zval =  5.0
     Generated by new atomic code, or converted to UPF format
     Using radial grid of 1073 points,  1 beta functions with: 
                l(1) =   0

     PseudoPot. # 3 for C  read from file:
     /home/549/hxw549/Short/pseudopotentials/C.pbe-mt_gipaw.UPF
     MD5 check sum: 5ac2f21f2c440b14befe521540822c15
     Pseudo is Norm-conserving, Zval =  4.0
     Generated by new atomic code, or converted to UPF format
     Using radial grid of 1073 points,  1 beta functions with: 
                l(1) =   0

     PseudoPot. # 4 for O  read from file:
     /home/549/hxw549/Short/pseudopotentials/O.pbe-van_gipaw.UPF
     MD5 check sum: 5ce2a047509d4f331db576c963e74b29
     Pseudo is Ultrasoft, Zval =  6.0
     Generated by new atomic code, or converted to UPF format
     Using radial grid of 1095 points,  4 beta functions with: 
                l(1) =   0
                l(2) =   0
                l(3) =   1
                l(4) =   1
     Q(r) pseudized with 0 coefficients 


     atomic species   valence    mass     pseudopotential
        Cu            11.00    63.54600     Cu( 1.00)
        C_h            5.00    12.01070     C ( 1.00)
        C              4.00    12.01070     C ( 1.00)
        O              6.00    15.99940     O ( 1.00)

     No symmetry found



   Cartesian axes

     site n.     atom                  positions (alat units)
         1           Cu  tau(   1) = (   0.0007746  -0.0017263   0.9974341  )
         2           Cu  tau(   2) = (   0.2507737   0.2258138   0.9973260  )
         3           Cu  tau(   3) = (   0.5008760  -0.0022365   0.9966779  )
         4           Cu  tau(   4) = (   0.7508471   0.2263841   0.9980016  )
         5           Cu  tau(   5) = (   0.0008392   0.4565406   0.9985792  )
         6           Cu  tau(   6) = (   0.2509427   0.6897855   0.9999657  )
         7           Cu  tau(   7) = (   0.5008379   0.4568514   0.9990575  )
         8           Cu  tau(   8) = (   0.7507194   0.6897031   0.9999838  )
         9           Cu  tau(   9) = (   0.0006685   0.9241902   1.0001491  )
        10           Cu  tau(  10) = (   0.2508199   1.1585893   0.9994315  )
        11           Cu  tau(  11) = (   0.5008540   0.9240586   1.0006399  )
        12           Cu  tau(  12) = (   0.7507433   1.1584370   0.9997064  )
        13           Cu  tau(  13) = (   0.0007724   1.3915619   0.9981007  )
        14           Cu  tau(  14) = (   0.2507485   1.6225299   0.9965829  )
        15           Cu  tau(  15) = (   0.5008122   1.3916616   0.9979961  )
        16           Cu  tau(  16) = (   0.7508119   1.6227756   0.9965609  )
        17           Cu  tau(  17) = (   0.0009883   1.8518082   0.9959401  )
        18           Cu  tau(  18) = (   0.2507237   2.0803995   0.9968330  )
        19           Cu  tau(  19) = (   0.5006394   1.8518782   0.9959625  )
        20           Cu  tau(  20) = (   0.7509541   2.0796587   0.9956860  )
        21           Cu  tau(  21) = (   0.0010190   0.2258085   1.2493909  )
        22           Cu  tau(  22) = (   0.2504775  -0.0015663   1.2511192  )
        23           Cu  tau(  23) = (   0.5007592   0.2244625   1.2474139  )
        24           Cu  tau(  24) = (   0.7511204  -0.0032534   1.2489893  )
        25           Cu  tau(  25) = (   0.0011318   0.6883266   1.2442935  )
        26           Cu  tau(  26) = (   0.2506634   0.4550101   1.2457739  )
        27           Cu  tau(  27) = (   0.5010434   0.6889459   1.2455869  )
        28           Cu  tau(  28) = (   0.7513247   0.4551755   1.2463317  )
        29           Cu  tau(  29) = (   0.0009417   1.1597158   1.2443880  )
        30           Cu  tau(  30) = (   0.2512312   0.9241298   1.2444880  )
        31           Cu  tau(  31) = (   0.5007499   1.1593901   1.2450686  )
        32           Cu  tau(  32) = (   0.7508296   0.9240397   1.2450130  )
        33           Cu  tau(  33) = (   0.0007793   1.6243336   1.2463775  )
        34           Cu  tau(  34) = (   0.2504282   1.3930798   1.2451551  )
        35           Cu  tau(  35) = (   0.5008090   1.6252398   1.2451280  )
        36           Cu  tau(  36) = (   0.7512192   1.3936504   1.2446248  )
        37           Cu  tau(  37) = (   0.0010877   2.0797516   1.2492188  )
        38           Cu  tau(  38) = (   0.2507223   1.8528469   1.2475014  )
        39           Cu  tau(  39) = (   0.5004398   2.0799192   1.2488390  )
        40           Cu  tau(  40) = (   0.7508180   1.8531203   1.2475507  )
        41           Cu  tau(  41) = (   0.0016658  -0.0022985   1.5045196  )
        42           Cu  tau(  42) = (   0.2503972   0.2291600   1.5050437  )
        43           Cu  tau(  43) = (   0.5000117  -0.0022562   1.5036487  )
        44           Cu  tau(  44) = (   0.7517889   0.2249026   1.5000298  )
        45           Cu  tau(  45) = (   0.0021806   0.4573907   1.4979107  )
        46           Cu  tau(  46) = (   0.2515336   0.6876551   1.4914913  )
        47           Cu  tau(  47) = (   0.5009200   0.4538841   1.4935295  )
        48           Cu  tau(  48) = (   0.7528141   0.6875879   1.4907110  )
        49           Cu  tau(  49) = (   0.0033450   0.9232828   1.4888842  )
        50           Cu  tau(  50) = (   0.2503503   1.1598614   1.4909692  )
        51           Cu  tau(  51) = (   0.5011269   0.9241898   1.4909779  )
        52           Cu  tau(  52) = (   0.7519249   1.1613568   1.4891627  )
        53           Cu  tau(  53) = (   0.0011131   1.3942307   1.4938872  )
        54           Cu  tau(  54) = (   0.2503927   1.6255964   1.4976503  )
        55           Cu  tau(  55) = (   0.5006234   1.3972544   1.4901219  )
        56           Cu  tau(  56) = (   0.7512735   1.6255407   1.4977139  )
        57           Cu  tau(  57) = (   0.0005637   1.8528289   1.5024635  )
        58           Cu  tau(  58) = (   0.2506219   2.0792198   1.5045906  )
        59           Cu  tau(  59) = (   0.5009250   1.8529925   1.5021785  )
        60           Cu  tau(  60) = (   0.7508082   2.0800280   1.5044375  )
        61           Cu  tau(  61) = (   0.0038475   0.2303557   1.7544175  )
        62           Cu  tau(  62) = (   0.2510972  -0.0016110   1.7589938  )
        63           Cu  tau(  63) = (   0.4999193   0.2298937   1.7528921  )
        64           Cu  tau(  64) = (   0.7511849   0.0002495   1.7583826  )
        65           Cu  tau(  65) = (   0.0060098   0.6915091   1.7456589  )
        66           Cu  tau(  66) = (   0.2526343   0.4668484   1.7573948  )
        67           Cu  tau(  67) = (   0.5044723   0.6882987   1.7340652  )
        68           Cu  tau(  68) = (   0.7534858   0.4575929   1.7448602  )
        69           Cu  tau(  69) = (   0.0030806   1.1601133   1.7386452  )
        70           Cu  tau(  70) = (   0.2518379   0.9215057   1.7366438  )
        71           Cu  tau(  71) = (   0.5015939   1.1634386   1.7317629  )
        72           Cu  tau(  72) = (   0.7569360   0.9256709   1.7318463  )
        73           Cu  tau(  73) = (   0.0006284   1.6228987   1.7514313  )
        74           Cu  tau(  74) = (   0.2495296   1.3943295   1.7430802  )
        75           Cu  tau(  75) = (   0.5008934   1.6219922   1.7510664  )
        76           Cu  tau(  76) = (   0.7524006   1.3939441   1.7423004  )
        77           Cu  tau(  77) = (   0.0004462   2.0792281   1.7605390  )
        78           Cu  tau(  78) = (   0.2505914   1.8507081   1.7580746  )
        79           Cu  tau(  79) = (   0.5012530   2.0794473   1.7601117  )
        80           Cu  tau(  80) = (   0.7509891   1.8507123   1.7576061  )
        81           Cu  tau(  81) = (   0.0008286   0.0033963   2.0092933  )
        82           Cu  tau(  82) = (   0.2531685   0.2321805   2.0065704  )
        83           Cu  tau(  83) = (   0.5029616   0.0032808   2.0095555  )
        84           Cu  tau(  84) = (   0.7539833   0.2369850   2.0035455  )
        85           Cu  tau(  85) = (   0.0065270   0.4656567   2.0017021  )
        86           Cu  tau(  86) = (   0.2464865   0.6933756   2.0151552  )
        87           Cu  tau(  87) = (   0.5030727   0.4630537   1.9968478  )
        88           Cu  tau(  88) = (   0.7554598   0.6904527   1.9839067  )
        89           Cu  tau(  89) = (  -0.0046798   0.9283144   1.9874394  )
        90           Cu  tau(  90) = (   0.2487659   1.1590837   1.9772863  )
        91           Cu  tau(  91) = (   0.5151132   0.9293281   1.9559442  )
        92           Cu  tau(  92) = (   0.7550174   1.1625438   1.9831995  )
        93           Cu  tau(  93) = (   0.0028197   1.3884207   1.9964466  )
        94           Cu  tau(  94) = (   0.2520994   1.6161203   2.0043589  )
        95           Cu  tau(  95) = (   0.5000456   1.3851001   1.9926923  )
        96           Cu  tau(  96) = (   0.7493302   1.6156245   2.0040319  )
        97           Cu  tau(  97) = (   0.0005987   1.8456515   2.0105564  )
        98           Cu  tau(  98) = (   0.2507723   2.0792808   2.0122620  )
        99           Cu  tau(  99) = (   0.5009208   1.8468742   2.0092992  )
       100           Cu  tau( 100) = (   0.7514130   2.0792294   2.0116684  )
       101           C   tau( 101) = (   0.0000041   0.1004607   2.4706174  )
       102           C   tau( 102) = (   0.0000464   0.2911966   2.5077514  )
       103           C   tau( 103) = (   0.1667510   0.0039812   2.4555312  )
       104           C   tau( 104) = (   0.1667002   0.3869974   2.5272644  )
       105           C   tau( 105) = (   0.3333424   0.1007420   2.4699883  )
       106           C   tau( 106) = (   0.3334363   0.2919992   2.5051734  )
       107           C   tau( 107) = (   0.5000066   0.0039836   2.4560683  )
       108           C   tau( 108) = (   0.4999469   0.3882212   2.5232037  )
       109           C   tau( 109) = (   0.6666958   0.1005847   2.4714172  )
       110           C   tau( 110) = (   0.6665358   0.2920099   2.5054082  )
       111           C   tau( 111) = (   0.8332310   0.0038601   2.4560699  )
       112           C   tau( 112) = (   0.8332509   0.3869252   2.5270840  )
       113           C   tau( 113) = (  -0.0001934   0.6737688   2.5777695  )
       114           C   tau( 114) = (  -0.0001856   0.8672651   2.5944491  )
       115           C   tau( 115) = (   0.1667594   0.5776866   2.5647008  )
       116           C   tau( 116) = (   0.1666435   0.9646073   2.6006922  )
       117           C   tau( 117) = (   0.3331110   0.6740993   2.5851705  )
       118           C   tau( 118) = (   0.3329710   0.8670446   2.6096596  )
       119           C   tau( 119) = (   0.4997466   0.5783682   2.5647021  )
       120           C   tau( 120) = (   0.4999838   0.9653277   2.6122075  )
       121           C   tau( 121) = (   0.6664953   0.6742678   2.5820520  )
       122           C   tau( 122) = (   0.6663998   0.8673954   2.6037964  )
       123           C   tau( 123) = (   0.8331008   0.5776885   2.5641855  )
       124           C   tau( 124) = (   0.8332477   0.9647019   2.5973254  )
       125           C   tau( 125) = (   0.0000710   1.2537597   2.5618756  )
       126           C   tau( 126) = (   0.0001158   1.4445822   2.5252882  )
       127           C   tau( 127) = (   0.1668448   1.1579586   2.5811571  )
       128           C   tau( 128) = (   0.1667803   1.5400959   2.5059542  )
       129           C   tau( 129) = (   0.3335356   1.2546126   2.5695193  )
       130           C   tau( 130) = (   0.3335027   1.4444043   2.5269442  )
       131           C   tau( 131) = (   0.5000824   1.1587316   2.5904068  )
       132           C   tau( 132) = (   0.5000760   1.5393962   2.5038670  )
       133           C   tau( 133) = (   0.6665019   1.2546303   2.5687975  )
       134           C   tau( 134) = (   0.6665495   1.4443316   2.5269178  )
       135           C   tau( 135) = (   0.8334671   1.1581306   2.5807843  )
       136           C   tau( 136) = (   0.8333255   1.5402118   2.5066151  )
       137           C   tau( 137) = (   0.0000004   1.8277352   2.4539580  )
       138           C   tau( 138) = (  -0.0000015   2.0216453   2.4380816  )
       139           C   tau( 139) = (   0.1667979   1.7311224   2.4699837  )
       140           C   tau( 140) = (   0.1667608   2.1194820   2.4391038  )
       141           C   tau( 141) = (   0.3334638   1.8277274   2.4563194  )
       142           C   tau( 142) = (   0.3334790   2.0215976   2.4405198  )
       143           C   tau( 143) = (   0.4999842   1.7306087   2.4686680  )
       144           C   tau( 144) = (   0.5000116   2.1195299   2.4408306  )
       145           C   tau( 145) = (   0.6666293   1.8276257   2.4559927  )
       146           C   tau( 146) = (   0.6665863   2.0215855   2.4403438  )
       147           C   tau( 147) = (   0.8331931   1.7310805   2.4699489  )
       148           C   tau( 148) = (   0.8332380   2.1195278   2.4386194  )
       149           C_h tau( 149) = (   0.3726381   0.8371666   2.1777400  )
       150           O   tau( 150) = (   0.4493068   0.9396855   2.2775618  )

     number of k points=     6  gaussian smearing, width (Ry)=  0.1000
                       cart. coord. in units 2pi/alat
        k(    1) = (   0.0000000   0.0000000   0.0000000), wk =   0.2500000
        k(    2) = (   0.0000000  -0.2165064   0.0000000), wk =   0.2500000
        k(    3) = (   0.2500000   0.0000000   0.0000000), wk =   0.5000000
        k(    4) = (   0.2500000  -0.2165064   0.0000000), wk =   0.5000000
        k(    5) = (  -0.5000000   0.0000000   0.0000000), wk =   0.2500000
        k(    6) = (  -0.5000000  -0.2165064   0.0000000), wk =   0.2500000

     Dense  grid:  2050409 G-vectors     FFT dimensions: (  80, 192, 270)

     Largest allocated arrays     est. size (Mb)     dimensions
        Kohn-Sham Wavefunctions       109.29 Mb     (    9171,  781)
        NL pseudopotentials           259.87 Mb     (    9171, 1857)
        Each V/rho on FFT grid          2.34 Mb     (  153600)
        Each G-vector array             0.56 Mb     (   73230)
        G-vector shells                 0.27 Mb     (   35784)
     Largest temporary arrays     est. size (Mb)     dimensions
        Auxiliary wavefunctions       437.17 Mb     (    9171, 3124)
        Each subspace H/S matrix       16.54 Mb     (    1041, 1041)
        Each <psi_i|beta_j> matrix     22.13 Mb     (    1857,  781)
        Arrays for rho mixing          18.75 Mb     (  153600,    8)

     Initial potential from superposition of free atoms
     Check: negative starting charge=   -0.001512

     starting charge 1276.31751, renormalised to 1302.00000

     negative rho (up, down):  1.543E-03 0.000E+00
     Starting wfc are 1296 randomized atomic wfcs

     total cpu time spent up to now is      201.7 secs

     Self-consistent Calculation

     iteration #  1     ecut=    80.00 Ry     beta=0.70
     Davidson diagonalization with overlap
     c_bands:  3 eigenvalues not converged
     c_bands:  4 eigenvalues not converged
     ethr =  1.00E-04,  avg # of iterations = 47.7

     negative rho (up, down):  2.367E+01 0.000E+00

     total cpu time spent up to now is     4940.4 secs

     total energy              =  -10031.10616437 Ry
     Harris-Foulkes estimate   =  -18087.97033687 Ry
     estimated scf accuracy    <  208322.03770749 Ry

     iteration #  2     ecut=    80.00 Ry     beta=0.70
     Davidson diagonalization with overlap
     ethr =  1.00E-02,  avg # of iterations = 13.2

     negative rho (up, down):  3.026E+01 0.000E+00

     total cpu time spent up to now is     7006.8 secs

     total energy              =  -11867.59586402 Ry
     Harris-Foulkes estimate   =  -13798.74753538 Ry
     estimated scf accuracy    <   34690.09056314 Ry

     iteration #  3     ecut=    80.00 Ry     beta=0.70
     Davidson diagonalization with overlap
     c_bands:  4 eigenvalues not converged
     ethr =  1.00E-02,  avg # of iterations = 19.8

     negative rho (up, down):  2.948E+01 0.000E+00

     total cpu time spent up to now is     8994.2 secs

     total energy              =  -12119.42770589 Ry
     Harris-Foulkes estimate   =  -13731.31663913 Ry
     estimated scf accuracy    <    6915.02208021 Ry

     iteration #  4     ecut=    80.00 Ry     beta=0.70
     Davidson diagonalization with overlap
     ethr =  1.00E-02,  avg # of iterations =  4.2

     negative rho (up, down):  2.073E+01 0.000E+00

     total cpu time spent up to now is     9978.2 secs

     total energy              =  -12868.48624207 Ry
     Harris-Foulkes estimate   =  -13075.01110792 Ry
     estimated scf accuracy    <    1008.19009271 Ry

     iteration #  5     ecut=    80.00 Ry     beta=0.70
     Davidson diagonalization with overlap
     ethr =  1.00E-02,  avg # of iterations =  3.0

     negative rho (up, down):  1.785E+01 0.000E+00

     total cpu time spent up to now is    10459.0 secs

     total energy              =  -12871.09190734 Ry
     Harris-Foulkes estimate   =  -12936.54575541 Ry
     estimated scf accuracy    <    1673.94310618 Ry

     iteration #  6     ecut=    80.00 Ry     beta=0.70
     Davidson diagonalization with overlap
     ethr =  1.00E-02,  avg # of iterations =  1.8

     negative rho (up, down):  1.280E+01 0.000E+00

     total cpu time spent up to now is    10801.9 secs

     total energy              =  -12850.21050570 Ry
     Harris-Foulkes estimate   =  -12905.68906434 Ry
     estimated scf accuracy    <     568.15189510 Ry

     iteration #  7     ecut=    80.00 Ry     beta=0.70
     Davidson diagonalization with overlap
     ethr =  1.00E-02,  avg # of iterations =  2.0

     negative rho (up, down):  7.546E+00 0.000E+00

     total cpu time spent up to now is    11154.7 secs

     total energy              =  -12822.73645454 Ry
     Harris-Foulkes estimate   =  -12869.78159564 Ry
     estimated scf accuracy    <     373.74555371 Ry

     iteration #  8     ecut=    80.00 Ry     beta=0.70
     Davidson diagonalization with overlap
     ethr =  1.00E-02,  avg # of iterations =  1.3

     negative rho (up, down):  5.715E+00 0.000E+00

     total cpu time spent up to now is    11484.8 secs

     total energy              =  -12814.38210162 Ry
     Harris-Foulkes estimate   =  -12833.31268402 Ry
     estimated scf accuracy    <     280.59197182 Ry

     iteration #  9     ecut=    80.00 Ry     beta=0.70
     Davidson diagonalization with overlap
     ethr =  1.00E-02,  avg # of iterations =  1.0

     negative rho (up, down):  5.055E+00 0.000E+00

     total cpu time spent up to now is    11807.9 secs

     total energy              =  -12811.58572332 Ry
     Harris-Foulkes estimate   =  -12819.03721204 Ry
     estimated scf accuracy    <     270.35729006 Ry

     iteration # 10     ecut=    80.00 Ry     beta=0.70
     Davidson diagonalization with overlap
     ethr =  1.00E-02,  avg # of iterations =  1.0

     negative rho (up, down):  9.356E-01 0.000E+00

     total cpu time spent up to now is    12132.3 secs

     total energy              =  -12778.35356053 Ry
     Harris-Foulkes estimate   =  -12812.50525503 Ry
     estimated scf accuracy    <     166.24067551 Ry

     iteration # 11     ecut=    80.00 Ry     beta=0.70
     Davidson diagonalization with overlap
     ethr =  1.00E-02,  avg # of iterations =  2.2

     negative rho (up, down):  3.993E-01 0.000E+00

     total cpu time spent up to now is    12481.9 secs

     total energy              =  -12768.49177718 Ry
     Harris-Foulkes estimate   =  -12788.44980759 Ry
     estimated scf accuracy    <     268.43334635 Ry

     iteration # 12     ecut=    80.00 Ry     beta=0.70
     Davidson diagonalization with overlap
     ethr =  1.00E-02,  avg # of iterations =  1.2

     negative rho (up, down):  4.280E-01 0.000E+00

     total cpu time spent up to now is    12823.5 secs

     total energy              =  -12767.65701492 Ry
     Harris-Foulkes estimate   =  -12778.29754059 Ry
     estimated scf accuracy    <      67.69781650 Ry

     iteration # 13     ecut=    80.00 Ry     beta=0.70
     Davidson diagonalization with overlap
     ethr =  5.20E-03,  avg # of iterations =  2.5

     negative rho (up, down):  2.986E+00 0.000E+00

     total cpu time spent up to now is    13180.3 secs

     total energy              =  -12759.92004084 Ry
     Harris-Foulkes estimate   =  -12771.63197430 Ry
     estimated scf accuracy    <      48.72971912 Ry

     iteration # 14     ecut=    80.00 Ry     beta=0.70
     Davidson diagonalization with overlap
     ethr =  3.74E-03,  avg # of iterations =  2.7

     negative rho (up, down):  3.283E+00 0.000E+00

     total cpu time spent up to now is    13538.6 secs

     total energy              =  -12756.60678186 Ry
     Harris-Foulkes estimate   =  -12762.73974484 Ry
     estimated scf accuracy    <      44.16203962 Ry

     iteration # 15     ecut=    80.00 Ry     beta=0.70
     Davidson diagonalization with overlap
     ethr =  3.39E-03,  avg # of iterations =  2.8

     negative rho (up, down):  5.192E+00 0.000E+00

     total cpu time spent up to now is    13902.6 secs

     total energy              =  -12755.97061162 Ry
     Harris-Foulkes estimate   =  -12760.40149087 Ry
     estimated scf accuracy    <      31.67887280 Ry

     iteration # 16     ecut=    80.00 Ry     beta=0.70
     Davidson diagonalization with overlap
     ethr =  2.43E-03,  avg # of iterations =  2.3

     negative rho (up, down):  5.417E+00 0.000E+00

     total cpu time spent up to now is    14255.5 secs

     total energy              =  -12756.57029400 Ry
     Harris-Foulkes estimate   =  -12757.98225577 Ry
     estimated scf accuracy    <      14.49375157 Ry

     iteration # 17     ecut=    80.00 Ry     beta=0.70
     Davidson diagonalization with overlap
     ethr =  1.11E-03,  avg # of iterations =  6.0

     negative rho (up, down):  4.146E+00 0.000E+00

     total cpu time spent up to now is    14724.0 secs

     total energy              =  -12755.43943396 Ry
     Harris-Foulkes estimate   =  -12756.87793693 Ry
     estimated scf accuracy    <      10.86210942 Ry

     iteration # 18     ecut=    80.00 Ry     beta=0.70
     Davidson diagonalization with overlap
     ethr =  8.34E-04,  avg # of iterations =  1.8

     negative rho (up, down):  2.644E+00 0.000E+00

     total cpu time spent up to now is    15078.8 secs

     total energy              =  -12754.08533589 Ry
     Harris-Foulkes estimate   =  -12755.57102725 Ry
     estimated scf accuracy    <       8.08922997 Ry

     iteration # 19     ecut=    80.00 Ry     beta=0.70
     Davidson diagonalization with overlap
     ethr =  6.21E-04,  avg # of iterations =  1.7

     negative rho (up, down):  1.820E+00 0.000E+00

     total cpu time spent up to now is    15417.7 secs

     total energy              =  -12753.26613418 Ry
     Harris-Foulkes estimate   =  -12754.22894169 Ry
     estimated scf accuracy    <       6.07882773 Ry

     iteration # 20     ecut=    80.00 Ry     beta=0.70
     Davidson diagonalization with overlap
     ethr =  4.67E-04,  avg # of iterations =  2.2

     negative rho (up, down):  2.331E+00 0.000E+00

     total cpu time spent up to now is    15766.7 secs

     total energy              =  -12753.13717611 Ry
     Harris-Foulkes estimate   =  -12753.39072933 Ry
     estimated scf accuracy    <       5.73166213 Ry

     iteration # 21     ecut=    80.00 Ry     beta=0.70
     Davidson diagonalization with overlap
     ethr =  4.40E-04,  avg # of iterations =  8.7

     negative rho (up, down):  1.542E+00 0.000E+00

     total cpu time spent up to now is    16270.3 secs

     total energy              =  -12751.61858875 Ry
     Harris-Foulkes estimate   =  -12753.23877753 Ry
     estimated scf accuracy    <       4.75628428 Ry

     iteration # 22     ecut=    80.00 Ry     beta=0.70
     Davidson diagonalization with overlap
     ethr =  3.65E-04,  avg # of iterations =  2.0

     negative rho (up, down):  1.678E+00 0.000E+00

     total cpu time spent up to now is    16615.1 secs

     total energy              =  -12751.20721862 Ry
     Harris-Foulkes estimate   =  -12751.77456783 Ry
     estimated scf accuracy    <       5.33983250 Ry

     iteration # 23     ecut=    80.00 Ry     beta=0.70
     Davidson diagonalization with overlap
     ethr =  3.65E-04,  avg # of iterations =  4.7

     negative rho (up, down):  1.447E+00 0.000E+00

     total cpu time spent up to now is    17023.2 secs

     total energy              =  -12750.66935224 Ry
     Harris-Foulkes estimate   =  -12751.30311082 Ry
     estimated scf accuracy    <       3.12381731 Ry

     iteration # 24     ecut=    80.00 Ry     beta=0.70
     Davidson diagonalization with overlap
     ethr =  2.40E-04,  avg # of iterations =  6.2

     negative rho (up, down):  1.348E+00 0.000E+00

     total cpu time spent up to now is    17466.7 secs

     total energy              =  -12750.23677054 Ry
     Harris-Foulkes estimate   =  -12750.80690444 Ry
     estimated scf accuracy    <       3.54925493 Ry

     iteration # 25     ecut=    80.00 Ry     beta=0.70
     Davidson diagonalization with overlap
     ethr =  2.40E-04,  avg # of iterations =  7.3

     negative rho (up, down):  9.470E-01 0.000E+00

     total cpu time spent up to now is    17943.2 secs

     total energy              =  -12750.20812753 Ry
     Harris-Foulkes estimate   =  -12750.43446358 Ry
     estimated scf accuracy    <       0.91720466 Ry

     iteration # 26     ecut=    80.00 Ry     beta=0.70
     Davidson diagonalization with overlap
     ethr =  7.04E-05,  avg # of iterations =  8.2

     negative rho (up, down):  3.358E-01 0.000E+00

     total cpu time spent up to now is    18437.7 secs

     total energy              =  -12750.11561780 Ry
     Harris-Foulkes estimate   =  -12750.26190913 Ry
     estimated scf accuracy    <       0.39539213 Ry

     iteration # 27     ecut=    80.00 Ry     beta=0.70
     Davidson diagonalization with overlap
     ethr =  3.04E-05,  avg # of iterations =  9.7

     negative rho (up, down):  1.657E-01 0.000E+00

     total cpu time spent up to now is    19005.7 secs

     total energy              =  -12750.11155548 Ry
     Harris-Foulkes estimate   =  -12750.14267163 Ry
     estimated scf accuracy    <       0.14682974 Ry

     iteration # 28     ecut=    80.00 Ry     beta=0.70
     Davidson diagonalization with overlap
     ethr =  1.13E-05,  avg # of iterations = 10.7

     negative rho (up, down):  9.546E-02 0.000E+00

     total cpu time spent up to now is    19556.8 secs

     total energy              =  -12750.11792458 Ry
     Harris-Foulkes estimate   =  -12750.12821975 Ry
     estimated scf accuracy    <       0.08397716 Ry

     iteration # 29     ecut=    80.00 Ry     beta=0.70
     Davidson diagonalization with overlap
     c_bands:  2 eigenvalues not converged
     ethr =  6.45E-06,  avg # of iterations = 11.0

     negative rho (up, down):  3.072E-02 0.000E+00

     total cpu time spent up to now is    20131.3 secs

     total energy              =  -12750.12214797 Ry
     Harris-Foulkes estimate   =  -12750.12276700 Ry
     estimated scf accuracy    <       0.01225600 Ry

     iteration # 30     ecut=    80.00 Ry     beta=0.70
     Davidson diagonalization with overlap
     c_bands:  3 eigenvalues not converged
     ethr =  9.41E-07,  avg # of iterations = 12.2

     negative rho (up, down):  1.538E-02 0.000E+00

     total cpu time spent up to now is    20754.4 secs

     total energy              =  -12750.12259373 Ry
     Harris-Foulkes estimate   =  -12750.12351954 Ry
     estimated scf accuracy    <       0.00992468 Ry

     iteration # 31     ecut=    80.00 Ry     beta=0.70
     Davidson diagonalization with overlap
     c_bands:  1 eigenvalues not converged
     ethr =  7.62E-07,  avg # of iterations = 10.0

     negative rho (up, down):  2.162E-02 0.000E+00

     total cpu time spent up to now is    21298.4 secs

     total energy              =  -12750.12306947 Ry
     Harris-Foulkes estimate   =  -12750.12313270 Ry
     estimated scf accuracy    <       0.00202316 Ry

     iteration # 32     ecut=    80.00 Ry     beta=0.70
     Davidson diagonalization with overlap
     ethr =  1.55E-07,  avg # of iterations =  6.7

     negative rho (up, down):  1.125E-02 0.000E+00

     total cpu time spent up to now is    21777.7 secs

     total energy              =  -12750.12310920 Ry
     Harris-Foulkes estimate   =  -12750.12322983 Ry
     estimated scf accuracy    <       0.00067569 Ry

     iteration # 33     ecut=    80.00 Ry     beta=0.70
     Davidson diagonalization with overlap
     c_bands:  1 eigenvalues not converged
     ethr =  5.19E-08,  avg # of iterations = 10.5

     negative rho (up, down):  8.410E-03 0.000E+00

     total cpu time spent up to now is    22341.8 secs

     total energy              =  -12750.12311446 Ry
     Harris-Foulkes estimate   =  -12750.12314064 Ry
     estimated scf accuracy    <       0.00017951 Ry

     iteration # 34     ecut=    80.00 Ry     beta=0.70
     Davidson diagonalization with overlap
     ethr =  1.38E-08,  avg # of iterations =  5.3

     negative rho (up, down):  4.604E-03 0.000E+00

     total cpu time spent up to now is    22794.7 secs

     total energy              =  -12750.12307758 Ry
     Harris-Foulkes estimate   =  -12750.12313674 Ry
     estimated scf accuracy    <       0.00011403 Ry

     iteration # 35     ecut=    80.00 Ry     beta=0.70
     Davidson diagonalization with overlap
     ethr =  8.76E-09,  avg # of iterations =  7.8

     negative rho (up, down):  3.228E-03 0.000E+00

     total cpu time spent up to now is    23283.1 secs

     total energy              =  -12750.12305908 Ry
     Harris-Foulkes estimate   =  -12750.12308668 Ry
     estimated scf accuracy    <       0.00002612 Ry

     iteration # 36     ecut=    80.00 Ry     beta=0.70
     Davidson diagonalization with overlap
     c_bands:  1 eigenvalues not converged
     ethr =  2.01E-09,  avg # of iterations =  8.3

     negative rho (up, down):  2.004E-03 0.000E+00

     total cpu time spent up to now is    23795.7 secs

     total energy              =  -12750.12305229 Ry
     Harris-Foulkes estimate   =  -12750.12306177 Ry
     estimated scf accuracy    <       0.00000692 Ry

     iteration # 37     ecut=    80.00 Ry     beta=0.70
     Davidson diagonalization with overlap
     ethr =  5.32E-10,  avg # of iterations =  5.3

     negative rho (up, down):  1.990E-03 0.000E+00

     total cpu time spent up to now is    24244.7 secs

     total energy              =  -12750.12305274 Ry
     Harris-Foulkes estimate   =  -12750.12305314 Ry
     estimated scf accuracy    <       0.00000407 Ry

     iteration # 38     ecut=    80.00 Ry     beta=0.70
     Davidson diagonalization with overlap
     ethr =  3.13E-10,  avg # of iterations =  2.0

     negative rho (up, down):  1.765E-03 0.000E+00

     total cpu time spent up to now is    24602.6 secs

     total energy              =  -12750.12305278 Ry
     Harris-Foulkes estimate   =  -12750.12305318 Ry
     estimated scf accuracy    <       0.00000147 Ry

     iteration # 39     ecut=    80.00 Ry     beta=0.70
     Davidson diagonalization with overlap
     ethr =  1.13E-10,  avg # of iterations =  2.0

     negative rho (up, down):  1.684E-03 0.000E+00

     total cpu time spent up to now is    24969.3 secs

     total energy              =  -12750.12305322 Ry
     Harris-Foulkes estimate   =  -12750.12305297 Ry
     estimated scf accuracy    <       0.00000051 Ry

     iteration # 40     ecut=    80.00 Ry     beta=0.70
     Davidson diagonalization with overlap
     ethr =  3.89E-11,  avg # of iterations =  2.7

     negative rho (up, down):  1.659E-03 0.000E+00

     total cpu time spent up to now is    25342.9 secs

     total energy              =  -12750.12305337 Ry
     Harris-Foulkes estimate   =  -12750.12305326 Ry
     estimated scf accuracy    <       0.00000025 Ry

     iteration # 41     ecut=    80.00 Ry     beta=0.70
     Davidson diagonalization with overlap
     ethr =  1.94E-11,  avg # of iterations =  3.0

     negative rho (up, down):  1.664E-03 0.000E+00

     total cpu time spent up to now is    25719.1 secs

     total energy              =  -12750.12305347 Ry
     Harris-Foulkes estimate   =  -12750.12305339 Ry
     estimated scf accuracy    <       0.00000007 Ry

     iteration # 42     ecut=    80.00 Ry     beta=0.70
     Davidson diagonalization with overlap
     ethr =  5.45E-12,  avg # of iterations =  3.0

     negative rho (up, down):  1.673E-03 0.000E+00

     total cpu time spent up to now is    26123.9 secs

     total energy              =  -12750.12305347 Ry
     Harris-Foulkes estimate   =  -12750.12305348 Ry
     estimated scf accuracy    <       0.00000003 Ry

     iteration # 43     ecut=    80.00 Ry     beta=0.70
     Davidson diagonalization with overlap
     ethr =  2.05E-12,  avg # of iterations =  2.0

     negative rho (up, down):  1.693E-03 0.000E+00

     total cpu time spent up to now is    26465.7 secs

     End of self-consistent calculation

          k = 0.0000 0.0000 0.0000 (256287 PWs)   bands (ev):

   -21.6280 -15.9292 -15.5592 -15.5471 -14.4752 -14.4717 -13.9649 -13.9640
   -13.6062 -13.6029 -13.5932 -13.5918 -12.7216 -12.7152 -12.5590 -12.5574
   -12.5554 -12.5532 -10.9097 -10.9074 -10.9016 -10.8995 -10.8166  -9.6526
    -9.1285  -9.1243  -8.9562  -8.9526  -8.1564  -8.0917  -8.0801  -8.0792
    -8.0390  -7.2296  -7.2239  -7.0364  -7.0326  -7.0309  -7.0308  -7.0008
    -7.0001  -5.9635  -5.5313  -5.5243  -5.5202  -5.5178  -5.4749  -5.4276
    -5.4113  -5.4085  -5.4058  -5.4050  -5.2419  -4.8260  -4.7950  -4.4275
    -4.3110  -4.2913  -4.2788  -4.2770  -4.0972  -4.0314  -4.0299  -3.9207
    -3.9175  -3.6371  -3.5145  -3.3472  -3.3400  -3.1842  -3.1815  -3.1804
    -3.1757  -3.1742  -2.9694  -2.9593  -2.9573  -2.9482  -2.9464  -2.9356
    -2.9286  -2.9259  -2.8165  -2.7842  -2.7010  -2.4630  -2.4594  -2.4536
    -2.4506  -2.4027  -2.3835  -2.3452  -2.3374  -2.3329  -2.3261  -2.2516
    -2.2485  -2.2438  -2.2255  -2.1457  -2.1397  -2.1142  -2.1108  -2.1086
    -2.1056  -1.9899  -1.9873  -1.9697  -1.9659  -1.9460  -1.8554  -1.8482
    -1.8142  -1.7378  -1.7054  -1.6978  -1.6945  -1.6931  -1.6825  -1.6682
    -1.6481  -1.6133  -1.6076  -1.5962  -1.5732  -1.5606  -1.5577  -1.5398
    -1.5375  -1.5368  -1.5178  -1.5034  -1.4904  -1.4842  -1.4813  -1.4789
    -1.4751  -1.4404  -1.4163  -1.3996  -1.3951  -1.3836  -1.3767  -1.3358
    -1.3174  -1.2861  -1.2643  -1.2609  -1.2567  -1.2451  -1.2311  -1.2240
    -1.2095  -1.1822  -1.1723  -1.1572  -1.1568  -1.1326  -1.1225  -1.0479
    -1.0456  -1.0438  -1.0274  -1.0245  -1.0219  -1.0164  -1.0103  -1.0041
    -1.0029  -0.9999  -0.9981  -0.9847  -0.9810  -0.9756  -0.9720  -0.9643
    -0.9642  -0.9592  -0.9501  -0.9158  -0.9149  -0.9114  -0.9025  -0.8888
    -0.8861  -0.8845  -0.8569  -0.8392  -0.8368  -0.8285  -0.8243  -0.8238
    -0.8186  -0.8163  -0.8150  -0.8132  -0.8119  -0.8107  -0.8102  -0.8067
    -0.8054  -0.8028  -0.7939  -0.7378  -0.6831  -0.6582  -0.6532  -0.6493
    -0.6392  -0.6321  -0.6156  -0.6072  -0.6002  -0.5959  -0.5921  -0.5855
    -0.5797  -0.5728  -0.5619  -0.5459  -0.5366  -0.5325  -0.5319  -0.5291
    -0.5246  -0.5221  -0.5131  -0.5009  -0.4762  -0.4654  -0.4600  -0.4280
    -0.4219  -0.4153  -0.4072  -0.3989  -0.3971  -0.3946  -0.3907  -0.3877
    -0.3851  -0.3835  -0.3798  -0.3759  -0.3747  -0.3744  -0.3692  -0.3560
    -0.3529  -0.3509  -0.3493  -0.3276  -0.3119  -0.3085  -0.3025  -0.2909
    -0.2860  -0.2830  -0.2740  -0.2714  -0.2617  -0.2596  -0.2541  -0.2519
    -0.2506  -0.2445  -0.2408  -0.2390  -0.2367  -0.2237  -0.2222  -0.2163
    -0.2149  -0.2109  -0.2094  -0.2091  -0.2041  -0.1962  -0.1946  -0.1925
    -0.1878  -0.1831  -0.1742  -0.1679  -0.1653  -0.1627  -0.1553  -0.1549
    -0.1411  -0.1292  -0.1154  -0.1090  -0.0964  -0.0945  -0.0768  -0.0700
    -0.0602  -0.0589  -0.0480  -0.0407  -0.0362  -0.0313  -0.0274  -0.0270
    -0.0212  -0.0176  -0.0085   0.0089   0.0133   0.0203   0.0252   0.0320
     0.0335   0.0353   0.0470   0.0562   0.0613   0.0659   0.0673   0.0755
     0.0784   0.0795   0.0815   0.0871   0.0908   0.0953   0.1004   0.1162
     0.1195   0.1263   0.1340   0.1359   0.1378   0.1648   0.1697   0.1716
     0.1820   0.1899   0.1930   0.1992   0.2182   0.2278   0.2369   0.2415
     0.2529   0.2669   0.2734   0.2809   0.2940   0.2989   0.3035   0.3106
     0.3123   0.3250   0.3281   0.3405   0.3476   0.3552   0.3626   0.3639
     0.3787   0.3836   0.3875   0.3904   0.4017   0.4043   0.4100   0.4139
     0.4276   0.4293   0.4348   0.4474   0.4552   0.4578   0.4600   0.4672
     0.4727   0.4782   0.4810   0.4880   0.5047   0.5088   0.5132   0.5175
     0.5245   0.5254   0.5301   0.5447   0.5499   0.5511   0.5568   0.5575
     0.5627   0.5679   0.5684   0.5735   0.5746   0.5749   0.5783   0.5832
     0.5886   0.5911   0.5983   0.6048   0.6138   0.6160   0.6272   0.6352
     0.6393   0.6439   0.6499   0.6581   0.6607   0.6668   0.6709   0.6739
     0.6881   0.6887   0.6913   0.6956   0.6964   0.6994   0.7039   0.7088
     0.7088   0.7151   0.7194   0.7233   0.7307   0.7380   0.7396   0.7448
     0.7501   0.7538   0.7544   0.7571   0.7609   0.7689   0.7733   0.7747
     0.7814   0.7872   0.7899   0.8114   0.8117   0.8195   0.8314   0.8348
     0.8448   0.8561   0.8580   0.8611   0.8687   0.8714   0.8860   0.8871
     0.8897   0.8958   0.8988   0.9016   0.9096   0.9200   0.9264   0.9291
     0.9347   0.9351   0.9408   0.9432   0.9482   0.9500   0.9517   0.9574
     0.9657   0.9707   0.9738   0.9862   0.9923   1.0021   1.0042   1.0084
     1.0129   1.0167   1.0220   1.0248   1.0268   1.0289   1.0331   1.0376
     1.0403   1.0448   1.0487   1.0498   1.0555   1.0602   1.0652   1.0680
     1.0758   1.0772   1.0855   1.0892   1.0965   1.1063   1.1079   1.1105
     1.1138   1.1193   1.1201   1.1236   1.1247   1.1268   1.1307   1.1341
     1.1357   1.1397   1.1424   1.1470   1.1549   1.1567   1.1669   1.1728
     1.1799   1.1811   1.1844   1.1869   1.1974   1.2053   1.2166   1.2172
     1.2224   1.2240   1.2371   1.2395   1.2476   1.2495   1.2534   1.2580
     1.2637   1.2683   1.2694   1.2744   1.2784   1.2825   1.2842   1.2864
     1.2870   1.2879   1.2940   1.2990   1.3025   1.3043   1.3096   1.3166
     1.3173   1.3191   1.3202   1.3220   1.3242   1.3259   1.3278   1.3340
     1.3378   1.3480   1.3502   1.3521   1.3560   1.3633   1.3719   1.3785
     1.3861   1.3871   1.3973   1.4000   1.4035   1.4103   1.4117   1.4136
     1.4162   1.4177   1.4197   1.4229   1.4284   1.4328   1.4336   1.4377
     1.4404   1.4421   1.4427   1.4469   1.4515   1.4567   1.4627   1.4643
     1.4678   1.4703   1.4751   1.4764   1.4823   1.4852   1.4880   1.4915
     1.4970   1.5015   1.5136   1.5161   1.5271   1.5498   1.5510   1.5529
     1.5595   1.5638   1.5690   1.5727   1.5802   1.6029   1.6036   1.6239
     1.6274   1.6280   1.6348   1.6378   1.6417   1.6453   1.6608   1.6645
     1.7313   1.9199   1.9621   2.0722   2.0800   2.0892   2.1594   2.1999
     2.2044   2.2094   2.2124   2.2162   2.2296   2.2320   2.2490   2.3614
     2.3681   2.4079   2.4249   2.4468   2.4584   2.4777   2.5629   2.6469
     2.6600   2.7223   2.7354   3.1102   3.3200   3.3960   3.4353   3.4562
     3.4860   3.5117   3.5477   3.5879   3.7653   3.8019   3.8164   3.8458
     3.8562   3.9085   3.9209   3.9490   3.9715   3.9849   4.0008   4.0166
     4.0265   4.0346   4.0858   4.1412   4.1548   4.1966   4.2807   4.5236
     4.7252   4.8853   5.0267   5.1602   5.3183   5.3328   5.3485   5.3617
     5.3698   5.3790   5.4055   5.5769   5.6150   5.7756   5.8475   5.9475
     5.9840   6.1907   6.2097   6.3562   6.3747   6.4410   6.4675   6.5174
     6.5287   6.6442   6.6708   6.7140   6.7685   6.9234   6.9371   6.9399
     6.9780   7.0186   7.1348   7.1525   7.1632   7.1849   7.1851   7.2033
     7.2581   7.3731   7.4038   7.4206   7.5605   7.6425   7.6609   7.7027
     7.7254   7.8334   8.0649   8.0788   8.1098   8.1213   8.1358   8.1550
     8.2046   8.2962   8.3185   8.3477   8.3559   8.3628   8.4184   8.4805
     8.5399   8.5567   8.5633   8.5885   8.6781   8.7814   8.7917   8.8031
     8.8153   8.8243   8.8295   8.8371   8.8710   8.8737   8.9388   8.9936
     9.0103   9.0653   9.0796   9.1378   9.2463   9.3059   9.3453   9.5394
     9.5583   9.5681   9.5855   9.6636   9.6702   9.7406   9.7810   9.8442
     9.8711  10.0576  10.0606  10.1673  10.1847

          k = 0.0000-0.2165 0.0000 (256176 PWs)   bands (ev):

   -21.6280 -15.8716 -15.7912 -15.1030 -15.1010 -13.9087 -13.9081 -13.8314
   -13.8285 -13.6753 -13.6744 -13.1641 -13.1625 -13.1599 -13.1586 -11.8011
   -11.7997 -11.7930 -11.7910 -11.6593 -11.6196  -9.9505  -9.9495  -9.9252
    -9.9204  -8.7128  -8.6829  -8.4978  -8.4913  -8.4623  -8.4563  -8.0993
    -7.6262  -7.6246  -7.6199  -7.6149  -6.5211  -6.5206  -6.4667  -6.4648
    -6.3258  -6.3229  -6.3167  -6.3159  -5.8419  -5.8201  -5.6448  -5.6433
    -5.3025  -4.8633  -4.7715  -4.7614  -4.7522  -4.7519  -4.7334  -4.7007
    -4.6906  -4.5822  -4.3925  -4.2247  -4.2221  -4.2143  -4.2137  -4.1049
    -3.8205  -3.7269  -3.6801  -3.2515  -3.2470  -3.2399  -3.2280  -3.1764
    -3.0906  -3.0652  -2.9985  -2.9701  -2.9561  -2.7572  -2.6883  -2.6688
    -2.6661  -2.6144  -2.6126  -2.5325  -2.5289  -2.5268  -2.5245  -2.4989
    -2.4980  -2.4834  -2.4814  -2.4523  -2.4468  -2.4128  -2.4119  -2.3885
    -2.3724  -2.2699  -2.2328  -2.1542  -2.1411  -2.0891  -2.0855  -2.0826
    -2.0717  -2.0384  -2.0358  -1.9456  -1.9438  -1.9224  -1.9214  -1.8753
    -1.8292  -1.8268  -1.8255  -1.7438  -1.7351  -1.7165  -1.7072  -1.7005
    -1.6988  -1.6830  -1.6712  -1.6507  -1.6321  -1.6289  -1.6246  -1.6149
    -1.6014  -1.5964  -1.5836  -1.5042  -1.4934  -1.4584  -1.4574  -1.4429
    -1.4256  -1.3405  -1.3331  -1.3117  -1.3007  -1.2869  -1.2779  -1.2565
    -1.2523  -1.2480  -1.2424  -1.2400  -1.2345  -1.2323  -1.2263  -1.2123
    -1.2032  -1.1989  -1.1844  -1.1793  -1.1761  -1.1691  -1.1641  -1.1614
    -1.1374  -1.0840  -1.0624  -1.0555  -1.0515  -1.0202  -1.0172  -1.0139
    -1.0127  -1.0086  -0.9746  -0.9594  -0.9561  -0.9536  -0.9494  -0.9440
    -0.9418  -0.9373  -0.9356  -0.9334  -0.9153  -0.9011  -0.8948  -0.8922
    -0.8894  -0.8861  -0.8796  -0.8758  -0.8722  -0.8629  -0.8491  -0.8475
    -0.8441  -0.8155  -0.8102  -0.8092  -0.7927  -0.7860  -0.7841  -0.7776
    -0.7669  -0.7622  -0.7589  -0.7509  -0.7337  -0.7306  -0.7222  -0.7185
    -0.7173  -0.6450  -0.6386  -0.6049  -0.6044  -0.5991  -0.5974  -0.5939
    -0.5831  -0.5804  -0.5721  -0.5708  -0.5669  -0.5633  -0.5593  -0.5357
    -0.5231  -0.5182  -0.5086  -0.5066  -0.5015  -0.4962  -0.4888  -0.4756
    -0.4749  -0.4673  -0.4641  -0.4505  -0.4424  -0.4310  -0.4266  -0.4244
    -0.4233  -0.4178  -0.4162  -0.3841  -0.3754  -0.3703  -0.3615  -0.3501
    -0.3439  -0.3250  -0.3113  -0.3017  -0.2974  -0.2852  -0.2826  -0.2819
    -0.2797  -0.2778  -0.2740  -0.2674  -0.2581  -0.2511  -0.2483  -0.2369
    -0.2311  -0.2272  -0.2257  -0.2236  -0.2186  -0.2157  -0.2097  -0.2062
    -0.1980  -0.1921  -0.1843  -0.1819  -0.1770  -0.1743  -0.1630  -0.1502
    -0.1334  -0.1304  -0.1246  -0.1200  -0.1145  -0.1122  -0.1093  -0.1042
    -0.0946  -0.0913  -0.0845  -0.0818  -0.0715  -0.0645  -0.0596  -0.0573
    -0.0535  -0.0464  -0.0440  -0.0361  -0.0299  -0.0164  -0.0067  -0.0052
    -0.0036   0.0048   0.0139   0.0207   0.0246   0.0292   0.0342   0.0444
     0.0457   0.0541   0.0603   0.0659   0.0719   0.0762   0.0790   0.0828
     0.0991   0.1004   0.1076   0.1116   0.1208   0.1266   0.1309   0.1362
     0.1422   0.1452   0.1523   0.1580   0.1624   0.1649   0.1745   0.1811
     0.2014   0.2117   0.2173   0.2227   0.2241   0.2275   0.2316   0.2372
     0.2472   0.2504   0.2595   0.2751   0.2917   0.2935   0.3017   0.3043
     0.3086   0.3279   0.3363   0.3570   0.3724   0.3862   0.3948   0.4080
     0.4175   0.4235   0.4265   0.4311   0.4350   0.4370   0.4388   0.4429
     0.4440   0.4550   0.4647   0.4668   0.4688   0.4704   0.4749   0.4822
     0.4883   0.4938   0.5006   0.5042   0.5093   0.5114   0.5166   0.5238
     0.5294   0.5349   0.5377   0.5418   0.5423   0.5431   0.5449   0.5504
     0.5560   0.5607   0.5623   0.5630   0.5667   0.5704   0.5734   0.5799
     0.5832   0.5891   0.5925   0.5984   0.6002   0.6051   0.6066   0.6128
     0.6148   0.6156   0.6192   0.6242   0.6278   0.6366   0.6422   0.6496
     0.6528   0.6569   0.6602   0.6669   0.6690   0.6736   0.6765   0.6837
     0.6894   0.6938   0.6989   0.7007   0.7036   0.7089   0.7140   0.7215
     0.7263   0.7390   0.7426   0.7449   0.7468   0.7546   0.7642   0.7709
     0.7754   0.7808   0.7893   0.7963   0.8023   0.8058   0.8075   0.8107
     0.8191   0.8407   0.8468   0.8543   0.8866   0.8897   0.8936   0.8968
     0.9075   0.9100   0.9157   0.9197   0.9236   0.9291   0.9328   0.9331
     0.9351   0.9391   0.9414   0.9447   0.9468   0.9497   0.9532   0.9571
     0.9663   0.9699   0.9709   0.9727   0.9741   0.9789   0.9814   0.9824
     0.9869   0.9920   0.9929   0.9952   0.9955   0.9989   1.0011   1.0058
     1.0091   1.0140   1.0203   1.0227   1.0277   1.0288   1.0396   1.0415
     1.0430   1.0460   1.0492   1.0523   1.0545   1.0560   1.0612   1.0646
     1.0704   1.0948   1.0992   1.1013   1.1048   1.1151   1.1367   1.1423
     1.1446   1.1591   1.1616   1.1708   1.1755   1.1857   1.1877   1.1906
     1.1922   1.1939   1.1997   1.2023   1.2075   1.2090   1.2104   1.2120
     1.2148   1.2165   1.2200   1.2214   1.2281   1.2293   1.2343   1.2356
     1.2369   1.2421   1.2457   1.2474   1.2516   1.2526   1.2608   1.2686
     1.2719   1.2729   1.2776   1.2812   1.2839   1.2904   1.2946   1.3020
     1.3025   1.3045   1.3106   1.3177   1.3182   1.3210   1.3237   1.3286
     1.3356   1.3418   1.3444   1.3461   1.3474   1.3647   1.3693   1.3734
     1.3762   1.3837   1.3841   1.3877   1.3916   1.3933   1.3980   1.4003
     1.4057   1.4088   1.4118   1.4125   1.4162   1.4362   1.4396   1.4427
     1.4493   1.4516   1.4552   1.4577   1.4587   1.4609   1.4634   1.4657
     1.4735   1.4855   1.4906   1.4915   1.4974   1.5013   1.5029   1.5050
     1.5166   1.5202   1.5211   1.5216   1.5264   1.5365   1.5401   1.5708
     1.5765   1.5797   1.5806   1.5876   1.5891   1.6630   1.6720   1.6787
     1.7384   1.7481   1.7701   1.7761   1.7769   1.7816   1.7927   1.8073
     1.8243   1.8306   1.8327   1.8432   1.8487   1.8756   1.9559   2.3558
     2.3655   2.3814   2.4134   2.4251   2.4365   2.4498   2.4535   2.4863
     2.5097   2.5167   2.5285   2.5520   2.5839   2.6045   2.6097   2.6853
     2.7130   2.7198   2.7305   2.7553   2.8291   2.9319   2.9389   3.0496
     3.0757   3.1760   3.1768   3.2265   3.4820   3.5976   3.6265   3.7477
     3.9356   3.9726   3.9738   4.0840   4.1288   4.2728   4.2980   4.3705
     4.3744   4.4267   4.4314   4.4377   4.4450   4.4647   4.5591   4.5732
     4.6088   4.6691   4.9966   5.1240   5.1536   5.2405   5.3053   5.3588
     5.3709   5.4036   5.4555   5.5924   5.7193   5.8058   5.8129   6.1846
     6.2023   6.2263   6.2366   6.2442   6.2517   6.2579   6.2716   6.3708
     6.4232   6.5335   6.5735   6.6746   6.7165   6.7264   6.7725   6.9324
     6.9742   7.0404   7.0540   7.0641   7.1040   7.1208   7.1446   7.1522
     7.1971   7.2968   7.3134   7.3337   7.3710   7.5189   7.7518   7.7732
     7.9100   8.0223   8.0372   8.0395   8.0444   8.0999   8.1238   8.2045
     8.2149   8.3313   8.3646   8.3741   8.4276   8.4581   8.5037   8.6494
     8.6639   8.6715   8.6917   8.7124   8.7299   8.7479   8.7556   8.7654
     8.8081   8.8239   8.9229   9.0114   9.0537   9.0897   9.1841   9.2849
     9.3215   9.3357   9.3742   9.3763   9.3827   9.3940   9.4022   9.4133
     9.4619   9.4675   9.4705   9.4793   9.4940   9.4978   9.5220   9.6387
     9.8083   9.8115   9.9022   9.9043   9.9524

          k = 0.2500 0.0000 0.0000 (256240 PWs)   bands (ev):

   -21.6280 -15.8049 -15.4355 -15.4234 -14.8173 -14.4528 -14.4408 -14.3536
   -14.3499 -13.3883 -13.3846 -12.8870 -12.6049 -12.5984 -12.5349 -12.5231
   -11.6830 -11.6766 -11.5285 -11.5247 -10.7105 -10.2648 -10.2337 -10.1679
    -9.8629  -9.5481  -9.2762  -9.2734  -8.8483  -8.6030  -8.5969  -8.1928
    -8.0899  -7.1535  -7.1480  -7.0818  -7.0758  -6.9696  -6.9651  -6.4571
    -6.1398  -5.7882  -5.7379  -5.4454  -5.4411  -5.4198  -5.4104  -5.3634
    -5.2552  -5.1587  -4.8211  -4.7766  -4.7735  -4.6404  -4.4330  -4.3719
    -4.2051  -4.1749  -4.1429  -4.0474  -4.0357  -3.9494  -3.9367  -3.9199
    -3.8844  -3.8814  -3.7763  -3.7726  -3.4974  -3.3992  -3.3790  -3.3392
    -3.2648  -3.2584  -3.1571  -3.1549  -3.0485  -3.0462  -3.0443  -3.0338
    -3.0035  -2.9758  -2.9696  -2.8656  -2.8497  -2.8104  -2.7480  -2.7471
    -2.7374  -2.6614  -2.5806  -2.3718  -2.3562  -2.3424  -2.2713  -2.2635
    -2.2563  -2.2138  -2.0546  -2.0492  -2.0384  -2.0298  -2.0009  -1.9638
    -1.9618  -1.9042  -1.8761  -1.8246  -1.7689  -1.7653  -1.7623  -1.7604
    -1.7549  -1.7521  -1.7346  -1.7239  -1.7179  -1.7136  -1.6879  -1.6550
    -1.6498  -1.6226  -1.5980  -1.5941  -1.5792  -1.5408  -1.5377  -1.5353
    -1.5339  -1.5299  -1.5263  -1.5110  -1.4878  -1.4689  -1.4654  -1.4636
    -1.4483  -1.3371  -1.2923  -1.2902  -1.2857  -1.2825  -1.2787  -1.2741
    -1.2648  -1.2306  -1.2137  -1.2083  -1.2029  -1.2016  -1.1823  -1.1700
    -1.1642  -1.1572  -1.1518  -1.1476  -1.1440  -1.1401  -1.1358  -1.1080
    -1.1019  -1.0975  -1.0898  -1.0840  -1.0773  -1.0739  -1.0703  -1.0565
    -1.0488  -1.0192  -1.0072  -0.9983  -0.9921  -0.9896  -0.9839  -0.9810
    -0.9766  -0.9735  -0.9698  -0.9684  -0.9639  -0.9631  -0.9549  -0.9463
    -0.9439  -0.9361  -0.9318  -0.9287  -0.9250  -0.9143  -0.9009  -0.8683
    -0.8662  -0.8622  -0.8256  -0.8207  -0.7821  -0.7798  -0.7769  -0.7618
    -0.7538  -0.7454  -0.7415  -0.7322  -0.7169  -0.7125  -0.7106  -0.7044
    -0.6957  -0.6912  -0.6679  -0.5982  -0.5964  -0.5891  -0.5857  -0.5778
    -0.5733  -0.5554  -0.5471  -0.5402  -0.5348  -0.5280  -0.5216  -0.5203
    -0.5104  -0.5044  -0.4994  -0.4955  -0.4792  -0.4757  -0.4729  -0.4609
    -0.4581  -0.4572  -0.4531  -0.4476  -0.4422  -0.4376  -0.4302  -0.4164
    -0.3924  -0.3827  -0.3803  -0.3740  -0.3691  -0.3643  -0.3593  -0.3538
    -0.3486  -0.3303  -0.3286  -0.3240  -0.3212  -0.3148  -0.3114  -0.2970
    -0.2898  -0.2868  -0.2824  -0.2757  -0.2696  -0.2638  -0.2605  -0.2581
    -0.2548  -0.2462  -0.2398  -0.2315  -0.2286  -0.2250  -0.2136  -0.2042
    -0.1952  -0.1848  -0.1825  -0.1762  -0.1738  -0.1639  -0.1588  -0.1532
    -0.1466  -0.1410  -0.1370  -0.1311  -0.1196  -0.1123  -0.1005  -0.0954
    -0.0900  -0.0802  -0.0727  -0.0650  -0.0570  -0.0500  -0.0398  -0.0334
    -0.0314  -0.0181  -0.0111  -0.0075  -0.0009   0.0031   0.0042   0.0073
     0.0114   0.0152   0.0233   0.0308   0.0343   0.0376   0.0411   0.0430
     0.0466   0.0481   0.0525   0.0598   0.0634   0.0713   0.0741   0.0783
     0.0857   0.0918   0.0937   0.1058   0.1117   0.1170   0.1226   0.1306
     0.1397   0.1438   0.1473   0.1557   0.1584   0.1621   0.1725   0.1763
     0.1825   0.1947   0.2033   0.2301   0.2474   0.2571   0.2641   0.2684
     0.2838   0.2871   0.2927   0.2974   0.3004   0.3074   0.3113   0.3135
     0.3159   0.3185   0.3230   0.3266   0.3374   0.3401   0.3438   0.3483
     0.3499   0.3595   0.3643   0.3713   0.3783   0.3840   0.3880   0.3916
     0.3995   0.4107   0.4195   0.4269   0.4414   0.4448   0.4485   0.4565
     0.4612   0.4634   0.4682   0.4784   0.4870   0.4902   0.4975   0.4996
     0.5060   0.5127   0.5176   0.5218   0.5253   0.5261   0.5287   0.5335
     0.5399   0.5455   0.5511   0.5585   0.5647   0.5724   0.5747   0.5779
     0.5837   0.5914   0.5958   0.6001   0.6063   0.6069   0.6156   0.6188
     0.6217   0.6304   0.6364   0.6385   0.6440   0.6470   0.6481   0.6517
     0.6567   0.6592   0.6611   0.6705   0.6727   0.6775   0.6834   0.6837
     0.6905   0.6974   0.7014   0.7103   0.7169   0.7249   0.7310   0.7428
     0.7493   0.7572   0.7589   0.7642   0.7703   0.7746   0.7769   0.7791
     0.7845   0.7871   0.7957   0.8004   0.8032   0.8114   0.8289   0.8352
     0.8419   0.8485   0.8539   0.8604   0.8638   0.8659   0.8719   0.8764
     0.8817   0.8878   0.8928   0.8970   0.9007   0.9020   0.9042   0.9135
     0.9190   0.9200   0.9267   0.9315   0.9378   0.9441   0.9472   0.9509
     0.9565   0.9700   0.9777   0.9833   0.9885   0.9969   1.0004   1.0040
     1.0143   1.0188   1.0211   1.0234   1.0266   1.0271   1.0293   1.0307
     1.0339   1.0408   1.0418   1.0475   1.0504   1.0519   1.0566   1.0585
     1.0635   1.0689   1.0731   1.0764   1.0772   1.0824   1.0840   1.0871
     1.0932   1.0960   1.1016   1.1065   1.1115   1.1164   1.1210   1.1227
     1.1264   1.1316   1.1334   1.1349   1.1366   1.1398   1.1407   1.1489
     1.1497   1.1587   1.1698   1.1735   1.1818   1.1961   1.1979   1.2007
     1.2026   1.2074   1.2152   1.2174   1.2233   1.2294   1.2366   1.2446
     1.2517   1.2545   1.2611   1.2637   1.2664   1.2692   1.2700   1.2757
     1.2831   1.2850   1.2891   1.2902   1.2938   1.3014   1.3027   1.3088
     1.3101   1.3140   1.3163   1.3185   1.3203   1.3230   1.3248   1.3283
     1.3304   1.3387   1.3394   1.3414   1.3501   1.3550   1.3583   1.3621
     1.3631   1.3694   1.3789   1.3808   1.3862   1.3911   1.3994   1.4131
     1.4141   1.4177   1.4233   1.4270   1.4313   1.4321   1.4349   1.4405
     1.4425   1.4432   1.4454   1.4471   1.4509   1.4556   1.4584   1.4603
     1.4649   1.4658   1.4692   1.4778   1.4827   1.4851   1.4879   1.4899
     1.4927   1.4963   1.5007   1.5075   1.5115   1.5121   1.5136   1.5251
     1.5340   1.5345   1.5529   1.5656   1.5750   1.5843   1.6232   1.6276
     1.6324   1.6392   1.6423   1.6560   1.7264   1.7471   1.7671   1.7759
     1.7834   1.7930   1.8042   1.8424   1.8470   2.0236   2.0362   2.0412
     2.0466   2.0658   2.0931   2.1660   2.1775   2.2470   2.3592   2.4030
     2.5441   2.5494   2.5606   2.5978   2.9441   2.9878   2.9904   3.1128
     3.1663   3.1974   3.2219   3.2285   3.2324   3.2708   3.3618   3.4215
     3.4611   3.5324   3.5732   3.6610   3.6700   3.6870   3.7081   3.7622
     3.8033   3.8225   3.8842   3.9129   4.0142   4.1418   4.2293   4.2693
     4.3435   4.4371   4.5312   4.6237   4.6648   4.8240   4.8476   4.9014
     4.9373   5.0279   5.0394   5.2229   5.2301   5.2736   5.2903   5.3982
     5.4158   5.4439   5.4762   5.5247   5.5372   5.5758   5.6318   5.6694
     5.6905   5.7755   5.7877   5.8139   5.9894   6.0127   6.0276   6.0740
     6.2315   6.2461   6.2620   6.6370   6.6787   6.7156   6.7648   6.7770
     6.8641   6.9661   6.9852   7.0483   7.0525   7.0816   7.0937   7.1055
     7.1248   7.1369   7.1525   7.1720   7.2272   7.2814   7.3162   7.4578
     7.5345   7.5690   7.6062   7.6584   7.8052   7.8401   7.9106   7.9700
     8.0184   8.0647   8.0885   8.1494   8.2046   8.2539   8.2759   8.2869
     8.3124   8.3355   8.4307   8.4869   8.5575   8.5738   8.5955   8.6277
     8.8094   8.9699   8.9859   8.9937   9.0079   9.0740   9.0936   9.1234
     9.1292   9.1449   9.1966   9.2153   9.2425   9.2703   9.3650   9.4096
     9.4589   9.4731   9.5715   9.6181   9.6401   9.6958   9.7183   9.7347
     9.7537   9.8177   9.8518   9.9224   9.9575

          k = 0.2500-0.2165 0.0000 (256316 PWs)   bands (ev):

   -21.6280 -15.7474 -15.6671 -14.9801 -14.9780 -14.7606 -14.6813 -14.0041
   -14.0017 -13.5556 -13.5547 -12.8323 -12.7549 -12.6070 -12.6063 -12.1062
   -12.1032 -11.5474 -11.5076 -10.8374 -10.8370 -10.6652 -10.6264 -10.1873
   -10.1180  -9.1260  -9.1225  -8.7211  -8.6732  -8.6178  -8.5881  -8.1158
    -8.0390  -8.0012  -7.8982  -7.8895  -6.2613  -6.2087  -6.1476  -6.1465
    -6.0095  -5.9432  -5.8623  -5.8146  -5.6745  -5.6431  -5.5989  -5.5982
    -5.2719  -4.8347  -4.6760  -4.6721  -4.6126  -4.6029  -4.5821  -4.4670
    -4.4298  -4.4286  -4.3711  -4.2853  -4.2544  -3.9580  -3.7908  -3.7733
    -3.7703  -3.7401  -3.6877  -3.5913  -3.5497  -3.4006  -3.3974  -3.3220
    -3.2790  -3.2549  -3.2090  -3.1623  -3.1152  -3.0285  -2.9606  -2.9234
    -2.8697  -2.8509  -2.8407  -2.8388  -2.8310  -2.8049  -2.6500  -2.6413
    -2.5714  -2.5517  -2.5474  -2.5359  -2.5235  -2.2704  -2.2569  -2.2460
    -2.2366  -2.1992  -2.1716  -2.1275  -2.1261  -2.1138  -2.1026  -1.9993
    -1.9721  -1.9676  -1.9619  -1.9020  -1.8684  -1.7911  -1.7780  -1.7733
    -1.7700  -1.7614  -1.7155  -1.6779  -1.6740  -1.6683  -1.6617  -1.6520
    -1.6433  -1.6404  -1.6372  -1.6306  -1.6272  -1.6223  -1.6070  -1.5749
    -1.5505  -1.5314  -1.5090  -1.4306  -1.4283  -1.4197  -1.4132  -1.3292
    -1.3212  -1.2989  -1.2923  -1.2788  -1.2750  -1.2587  -1.2518  -1.2471
    -1.2407  -1.2288  -1.2271  -1.2187  -1.2165  -1.2145  -1.2120  -1.2087
    -1.1991  -1.1908  -1.1816  -1.1757  -1.1672  -1.1658  -1.1648  -1.1467
    -1.1425  -1.1334  -1.1292  -1.1062  -1.1030  -1.0927  -1.0770  -1.0755
    -1.0740  -1.0655  -1.0469  -1.0236  -1.0177  -1.0063  -0.9955  -0.9867
    -0.9745  -0.9678  -0.9627  -0.9600  -0.9498  -0.9393  -0.9342  -0.9320
    -0.9284  -0.9249  -0.9220  -0.9122  -0.9107  -0.8978  -0.8867  -0.8841
    -0.8751  -0.8511  -0.8316  -0.8270  -0.8093  -0.7748  -0.7652  -0.7558
    -0.7360  -0.7281  -0.7208  -0.6988  -0.6903  -0.6839  -0.6787  -0.6753
    -0.6666  -0.6621  -0.6558  -0.6446  -0.6208  -0.6162  -0.5915  -0.5834
    -0.5759  -0.5687  -0.5498  -0.5380  -0.5350  -0.5293  -0.5221  -0.5147
    -0.5092  -0.4900  -0.4819  -0.4710  -0.4682  -0.4657  -0.4627  -0.4561
    -0.4452  -0.4292  -0.4276  -0.4173  -0.4087  -0.4068  -0.4020  -0.3968
    -0.3892  -0.3867  -0.3831  -0.3758  -0.3745  -0.3629  -0.3569  -0.3545
    -0.3524  -0.3447  -0.3405  -0.3377  -0.3331  -0.3291  -0.3224  -0.3107
    -0.3072  -0.3001  -0.2955  -0.2915  -0.2862  -0.2803  -0.2680  -0.2642
    -0.2570  -0.2481  -0.2375  -0.2272  -0.2215  -0.2198  -0.2150  -0.2124
    -0.2034  -0.1992  -0.1847  -0.1731  -0.1614  -0.1526  -0.1502  -0.1460
    -0.1132  -0.1099  -0.0990  -0.0906  -0.0847  -0.0803  -0.0793  -0.0745
    -0.0660  -0.0627  -0.0610  -0.0579  -0.0515  -0.0449  -0.0427  -0.0342
    -0.0257  -0.0212  -0.0195  -0.0094  -0.0070   0.0030   0.0066   0.0115
     0.0138   0.0156   0.0182   0.0206   0.0251   0.0321   0.0335   0.0391
     0.0403   0.0435   0.0455   0.0526   0.0539   0.0668   0.0755   0.0837
     0.0894   0.0953   0.0988   0.1074   0.1202   0.1250   0.1373   0.1414
     0.1463   0.1524   0.1595   0.1627   0.1651   0.1746   0.1777   0.1837
     0.1865   0.1893   0.1934   0.2000   0.2061   0.2086   0.2160   0.2400
     0.2556   0.2640   0.2797   0.2870   0.2921   0.2991   0.3020   0.3085
     0.3118   0.3201   0.3299   0.3307   0.3371   0.3403   0.3440   0.3509
     0.3564   0.3578   0.3654   0.3711   0.3728   0.3758   0.3853   0.3889
     0.3934   0.3969   0.4026   0.4109   0.4156   0.4223   0.4352   0.4411
     0.4428   0.4590   0.4613   0.4750   0.4787   0.4842   0.4919   0.4961
     0.5015   0.5059   0.5113   0.5143   0.5206   0.5230   0.5252   0.5379
     0.5428   0.5455   0.5547   0.5593   0.5782   0.5830   0.5929   0.5996
     0.6011   0.6034   0.6069   0.6160   0.6186   0.6270   0.6286   0.6340
     0.6359   0.6379   0.6447   0.6469   0.6585   0.6641   0.6692   0.6736
     0.6763   0.6798   0.6835   0.6868   0.6876   0.6905   0.6944   0.6994
     0.7007   0.7064   0.7079   0.7114   0.7158   0.7192   0.7233   0.7256
     0.7278   0.7326   0.7402   0.7431   0.7514   0.7537   0.7679   0.7708
     0.7742   0.7779   0.7810   0.7939   0.8083   0.8140   0.8240   0.8300
     0.8328   0.8374   0.8424   0.8455   0.8501   0.8572   0.8589   0.8604
     0.8649   0.8693   0.8705   0.8751   0.8779   0.8820   0.8888   0.8950
     0.9025   0.9070   0.9158   0.9204   0.9275   0.9305   0.9343   0.9380
     0.9404   0.9436   0.9485   0.9537   0.9660   0.9740   0.9773   0.9796
     0.9864   0.9896   1.0066   1.0080   1.0114   1.0171   1.0308   1.0437
     1.0505   1.0573   1.0645   1.0760   1.0812   1.0887   1.0922   1.0968
     1.0989   1.1010   1.1030   1.1064   1.1087   1.1111   1.1137   1.1152
     1.1159   1.1183   1.1207   1.1253   1.1296   1.1334   1.1396   1.1477
     1.1533   1.1572   1.1604   1.1646   1.1696   1.1718   1.1749   1.1794
     1.1850   1.1874   1.1894   1.1934   1.1960   1.1997   1.2030   1.2054
     1.2091   1.2129   1.2169   1.2224   1.2245   1.2257   1.2288   1.2319
     1.2333   1.2386   1.2397   1.2421   1.2462   1.2492   1.2569   1.2612
     1.2745   1.2761   1.2787   1.2808   1.2880   1.2909   1.2957   1.3036
     1.3106   1.3156   1.3212   1.3244   1.3288   1.3311   1.3360   1.3386
     1.3404   1.3446   1.3492   1.3523   1.3540   1.3590   1.3648   1.3705
     1.3782   1.3811   1.3837   1.3854   1.3880   1.3921   1.3941   1.3976
     1.4029   1.4070   1.4139   1.4163   1.4205   1.4233   1.4283   1.4293
     1.4316   1.4373   1.4393   1.4419   1.4442   1.4462   1.4545   1.4571
     1.4599   1.4622   1.4649   1.4685   1.4693   1.4723   1.4846   1.4868
     1.4877   1.4923   1.5122   1.5134   1.5157   1.5193   1.5260   1.5288
     1.5387   1.5511   1.5549   1.5585   1.5709   1.5885   1.5913   1.6455
     1.6603   1.6781   1.7209   1.7270   1.7343   1.7496   1.7536   1.7630
     1.7669   1.7699   1.7770   1.7794   1.7932   1.8298   2.0396   2.0815
     2.1264   2.1369   2.1505   2.1695   2.1827   2.2624   2.3157   2.5849
     2.5945   2.6929   2.7324   2.7469   2.7535   2.7821   2.7981   2.8055
     2.8552   2.9595   2.9787   2.9840   3.0833   3.3366   3.4381   3.4748
     3.4880   3.5316   3.6349   3.7000   3.7845   3.8375   3.8472   3.8920
     3.9478   4.0604   4.1016   4.1158   4.1603   4.2248   4.2749   4.4099
     4.4291   4.5158   4.5697   4.6605   4.6964   4.7315   4.7561   4.7825
     4.8242   4.8588   4.9840   5.0502   5.0872   5.1240   5.2314   5.2444
     5.2837   5.3098   5.3251   5.3537   5.4475   5.5141   5.6466   5.6906
     5.7556   5.7763   5.7929   5.8097   5.8557   6.0331   6.1071   6.4006
     6.4259   6.4436   6.4852   6.5890   6.6346   6.6925   6.7008   6.7759
     6.7918   6.8151   6.9123   6.9852   7.0003   7.1052   7.1634   7.1844
     7.2445   7.2721   7.2994   7.3867   7.4061   7.4268   7.4404   7.4455
     7.5132   7.5554   7.6299   7.7001   7.7360   7.7560   7.7990   7.8793
     7.9187   7.9487   8.0849   8.1571   8.2011   8.2426   8.3811   8.5184
     8.5324   8.5525   8.5964   8.6026   8.6317   8.6396   8.6522   8.6707
     8.7323   8.7959   8.8324   8.8814   8.9007   8.9232   8.9432   9.0283
     9.1148   9.1403   9.1761   9.1992   9.2344   9.2424   9.2530   9.2654
     9.3062   9.3355   9.3867   9.3955   9.5325   9.5431   9.6176   9.6234
     9.6276   9.6323   9.7291   9.9068   9.9192

          k =-0.5000 0.0000 0.0000 (256496 PWs)   bands (ev):

   -21.6280 -15.4344 -15.4319 -15.0691 -15.0620 -15.0548 -15.0520 -13.9902
   -13.9898 -13.9884 -13.9840 -12.2578 -12.2558 -12.2501 -12.2495 -11.6108
   -11.6097 -11.2863 -11.2818 -11.2703 -11.2687 -10.6513 -10.6491 -10.3967
   -10.3873  -9.6626  -9.6617  -9.2507  -9.2482  -8.4718  -8.4670  -8.4593
    -8.4577  -8.0926  -7.0519  -7.0475  -6.9616  -6.9583  -6.9573  -6.9522
    -5.4270  -5.4200  -5.3772  -5.2537  -5.1636  -4.8510  -4.7498  -4.7445
    -4.7037  -4.6906  -4.6328  -4.6157  -4.4134  -4.2762  -4.2721  -4.2697
    -4.2650  -4.2255  -4.2184  -4.2057  -4.2021  -4.1661  -4.1349  -3.9873
    -3.9862  -3.9778  -3.9748  -3.7386  -3.7333  -3.7190  -3.6623  -3.5378
    -3.4984  -3.3650  -3.3629  -3.3576  -3.3508  -3.1016  -3.0837  -3.0762
    -3.0140  -3.0138  -2.9815  -2.9278  -2.9203  -2.9184  -2.8552  -2.6277
    -2.6207  -2.6027  -2.5976  -2.5894  -2.5484  -2.3426  -2.3369  -2.3362
    -2.3282  -2.3264  -2.3229  -2.3111  -2.2177  -1.8862  -1.8802  -1.8542
    -1.8478  -1.8428  -1.8390  -1.8355  -1.8329  -1.8309  -1.8228  -1.7405
    -1.7358  -1.7191  -1.7019  -1.6151  -1.6133  -1.6113  -1.6081  -1.5694
    -1.5672  -1.5561  -1.5487  -1.5042  -1.4865  -1.4707  -1.4488  -1.3917
    -1.3886  -1.3853  -1.3806  -1.3747  -1.3687  -1.3410  -1.3274  -1.3243
    -1.3165  -1.3155  -1.3130  -1.3101  -1.3040  -1.2973  -1.2906  -1.2722
    -1.2673  -1.2634  -1.2469  -1.2420  -1.2396  -1.2329  -1.2311  -1.2292
    -1.2219  -1.1780  -1.1772  -1.1710  -1.1536  -1.1509  -1.1491  -1.1423
    -1.1381  -1.1345  -1.1234  -1.1120  -1.1078  -1.1054  -1.1021  -1.0972
    -1.0929  -1.0883  -1.0800  -1.0774  -1.0739  -1.0658  -1.0627  -1.0449
    -1.0417  -1.0296  -1.0243  -0.9849  -0.9731  -0.9580  -0.9496  -0.9461
    -0.9420  -0.9312  -0.9292  -0.9251  -0.9191  -0.8977  -0.8965  -0.8939
    -0.8911  -0.8851  -0.8827  -0.8808  -0.8781  -0.8711  -0.8666  -0.8077
    -0.8021  -0.7981  -0.7979  -0.7687  -0.7645  -0.6895  -0.6761  -0.6760
    -0.6736  -0.6597  -0.6467  -0.6448  -0.6393  -0.6379  -0.6354  -0.6317
    -0.6250  -0.6081  -0.6026  -0.5911  -0.5885  -0.5860  -0.5777  -0.5760
    -0.5737  -0.5720  -0.5714  -0.5554  -0.5539  -0.5434  -0.5390  -0.4719
    -0.4449  -0.4394  -0.4313  -0.4137  -0.4090  -0.4052  -0.4021  -0.3924
    -0.3866  -0.3830  -0.3812  -0.3792  -0.3745  -0.3569  -0.3552  -0.3508
    -0.3467  -0.3293  -0.3151  -0.3108  -0.3076  -0.3040  -0.2958  -0.2855
    -0.2815  -0.2802  -0.2739  -0.2726  -0.2719  -0.2661  -0.2640  -0.2617
    -0.2551  -0.2298  -0.2261  -0.2170  -0.2142  -0.2008  -0.1840  -0.1807
    -0.1767  -0.1662  -0.1351  -0.1281  -0.1241  -0.1192  -0.1156  -0.1131
    -0.1115  -0.1043  -0.0860  -0.0806  -0.0683  -0.0593  -0.0426  -0.0346
    -0.0290  -0.0214  -0.0189  -0.0159  -0.0115  -0.0078  -0.0059  -0.0026
    -0.0010   0.0017   0.0037   0.0122   0.0382   0.0533   0.0586   0.0622
     0.0676   0.0709   0.0798   0.0818   0.0855   0.0895   0.0920   0.0934
     0.0973   0.0995   0.1023   0.1057   0.1074   0.1102   0.1128   0.1137
     0.1173   0.1205   0.1233   0.1275   0.1292   0.1313   0.1372   0.1386
     0.1425   0.1441   0.1463   0.1505   0.1536   0.1602   0.1649   0.1670
     0.1729   0.1782   0.1803   0.1950   0.2037   0.2126   0.2196   0.2292
     0.2500   0.2660   0.2784   0.2892   0.3016   0.3088   0.3162   0.3226
     0.3375   0.3407   0.3501   0.3515   0.3572   0.3594   0.3665   0.3709
     0.3752   0.3781   0.3823   0.3871   0.3910   0.3967   0.3980   0.4019
     0.4069   0.4105   0.4128   0.4143   0.4180   0.4210   0.4217   0.4261
     0.4335   0.4409   0.4591   0.4922   0.4954   0.5083   0.5170   0.5193
     0.5272   0.5286   0.5319   0.5373   0.5431   0.5456   0.5502   0.5533
     0.5537   0.5575   0.5593   0.5607   0.5662   0.5681   0.5687   0.5702
     0.5758   0.5797   0.5829   0.5845   0.5877   0.5981   0.6031   0.6085
     0.6207   0.6306   0.6348   0.6370   0.6453   0.6483   0.6495   0.6506
     0.6571   0.6590   0.6611   0.6643   0.6683   0.6693   0.6708   0.6758
     0.6760   0.6789   0.6858   0.6958   0.6974   0.7085   0.7201   0.7249
     0.7294   0.7311   0.7391   0.7426   0.7450   0.7493   0.7512   0.7663
     0.7746   0.7770   0.7863   0.7916   0.7954   0.8024   0.8080   0.8202
     0.8263   0.8365   0.8417   0.8424   0.8434   0.8458   0.8487   0.8522
     0.8565   0.8623   0.8690   0.8727   0.8793   0.8837   0.8858   0.8912
     0.8951   0.9030   0.9051   0.9082   0.9126   0.9200   0.9220   0.9238
     0.9312   0.9346   0.9358   0.9398   0.9460   0.9490   0.9605   0.9635
     0.9756   0.9951   1.0094   1.0209   1.0234   1.0276   1.0316   1.0345
     1.0437   1.0498   1.0530   1.0600   1.0727   1.0812   1.0831   1.0871
     1.0892   1.0968   1.1000   1.1058   1.1071   1.1140   1.1165   1.1210
     1.1226   1.1252   1.1276   1.1291   1.1370   1.1372   1.1413   1.1431
     1.1449   1.1484   1.1514   1.1533   1.1558   1.1580   1.1614   1.1647
     1.1659   1.1700   1.1817   1.1854   1.1863   1.1926   1.2066   1.2120
     1.2171   1.2206   1.2256   1.2290   1.2327   1.2362   1.2401   1.2421
     1.2434   1.2472   1.2490   1.2509   1.2523   1.2539   1.2565   1.2572
     1.2603   1.2638   1.2704   1.2989   1.3031   1.3061   1.3086   1.3103
     1.3118   1.3159   1.3166   1.3184   1.3193   1.3201   1.3228   1.3234
     1.3298   1.3336   1.3367   1.3402   1.3415   1.3422   1.3459   1.3483
     1.3493   1.3528   1.3542   1.3568   1.3612   1.3630   1.3651   1.3676
     1.3695   1.3719   1.3753   1.3833   1.4001   1.4035   1.4135   1.4139
     1.4168   1.4231   1.4233   1.4275   1.4301   1.4366   1.4390   1.4414
     1.4449   1.4471   1.4487   1.4515   1.4552   1.4628   1.4680   1.4702
     1.4733   1.4744   1.4844   1.4914   1.4931   1.4963   1.5007   1.5074
     1.5124   1.5132   1.5152   1.5197   1.5199   1.5253   1.5316   1.5528
     1.5693   1.5745   1.5779   1.5829   1.6045   1.6103   1.6153   1.6248
     1.6540   1.6943   1.6972   1.9907   1.9957   2.0101   2.0477   2.1782
     2.2101   2.2460   2.2732   2.2930   2.2958   2.3038   2.3143   2.5156
     2.5278   2.5517   2.7348   2.7987   2.8248   2.8340   2.8989   3.1340
     3.1904   3.1980   3.2103   3.3420   3.4094   3.4843   3.5814   3.6821
     3.7135   3.7371   3.7741   3.8951   3.9082   3.9756   4.0204   4.0547
     4.0734   4.0917   4.1245   4.2246   4.3694   4.5554   4.5827   4.6342
     4.8001   4.8078   4.8369   4.8525   4.8832   4.8842   4.9033   5.0140
     5.0216   5.0262   5.0326   5.0449   5.0504   5.0709   5.0763   5.0862
     5.1242   5.2064   5.2501   5.4167   5.4328   5.4423   5.4981   5.5553
     5.6380   5.6507   5.6818   5.6830   5.6906   5.9040   5.9203   5.9581
     5.9685   5.9887   6.0039   6.0728   6.1576   6.1851   6.2083   6.2209
     6.2481   6.2892   6.6043   6.7980   6.8032   6.8381   6.8416   7.0116
     7.0460   7.0502   7.0704   7.1121   7.2367   7.5164   7.5221   7.5667
     7.5720   7.5925   7.5941   7.6080   7.6725   7.7773   7.7975   7.8556
     7.8651   7.8948   7.9104   7.9300   7.9528   7.9747   8.0041   8.0223
     8.0407   8.1726   8.2804   8.3244   8.6243   8.7528   8.7643   8.7739
     8.7859   8.7956   8.8060   8.8262   8.8534   8.9522   8.9704   8.9923
     8.9995   9.0495   9.1520   9.2691   9.3011   9.3853   9.4023   9.4461
     9.4618   9.4864   9.4926   9.4952   9.5029   9.5301   9.6455   9.6634
     9.6840   9.6946   9.7118   9.8136   9.9090

          k =-0.5000-0.2165 0.0000 (256328 PWs)   bands (ev):

   -21.6280 -15.3766 -15.3752 -15.3008 -15.2912 -14.6137 -14.6129 -14.6115
   -14.6077 -13.1993 -13.1980 -13.1967 -13.1959 -11.5606 -11.5589 -11.4861
   -11.4811 -11.2147 -11.2121 -11.1763 -11.1706 -10.9383 -10.9368 -10.8941
   -10.8917  -9.2752  -9.2748  -9.2276  -9.2250  -8.3571  -8.3495  -8.3261
    -8.3203  -8.0938  -7.6152  -7.6138  -7.5643  -7.5537  -5.5596  -5.5507
    -5.5451  -5.5437  -5.3631  -5.1350  -5.1216  -5.1179  -5.0207  -4.8906
    -4.8900  -4.8429  -4.8389  -4.8028  -4.5606  -4.5529  -4.5044  -4.4707
    -4.4132  -4.1398  -4.1348  -4.1310  -4.1262  -4.0890  -4.0800  -4.0258
    -3.9317  -3.7094  -3.7075  -3.6957  -3.6928  -3.5256  -3.5252  -3.3917
    -3.3256  -3.3231  -3.2600  -3.2423  -3.2385  -3.2141  -3.2121  -3.2070
    -3.1979  -3.1938  -3.1885  -3.1506  -3.1189  -2.6177  -2.6111  -2.6047
    -2.5342  -2.5339  -2.5307  -2.5284  -2.5206  -2.5004  -2.4980  -2.4854
    -2.3941  -2.0385  -2.0362  -2.0326  -2.0319  -2.0284  -2.0201  -2.0067
    -1.9728  -1.9699  -1.9652  -1.9640  -1.9536  -1.7761  -1.7597  -1.7593
    -1.7432  -1.6168  -1.6091  -1.5829  -1.5688  -1.5618  -1.5596  -1.5541
    -1.5447  -1.4804  -1.4636  -1.4600  -1.4572  -1.4557  -1.4533  -1.4495
    -1.4099  -1.4050  -1.4037  -1.3996  -1.3824  -1.3607  -1.3543  -1.3446
    -1.3443  -1.3424  -1.3393  -1.3387  -1.3316  -1.3288  -1.3225  -1.3179
    -1.3162  -1.2753  -1.2721  -1.2636  -1.2593  -1.2392  -1.2284  -1.2229
    -1.1947  -1.1702  -1.1688  -1.1581  -1.1531  -1.1506  -1.1293  -1.1226
    -1.1201  -1.1191  -1.1165  -1.1105  -1.1067  -1.1048  -1.1021  -1.0977
    -1.0909  -1.0897  -1.0810  -1.0717  -1.0526  -1.0390  -1.0327  -1.0248
    -1.0180  -1.0101  -1.0065  -1.0046  -0.9997  -0.9975  -0.9908  -0.9901
    -0.9869  -0.9420  -0.9370  -0.9328  -0.9152  -0.8717  -0.8608  -0.8396
    -0.8354  -0.8313  -0.8198  -0.8191  -0.8184  -0.7650  -0.7540  -0.7484
    -0.7426  -0.7362  -0.7351  -0.7314  -0.7284  -0.7246  -0.7233  -0.7212
    -0.7158  -0.7033  -0.7001  -0.6775  -0.6757  -0.6689  -0.6660  -0.6655
    -0.6612  -0.6541  -0.6531  -0.6472  -0.6433  -0.6396  -0.6386  -0.6135
    -0.6106  -0.5638  -0.5478  -0.5341  -0.5247  -0.5179  -0.5143  -0.5090
    -0.5056  -0.4938  -0.4766  -0.4666  -0.4603  -0.4371  -0.4283  -0.4251
    -0.4218  -0.4141  -0.4084  -0.3995  -0.3948  -0.3881  -0.3761  -0.3703
    -0.3658  -0.3625  -0.3560  -0.3517  -0.3434  -0.3116  -0.2942  -0.2831
    -0.2780  -0.2761  -0.2598  -0.2520  -0.2420  -0.2315  -0.2299  -0.2264
    -0.2256  -0.2211  -0.2206  -0.2135  -0.2058  -0.1861  -0.1614  -0.1540
    -0.1488  -0.1431  -0.1390  -0.1367  -0.1349  -0.1310  -0.1285  -0.1264
    -0.1242  -0.1140  -0.1060  -0.1049  -0.1029  -0.0985  -0.0908  -0.0849
    -0.0832  -0.0799  -0.0748  -0.0694  -0.0600  -0.0533  -0.0373  -0.0139
    -0.0095  -0.0042   0.0015   0.0130   0.0432   0.0493   0.0595   0.0652
     0.0680   0.0729   0.0749   0.0770   0.0790   0.0839   0.0916   0.0960
     0.1012   0.1032   0.1074   0.1119   0.1138   0.1198   0.1231   0.1274
     0.1311   0.1331   0.1347   0.1362   0.1370   0.1400   0.1414   0.1447
     0.1480   0.1525   0.1571   0.1656   0.1726   0.1803   0.1849   0.1914
     0.1957   0.2050   0.2140   0.2185   0.2285   0.2351   0.2406   0.2424
     0.2506   0.2547   0.2664   0.2707   0.2759   0.2797   0.3153   0.3263
     0.3397   0.3403   0.3458   0.3531   0.3664   0.3758   0.3793   0.3809
     0.3921   0.3935   0.3981   0.4016   0.4088   0.4098   0.4143   0.4175
     0.4218   0.4298   0.4337   0.4471   0.4592   0.4627   0.4691   0.4748
     0.4779   0.4815   0.4817   0.4849   0.4864   0.4877   0.4933   0.4989
     0.5027   0.5073   0.5128   0.5213   0.5243   0.5250   0.5359   0.5436
     0.5539   0.5576   0.5661   0.5665   0.5693   0.5727   0.5789   0.5832
     0.5905   0.5923   0.5935   0.5968   0.6034   0.6113   0.6174   0.6193
     0.6206   0.6253   0.6255   0.6289   0.6365   0.6411   0.6417   0.6457
     0.6485   0.6667   0.6727   0.6753   0.6821   0.6843   0.6915   0.6936
     0.6974   0.7001   0.7078   0.7093   0.7128   0.7159   0.7226   0.7282
     0.7333   0.7389   0.7400   0.7446   0.7499   0.7514   0.7540   0.7573
     0.7615   0.7643   0.7721   0.7778   0.7904   0.8005   0.8076   0.8219
     0.8240   0.8276   0.8282   0.8379   0.8517   0.8613   0.8682   0.8749
     0.8785   0.8805   0.8836   0.8854   0.8874   0.9102   0.9286   0.9323
     0.9399   0.9417   0.9456   0.9504   0.9562   0.9670   0.9703   0.9783
     0.9844   0.9876   0.9936   0.9957   1.0017   1.0051   1.0088   1.0188
     1.0240   1.0258   1.0329   1.0336   1.0366   1.0410   1.0447   1.0473
     1.0495   1.0518   1.0523   1.0532   1.0554   1.0591   1.0607   1.0629
     1.0653   1.0673   1.0739   1.0760   1.0781   1.0862   1.0908   1.0954
     1.0992   1.1008   1.1078   1.1124   1.1149   1.1173   1.1243   1.1296
     1.1330   1.1345   1.1367   1.1404   1.1440   1.1480   1.1533   1.1576
     1.1635   1.1668   1.1748   1.1781   1.1870   1.1941   1.2016   1.2049
     1.2082   1.2091   1.2105   1.2129   1.2150   1.2176   1.2252   1.2282
     1.2327   1.2336   1.2353   1.2377   1.2398   1.2464   1.2540   1.2586
     1.2721   1.2798   1.2834   1.2849   1.2892   1.2917   1.2921   1.2933
     1.2946   1.2968   1.2977   1.2997   1.3154   1.3284   1.3377   1.3439
     1.3491   1.3521   1.3557   1.3609   1.3620   1.3635   1.3658   1.3674
     1.3678   1.3694   1.3716   1.3721   1.3750   1.3770   1.3805   1.3818
     1.3835   1.3846   1.3868   1.3932   1.3980   1.4003   1.4024   1.4029
     1.4049   1.4090   1.4092   1.4107   1.4164   1.4188   1.4243   1.4300
     1.4397   1.4455   1.4476   1.4491   1.4514   1.4557   1.4665   1.4703
     1.4712   1.4838   1.4846   1.4910   1.5080   1.5086   1.5116   1.5141
     1.5170   1.5357   1.5397   1.5427   1.5462   1.5671   1.5770   1.5788
     1.5844   1.5857   1.5904   1.5918   1.6006   1.6064   1.6101   1.6184
     1.6232   1.6288   1.6297   1.6334   1.7327   1.8292   1.8344   1.8369
     1.8925   2.2506   2.2539   2.2825   2.4301   2.5592   2.5679   2.5762
     2.5792   2.7250   2.7454   2.7672   2.7930   2.9815   2.9890   3.0340
     3.2032   3.3229   3.4293   3.4705   3.4719   3.4987   3.5958   3.6248
     3.6274   3.7563   3.8561   3.9500   3.9532   3.9664   3.9976   4.1474
     4.1519   4.1936   4.2357   4.2392   4.2669   4.2883   4.3840   4.5050
     4.5147   4.5755   4.6162   4.6773   4.6912   4.7972   4.8572   5.0736
     5.0760   5.1190   5.1346   5.1433   5.1602   5.1913   5.2069   5.2165
     5.2678   5.2768   5.2867   5.3578   5.3636   5.4162   5.5057   5.5412
     5.5902   5.5950   5.6028   5.6124   5.6434   5.6953   5.7441   5.7568
     5.7825   5.7981   5.9927   5.9956   6.0932   6.1202   6.2041   6.6974
     6.7227   6.9208   6.9425   7.0083   7.0117   7.0367   7.0443   7.0597
     7.0868   7.1083   7.1279   7.1392   7.1433   7.2070   7.2604   7.3423
     7.3635   7.3831   7.4032   7.4319   7.4595   7.5437   7.7420   7.8733
     7.8830   7.9998   8.1116   8.1453   8.2033   8.2253   8.2860   8.2966
     8.3577   8.3754   8.3944   8.4141   8.4151   8.4773   8.5978   8.8123
     8.8370   8.8478   8.8647   8.8906   8.9153   8.9284   8.9319   8.9583
     8.9808   9.0464   9.0998   9.1044   9.1263   9.1421   9.1738   9.3584
     9.3705   9.3905   9.3961   9.4196   9.4219   9.4302   9.4428   9.4583
     9.4693   9.5881   9.7718   9.8721  10.0034

     the Fermi energy is     3.3259 ev

!    total energy              =  -12750.12305343 Ry
     Harris-Foulkes estimate   =  -12750.12305347 Ry
     estimated scf accuracy    <          8.9E-09 Ry

     The total energy is the sum of the following terms:

     one-electron contribution = -100212.22453758 Ry
     hartree contribution      =   51475.32551607 Ry
     xc contribution           =   -4456.75496112 Ry
     ewald contribution        =   40449.73041048 Ry
     Dispersion Correction     =      -2.79637894 Ry
     smearing contrib. (-TS)   =      -3.40310234 Ry

     convergence has been achieved in  43 iterations

     Writing output data file gc.save
 
     init_run     :    189.80s CPU    201.52s WALL (       1 calls)
     electrons    :  24715.78s CPU  26264.22s WALL (       1 calls)

     Called by init_run:
     wfcinit      :    186.99s CPU    198.25s WALL (       1 calls)
     potinit      :      0.89s CPU      0.92s WALL (       1 calls)

     Called by electrons:
     c_bands      :  22631.52s CPU  24015.61s WALL (      43 calls)
     sum_band     :   1698.14s CPU   1805.47s WALL (      43 calls)
     v_of_rho     :      5.32s CPU      6.81s WALL (      44 calls)
     newd         :     15.06s CPU     28.29s WALL (      44 calls)
     mix_rho      :    365.71s CPU    408.24s WALL (      43 calls)

     Called by c_bands:
     init_us_2    :     78.25s CPU     79.67s WALL (     522 calls)
     cegterg      :  22311.39s CPU  23681.94s WALL (     269 calls)

     Called by sum_band:
     sum_band:bec :      4.62s CPU      5.23s WALL (     258 calls)
     addusdens    :     20.60s CPU     32.27s WALL (      43 calls)

     Called by *egterg:
     h_psi        :   8020.82s CPU   8627.03s WALL (    1892 calls)
     s_psi        :   1943.63s CPU   1956.05s WALL (    1892 calls)
     g_psi        :     21.14s CPU     21.17s WALL (    1617 calls)
     cdiaghg      :   6307.34s CPU   6619.26s WALL (    1876 calls)

     Called by h_psi:
     add_vuspsi   :   1949.00s CPU   1962.87s WALL (    1892 calls)

     General routines
     calbec       :   2739.96s CPU   2760.21s WALL (    2150 calls)
     fft          :      4.48s CPU      5.38s WALL (     571 calls)
     ffts         :    160.68s CPU    191.11s WALL (   23350 calls)
     fftw         :   3949.33s CPU   4555.19s WALL ( 1317030 calls)
     davcio       :      0.25s CPU      8.54s WALL (       6 calls)
 
     Parallel routines
     fft_scatter  :   2024.48s CPU   2310.25s WALL ( 1340951 calls)
 
     PWSCF        :     6h55m CPU        7h21m WALL

 
   This run was terminated on:   1: 0:33  17Sep2017            

=------------------------------------------------------------------------------=
   JOB DONE.
=------------------------------------------------------------------------------=
