
     Program PWSCF v.5.4.0 starts on 14Mar2017 at 21:17: 3 

     This program is part of the open-source Quantum ESPRESSO suite
     for quantum simulation of materials; please cite
         "P. Giannozzi et al., J. Phys.:Condens. Matter 21 395502 (2009);
          URL http://www.quantum-espresso.org", 
     in publications or presentations arising from this work. More details at
     http://www.quantum-espresso.org/quote

     Parallel version (MPI & OpenMP), running on      56 processor cores
     Number of MPI processes:                56
     Threads/MPI process:                     1
     R & G space division:  proc/nbgrp/npool/nimage =      56
     Waiting for input...
     Reading input from standard input
Warning: card &IONS ignored
Warning: card / ignored

     Current dimensions of program PWSCF are:
     Max number of different atomic species (ntypx) = 10
     Max number of k-points (npk) =  40000
     Max angular momentum in pseudopotentials (lmaxx) =  3

     -------------------------------------
     Parameters for Dispersion Correction:
     -------------------------------------
       atom      VdW radius       C_6     

        Cu         2.952        374.666
        C_h        2.744         60.710
        C          2.744         60.710

     Subspace diagonalization in iterative solution of the eigenvalue problem:
     one sub-group per band group will be used
     scalapack distributed-memory algorithm (size of sub-group:  5*  5 procs)

 
     Parallelization info
     --------------------
     sticks:   dense  smooth     PW     G-vecs:    dense   smooth      PW
     Min         204     204     54                36612    36612    4962
     Max         205     205     55                36617    36617    4968
     Sum       11433   11433   3039              2050409  2050409  278033
 


     bravais-lattice index     =            0
     lattice parameter (alat)  =      13.9425  a.u.
     unit-cell volume          =   21209.0878 (a.u.)^3
     number of atoms/cell      =          148
     number of atomic types    =            3
     number of electrons       =      1292.00
     number of Kohn-Sham states=          775
     kinetic-energy cutoff     =      80.0000  Ry
     charge density cutoff     =     320.0000  Ry
     convergence threshold     =      1.0E-08
     mixing beta               =       0.7000
     number of iterations used =            8  local-TF  mixing
     Exchange-correlation      =  SLA  PW   PBX  PBC ( 1  4  3  4 0 0)

     celldm(1)=  13.942539  celldm(2)=   0.000000  celldm(3)=   0.000000
     celldm(4)=   0.000000  celldm(5)=   0.000000  celldm(6)=   0.000000

     crystal axes: (cart. coord. in units of alat)
               a(1) = (   1.000000   0.000000   0.000000 )  
               a(2) = (   0.000000   2.309401   0.000000 )  
               a(3) = (   0.000000   0.000000   3.388418 )  

     reciprocal axes: (cart. coord. in units 2 pi/alat)
               b(1) = (  1.000000  0.000000  0.000000 )  
               b(2) = (  0.000000  0.433013  0.000000 )  
               b(3) = (  0.000000  0.000000  0.295123 )  


     PseudoPot. # 1 for Cu read from file:
     /home/549/hxw549/Short/pseudopotentials/Cu.pbe-n-van_ak.UPF
     MD5 check sum: 601f7c30f7467666bec936e0661ce3e1
     Pseudo is Ultrasoft + core correction, Zval = 11.0
     Generated by new atomic code, or converted to UPF format
     Using radial grid of  867 points,  6 beta functions with: 
                l(1) =   0
                l(2) =   0
                l(3) =   1
                l(4) =   1
                l(5) =   2
                l(6) =   2
     Q(r) pseudized with  8 coefficients,  rinner =    1.400   1.400   1.400
                                                       1.400   1.400

     PseudoPot. # 2 for C  read from file:
     /home/549/hxw549/Short/pseudopotentials/C.star1s-pbe-mt_gipaw.UPF
     MD5 check sum: ef0cb3dee31bd9e4ba2a832a2c716264
     Pseudo is Norm-conserving, Zval =  5.0
     Generated by new atomic code, or converted to UPF format
     Using radial grid of 1073 points,  1 beta functions with: 
                l(1) =   0

     PseudoPot. # 3 for C  read from file:
     /home/549/hxw549/Short/pseudopotentials/C.pbe-mt_gipaw.UPF
     MD5 check sum: 5ac2f21f2c440b14befe521540822c15
     Pseudo is Norm-conserving, Zval =  4.0
     Generated by new atomic code, or converted to UPF format
     Using radial grid of 1073 points,  1 beta functions with: 
                l(1) =   0

     atomic species   valence    mass     pseudopotential
        Cu            11.00    63.54600     Cu( 1.00)
        C_h            5.00    12.01070     C ( 1.00)
        C              4.00    12.01070     C ( 1.00)

      2 Sym. Ops. (no inversion) found



   Cartesian axes

     site n.     atom                  positions (alat units)
         1           Cu  tau(   1) = (   0.0000000   0.0000567   0.9971194  )
         2           Cu  tau(   2) = (   0.2499927   0.2309760   0.9972946  )
         3           Cu  tau(   3) = (   0.5000000   0.0000313   0.9971490  )
         4           Cu  tau(   4) = (   0.7500073   0.2309760   0.9972946  )
         5           Cu  tau(   5) = (   0.0000000   0.4618437   0.9973425  )
         6           Cu  tau(   6) = (   0.2499840   0.6927701   0.9971914  )
         7           Cu  tau(   7) = (   0.5000000   0.4618722   0.9973119  )
         8           Cu  tau(   8) = (   0.7500160   0.6927701   0.9971914  )
         9           Cu  tau(   9) = (   0.0000000   0.9237521   0.9970621  )
        10           Cu  tau(  10) = (   0.2500157   1.1547420   0.9971373  )
        11           Cu  tau(  11) = (   0.5000000   0.9237453   0.9970727  )
        12           Cu  tau(  12) = (   0.7499843   1.1547420   0.9971373  )
        13           Cu  tau(  13) = (   0.0000000   1.3856555   0.9972830  )
        14           Cu  tau(  14) = (   0.2500029   1.6165618   0.9973242  )
        15           Cu  tau(  15) = (   0.5000000   1.3857014   0.9973005  )
        16           Cu  tau(  16) = (   0.7499971   1.6165618   0.9973242  )
        17           Cu  tau(  17) = (   0.0000000   1.8474941   0.9971969  )
        18           Cu  tau(  18) = (   0.2500043   2.0784518   0.9970745  )
        19           Cu  tau(  19) = (   0.5000000   1.8474499   0.9971773  )
        20           Cu  tau(  20) = (   0.7499957   2.0784518   0.9970745  )
        21           Cu  tau(  21) = (   0.0000000   0.2308065   1.2457643  )
        22           Cu  tau(  22) = (   0.2499892  -0.0001010   1.2455764  )
        23           Cu  tau(  23) = (   0.5000000   0.2308938   1.2456746  )
        24           Cu  tau(  24) = (   0.7500108  -0.0001010   1.2455764  )
        25           Cu  tau(  25) = (   0.0000000   0.6929786   1.2456406  )
        26           Cu  tau(  26) = (   0.2499874   0.4619293   1.2457459  )
        27           Cu  tau(  27) = (   0.5000000   0.6929012   1.2456074  )
        28           Cu  tau(  28) = (   0.7500126   0.4619293   1.2457459  )
        29           Cu  tau(  29) = (   0.0000000   1.1546142   1.2455676  )
        30           Cu  tau(  30) = (   0.2499981   0.9237849   1.2455149  )
        31           Cu  tau(  31) = (   0.5000000   1.1545763   1.2455800  )
        32           Cu  tau(  32) = (   0.7500019   0.9237849   1.2455149  )
        33           Cu  tau(  33) = (   0.0000000   1.6166029   1.2456910  )
        34           Cu  tau(  34) = (   0.2500161   1.3855492   1.2457134  )
        35           Cu  tau(  35) = (   0.5000000   1.6166555   1.2458019  )
        36           Cu  tau(  36) = (   0.7499839   1.3855492   1.2457134  )
        37           Cu  tau(  37) = (   0.0000000   2.0784993   1.2455162  )
        38           Cu  tau(  38) = (   0.2500161   1.8476387   1.2456210  )
        39           Cu  tau(  39) = (   0.5000000   2.0784755   1.2455152  )
        40           Cu  tau(  40) = (   0.7499839   1.8476387   1.2456210  )
        41           Cu  tau(  41) = (   0.0000000  -0.0003182   1.4954305  )
        42           Cu  tau(  42) = (   0.2500224   0.2307186   1.4951678  )
        43           Cu  tau(  43) = (   0.5000000  -0.0002059   1.4952775  )
        44           Cu  tau(  44) = (   0.7499776   0.2307186   1.4951678  )
        45           Cu  tau(  45) = (   0.0000000   0.4620254   1.4950571  )
        46           Cu  tau(  46) = (   0.2500339   0.6931225   1.4952807  )
        47           Cu  tau(  47) = (   0.5000000   0.4619896   1.4952144  )
        48           Cu  tau(  48) = (   0.7499661   0.6931225   1.4952807  )
        49           Cu  tau(  49) = (   0.0000000   0.9238798   1.4954544  )
        50           Cu  tau(  50) = (   0.2499708   1.1544329   1.4953374  )
        51           Cu  tau(  51) = (   0.5000000   0.9237633   1.4954072  )
        52           Cu  tau(  52) = (   0.7500292   1.1544329   1.4953374  )
        53           Cu  tau(  53) = (   0.0000000   1.3854453   1.4952066  )
        54           Cu  tau(  54) = (   0.2499861   1.6167017   1.4951298  )
        55           Cu  tau(  55) = (   0.5000000   1.3853760   1.4951346  )
        56           Cu  tau(  56) = (   0.7500139   1.6167017   1.4951298  )
        57           Cu  tau(  57) = (   0.0000000   1.8477718   1.4952308  )
        58           Cu  tau(  58) = (   0.2499930   2.0785254   1.4954090  )
        59           Cu  tau(  59) = (   0.5000000   1.8478762   1.4953503  )
        60           Cu  tau(  60) = (   0.7500070   2.0785254   1.4954090  )
        61           Cu  tau(  61) = (   0.0000000   0.2310733   1.7440777  )
        62           Cu  tau(  62) = (   0.2501089  -0.0001294   1.7450479  )
        63           Cu  tau(  63) = (   0.5000000   0.2306045   1.7445985  )
        64           Cu  tau(  64) = (   0.7498911  -0.0001294   1.7450479  )
        65           Cu  tau(  65) = (   0.0000000   0.6927994   1.7446059  )
        66           Cu  tau(  66) = (   0.2502918   0.4619532   1.7441197  )
        67           Cu  tau(  67) = (   0.5000000   0.6931011   1.7451318  )
        68           Cu  tau(  68) = (   0.7497082   0.4619532   1.7441197  )
        69           Cu  tau(  69) = (   0.0000000   1.1545789   1.7453503  )
        70           Cu  tau(  70) = (   0.2500220   0.9237908   1.7453835  )
        71           Cu  tau(  71) = (   0.5000000   1.1545999   1.7449118  )
        72           Cu  tau(  72) = (   0.7499780   0.9237908   1.7453835  )
        73           Cu  tau(  73) = (   0.0000000   1.6167791   1.7444075  )
        74           Cu  tau(  74) = (   0.2497438   1.3855115   1.7442733  )
        75           Cu  tau(  75) = (   0.5000000   1.6164906   1.7439233  )
        76           Cu  tau(  76) = (   0.7502562   1.3855115   1.7442733  )
        77           Cu  tau(  77) = (   0.0000000   2.0782721   1.7455014  )
        78           Cu  tau(  78) = (   0.2498426   1.8476765   1.7447807  )
        79           Cu  tau(  79) = (   0.5000000   2.0787016   1.7454002  )
        80           Cu  tau(  80) = (   0.7501574   1.8476765   1.7447807  )
        81           Cu  tau(  81) = (   0.0000000   0.0010732   1.9906710  )
        82           Cu  tau(  82) = (   0.2503054   0.2314650   1.9904877  )
        83           Cu  tau(  83) = (   0.5000000   0.0001335   1.9924670  )
        84           Cu  tau(  84) = (   0.7496946   0.2314650   1.9904877  )
        85           Cu  tau(  85) = (   0.0000000   0.4618379   1.9901778  )
        86           Cu  tau(  86) = (   0.2508441   0.6921348   1.9910282  )
        87           Cu  tau(  87) = (   0.5000000   0.4613052   1.9913358  )
        88           Cu  tau(  88) = (   0.7491559   0.6921348   1.9910282  )
        89           Cu  tau(  89) = (   0.0000000   0.9224699   1.9915918  )
        90           Cu  tau(  90) = (   0.2491275   1.1552920   1.9912642  )
        91           Cu  tau(  91) = (   0.5000000   0.9247757   1.9920574  )
        92           Cu  tau(  92) = (   0.7508725   1.1552920   1.9912642  )
        93           Cu  tau(  93) = (   0.0000000   1.3865904   1.9916296  )
        94           Cu  tau(  94) = (   0.2499532   1.6162906   1.9903050  )
        95           Cu  tau(  95) = (   0.5000000   1.3858063   1.9901800  )
        96           Cu  tau(  96) = (   0.7500468   1.6162906   1.9903050  )
        97           Cu  tau(  97) = (   0.0000000   1.8468318   1.9923212  )
        98           Cu  tau(  98) = (   0.2497561   2.0783183   1.9915134  )
        99           Cu  tau(  99) = (   0.5000000   1.8467805   1.9903847  )
       100           Cu  tau( 100) = (   0.7502439   2.0783183   1.9915134  )
       101           C   tau( 101) = (   0.0000000   0.0962962   2.4228003  )
       102           C   tau( 102) = (   0.0000000   0.2886925   2.4578366  )
       103           C   tau( 103) = (   0.1666323   0.0000435   2.3878590  )
       104           C   tau( 104) = (   0.1664900   0.3848966   2.4473596  )
       105           C   tau( 105) = (   0.3331238   0.0962174   2.4198998  )
       106           C   tau( 106) = (   0.3331280   0.2886629   2.4534452  )
       107           C   tau( 107) = (   0.5000000  -0.0000818   2.3845383  )
       108           C   tau( 108) = (   0.5000000   0.3849277   2.4429275  )
       109           C   tau( 109) = (   0.6668762   0.0962174   2.4198998  )
       110           C   tau( 110) = (   0.6668720   0.2886629   2.4534452  )
       111           C   tau( 111) = (   0.8333677   0.0000435   2.3878590  )
       112           C   tau( 112) = (   0.8335100   0.3848966   2.4473596  )
       113           C   tau( 113) = (   0.0000000   0.6735163   2.3553844  )
       114           C   tau( 114) = (   0.0000000   0.8659398   2.3193316  )
       115           C   tau( 115) = (   0.1664759   0.5773226   2.3882927  )
       116           C   tau( 116) = (   0.1667428   0.9622141   2.3283312  )
       117           C   tau( 117) = (   0.3332094   0.6735984   2.3519146  )
       118           C   tau( 118) = (   0.3332031   0.8660537   2.3188436  )
       119           C   tau( 119) = (   0.5000000   0.5773685   2.3848365  )
       120           C   tau( 120) = (   0.5000000   0.9623380   2.3274096  )
       121           C   tau( 121) = (   0.6667906   0.6735984   2.3519146  )
       122           C   tau( 122) = (   0.6667969   0.8660537   2.3188436  )
       123           C   tau( 123) = (   0.8335241   0.5773226   2.3882927  )
       124           C   tau( 124) = (   0.8332572   0.9622141   2.3283312  )
       125           C   tau( 125) = (   0.0000000   1.2508867   2.4191408  )
       126           C   tau( 126) = (   0.0000000   1.4433300   2.4518594  )
       127           C   tau( 127) = (   0.1667360   1.1546708   2.3859614  )
       128           C   tau( 128) = (   0.1668939   1.5396104   2.4444049  )
       129           C   tau( 129) = (   0.3335095   1.2509657   2.4217973  )
       130           C   tau( 130) = (   0.3334866   1.4433958   2.4564270  )
       131           C_h tau( 131) = (   0.5000000   1.1547731   2.3885773  )
       132           C   tau( 132) = (   0.5000000   1.5396099   2.4488369  )
       133           C   tau( 133) = (   0.6664905   1.2509657   2.4217973  )
       134           C   tau( 134) = (   0.6665134   1.4433958   2.4564270  )
       135           C   tau( 135) = (   0.8332640   1.1546708   2.3859614  )
       136           C   tau( 136) = (   0.8331061   1.5396104   2.4444049  )
       137           C   tau( 137) = (   0.0000000   1.8283510   2.3502882  )
       138           C   tau( 138) = (   0.0000000   2.0207949   2.3185726  )
       139           C   tau( 139) = (   0.1668959   1.7320513   2.3858666  )
       140           C   tau( 140) = (   0.1666186   2.1169980   2.3278568  )
       141           C   tau( 141) = (   0.3334155   1.8282368   2.3543407  )
       142           C   tau( 142) = (   0.3334352   2.0206763   2.3191825  )
       143           C   tau( 143) = (   0.5000000   1.7319961   2.3895667  )
       144           C   tau( 144) = (   0.5000000   2.1168754   2.3283177  )
       145           C   tau( 145) = (   0.6665845   1.8282368   2.3543407  )
       146           C   tau( 146) = (   0.6665648   2.0206763   2.3191825  )
       147           C   tau( 147) = (   0.8331041   1.7320513   2.3858666  )
       148           C   tau( 148) = (   0.8333814   2.1169980   2.3278568  )

     number of k points=     6  gaussian smearing, width (Ry)=  0.1000
                       cart. coord. in units 2pi/alat
        k(    1) = (   0.0000000   0.0000000   0.0000000), wk =   0.2500000
        k(    2) = (   0.0000000  -0.2165064   0.0000000), wk =   0.2500000
        k(    3) = (   0.2500000   0.0000000   0.0000000), wk =   0.5000000
        k(    4) = (   0.2500000  -0.2165064   0.0000000), wk =   0.5000000
        k(    5) = (  -0.5000000   0.0000000   0.0000000), wk =   0.2500000
        k(    6) = (  -0.5000000  -0.2165064   0.0000000), wk =   0.2500000

     Dense  grid:  2050409 G-vectors     FFT dimensions: (  80, 192, 270)

     Largest allocated arrays     est. size (Mb)     dimensions
        Kohn-Sham Wavefunctions        54.44 Mb     (    4604,  775)
        NL pseudopotentials           129.82 Mb     (    4604, 1848)
        Each V/rho on FFT grid          1.17 Mb     (   76800)
        Each G-vector array             0.28 Mb     (   36616)
        G-vector shells                 0.14 Mb     (   17932)
     Largest temporary arrays     est. size (Mb)     dimensions
        Auxiliary wavefunctions       217.78 Mb     (    4604, 3100)
        Each subspace H/S matrix        5.87 Mb     (     620,  620)
        Each <psi_i|beta_j> matrix     21.85 Mb     (    1848,  775)
        Arrays for rho mixing           9.38 Mb     (   76800,    8)

     Initial potential from superposition of free atoms
     Check: negative starting charge=   -0.001812

     starting charge 1266.81751, renormalised to 1292.00000

     negative rho (up, down):  1.848E-03 0.000E+00
     Starting wfc are 1284 randomized atomic wfcs

     total cpu time spent up to now is      107.2 secs

     Self-consistent Calculation

     iteration #  1     ecut=    80.00 Ry     beta=0.70
     Davidson diagonalization with overlap
     c_bands:  3 eigenvalues not converged
     c_bands:  1 eigenvalues not converged
     c_bands:  3 eigenvalues not converged
     c_bands:  2 eigenvalues not converged
     ethr =  1.00E-04,  avg # of iterations = 38.5

     negative rho (up, down):  2.677E+01 0.000E+00

     total cpu time spent up to now is     2092.7 secs

     total energy              =   -9565.57131412 Ry
     Harris-Foulkes estimate   =  -17278.05554165 Ry
     estimated scf accuracy    <  178820.58428064 Ry

     iteration #  2     ecut=    80.00 Ry     beta=0.70
     Davidson diagonalization with overlap
     ethr =  1.00E-02,  avg # of iterations = 12.0

     negative rho (up, down):  3.117E+01 0.000E+00

     total cpu time spent up to now is     2999.1 secs

     total energy              =  -12268.39503669 Ry
     Harris-Foulkes estimate   =  -13647.30551471 Ry
     estimated scf accuracy    <   22747.03619010 Ry

     iteration #  3     ecut=    80.00 Ry     beta=0.70
     Davidson diagonalization with overlap
     ethr =  1.00E-02,  avg # of iterations =  7.3

     negative rho (up, down):  3.130E+01 0.000E+00

     total cpu time spent up to now is     3532.8 secs

     total energy              =  -12452.15959962 Ry
     Harris-Foulkes estimate   =  -13382.36802120 Ry
     estimated scf accuracy    <    5908.73162733 Ry

     iteration #  4     ecut=    80.00 Ry     beta=0.70
     Davidson diagonalization with overlap
     ethr =  1.00E-02,  avg # of iterations =  5.7

     negative rho (up, down):  2.363E+01 0.000E+00

     total cpu time spent up to now is     4012.1 secs

     total energy              =  -12831.32497477 Ry
     Harris-Foulkes estimate   =  -13084.16421821 Ry
     estimated scf accuracy    <    2241.51768852 Ry

     iteration #  5     ecut=    80.00 Ry     beta=0.70
     Davidson diagonalization with overlap
     ethr =  1.00E-02,  avg # of iterations =  4.0

     negative rho (up, down):  1.740E+01 0.000E+00

     total cpu time spent up to now is     4302.0 secs

     total energy              =  -12845.41110604 Ry
     Harris-Foulkes estimate   =  -12970.13900957 Ry
     estimated scf accuracy    <    1109.23932340 Ry

     iteration #  6     ecut=    80.00 Ry     beta=0.70
     Davidson diagonalization with overlap
     ethr =  1.00E-02,  avg # of iterations =  3.0

     negative rho (up, down):  1.217E+01 0.000E+00

     total cpu time spent up to now is     4507.8 secs

     total energy              =  -12828.57170683 Ry
     Harris-Foulkes estimate   =  -12900.60124856 Ry
     estimated scf accuracy    <     591.53870542 Ry

     iteration #  7     ecut=    80.00 Ry     beta=0.70
     Davidson diagonalization with overlap
     ethr =  1.00E-02,  avg # of iterations =  2.0

     negative rho (up, down):  8.474E+00 0.000E+00

     total cpu time spent up to now is     4689.5 secs

     total energy              =  -12803.49221724 Ry
     Harris-Foulkes estimate   =  -12848.82897025 Ry
     estimated scf accuracy    <     413.80994602 Ry

     iteration #  8     ecut=    80.00 Ry     beta=0.70
     Davidson diagonalization with overlap
     ethr =  1.00E-02,  avg # of iterations =  2.0

     negative rho (up, down):  7.225E+00 0.000E+00

     total cpu time spent up to now is     4867.3 secs

     total energy              =  -12789.23874033 Ry
     Harris-Foulkes estimate   =  -12816.13914584 Ry
     estimated scf accuracy    <     496.87297961 Ry

     iteration #  9     ecut=    80.00 Ry     beta=0.70
     Davidson diagonalization with overlap
     ethr =  1.00E-02,  avg # of iterations =  1.3

     negative rho (up, down):  4.877E+00 0.000E+00

     total cpu time spent up to now is     5036.6 secs

     total energy              =  -12774.36236770 Ry
     Harris-Foulkes estimate   =  -12799.40623088 Ry
     estimated scf accuracy    <     197.26808056 Ry

     iteration # 10     ecut=    80.00 Ry     beta=0.70
     Davidson diagonalization with overlap
     ethr =  1.00E-02,  avg # of iterations =  1.0

     negative rho (up, down):  1.322E+00 0.000E+00

     total cpu time spent up to now is     5202.4 secs

     total energy              =  -12740.40394266 Ry
     Harris-Foulkes estimate   =  -12776.12670311 Ry
     estimated scf accuracy    <     145.91172711 Ry

     iteration # 11     ecut=    80.00 Ry     beta=0.70
     Davidson diagonalization with overlap
     ethr =  1.00E-02,  avg # of iterations =  1.0

     negative rho (up, down):  7.238E-01 0.000E+00

     total cpu time spent up to now is     5369.4 secs

     total energy              =  -12730.48961653 Ry
     Harris-Foulkes estimate   =  -12746.88075577 Ry
     estimated scf accuracy    <     188.86124478 Ry

     iteration # 12     ecut=    80.00 Ry     beta=0.70
     Davidson diagonalization with overlap
     ethr =  1.00E-02,  avg # of iterations =  2.0

     negative rho (up, down):  1.991E+00 0.000E+00

     total cpu time spent up to now is     5547.7 secs

     total energy              =  -12720.08852572 Ry
     Harris-Foulkes estimate   =  -12741.32713833 Ry
     estimated scf accuracy    <     137.71223395 Ry

     iteration # 13     ecut=    80.00 Ry     beta=0.70
     Davidson diagonalization with overlap
     ethr =  1.00E-02,  avg # of iterations =  3.0

     negative rho (up, down):  4.152E+00 0.000E+00

     total cpu time spent up to now is     5744.2 secs

     total energy              =  -12717.98909424 Ry
     Harris-Foulkes estimate   =  -12735.72686568 Ry
     estimated scf accuracy    <     247.02229977 Ry

     iteration # 14     ecut=    80.00 Ry     beta=0.70
     Davidson diagonalization with overlap
     ethr =  1.00E-02,  avg # of iterations =  1.0

     negative rho (up, down):  5.796E+00 0.000E+00

     total cpu time spent up to now is     5910.0 secs

     total energy              =  -12720.24582269 Ry
     Harris-Foulkes estimate   =  -12725.73452125 Ry
     estimated scf accuracy    <      78.46725768 Ry

     iteration # 15     ecut=    80.00 Ry     beta=0.70
     Davidson diagonalization with overlap
     ethr =  6.07E-03,  avg # of iterations =  1.0

     negative rho (up, down):  4.841E+00 0.000E+00

     total cpu time spent up to now is     6075.1 secs

     total energy              =  -12715.80285045 Ry
     Harris-Foulkes estimate   =  -12721.29822966 Ry
     estimated scf accuracy    <      44.64287506 Ry

     iteration # 16     ecut=    80.00 Ry     beta=0.70
     Davidson diagonalization with overlap
     ethr =  3.46E-03,  avg # of iterations =  1.5

     negative rho (up, down):  4.996E+00 0.000E+00

     total cpu time spent up to now is     6245.9 secs

     total energy              =  -12714.24194529 Ry
     Harris-Foulkes estimate   =  -12717.50906794 Ry
     estimated scf accuracy    <      22.84213133 Ry

     iteration # 17     ecut=    80.00 Ry     beta=0.70
     Davidson diagonalization with overlap
     ethr =  1.77E-03,  avg # of iterations =  6.5

     negative rho (up, down):  4.877E+00 0.000E+00

     total cpu time spent up to now is     6480.5 secs

     total energy              =  -12713.37983661 Ry
     Harris-Foulkes estimate   =  -12714.90876882 Ry
     estimated scf accuracy    <      12.43578540 Ry

     iteration # 18     ecut=    80.00 Ry     beta=0.70
     Davidson diagonalization with overlap
     ethr =  9.63E-04,  avg # of iterations =  4.2

     negative rho (up, down):  4.575E+00 0.000E+00

     total cpu time spent up to now is     6684.1 secs

     total energy              =  -12712.83106602 Ry
     Harris-Foulkes estimate   =  -12714.10728482 Ry
     estimated scf accuracy    <      11.73055485 Ry

     iteration # 19     ecut=    80.00 Ry     beta=0.70
     Davidson diagonalization with overlap
     ethr =  9.08E-04,  avg # of iterations =  3.5

     negative rho (up, down):  3.296E+00 0.000E+00

     total cpu time spent up to now is     6880.8 secs

     total energy              =  -12711.81568261 Ry
     Harris-Foulkes estimate   =  -12713.09820074 Ry
     estimated scf accuracy    <       8.10843799 Ry

     iteration # 20     ecut=    80.00 Ry     beta=0.70
     Davidson diagonalization with overlap
     ethr =  6.28E-04,  avg # of iterations =  3.3

     negative rho (up, down):  1.978E+00 0.000E+00

     total cpu time spent up to now is     7073.7 secs

     total energy              =  -12710.40789799 Ry
     Harris-Foulkes estimate   =  -12712.04107545 Ry
     estimated scf accuracy    <      12.52095154 Ry

     iteration # 21     ecut=    80.00 Ry     beta=0.70
     Davidson diagonalization with overlap
     ethr =  6.28E-04,  avg # of iterations =  1.0

     negative rho (up, down):  9.842E-01 0.000E+00

     total cpu time spent up to now is     7239.6 secs

     total energy              =  -12709.63691630 Ry
     Harris-Foulkes estimate   =  -12710.58412581 Ry
     estimated scf accuracy    <       9.15013936 Ry

     iteration # 22     ecut=    80.00 Ry     beta=0.70
     Davidson diagonalization with overlap
     ethr =  6.28E-04,  avg # of iterations =  2.0

     negative rho (up, down):  2.291E-01 0.000E+00

     total cpu time spent up to now is     7417.3 secs

     total energy              =  -12708.42531476 Ry
     Harris-Foulkes estimate   =  -12709.82416482 Ry
     estimated scf accuracy    <       5.73433300 Ry

     iteration # 23     ecut=    80.00 Ry     beta=0.70
     Davidson diagonalization with overlap
     ethr =  4.44E-04,  avg # of iterations = 12.8

     negative rho (up, down):  5.723E-02 0.000E+00

     total cpu time spent up to now is     7724.8 secs

     total energy              =  -12708.12898374 Ry
     Harris-Foulkes estimate   =  -12708.62754769 Ry
     estimated scf accuracy    <       6.60392442 Ry

     iteration # 24     ecut=    80.00 Ry     beta=0.70
     Davidson diagonalization with overlap
     ethr =  4.44E-04,  avg # of iterations =  1.2

     negative rho (up, down):  5.876E-03 0.000E+00

     total cpu time spent up to now is     7893.4 secs

     total energy              =  -12707.88601503 Ry
     Harris-Foulkes estimate   =  -12708.21003330 Ry
     estimated scf accuracy    <       4.72044437 Ry

     iteration # 25     ecut=    80.00 Ry     beta=0.70
     Davidson diagonalization with overlap
     ethr =  3.65E-04,  avg # of iterations =  1.0

     negative rho (up, down):  2.654E-01 0.000E+00

     total cpu time spent up to now is     8060.6 secs

     total energy              =  -12707.32132528 Ry
     Harris-Foulkes estimate   =  -12707.99787840 Ry
     estimated scf accuracy    <       4.05330214 Ry

     iteration # 26     ecut=    80.00 Ry     beta=0.70
     Davidson diagonalization with overlap
     ethr =  3.14E-04,  avg # of iterations =  2.3

     negative rho (up, down):  1.855E-01 0.000E+00

     total cpu time spent up to now is     8242.1 secs

     total energy              =  -12707.01071944 Ry
     Harris-Foulkes estimate   =  -12707.39016834 Ry
     estimated scf accuracy    <       3.24021878 Ry

     iteration # 27     ecut=    80.00 Ry     beta=0.70
     Davidson diagonalization with overlap
     ethr =  2.51E-04,  avg # of iterations =  4.8

     negative rho (up, down):  3.441E-01 0.000E+00

     total cpu time spent up to now is     8452.5 secs

     total energy              =  -12706.75802640 Ry
     Harris-Foulkes estimate   =  -12707.18174794 Ry
     estimated scf accuracy    <       1.85078360 Ry

     iteration # 28     ecut=    80.00 Ry     beta=0.70
     Davidson diagonalization with overlap
     ethr =  1.43E-04,  avg # of iterations =  8.7

     negative rho (up, down):  1.357E-02 0.000E+00

     total cpu time spent up to now is     8735.9 secs

     total energy              =  -12706.81643689 Ry
     Harris-Foulkes estimate   =  -12706.88099683 Ry
     estimated scf accuracy    <       0.49818576 Ry

     iteration # 29     ecut=    80.00 Ry     beta=0.70
     Davidson diagonalization with overlap
     ethr =  3.86E-05,  avg # of iterations =  5.7

     negative rho (up, down):  5.177E-02 0.000E+00

     total cpu time spent up to now is     8961.3 secs

     total energy              =  -12706.82898724 Ry
     Harris-Foulkes estimate   =  -12706.85510937 Ry
     estimated scf accuracy    <       0.14159494 Ry

     iteration # 30     ecut=    80.00 Ry     beta=0.70
     Davidson diagonalization with overlap
     ethr =  1.10E-05,  avg # of iterations =  9.5

     negative rho (up, down):  6.617E-02 0.000E+00

     total cpu time spent up to now is     9259.7 secs

     total energy              =  -12706.84077591 Ry
     Harris-Foulkes estimate   =  -12706.84286479 Ry
     estimated scf accuracy    <       0.02621587 Ry

     iteration # 31     ecut=    80.00 Ry     beta=0.70
     Davidson diagonalization with overlap
     c_bands:  1 eigenvalues not converged
     ethr =  2.03E-06,  avg # of iterations = 12.8

     negative rho (up, down):  3.002E-02 0.000E+00

     total cpu time spent up to now is     9576.1 secs

     total energy              =  -12706.84233342 Ry
     Harris-Foulkes estimate   =  -12706.84302489 Ry
     estimated scf accuracy    <       0.01065704 Ry

     iteration # 32     ecut=    80.00 Ry     beta=0.70
     Davidson diagonalization with overlap
     ethr =  8.25E-07,  avg # of iterations = 16.5

     negative rho (up, down):  3.634E-02 0.000E+00

     total cpu time spent up to now is     9951.7 secs

     total energy              =  -12706.84337532 Ry
     Harris-Foulkes estimate   =  -12706.84351989 Ry
     estimated scf accuracy    <       0.00549202 Ry

     iteration # 33     ecut=    80.00 Ry     beta=0.70
     Davidson diagonalization with overlap
     ethr =  4.25E-07,  avg # of iterations = 10.5

     negative rho (up, down):  2.758E-02 0.000E+00

     total cpu time spent up to now is    10250.9 secs

     total energy              =  -12706.84372086 Ry
     Harris-Foulkes estimate   =  -12706.84396110 Ry
     estimated scf accuracy    <       0.00154426 Ry

     iteration # 34     ecut=    80.00 Ry     beta=0.70
     Davidson diagonalization with overlap
     ethr =  1.20E-07,  avg # of iterations =  8.7

     negative rho (up, down):  1.658E-02 0.000E+00

     total cpu time spent up to now is    10518.2 secs

     total energy              =  -12706.84363554 Ry
     Harris-Foulkes estimate   =  -12706.84384525 Ry
     estimated scf accuracy    <       0.00045142 Ry

     iteration # 35     ecut=    80.00 Ry     beta=0.70
     Davidson diagonalization with overlap
     ethr =  3.49E-08,  avg # of iterations =  5.7

     negative rho (up, down):  9.775E-03 0.000E+00

     total cpu time spent up to now is    10753.3 secs

     total energy              =  -12706.84355490 Ry
     Harris-Foulkes estimate   =  -12706.84366965 Ry
     estimated scf accuracy    <       0.00012291 Ry

     iteration # 36     ecut=    80.00 Ry     beta=0.70
     Davidson diagonalization with overlap
     ethr =  9.51E-09,  avg # of iterations = 10.3

     negative rho (up, down):  6.629E-03 0.000E+00

     total cpu time spent up to now is    11053.7 secs

     total energy              =  -12706.84350475 Ry
     Harris-Foulkes estimate   =  -12706.84356784 Ry
     estimated scf accuracy    <       0.00005441 Ry

     iteration # 37     ecut=    80.00 Ry     beta=0.70
     Davidson diagonalization with overlap
     c_bands:  1 eigenvalues not converged
     ethr =  4.21E-09,  avg # of iterations =  8.5

     negative rho (up, down):  2.645E-03 0.000E+00

     total cpu time spent up to now is    11313.1 secs

     total energy              =  -12706.84345639 Ry
     Harris-Foulkes estimate   =  -12706.84350948 Ry
     estimated scf accuracy    <       0.00001650 Ry

     iteration # 38     ecut=    80.00 Ry     beta=0.70
     Davidson diagonalization with overlap
     ethr =  1.28E-09,  avg # of iterations =  8.7

     negative rho (up, down):  2.317E-03 0.000E+00

     total cpu time spent up to now is    11604.0 secs

     total energy              =  -12706.84345532 Ry
     Harris-Foulkes estimate   =  -12706.84345909 Ry
     estimated scf accuracy    <       0.00000774 Ry

     iteration # 39     ecut=    80.00 Ry     beta=0.70
     Davidson diagonalization with overlap
     ethr =  5.99E-10,  avg # of iterations =  2.5

     negative rho (up, down):  2.084E-03 0.000E+00

     total cpu time spent up to now is    11793.7 secs

     total energy              =  -12706.84345524 Ry
     Harris-Foulkes estimate   =  -12706.84345606 Ry
     estimated scf accuracy    <       0.00000115 Ry

     iteration # 40     ecut=    80.00 Ry     beta=0.70
     Davidson diagonalization with overlap
     ethr =  8.91E-11,  avg # of iterations =  3.0

     negative rho (up, down):  1.991E-03 0.000E+00

     total cpu time spent up to now is    12015.6 secs

     total energy              =  -12706.84345573 Ry
     Harris-Foulkes estimate   =  -12706.84345543 Ry
     estimated scf accuracy    <       0.00000069 Ry

     iteration # 41     ecut=    80.00 Ry     beta=0.70
     Davidson diagonalization with overlap
     ethr =  5.33E-11,  avg # of iterations =  3.0

     negative rho (up, down):  2.038E-03 0.000E+00

     total cpu time spent up to now is    12213.7 secs

     total energy              =  -12706.84345577 Ry
     Harris-Foulkes estimate   =  -12706.84345579 Ry
     estimated scf accuracy    <       0.00000020 Ry

     iteration # 42     ecut=    80.00 Ry     beta=0.70
     Davidson diagonalization with overlap
     ethr =  1.52E-11,  avg # of iterations =  2.7

     negative rho (up, down):  2.044E-03 0.000E+00

     total cpu time spent up to now is    12407.8 secs

     total energy              =  -12706.84345581 Ry
     Harris-Foulkes estimate   =  -12706.84345579 Ry
     estimated scf accuracy    <       0.00000004 Ry

     iteration # 43     ecut=    80.00 Ry     beta=0.70
     Davidson diagonalization with overlap
     ethr =  2.81E-12,  avg # of iterations =  3.0

     negative rho (up, down):  2.051E-03 0.000E+00

     total cpu time spent up to now is    12620.2 secs

     total energy              =  -12706.84345584 Ry
     Harris-Foulkes estimate   =  -12706.84345582 Ry
     estimated scf accuracy    <       0.00000002 Ry

     iteration # 44     ecut=    80.00 Ry     beta=0.70
     Davidson diagonalization with overlap
     ethr =  1.36E-12,  avg # of iterations =  3.0

     negative rho (up, down):  2.076E-03 0.000E+00

     total cpu time spent up to now is    12812.9 secs

     End of self-consistent calculation

          k = 0.0000 0.0000 0.0000 (256287 PWs)   bands (ev):

   -16.8363 -16.0521 -15.8724 -15.1348 -14.9782 -14.4639 -14.4065 -14.0743
   -14.0417 -13.9009 -13.8564 -13.3156 -13.1803 -13.0912 -13.0486 -12.8037
   -12.7416 -11.6325 -11.3699 -11.3516 -11.2921 -11.2582 -10.0231  -9.8141
    -9.7494  -9.3669  -9.3239  -8.6887  -8.5613  -8.4765  -8.3569  -7.9371
    -7.7474  -7.6103  -7.5756  -7.5485  -7.3830  -7.2438  -7.1760  -6.2129
    -6.2008  -6.0517  -6.0382  -6.0030  -5.9641  -5.8564  -5.7650  -5.7403
    -5.5349  -5.4917  -5.3519  -4.9145  -4.8697  -4.8641  -4.8270  -4.7436
    -4.5308  -4.3915  -4.1938  -4.0698  -4.0098  -3.9993  -3.9858  -3.9615
    -3.8102  -3.5945  -3.4451  -3.4282  -3.4097  -3.4051  -3.2846  -3.2552
    -3.2308  -3.1572  -3.0681  -3.0523  -3.0184  -3.0170  -2.9735  -2.9382
    -2.8856  -2.8677  -2.8437  -2.8011  -2.7862  -2.7485  -2.7255  -2.7174
    -2.7007  -2.6672  -2.5690  -2.5058  -2.3718  -2.3285  -2.3156  -2.3077
    -2.2259  -2.2061  -2.1716  -2.1692  -2.1673  -2.1671  -2.1630  -2.1332
    -2.0558  -2.0397  -2.0379  -2.0368  -2.0344  -2.0191  -1.9707  -1.9374
    -1.8543  -1.8372  -1.7929  -1.7792  -1.7552  -1.7529  -1.7521  -1.7436
    -1.7044  -1.7011  -1.6977  -1.6846  -1.6731  -1.6719  -1.6329  -1.6067
    -1.5818  -1.5780  -1.5617  -1.5578  -1.5521  -1.5406  -1.5348  -1.5318
    -1.5296  -1.5275  -1.4477  -1.4466  -1.4316  -1.4047  -1.3850  -1.3812
    -1.3793  -1.3680  -1.3148  -1.2820  -1.2765  -1.2660  -1.2293  -1.2256
    -1.2075  -1.2057  -1.1866  -1.1799  -1.1777  -1.1357  -1.1144  -1.0956
    -1.0936  -1.0759  -1.0668  -1.0605  -1.0489  -1.0484  -1.0399  -1.0397
    -1.0388  -1.0370  -1.0326  -1.0283  -1.0260  -1.0177  -0.9911  -0.9740
    -0.9707  -0.9560  -0.9516  -0.9430  -0.9386  -0.9317  -0.9004  -0.8953
    -0.8846  -0.8838  -0.8783  -0.8726  -0.8711  -0.8707  -0.8696  -0.8684
    -0.8683  -0.8636  -0.8633  -0.8628  -0.8585  -0.8576  -0.8561  -0.8448
    -0.8432  -0.8232  -0.8063  -0.7875  -0.7090  -0.7074  -0.7072  -0.6996
    -0.6991  -0.6930  -0.6793  -0.6711  -0.6595  -0.6566  -0.6402  -0.6368
    -0.6328  -0.6298  -0.6133  -0.6070  -0.6063  -0.5796  -0.5790  -0.5777
    -0.5767  -0.5749  -0.5738  -0.5735  -0.5559  -0.5464  -0.5144  -0.5118
    -0.4579  -0.4579  -0.4547  -0.4543  -0.4419  -0.4406  -0.4302  -0.4254
    -0.4238  -0.4208  -0.4206  -0.4193  -0.4189  -0.4175  -0.4025  -0.4015
    -0.3982  -0.3942  -0.3871  -0.3834  -0.3695  -0.3686  -0.3358  -0.3206
    -0.3103  -0.3073  -0.3071  -0.2797  -0.2794  -0.2790  -0.2788  -0.2777
    -0.2744  -0.2666  -0.2592  -0.2585  -0.2459  -0.2450  -0.2426  -0.2383
    -0.2330  -0.2319  -0.2318  -0.2317  -0.2297  -0.2283  -0.2242  -0.2101
    -0.2092  -0.2074  -0.2072  -0.2028  -0.1808  -0.1458  -0.1438  -0.1419
    -0.1349  -0.1344  -0.1085  -0.1078  -0.1012  -0.0979  -0.0922  -0.0819
    -0.0815  -0.0752  -0.0749  -0.0731  -0.0671  -0.0354  -0.0271  -0.0256
    -0.0218  -0.0157  -0.0025  -0.0025   0.0039   0.0043   0.0089   0.0139
     0.0202   0.0206   0.0264   0.0293   0.0295   0.0324   0.0330   0.0441
     0.0448   0.0449   0.0486   0.0492   0.0529   0.0595   0.0628   0.0879
     0.0898   0.1067   0.1160   0.1254   0.1359   0.1481   0.1484   0.1700
     0.1852   0.1897   0.2162   0.2172   0.2202   0.2206   0.2217   0.2234
     0.2382   0.2387   0.2404   0.2453   0.2455   0.2483   0.2485   0.2659
     0.3020   0.3064   0.3127   0.3247   0.3264   0.3414   0.3540   0.3543
     0.3553   0.3615   0.3628   0.3646   0.3701   0.3778   0.3858   0.4042
     0.4053   0.4069   0.4150   0.4186   0.4195   0.4351   0.4673   0.4708
     0.4733   0.4745   0.4757   0.4770   0.4773   0.4859   0.4877   0.5006
     0.5012   0.5117   0.5145   0.5150   0.5178   0.5183   0.5192   0.5223
     0.5234   0.5294   0.5321   0.5324   0.5509   0.5518   0.5770   0.5776
     0.5812   0.5898   0.5899   0.5912   0.6085   0.6097   0.6133   0.6211
     0.6298   0.6313   0.6334   0.6349   0.6380   0.6405   0.6503   0.6534
     0.6603   0.6604   0.6694   0.6712   0.6713   0.6731   0.6751   0.6779
     0.6787   0.6852   0.6890   0.6991   0.7179   0.7248   0.7260   0.7286
     0.7296   0.7308   0.7341   0.7341   0.7393   0.7416   0.7491   0.7683
     0.7696   0.7868   0.7909   0.7941   0.7962   0.7966   0.7982   0.8045
     0.8059   0.8060   0.8339   0.8348   0.8575   0.8577   0.8598   0.8606
     0.8615   0.8737   0.8757   0.8843   0.8861   0.8880   0.8886   0.8924
     0.9063   0.9104   0.9152   0.9188   0.9233   0.9312   0.9316   0.9507
     0.9514   0.9547   0.9583   0.9597   0.9690   0.9768   0.9804   0.9823
     0.9836   0.9885   0.9934   0.9949   0.9969   0.9992   1.0007   1.0049
     1.0082   1.0101   1.0116   1.0187   1.0199   1.0287   1.0334   1.0363
     1.0471   1.0601   1.0635   1.0650   1.0722   1.0742   1.0771   1.0820
     1.0834   1.1020   1.1023   1.1042   1.1051   1.1094   1.1185   1.1191
     1.1249   1.1286   1.1309   1.1494   1.1586   1.1733   1.1758   1.1838
     1.1886   1.1906   1.1940   1.1954   1.1960   1.1997   1.2074   1.2106
     1.2114   1.2137   1.2165   1.2165   1.2255   1.2258   1.2326   1.2342
     1.2362   1.2399   1.2422   1.2448   1.2528   1.2540   1.2562   1.2569
     1.2601   1.2616   1.2678   1.2761   1.2778   1.2851   1.2875   1.2893
     1.2933   1.2935   1.2943   1.2946   1.2978   1.3037   1.3265   1.3332
     1.3407   1.3434   1.3443   1.3450   1.3469   1.3486   1.3512   1.3526
     1.3657   1.3667   1.3699   1.3714   1.3859   1.3962   1.3991   1.4013
     1.4016   1.4037   1.4056   1.4070   1.4079   1.4160   1.4172   1.4199
     1.4241   1.4262   1.4316   1.4339   1.4340   1.4379   1.4515   1.4537
     1.4554   1.4567   1.4641   1.4855   1.4882   1.4924   1.4973   1.5003
     1.5043   1.5140   1.5269   1.5313   1.5381   1.5390   1.5654   1.5675
     1.5767   1.5874   1.5896   1.5913   1.6101   1.6266   1.6266   1.6289
     1.6297   1.6390   1.6609   1.6626   1.8571   1.9414   2.0775   2.1242
     2.1519   2.1704   2.1832   2.1879   2.1883   2.1915   2.2002   2.2018
     2.2039   2.2478   2.3895   2.4086   2.4154   2.4398   2.4624   2.4883
     2.4943   2.5203   2.5444   2.5745   2.6574   2.6622   2.8627   2.9810
     3.0336   3.0663   3.1966   3.4279   3.6042   3.7226   3.7919   3.8075
     3.8579   3.8790   3.8809   3.8857   3.9420   3.9548   3.9716   3.9820
     4.0011   4.0057   4.1117   4.1135   4.1945   4.2117   4.2217   4.3238
     4.3486   4.4363   4.5134   4.5557   4.5603   4.6058   4.7294   4.7498
     5.2745   5.3046   5.3181   5.4007   5.5822   5.7480   5.8684   5.8991
     5.9210   5.9270   6.0611   6.1191   6.2858   6.3528   6.3580   6.4047
     6.4327   6.4371   6.4805   6.5130   6.5347   6.5791   6.5869   6.6767
     6.7262   6.7291   6.7672   6.7720   6.9502   6.9588   6.9765   7.0164
     7.1670   7.2147   7.3013   7.3281   7.4203   7.5910   7.6531   7.6655
     7.6796   7.7409   7.7423   7.7553   7.7686   7.9482   7.9821   8.0332
     8.0618   8.1422   8.1595   8.2436   8.2536   8.3086   8.3132   8.3137
     8.3179   8.3230   8.3288   8.4087   8.4526   8.4537   8.5112   8.5305
     8.5585   8.6668   8.6837   8.7561   8.7589   8.7661   8.7751   8.8247
     8.8310   8.8437   8.9601   8.9737   9.0826   9.0858   9.1634   9.2499
     9.3041   9.3079   9.3327   9.3576   9.5115   9.5353   9.5713   9.6005
     9.6192   9.6623   9.7290   9.7355   9.8166   9.9336  10.0315

          k = 0.0000-0.2165 0.0000 (256176 PWs)   bands (ev):

   -16.8351 -16.1153 -15.6829 -15.4455 -14.8285 -14.3900 -14.1579 -14.1433
   -14.1102 -14.0131 -13.6252 -13.5889 -13.4883 -13.4608 -12.5410 -12.2241
   -12.2180 -12.0881 -12.0761 -12.0249 -10.6086 -10.4581 -10.4137 -10.3265
    -9.3432  -9.1462  -9.0977  -8.9709  -8.8103  -8.7639  -8.1202  -8.1180
    -7.9759  -7.9618  -7.2731  -7.2124  -6.8436  -6.8186  -6.7884  -6.7055
    -6.6535  -6.5981  -6.2895  -6.2681  -5.9067  -5.9032  -5.5292  -5.3670
    -5.1999  -5.1815  -5.0846  -5.0383  -4.9467  -4.8500  -4.8431  -4.7985
    -4.7305  -4.6904  -4.6052  -4.4561  -4.1195  -3.9457  -3.7545  -3.6570
    -3.5308  -3.4495  -3.3373  -3.3288  -3.3271  -3.3223  -3.1721  -3.1454
    -3.1271  -3.1226  -3.1055  -3.0476  -3.0420  -3.0325  -3.0161  -3.0054
    -2.9569  -2.9263  -2.8935  -2.8819  -2.8112  -2.6796  -2.6357  -2.6232
    -2.5937  -2.5856  -2.5780  -2.5755  -2.4974  -2.4595  -2.3706  -2.3368
    -2.3328  -2.2915  -2.2571  -2.2495  -2.2455  -2.2436  -2.1631  -2.1443
    -2.1303  -2.1295  -2.1000  -2.0424  -2.0029  -2.0029  -1.9755  -1.9750
    -1.8648  -1.8482  -1.7983  -1.7763  -1.7758  -1.7700  -1.7627  -1.7601
    -1.7582  -1.7566  -1.7385  -1.7365  -1.7287  -1.7087  -1.6613  -1.6611
    -1.6208  -1.5480  -1.4868  -1.4867  -1.4713  -1.4689  -1.4550  -1.4538
    -1.4294  -1.3969  -1.3926  -1.3861  -1.3854  -1.3327  -1.3325  -1.3041
    -1.3011  -1.2911  -1.2907  -1.2882  -1.2880  -1.2698  -1.2672  -1.2467
    -1.2455  -1.2433  -1.2392  -1.2352  -1.2316  -1.1745  -1.1563  -1.1514
    -1.1510  -1.1446  -1.1386  -1.1046  -1.1044  -1.0813  -1.0670  -1.0669
    -1.0630  -1.0628  -1.0412  -1.0391  -1.0022  -1.0014  -0.9995  -0.9981
    -0.9980  -0.9976  -0.9481  -0.9479  -0.9360  -0.9355  -0.9300  -0.9296
    -0.9162  -0.9142  -0.9121  -0.9116  -0.8523  -0.8509  -0.8438  -0.8377
    -0.8374  -0.8273  -0.8236  -0.8222  -0.8219  -0.8204  -0.8010  -0.7986
    -0.7756  -0.7743  -0.7742  -0.7683  -0.7018  -0.6722  -0.6722  -0.6697
    -0.6693  -0.6480  -0.6477  -0.6266  -0.6264  -0.6247  -0.6197  -0.6156
    -0.6155  -0.6051  -0.6024  -0.6017  -0.5656  -0.5646  -0.5634  -0.5626
    -0.5614  -0.5585  -0.5556  -0.5542  -0.5250  -0.5249  -0.5031  -0.4984
    -0.4984  -0.4902  -0.4836  -0.4769  -0.4741  -0.4623  -0.4621  -0.4534
    -0.4523  -0.4460  -0.4390  -0.4382  -0.3761  -0.3755  -0.3738  -0.3734
    -0.3648  -0.3561  -0.3518  -0.3413  -0.3200  -0.3191  -0.3188  -0.3174
    -0.3098  -0.3083  -0.2935  -0.2910  -0.2879  -0.2871  -0.2747  -0.2737
    -0.2716  -0.2705  -0.2688  -0.2672  -0.2650  -0.2634  -0.2619  -0.2534
    -0.2531  -0.2221  -0.2218  -0.2203  -0.2199  -0.2013  -0.1737  -0.1725
    -0.1591  -0.1578  -0.1554  -0.1547  -0.1503  -0.1500  -0.1491  -0.1460
    -0.1292  -0.1253  -0.1233  -0.1140  -0.1124  -0.1078  -0.1071  -0.0989
    -0.0985  -0.0969  -0.0963  -0.0855  -0.0748  -0.0718  -0.0587  -0.0468
    -0.0312  -0.0302  -0.0238  -0.0192  -0.0185  -0.0080  -0.0066  -0.0050
    -0.0047   0.0075   0.0096   0.0120   0.0239   0.0256   0.0375   0.0384
     0.0433   0.0502   0.0604   0.0612   0.0618   0.0621   0.0759   0.0790
     0.0955   0.0967   0.0967   0.0971   0.1096   0.1121   0.1177   0.1190
     0.1590   0.1592   0.1638   0.1649   0.1796   0.1811   0.1860   0.1861
     0.2076   0.2078   0.2404   0.2419   0.2459   0.2466   0.2828   0.2829
     0.2866   0.3259   0.3554   0.3622   0.3657   0.3679   0.3692   0.3697
     0.3715   0.3828   0.3834   0.3926   0.3992   0.4003   0.4217   0.4260
     0.4262   0.4303   0.4310   0.4318   0.4337   0.4343   0.4511   0.4552
     0.4553   0.4567   0.4568   0.4575   0.4704   0.4766   0.4948   0.4953
     0.5054   0.5057   0.5073   0.5073   0.5214   0.5215   0.5228   0.5244
     0.5319   0.5320   0.5336   0.5359   0.5461   0.5526   0.5580   0.5612
     0.5612   0.5625   0.5632   0.5632   0.5685   0.5693   0.5729   0.5765
     0.5870   0.5875   0.6293   0.6304   0.6406   0.6408   0.6460   0.6473
     0.6483   0.6491   0.6493   0.6530   0.6568   0.6571   0.6692   0.6703
     0.6762   0.6764   0.6985   0.7005   0.7032   0.7037   0.7077   0.7087
     0.7221   0.7231   0.7284   0.7292   0.7519   0.7522   0.7558   0.7575
     0.7585   0.7600   0.7717   0.7723   0.8141   0.8156   0.8349   0.8382
     0.8651   0.8657   0.8727   0.8735   0.8807   0.8857   0.8866   0.8885
     0.8899   0.8919   0.8935   0.8943   0.8979   0.8993   0.9012   0.9018
     0.9209   0.9273   0.9295   0.9303   0.9323   0.9379   0.9416   0.9430
     0.9475   0.9481   0.9520   0.9520   0.9553   0.9608   0.9623   0.9634
     0.9745   0.9746   0.9750   0.9759   0.9822   0.9853   0.9909   0.9937
     0.9957   0.9958   1.0056   1.0075   1.0080   1.0130   1.0176   1.0187
     1.0214   1.0251   1.0254   1.0267   1.0430   1.0660   1.0729   1.0943
     1.1026   1.1103   1.1104   1.1124   1.1125   1.1198   1.1285   1.1317
     1.1540   1.1550   1.1584   1.1603   1.1633   1.1641   1.1681   1.1700
     1.1799   1.1808   1.1864   1.1887   1.1908   1.1912   1.1933   1.1934
     1.1943   1.1945   1.2007   1.2037   1.2079   1.2127   1.2140   1.2156
     1.2219   1.2230   1.2392   1.2403   1.2490   1.2505   1.2568   1.2576
     1.2601   1.2602   1.2613   1.2663   1.2850   1.2859   1.2890   1.2900
     1.2928   1.2936   1.2987   1.2989   1.3021   1.3059   1.3104   1.3113
     1.3319   1.3338   1.3359   1.3363   1.3526   1.3540   1.3672   1.3675
     1.3681   1.3686   1.3691   1.3691   1.3788   1.3791   1.3932   1.3937
     1.3962   1.3978   1.4079   1.4082   1.4259   1.4267   1.4306   1.4310
     1.4315   1.4325   1.4341   1.4350   1.4597   1.4599   1.4731   1.4735
     1.4801   1.4809   1.4821   1.4833   1.5044   1.5054   1.5073   1.5086
     1.5143   1.5143   1.5262   1.5263   1.5801   1.5895   1.5924   1.5996
     1.6634   1.6811   1.6878   1.6967   1.7151   1.7192   1.7347   1.7363
     1.7523   1.7534   1.7784   1.7822   1.8001   1.8031   1.8036   1.8106
     1.8381   1.8381   1.8873   2.0375   2.0900   2.1079   2.4145   2.4170
     2.4206   2.4318   2.4684   2.4708   2.5605   2.5634   2.6106   2.6155
     2.6418   2.6761   2.6885   2.6893   2.7311   2.7386   2.8059   2.8085
     2.9051   2.9057   3.0848   3.0876   3.1553   3.1553   3.4628   3.4928
     3.5140   3.6333   3.6371   3.7215   3.9253   3.9633   4.1068   4.1112
     4.1128   4.1132   4.3123   4.3475   4.3856   4.3886   4.3926   4.3954
     4.6256   4.6387   4.9309   5.0051   5.0554   5.0687   5.0779   5.0823
     5.1171   5.3423   5.3448   5.3460   5.3535   5.4173   5.4356   5.4836
     5.5067   5.5120   5.6164   5.6401   6.3898   6.4146   6.4695   6.4746
     6.5095   6.5250   6.5759   6.5832   6.6264   6.6391   6.7172   6.8845
     6.9679   6.9993   6.9996   7.0114   7.0219   7.0396   7.0568   7.1080
     7.1101   7.1386   7.1615   7.1718   7.1921   7.2022   7.2641   7.2764
     7.4558   7.4791   7.6747   7.7264   7.7499   7.7621   7.8483   7.9013
     7.9838   8.0402   8.1334   8.1349   8.2094   8.2625   8.3796   8.4280
     8.4359   8.4440   8.4964   8.5021   8.5266   8.5495   8.6857   8.6934
     8.7166   8.7189   8.7292   8.7392   8.7669   8.7875   8.8343   8.8466
     9.0920   9.0995   9.1952   9.2108   9.3198   9.3478   9.3566   9.3665
     9.3681   9.3758   9.4232   9.4635   9.4664   9.4731   9.4850   9.6650
     9.7030   9.7247   9.7627   9.7652   9.7671   9.8631   9.8764

          k = 0.2500 0.0000 0.0000 (256240 PWs)   bands (ev):

   -16.7690 -15.9362 -15.7615 -15.3832 -14.9445 -14.9252 -14.7408 -14.5983
   -13.9439 -13.7527 -13.4349 -13.1058 -13.0388 -12.9445 -12.7788 -12.2071
   -12.1085 -12.0568 -11.7750 -11.3448 -10.8711 -10.5974 -10.5058 -10.4294
    -9.9040  -9.7939  -9.7368  -9.1869  -9.1295  -8.8767  -8.7965  -7.8896
    -7.7116  -7.6306  -7.4753  -7.4451  -7.3345  -6.8311  -6.6990  -6.3340
    -6.1215  -5.9429  -5.8670  -5.7977  -5.7149  -5.4199  -5.3621  -5.3189
    -5.2542  -5.2027  -4.8600  -4.7603  -4.7362  -4.5469  -4.5036  -4.4765
    -4.4025  -4.2978  -4.2501  -4.1068  -4.0404  -4.0293  -4.0060  -3.9480
    -3.9288  -3.8579  -3.8519  -3.8407  -3.7518  -3.6640  -3.5706  -3.5401
    -3.4685  -3.3991  -3.3832  -3.3040  -3.2638  -3.1964  -3.1786  -3.1360
    -3.0740  -3.0152  -2.9348  -2.8565  -2.8134  -2.8069  -2.7652  -2.6800
    -2.6645  -2.5889  -2.5500  -2.4747  -2.4197  -2.3499  -2.3477  -2.2597
    -2.1976  -2.1349  -2.1236  -2.1121  -2.1002  -2.0955  -2.0374  -2.0119
    -1.9768  -1.8991  -1.8745  -1.8650  -1.8472  -1.8441  -1.8205  -1.8180
    -1.8119  -1.8088  -1.7918  -1.7896  -1.7653  -1.7445  -1.7223  -1.7027
    -1.6895  -1.6569  -1.6246  -1.6169  -1.5997  -1.5980  -1.5964  -1.5961
    -1.5925  -1.5856  -1.5543  -1.5417  -1.5216  -1.5185  -1.5085  -1.5061
    -1.4930  -1.4078  -1.3881  -1.3420  -1.3294  -1.3060  -1.2888  -1.2677
    -1.2610  -1.2572  -1.2534  -1.2520  -1.2475  -1.2318  -1.2258  -1.2193
    -1.2111  -1.2031  -1.1976  -1.1862  -1.1855  -1.1638  -1.1512  -1.1499
    -1.1355  -1.1304  -1.1256  -1.1237  -1.1125  -1.1070  -1.0852  -1.0778
    -1.0637  -1.0627  -1.0546  -1.0393  -1.0377  -1.0327  -1.0297  -1.0282
    -1.0261  -1.0197  -1.0173  -1.0012  -0.9963  -0.9956  -0.9952  -0.9949
    -0.9924  -0.9905  -0.9822  -0.9727  -0.9648  -0.9531  -0.9411  -0.9181
    -0.9176  -0.9038  -0.8758  -0.8681  -0.8328  -0.8322  -0.8162  -0.8131
    -0.8096  -0.8062  -0.7881  -0.7868  -0.7780  -0.7732  -0.7701  -0.7681
    -0.7622  -0.7609  -0.7439  -0.7267  -0.6432  -0.6254  -0.6112  -0.6078
    -0.5878  -0.5864  -0.5840  -0.5742  -0.5708  -0.5659  -0.5655  -0.5533
    -0.5495  -0.5480  -0.5439  -0.5436  -0.5324  -0.5151  -0.5108  -0.5011
    -0.4992  -0.4971  -0.4961  -0.4778  -0.4777  -0.4766  -0.4671  -0.4312
    -0.4233  -0.4164  -0.4128  -0.4090  -0.4079  -0.4040  -0.3982  -0.3953
    -0.3864  -0.3772  -0.3739  -0.3625  -0.3581  -0.3509  -0.3476  -0.3115
    -0.3101  -0.3094  -0.3076  -0.3049  -0.3036  -0.3011  -0.2897  -0.2850
    -0.2780  -0.2705  -0.2590  -0.2553  -0.2483  -0.2308  -0.2278  -0.2250
    -0.2187  -0.2122  -0.2046  -0.2013  -0.2002  -0.1994  -0.1934  -0.1697
    -0.1677  -0.1615  -0.1572  -0.1543  -0.1494  -0.1381  -0.1359  -0.1321
    -0.1276  -0.0857  -0.0823  -0.0820  -0.0807  -0.0748  -0.0735  -0.0555
    -0.0491  -0.0484  -0.0428  -0.0296  -0.0258  -0.0249  -0.0239  -0.0200
    -0.0163  -0.0157  -0.0120  -0.0094  -0.0073   0.0025   0.0085   0.0158
     0.0193   0.0202   0.0230   0.0344   0.0372   0.0389   0.0551   0.0628
     0.0759   0.0803   0.0924   0.0936   0.0964   0.1015   0.1084   0.1178
     0.1191   0.1218   0.1235   0.1339   0.1371   0.1460   0.1559   0.1630
     0.1757   0.2043   0.2250   0.2326   0.2382   0.2390   0.2435   0.2472
     0.2536   0.2608   0.2640   0.2644   0.2670   0.2678   0.2689   0.2712
     0.2720   0.2792   0.2831   0.2903   0.2920   0.2959   0.2970   0.3098
     0.3150   0.3185   0.3195   0.3207   0.3256   0.3460   0.3583   0.3763
     0.3842   0.3866   0.3897   0.3922   0.4159   0.4180   0.4209   0.4245
     0.4285   0.4419   0.4531   0.4554   0.4586   0.4611   0.4629   0.4649
     0.4684   0.4717   0.4758   0.4800   0.4915   0.5003   0.5088   0.5111
     0.5120   0.5144   0.5186   0.5213   0.5294   0.5324   0.5353   0.5363
     0.5429   0.5554   0.5572   0.5611   0.5682   0.5769   0.5797   0.5844
     0.5867   0.5893   0.5902   0.5923   0.5986   0.6137   0.6216   0.6234
     0.6331   0.6432   0.6448   0.6458   0.6507   0.6517   0.6617   0.6639
     0.6765   0.6896   0.6938   0.7009   0.7181   0.7204   0.7228   0.7269
     0.7303   0.7370   0.7433   0.7536   0.7549   0.7592   0.7597   0.7644
     0.7696   0.7744   0.7796   0.7821   0.7859   0.7945   0.7967   0.8047
     0.8282   0.8306   0.8385   0.8408   0.8454   0.8612   0.8648   0.8657
     0.8693   0.8700   0.8749   0.8760   0.8792   0.8821   0.8886   0.8902
     0.8923   0.9095   0.9183   0.9293   0.9366   0.9398   0.9475   0.9507
     0.9574   0.9614   0.9709   0.9724   0.9733   0.9757   0.9786   0.9882
     0.9899   0.9910   0.9939   0.9965   1.0010   1.0012   1.0023   1.0038
     1.0047   1.0108   1.0129   1.0146   1.0187   1.0208   1.0236   1.0429
     1.0438   1.0480   1.0512   1.0526   1.0534   1.0593   1.0620   1.0694
     1.0708   1.0726   1.0818   1.0894   1.0906   1.0949   1.1037   1.1065
     1.1093   1.1114   1.1203   1.1242   1.1260   1.1302   1.1426   1.1429
     1.1515   1.1649   1.1706   1.1720   1.1752   1.1826   1.1945   1.2014
     1.2058   1.2120   1.2181   1.2239   1.2289   1.2324   1.2331   1.2383
     1.2446   1.2456   1.2504   1.2562   1.2586   1.2616   1.2619   1.2676
     1.2703   1.2741   1.2750   1.2776   1.2860   1.2867   1.2891   1.2906
     1.2917   1.2975   1.3023   1.3072   1.3152   1.3196   1.3282   1.3309
     1.3331   1.3349   1.3368   1.3385   1.3439   1.3545   1.3600   1.3643
     1.3665   1.3691   1.3695   1.3727   1.3789   1.3802   1.3819   1.4001
     1.4010   1.4016   1.4034   1.4050   1.4066   1.4085   1.4158   1.4169
     1.4181   1.4231   1.4262   1.4287   1.4406   1.4426   1.4499   1.4515
     1.4524   1.4541   1.4672   1.4691   1.4723   1.4772   1.4805   1.4878
     1.4911   1.4919   1.4968   1.4994   1.5020   1.5092   1.5273   1.5381
     1.5626   1.5740   1.5850   1.6027   1.6042   1.6123   1.6395   1.6872
     1.7054   1.7275   1.7449   1.7474   1.7494   1.7690   1.7982   1.8218
     1.8264   1.9045   2.0134   2.0218   2.0433   2.0592   2.1483   2.1953
     2.2255   2.2962   2.3549   2.5193   2.5395   2.5699   2.5758   2.9566
     2.9589   3.0401   3.1602   3.1700   3.2015   3.2028   3.2388   3.3039
     3.4088   3.4335   3.4926   3.5195   3.5759   3.6038   3.6550   3.6653
     3.6702   3.7112   3.7271   3.7760   3.7799   3.8567   3.8962   4.0507
     4.1350   4.1375   4.1685   4.2126   4.2332   4.2725   4.3940   4.5526
     4.7592   4.8045   4.8246   4.8501   5.1046   5.1489   5.2217   5.2781
     5.3045   5.3394   5.4071   5.4297   5.4526   5.4737   5.4955   5.5130
     5.5361   5.5445   5.5615   5.6927   5.7641   5.8584   5.9332   5.9851
     6.0067   6.0168   6.0362   6.0516   6.1751   6.3535   6.4546   6.4736
     6.6955   6.7285   6.7337   6.7692   6.8209   6.8572   6.9046   6.9444
     6.9839   7.0246   7.0527   7.0629   7.2164   7.2459   7.2902   7.3258
     7.4316   7.4810   7.5702   7.6554   7.7298   7.7615   7.7820   7.8189
     7.8377   7.9254   7.9377   8.0480   8.0534   8.0759   8.2115   8.2208
     8.2794   8.3027   8.3145   8.3324   8.3445   8.4549   8.4854   8.5323
     8.5952   8.6314   8.6632   8.7571   8.8748   8.9278   8.9484   8.9956
     9.0032   9.0695   9.1352   9.1500   9.1820   9.2016   9.2112   9.2489
     9.3241   9.3601   9.3891   9.3971   9.4267   9.4547   9.4853   9.5192
     9.5727   9.6477   9.6752   9.6877   9.7304   9.7975   9.8246

          k = 0.2500-0.2165 0.0000 (256316 PWs)   bands (ev):

   -16.7681 -15.9907 -15.6357 -15.3458 -15.2213 -14.9976 -14.5321 -14.3433
   -14.1019 -13.8944 -13.4390 -13.0994 -13.0618 -12.9385 -12.5821 -12.4212
   -12.1452 -11.9639 -11.3741 -11.2272 -11.1660 -11.0566 -10.6934 -10.3847
    -9.6599  -9.5694  -9.3184  -9.2646  -9.0814  -8.9407  -8.5346  -8.4836
    -8.3129  -8.2050  -7.0045  -6.8260  -6.7678  -6.5983  -6.5560  -6.3832
    -6.2296  -6.1986  -6.1619  -6.1034  -5.7305  -5.7255  -5.2447  -5.1961
    -5.0914  -5.0371  -4.9340  -4.8603  -4.6872  -4.6796  -4.5306  -4.4720
    -4.3987  -4.3679  -4.3668  -4.3018  -4.1731  -4.0621  -4.0144  -3.8942
    -3.8072  -3.7748  -3.6937  -3.6467  -3.5689  -3.4991  -3.4655  -3.4628
    -3.4617  -3.4109  -3.3955  -3.2988  -3.2279  -3.1859  -3.1568  -3.1489
    -2.9665  -2.9558  -2.9237  -2.9210  -2.8919  -2.8613  -2.8462  -2.8063
    -2.7334  -2.7108  -2.5799  -2.4762  -2.3423  -2.3327  -2.3283  -2.2841
    -2.2002  -2.1852  -2.1843  -2.1842  -2.1099  -2.0578  -2.0283  -2.0266
    -1.9828  -1.9742  -1.9700  -1.9392  -1.8717  -1.8296  -1.8288  -1.8174
    -1.7998  -1.7700  -1.7458  -1.7441  -1.7428  -1.7330  -1.7272  -1.7252
    -1.7238  -1.6927  -1.6917  -1.6890  -1.6883  -1.6815  -1.6802  -1.5981
    -1.5976  -1.5658  -1.5304  -1.4922  -1.4774  -1.3973  -1.3903  -1.3837
    -1.3680  -1.3535  -1.3464  -1.3438  -1.2953  -1.2934  -1.2831  -1.2808
    -1.2767  -1.2655  -1.2645  -1.2633  -1.2418  -1.2400  -1.2291  -1.2287
    -1.2286  -1.2182  -1.2102  -1.2066  -1.2031  -1.2031  -1.1823  -1.1553
    -1.1504  -1.1429  -1.1421  -1.1367  -1.1305  -1.1275  -1.1163  -1.1096
    -1.0765  -1.0711  -1.0560  -1.0556  -1.0498  -1.0483  -1.0367  -1.0152
    -1.0126  -1.0110  -1.0094  -1.0068  -0.9811  -0.9798  -0.9759  -0.9751
    -0.9708  -0.9669  -0.9557  -0.9445  -0.9436  -0.9343  -0.8944  -0.8853
    -0.8848  -0.8792  -0.8786  -0.8705  -0.8473  -0.8003  -0.7992  -0.7958
    -0.7941  -0.7920  -0.7873  -0.7650  -0.7488  -0.7460  -0.7320  -0.7319
    -0.7228  -0.7216  -0.7170  -0.7125  -0.6872  -0.6746  -0.6686  -0.6443
    -0.6394  -0.6315  -0.5872  -0.5853  -0.5846  -0.5807  -0.5773  -0.5577
    -0.5569  -0.5481  -0.5407  -0.5401  -0.5258  -0.5209  -0.5202  -0.5043
    -0.5029  -0.4845  -0.4830  -0.4786  -0.4678  -0.4634  -0.4619  -0.4615
    -0.4299  -0.4298  -0.4226  -0.4158  -0.4114  -0.3994  -0.3957  -0.3883
    -0.3846  -0.3833  -0.3786  -0.3785  -0.3732  -0.3713  -0.3696  -0.3527
    -0.3526  -0.3463  -0.3363  -0.3311  -0.3102  -0.3074  -0.2946  -0.2913
    -0.2752  -0.2695  -0.2605  -0.2597  -0.2459  -0.2434  -0.2419  -0.2387
    -0.2285  -0.2281  -0.2029  -0.1938  -0.1849  -0.1697  -0.1695  -0.1492
    -0.1292  -0.1289  -0.1261  -0.1257  -0.1142  -0.1087  -0.1018  -0.0895
    -0.0879  -0.0874  -0.0802  -0.0765  -0.0752  -0.0731  -0.0719  -0.0708
    -0.0647  -0.0643  -0.0372  -0.0363  -0.0323  -0.0271  -0.0261  -0.0202
    -0.0191  -0.0179  -0.0168  -0.0162  -0.0124  -0.0096   0.0086   0.0093
     0.0123   0.0130   0.0162   0.0340   0.0346   0.0426   0.0531   0.0633
     0.0663   0.0758   0.0801   0.0901   0.1033   0.1095   0.1122   0.1226
     0.1233   0.1247   0.1315   0.1324   0.1396   0.1409   0.1492   0.1494
     0.1596   0.1607   0.1813   0.1818   0.2360   0.2423   0.2529   0.2556
     0.2582   0.2610   0.2642   0.2645   0.2651   0.2675   0.2718   0.2722
     0.2897   0.2962   0.2993   0.2999   0.3024   0.3060   0.3122   0.3173
     0.3175   0.3212   0.3383   0.3409   0.3467   0.3498   0.3537   0.3588
     0.3718   0.3787   0.3992   0.4026   0.4215   0.4319   0.4348   0.4366
     0.4393   0.4402   0.4432   0.4491   0.4506   0.4539   0.4590   0.4603
     0.4628   0.4635   0.4759   0.4771   0.4827   0.4911   0.5086   0.5117
     0.5195   0.5412   0.5418   0.5435   0.5441   0.5627   0.5676   0.5721
     0.5772   0.5800   0.5804   0.5851   0.5890   0.5940   0.5968   0.5996
     0.6019   0.6121   0.6187   0.6195   0.6311   0.6320   0.6340   0.6346
     0.6467   0.6469   0.6535   0.6540   0.6666   0.6687   0.6694   0.6721
     0.6729   0.6737   0.6843   0.6875   0.6883   0.6894   0.6901   0.6916
     0.6943   0.6954   0.7060   0.7067   0.7361   0.7371   0.7381   0.7412
     0.7508   0.7560   0.7776   0.7892   0.7997   0.8003   0.8007   0.8020
     0.8064   0.8085   0.8126   0.8342   0.8347   0.8362   0.8376   0.8389
     0.8391   0.8471   0.8517   0.8549   0.8592   0.8625   0.8741   0.8750
     0.8820   0.8876   0.8954   0.9096   0.9104   0.9153   0.9163   0.9255
     0.9312   0.9374   0.9476   0.9480   0.9548   0.9557   0.9640   0.9805
     0.9823   0.9835   0.9889   0.9911   0.9921   1.0061   1.0144   1.0169
     1.0257   1.0281   1.0500   1.0538   1.0561   1.0594   1.0667   1.0677
     1.0707   1.0724   1.0736   1.0741   1.0771   1.0789   1.0852   1.0858
     1.0939   1.0946   1.1020   1.1037   1.1171   1.1174   1.1269   1.1335
     1.1348   1.1421   1.1479   1.1497   1.1538   1.1589   1.1617   1.1636
     1.1660   1.1666   1.1697   1.1703   1.1764   1.1786   1.1805   1.1850
     1.1950   1.1968   1.2001   1.2011   1.2052   1.2067   1.2085   1.2100
     1.2269   1.2275   1.2493   1.2516   1.2581   1.2589   1.2599   1.2634
     1.2685   1.2714   1.2726   1.2768   1.2895   1.2910   1.3032   1.3074
     1.3090   1.3129   1.3135   1.3136   1.3183   1.3208   1.3242   1.3284
     1.3307   1.3314   1.3371   1.3408   1.3480   1.3525   1.3529   1.3590
     1.3631   1.3633   1.3656   1.3667   1.3757   1.3758   1.3777   1.3779
     1.3826   1.3903   1.3919   1.3974   1.4046   1.4062   1.4167   1.4173
     1.4179   1.4191   1.4237   1.4237   1.4263   1.4281   1.4366   1.4372
     1.4390   1.4414   1.4606   1.4606   1.4710   1.4711   1.4814   1.4836
     1.4974   1.4979   1.5022   1.5045   1.5103   1.5307   1.5313   1.5385
     1.5392   1.5407   1.5724   1.5815   1.6145   1.6282   1.6737   1.6790
     1.7311   1.7374   1.7478   1.7602   1.7617   1.7849   1.8000   1.8926
     1.8967   1.9035   1.9074   1.9199   2.1034   2.1065   2.1399   2.1417
     2.2862   2.2939   2.5626   2.5656   2.7319   2.7367   2.7601   2.7666
     2.7707   2.7719   2.8837   2.8859   2.9494   2.9619   3.1026   3.1163
     3.4484   3.5413   3.5777   3.6602   3.6745   3.7305   3.7412   3.7683
     3.7964   3.8007   3.8744   3.8939   3.9131   4.0193   4.0353   4.1025
     4.1275   4.1521   4.3162   4.3763   4.3834   4.3934   4.4233   4.4570
     4.6073   4.6692   4.6901   4.7264   4.8528   4.8614   5.0571   5.1247
     5.2374   5.2433   5.3080   5.3213   5.3560   5.4128   5.4145   5.4727
     5.4746   5.4804   5.6065   5.7345   5.7484   5.7869   5.9199   5.9276
     5.9488   5.9521   6.2984   6.3994   6.4648   6.5248   6.6167   6.7467
     6.7514   6.7522   6.7807   6.8349   6.9605   6.9934   7.0027   7.0128
     7.0922   7.0927   7.1619   7.1774   7.2098   7.2302   7.2491   7.2792
     7.3747   7.3894   7.4168   7.4474   7.4798   7.4908   7.6898   7.6966
     7.8408   7.9288   8.0052   8.0195   8.0863   8.0905   8.1744   8.1890
     8.1974   8.2269   8.3658   8.5487   8.6067   8.6138   8.6267   8.6352
     8.6785   8.6852   8.7223   8.7288   8.8736   8.8884   8.9192   8.9302
     8.9450   8.9498   9.0882   9.1096   9.1425   9.1478   9.1628   9.1762
     9.1873   9.2311   9.2666   9.2977   9.3338   9.3460   9.3908   9.4478
     9.4552   9.5031   9.5094   9.5196   9.6429   9.6470   9.7256

          k =-0.5000 0.0000 0.0000 (256496 PWs)   bands (ev):

   -16.6819 -15.7732 -15.5609 -15.4854 -15.4233 -15.2634 -14.6200 -14.4802
   -14.4378 -14.1183 -13.0293 -12.7643 -12.6440 -12.5766 -12.1635 -12.1350
   -11.7808 -11.6480 -11.6464 -11.4275 -11.1335 -11.1321 -10.9316 -10.8511
   -10.2095 -10.0289  -9.7437  -9.4365  -9.0722  -8.9621  -8.8928  -8.8283
    -7.7804  -7.6895  -7.6678  -7.4378  -7.3855  -7.3364  -5.9666  -5.9487
    -5.5205  -5.3513  -5.3364  -5.1020  -5.0845  -4.9679  -4.9637  -4.8650
    -4.8473  -4.8112  -4.8091  -4.7213  -4.6616  -4.6547  -4.6323  -4.6233
    -4.5064  -4.4656  -4.4196  -4.3949  -4.3572  -4.3206  -4.2285  -4.2079
    -4.0494  -3.9099  -3.8632  -3.8510  -3.6866  -3.6427  -3.6040  -3.5725
    -3.5479  -3.5294  -3.4368  -3.4362  -3.4329  -3.4322  -3.4197  -3.4161
    -3.3881  -3.1512  -2.9222  -2.8289  -2.8235  -2.7868  -2.7775  -2.7245
    -2.7190  -2.6994  -2.6358  -2.6231  -2.5053  -2.4722  -2.4711  -2.3403
    -2.3350  -2.2818  -2.2714  -2.2653  -1.9292  -1.9175  -1.8964  -1.8942
    -1.8941  -1.8932  -1.8926  -1.8860  -1.8013  -1.7806  -1.7805  -1.7483
    -1.7331  -1.7136  -1.6680  -1.6674  -1.6662  -1.6555  -1.6226  -1.6217
    -1.6166  -1.6161  -1.6147  -1.5832  -1.5113  -1.5094  -1.5030  -1.5029
    -1.4485  -1.4420  -1.4412  -1.4397  -1.4216  -1.4202  -1.3863  -1.3741
    -1.3739  -1.3713  -1.3712  -1.3708  -1.3665  -1.3649  -1.3583  -1.3475
    -1.3113  -1.3090  -1.3089  -1.3079  -1.2942  -1.2909  -1.2808  -1.2805
    -1.2257  -1.2204  -1.2181  -1.2038  -1.2007  -1.1987  -1.1979  -1.1886
    -1.1875  -1.1732  -1.1682  -1.1666  -1.1592  -1.1584  -1.1265  -1.1256
    -1.1220  -1.1220  -1.1022  -1.1019  -1.0717  -1.0716  -1.0650  -1.0302
    -1.0299  -0.9995  -0.9986  -0.9978  -0.9970  -0.9953  -0.9900  -0.9719
    -0.9699  -0.9640  -0.9525  -0.9520  -0.9500  -0.9492  -0.9464  -0.9450
    -0.9425  -0.9322  -0.9296  -0.9090  -0.8782  -0.8723  -0.8674  -0.8591
    -0.8563  -0.8143  -0.8139  -0.7610  -0.7374  -0.7276  -0.7265  -0.7257
    -0.7168  -0.7061  -0.6939  -0.6937  -0.6920  -0.6919  -0.6916  -0.6898
    -0.6639  -0.6638  -0.6482  -0.6479  -0.6424  -0.6385  -0.6278  -0.6201
    -0.6161  -0.6008  -0.5907  -0.5876  -0.5497  -0.5324  -0.5150  -0.4793
    -0.4792  -0.4760  -0.4675  -0.4664  -0.4596  -0.4526  -0.4285  -0.4266
    -0.4259  -0.4246  -0.4220  -0.4215  -0.4072  -0.3906  -0.3856  -0.3845
    -0.3821  -0.3816  -0.3563  -0.3560  -0.3480  -0.3479  -0.3152  -0.3147
    -0.3131  -0.3130  -0.3024  -0.3023  -0.2999  -0.2680  -0.2679  -0.2671
    -0.2669  -0.2643  -0.2629  -0.2534  -0.2394  -0.2313  -0.2217  -0.1984
    -0.1734  -0.1625  -0.1540  -0.1528  -0.1486  -0.1485  -0.1468  -0.1460
    -0.1326  -0.1274  -0.1166  -0.1138  -0.1120  -0.1089  -0.1080  -0.0773
    -0.0765  -0.0448  -0.0432  -0.0431  -0.0426  -0.0421  -0.0404  -0.0403
    -0.0372  -0.0339  -0.0330  -0.0312  -0.0311   0.0005   0.0255   0.0273
     0.0406   0.0448   0.0457   0.0472   0.0495   0.0506   0.0525   0.0534
     0.0577   0.0595   0.0703   0.0707   0.0839   0.0861   0.0870   0.0870
     0.1014   0.1016   0.1021   0.1021   0.1051   0.1054   0.1092   0.1092
     0.1108   0.1111   0.1126   0.1187   0.1227   0.1330   0.1353   0.1358
     0.1377   0.1446   0.1591   0.1604   0.1634   0.1640   0.2558   0.2558
     0.2601   0.2602   0.2933   0.2988   0.3005   0.3013   0.3032   0.3104
     0.3117   0.3124   0.3211   0.3223   0.3254   0.3277   0.3281   0.3283
     0.3291   0.3313   0.3355   0.3380   0.3421   0.3467   0.3509   0.3515
     0.3648   0.3676   0.3731   0.3734   0.3746   0.3771   0.3798   0.3812
     0.3927   0.4265   0.4558   0.4571   0.4645   0.4702   0.4723   0.4774
     0.4782   0.4894   0.4926   0.4956   0.4957   0.4987   0.5000   0.5139
     0.5142   0.5176   0.5180   0.5184   0.5186   0.5204   0.5211   0.5217
     0.5231   0.5264   0.5420   0.5444   0.5518   0.5529   0.5578   0.5619
     0.5650   0.5713   0.5887   0.5887   0.6038   0.6045   0.6051   0.6091
     0.6128   0.6131   0.6155   0.6177   0.6218   0.6222   0.6336   0.6413
     0.6421   0.6468   0.6535   0.6658   0.6667   0.6686   0.6772   0.6786
     0.6869   0.6872   0.6918   0.6920   0.7050   0.7057   0.7216   0.7255
     0.7302   0.7320   0.7452   0.7484   0.7496   0.7550   0.7722   0.7864
     0.8116   0.8173   0.8227   0.8231   0.8251   0.8254   0.8262   0.8268
     0.8275   0.8279   0.8334   0.8338   0.8471   0.8502   0.8552   0.8638
     0.8662   0.8679   0.8682   0.8694   0.8730   0.8742   0.8848   0.8861
     0.8889   0.8906   0.9219   0.9343   0.9368   0.9434   0.9600   0.9614
     0.9930   0.9963   0.9991   1.0005   1.0143   1.0189   1.0208   1.0246
     1.0277   1.0284   1.0366   1.0455   1.0515   1.0576   1.0587   1.0657
     1.0692   1.0815   1.0862   1.0878   1.0923   1.0924   1.0943   1.0978
     1.0982   1.0984   1.1016   1.1040   1.1116   1.1178   1.1185   1.1187
     1.1193   1.1219   1.1229   1.1284   1.1540   1.1608   1.1608   1.1638
     1.1665   1.1680   1.1741   1.1825   1.1912   1.1923   1.1997   1.2103
     1.2105   1.2131   1.2190   1.2221   1.2228   1.2241   1.2250   1.2252
     1.2292   1.2363   1.2434   1.2522   1.2559   1.2585   1.2666   1.2746
     1.2776   1.2785   1.2888   1.2959   1.2977   1.2985   1.3001   1.3002
     1.3065   1.3072   1.3091   1.3094   1.3099   1.3102   1.3129   1.3139
     1.3173   1.3173   1.3178   1.3186   1.3202   1.3230   1.3232   1.3271
     1.3443   1.3449   1.3465   1.3539   1.3643   1.3659   1.3681   1.3745
     1.3748   1.3763   1.3922   1.3934   1.3980   1.3982   1.4050   1.4063
     1.4082   1.4090   1.4184   1.4189   1.4268   1.4273   1.4282   1.4301
     1.4492   1.4500   1.4539   1.4545   1.4568   1.4630   1.4640   1.4680
     1.4696   1.4738   1.4832   1.4908   1.4928   1.4939   1.4974   1.4978
     1.4983   1.4989   1.5034   1.5054   1.5172   1.5269   1.5537   1.5540
     1.5865   1.5871   1.5912   1.5914   1.6140   1.6250   1.9952   1.9988
     2.0925   2.1066   2.2138   2.2288   2.2621   2.2627   2.2707   2.2790
     2.3105   2.3153   2.5828   2.5901   2.7101   2.7157   2.7930   2.7977
     2.8425   2.8447   3.1508   3.1568   3.1692   3.1789   3.3858   3.4654
     3.5968   3.6188   3.7243   3.8060   3.8090   3.8436   3.8450   3.9076
     3.9146   3.9957   4.0412   4.0872   4.0908   4.2799   4.2805   4.3774
     4.3989   4.4791   4.5865   4.6781   4.6833   4.7171   4.7665   4.7878
     4.8219   4.8351   4.9079   4.9086   4.9563   4.9564   5.0024   5.0047
     5.0184   5.0211   5.0243   5.0564   5.0598   5.0666   5.1275   5.1350
     5.3126   5.3778   5.4573   5.4763   5.5713   5.5839   5.6550   5.6608
     5.8576   5.9340   5.9453   5.9799   5.9803   6.0110   6.0445   6.1281
     6.1362   6.1624   6.2406   6.2495   6.3482   6.3590   6.6667   6.6797
     7.0925   7.1009   7.1710   7.1884   7.1903   7.1995   7.5695   7.5768
     7.5885   7.5904   7.5988   7.6601   7.6737   7.6918   7.7225   7.7746
     7.7889   7.8082   7.8503   7.8705   7.8793   7.8919   7.9206   7.9315
     8.1138   8.1643   8.2334   8.2686   8.2864   8.3437   8.4031   8.4962
     8.5300   8.6971   8.7063   8.8071   8.8254   8.8349   8.8384   8.8446
     8.8497   8.8768   9.0023   9.0050   9.0545   9.1109   9.1419   9.1508
     9.1574   9.2151   9.2253   9.4185   9.4634   9.4995   9.5000   9.5067
     9.5114   9.5345   9.5417   9.6609   9.6942   9.7787   9.8111

          k =-0.5000-0.2165 0.0000 (256328 PWs)   bands (ev):

   -16.6816 -15.7367 -15.6296 -15.6073 -15.2219 -14.9859 -14.9624 -14.8921
   -13.9615 -13.5923 -13.5367 -13.4777 -12.3638 -12.1685 -11.8705 -11.8595
   -11.7052 -11.6665 -11.6557 -11.5690 -11.4743 -11.2482 -11.1744 -11.1183
    -9.9045  -9.8066  -9.6303  -9.5035  -9.1134  -8.7555  -8.6902  -8.6357
    -8.2794  -8.2015  -7.9888  -7.9849  -6.4799  -6.2212  -6.0940  -6.0286
    -5.7458  -5.5121  -5.2655  -5.2194  -5.2172  -5.2025  -5.2016  -5.1950
    -5.0794  -4.9270  -4.7695  -4.7672  -4.7387  -4.4593  -4.4569  -4.4324
    -4.3743  -4.2200  -4.2049  -4.2045  -4.2026  -4.1796  -4.1023  -4.0679
    -4.0498  -3.9905  -3.9880  -3.9089  -3.8581  -3.8202  -3.7379  -3.6985
    -3.6577  -3.5919  -3.5377  -3.5100  -3.4988  -3.3981  -3.3714  -3.3512
    -3.1530  -3.0391  -3.0342  -2.9947  -2.7715  -2.6373  -2.5991  -2.5951
    -2.5935  -2.5906  -2.5460  -2.5416  -2.5377  -2.5129  -2.4555  -2.4271
    -2.2095  -2.1592  -2.1276  -2.1187  -2.1133  -2.0808  -2.0645  -2.0531
    -2.0489  -2.0264  -1.9842  -1.9398  -1.9123  -1.8206  -1.8205  -1.8193
    -1.8184  -1.7761  -1.7417  -1.7159  -1.5904  -1.5567  -1.5561  -1.5417
    -1.5089  -1.5089  -1.5088  -1.5087  -1.4736  -1.4524  -1.4513  -1.4499
    -1.4491  -1.4472  -1.4440  -1.4380  -1.4035  -1.4033  -1.4030  -1.4025
    -1.3976  -1.3967  -1.3963  -1.3960  -1.3735  -1.3735  -1.3733  -1.3733
    -1.3321  -1.3304  -1.3298  -1.3261  -1.2997  -1.2580  -1.2543  -1.2524
    -1.2364  -1.2065  -1.2065  -1.2063  -1.2061  -1.1954  -1.1926  -1.1907
    -1.1901  -1.1577  -1.1504  -1.1487  -1.1459  -1.1381  -1.1367  -1.1342
    -1.1310  -1.1307  -1.1305  -1.1304  -1.0784  -1.0737  -1.0735  -1.0731
    -1.0663  -1.0564  -1.0560  -1.0560  -1.0556  -1.0551  -1.0549  -1.0548
    -1.0548  -0.9984  -0.9852  -0.9445  -0.9091  -0.9067  -0.9064  -0.9033
    -0.8693  -0.8691  -0.8689  -0.8687  -0.8292  -0.8083  -0.8030  -0.7901
    -0.7900  -0.7895  -0.7884  -0.7863  -0.7814  -0.7755  -0.7686  -0.7587
    -0.7241  -0.7220  -0.7188  -0.7156  -0.7094  -0.7092  -0.7081  -0.7072
    -0.7005  -0.6971  -0.6950  -0.6884  -0.6685  -0.6669  -0.6638  -0.6234
    -0.5818  -0.5802  -0.5802  -0.5784  -0.5200  -0.5193  -0.5191  -0.5191
    -0.4854  -0.4816  -0.4786  -0.4703  -0.4583  -0.4530  -0.4517  -0.4505
    -0.4502  -0.4448  -0.4425  -0.4278  -0.4095  -0.4094  -0.4088  -0.4084
    -0.3878  -0.3726  -0.3701  -0.3694  -0.2917  -0.2916  -0.2912  -0.2911
    -0.2776  -0.2756  -0.2756  -0.2753  -0.2752  -0.2640  -0.2616  -0.2576
    -0.2379  -0.2043  -0.1918  -0.1814  -0.1760  -0.1754  -0.1751  -0.1738
    -0.1734  -0.1722  -0.1718  -0.1697  -0.1535  -0.1387  -0.1288  -0.1280
    -0.1276  -0.1272  -0.1249  -0.1193  -0.1176  -0.1174  -0.1160  -0.1141
    -0.1132  -0.1115  -0.1092  -0.0538  -0.0517  -0.0481  -0.0464  -0.0292
    -0.0219  -0.0207  -0.0188  -0.0054   0.0176   0.0191   0.0232   0.0307
     0.0461   0.0589   0.0598   0.0602   0.0635   0.0639   0.0646   0.0656
     0.0755   0.0784   0.0788   0.0808   0.0847   0.0851   0.0890   0.0905
     0.0919   0.0921   0.0923   0.0929   0.1001   0.1067   0.1078   0.1090
     0.1287   0.1333   0.1335   0.1336   0.1342   0.1401   0.1411   0.1415
     0.1418   0.1942   0.1945   0.1947   0.1951   0.2178   0.2191   0.2245
     0.2254   0.2261   0.2277   0.2514   0.2607   0.2786   0.2805   0.2925
     0.3055   0.3062   0.3077   0.3144   0.3288   0.3292   0.3300   0.3303
     0.3403   0.3427   0.3430   0.3440   0.3477   0.3487   0.3492   0.3497
     0.3523   0.3606   0.3635   0.3642   0.3967   0.4193   0.4250   0.4262
     0.4264   0.4277   0.4406   0.4443   0.4451   0.4520   0.4526   0.4529
     0.4533   0.4670   0.4751   0.4760   0.4783   0.4887   0.4910   0.4921
     0.4946   0.5023   0.5195   0.5218   0.5224   0.5268   0.5434   0.5447
     0.5450   0.5470   0.5474   0.5481   0.5503   0.5515   0.5546   0.5546
     0.5556   0.5609   0.5617   0.5621   0.5675   0.5703   0.5792   0.5794
     0.5877   0.6038   0.6214   0.6331   0.6417   0.6452   0.6466   0.6476
     0.6494   0.6556   0.6633   0.6651   0.6668   0.6680   0.6694   0.6710
     0.6775   0.6946   0.6982   0.7018   0.7087   0.7110   0.7114   0.7117
     0.7120   0.7135   0.7165   0.7167   0.7603   0.7636   0.7712   0.7715
     0.7902   0.7915   0.7926   0.7935   0.7992   0.8064   0.8243   0.8274
     0.8275   0.8285   0.8307   0.8457   0.8636   0.8656   0.8664   0.8693
     0.9047   0.9053   0.9059   0.9063   0.9268   0.9271   0.9280   0.9296
     0.9673   0.9745   0.9769   0.9812   0.9860   0.9896   0.9966   0.9991
     1.0029   1.0113   1.0144   1.0157   1.0224   1.0240   1.0246   1.0253
     1.0259   1.0271   1.0278   1.0291   1.0305   1.0347   1.0358   1.0378
     1.0432   1.0500   1.0539   1.0608   1.0619   1.0655   1.0660   1.0679
     1.0926   1.0948   1.0989   1.1001   1.1031   1.1037   1.1065   1.1109
     1.1127   1.1222   1.1227   1.1236   1.1313   1.1373   1.1381   1.1430
     1.1581   1.1615   1.1633   1.1633   1.1702   1.1722   1.1755   1.1759
     1.2024   1.2053   1.2067   1.2071   1.2339   1.2354   1.2361   1.2380
     1.2417   1.2432   1.2454   1.2477   1.2492   1.2498   1.2502   1.2597
     1.2618   1.2660   1.2661   1.2666   1.2693   1.2698   1.2711   1.2844
     1.3229   1.3253   1.3259   1.3272   1.3293   1.3296   1.3304   1.3307
     1.3340   1.3347   1.3363   1.3382   1.3516   1.3522   1.3536   1.3545
     1.3623   1.3671   1.3672   1.3672   1.3673   1.3722   1.3726   1.3726
     1.3784   1.3792   1.3793   1.3800   1.3849   1.3879   1.3895   1.3927
     1.4022   1.4042   1.4052   1.4059   1.4336   1.4400   1.4403   1.4412
     1.4510   1.4523   1.4532   1.4555   1.4570   1.4575   1.4597   1.4606
     1.4834   1.4916   1.4919   1.4931   1.5265   1.5349   1.5373   1.5403
     1.5540   1.5540   1.5545   1.5551   1.5776   1.5846   1.5852   1.5886
     1.5975   1.5982   1.5990   1.6033   1.6587   1.6759   1.6761   1.6783
     1.8181   1.8208   1.8227   1.8235   2.3590   2.3701   2.3740   2.3745
     2.5309   2.5439   2.5466   2.5500   2.7677   2.7699   2.7705   2.7764
     3.1394   3.1441   3.1471   3.1506   3.4132   3.4321   3.4324   3.4327
     3.4990   3.6130   3.6257   3.6301   3.7917   3.9055   3.9086   3.9087
     3.9421   4.1631   4.1783   4.1824   4.1986   4.3024   4.3221   4.3235
     4.3352   4.3806   4.4112   4.4205   4.4677   4.4766   4.4850   4.5119
     4.6713   4.7508   4.7811   4.8054   4.8877   5.0104   5.0384   5.0580
     5.0705   5.0858   5.1056   5.1670   5.1833   5.2110   5.2117   5.2474
     5.2758   5.3056   5.4107   5.4314   5.4587   5.4747   5.4816   5.4931
     5.7508   5.7696   5.7719   5.7736   5.9839   5.9980   6.0075   6.0144
     6.7161   6.7420   6.7479   6.7516   6.8435   6.9039   6.9390   6.9599
     7.1013   7.1128   7.1170   7.1190   7.2405   7.2944   7.3132   7.3258
     7.3440   7.3485   7.3560   7.3595   7.3789   7.3840   7.3918   7.3969
     7.7297   7.7433   7.7726   7.7737   8.1372   8.1431   8.1719   8.1836
     8.1984   8.2201   8.2349   8.2391   8.3224   8.3614   8.4225   8.4294
     8.8176   8.8685   8.8872   8.8924   8.8949   8.9130   8.9147   8.9169
     8.9312   8.9553   8.9639   8.9666   9.0046   9.0828   9.1233   9.1243
     9.1313   9.1320   9.2875   9.3374   9.3703   9.3835   9.3993   9.4026
     9.4796   9.5527   9.6075   9.6275   9.6323   9.6550   9.7555

     the Fermi energy is     3.3062 ev

!    total energy              =  -12706.84345583 Ry
     Harris-Foulkes estimate   =  -12706.84345584 Ry
     estimated scf accuracy    <          4.7E-09 Ry

     The total energy is the sum of the following terms:

     one-electron contribution = -109264.88230327 Ry
     hartree contribution      =   55992.99012375 Ry
     xc contribution           =   -4446.46872050 Ry
     ewald contribution        =   45017.87313439 Ry
     Dispersion Correction     =      -2.97438890 Ry
     smearing contrib. (-TS)   =      -3.38130129 Ry

     convergence has been achieved in  44 iterations

     Writing output data file gc.save
 
     init_run     :     98.81s CPU    106.75s WALL (       1 calls)
     electrons    :  11886.95s CPU  12705.99s WALL (       1 calls)

     Called by init_run:
     wfcinit      :     96.48s CPU    103.83s WALL (       1 calls)
     potinit      :      0.36s CPU      0.39s WALL (       1 calls)

     Called by electrons:
     c_bands      :  10912.52s CPU  11636.78s WALL (      44 calls)
     sum_band     :    811.74s CPU    879.93s WALL (      44 calls)
     v_of_rho     :      2.92s CPU      3.55s WALL (      45 calls)
     newd         :      8.46s CPU     13.78s WALL (      45 calls)
     mix_rho      :    151.14s CPU    171.78s WALL (      44 calls)

     Called by c_bands:
     init_us_2    :     36.82s CPU     37.47s WALL (     534 calls)
     cegterg      :  10748.90s CPU  11467.41s WALL (     270 calls)

     Called by sum_band:
     sum_band:bec :      4.68s CPU      5.18s WALL (     264 calls)
     addusdens    :      8.00s CPU     13.37s WALL (      44 calls)

     Called by *egterg:
     h_psi        :   3994.11s CPU   4324.12s WALL (    1786 calls)
     s_psi        :    971.40s CPU    982.38s WALL (    1786 calls)
     g_psi        :     10.27s CPU     10.29s WALL (    1510 calls)
     cdiaghg      :   2974.71s CPU   3089.47s WALL (    1774 calls)

     Called by h_psi:
     add_vuspsi   :    977.01s CPU    989.88s WALL (    1786 calls)

     General routines
     calbec       :   1379.62s CPU   1389.59s WALL (    2050 calls)
     fft          :      3.06s CPU      3.60s WALL (     584 calls)
     ffts         :     87.70s CPU     99.64s WALL (   23381 calls)
     fftw         :   2287.83s CPU   2553.22s WALL ( 1280682 calls)
     davcio       :      0.44s CPU      4.65s WALL (       6 calls)
 
     Parallel routines
     fft_scatter  :   1470.26s CPU   1613.32s WALL ( 1304647 calls)
 
     PWSCF        :     3h19m CPU        3h33m WALL

 
   This run was terminated on:   0:50:43  15Mar2017            

=------------------------------------------------------------------------------=
   JOB DONE.
=------------------------------------------------------------------------------=
