mpirun: INFO: switching to OpenMPI runtime version 1.10.2

     Program PWSCF v.5.4.0 starts on 11Sep2017 at  7:50:42 

     This program is part of the open-source Quantum ESPRESSO suite
     for quantum simulation of materials; please cite
         "P. Giannozzi et al., J. Phys.:Condens. Matter 21 395502 (2009);
          URL http://www.quantum-espresso.org", 
     in publications or presentations arising from this work. More details at
     http://www.quantum-espresso.org/quote

     Parallel version (MPI & OpenMP), running on      28 processor cores
     Number of MPI processes:                28
     Threads/MPI process:                     1
     R & G space division:  proc/nbgrp/npool/nimage =      28
     Waiting for input...
     Reading input from standard input
Warning: card CU       0.000000000  -0.000829132   7.386830164 ignored
Warning: card CU       1.844443097   1.707942874   7.399365766 ignored
Warning: card CU       3.689036991  -0.001134632   7.386342761 ignored
Warning: card CU       5.533630886   1.707942874   7.399365766 ignored
Warning: card CU       0.000000000   3.410552620   7.417564754 ignored
Warning: card CU       1.844583530   5.109005578   7.421135158 ignored
Warning: card CU       3.689036991   3.410610145   7.416149604 ignored
Warning: card CU       5.533490453   5.109005578   7.421135158 ignored
Warning: card CU       0.000000000   6.811397165   7.405445987 ignored
Warning: card CU       1.845362907   8.519546205   7.390832391 ignored
Warning: card CU       3.689036991   6.809879709   7.408130837 ignored
Warning: card CU       5.532711076   8.519546205   7.390832391 ignored
Warning: card CU       0.000000000  10.228933634   7.387590940 ignored
Warning: card CU       1.844618640  11.932888843   7.393708417 ignored
Warning: card CU       3.689036991  10.231364494   7.389788570 ignored
Warning: card CU       5.533455343  11.932888843   7.393708417 ignored
Warning: card CU       0.000000000  13.629827116   7.393369203 ignored
Warning: card CU       1.844567973  15.329612597   7.387351672 ignored
Warning: card CU       3.689036991  13.629138117   7.392659986 ignored
Warning: card CU       5.533506010  15.329612597   7.387351672 ignored
Warning: card CU       0.000000000   1.690295420   9.230068351 ignored
Warning: card CU       1.845000957  -0.007584085   9.217071603 ignored
Warning: card CU       3.689036991   1.690584522   9.229813714 ignored
Warning: card CU       5.533073026  -0.007584085   9.217071603 ignored
Warning: card CU       0.000000000   5.115049268   9.247965771 ignored
Warning: card CU       1.844995586   3.399102662   9.246207262 ignored
Warning: card CU       3.689036991   5.111160561   9.250377134 ignored
Warning: card CU       5.533078397   3.399102662   9.246207262 ignored
Warning: card CU       0.000000000   8.529024682   9.218965107 ignored
Warning: card CU       1.844895582   6.825638005   9.234474919 ignored
Warning: card CU       3.689036991   8.529508833   9.219709006 ignored
Warning: card CU       5.533178401   6.825638005   9.234474919 ignored
Warning: card CU       0.000000000  11.929619129   9.222387520 ignored
Warning: card CU       1.845049433  10.228629925   9.217425243 ignored
Warning: card CU       3.689036991  11.932897462   9.227650920 ignored
Warning: card CU       5.533024550  10.228629925   9.217425243 ignored
Warning: card CU       0.000000000  15.335995280   9.217026434 ignored
Warning: card CU       1.845095321  13.635767353   9.225119033 ignored
Warning: card CU       3.689036991  15.336209651   9.216882964 ignored
Warning: card CU       5.532978662  13.635767353   9.225119033 ignored
Warning: card CU       0.000000000  -0.013850629  11.073866707 ignored
Warning: card CU       1.846309207   1.676493268  11.076068066 ignored
Warning: card CU       3.689036991  -0.014291892  11.077172115 ignored
Warning: card CU       5.531764776   1.676493268  11.076068066 ignored
Warning: card CU       0.000000000   3.389777700  11.069676556 ignored
Warning: card CU       1.846414961   5.122546741  11.073867337 ignored
Warning: card CU       3.689036991   3.384015417  11.079533723 ignored
Warning: card CU       5.531659022   5.122546741  11.073867337 ignored
Warning: card CU       0.000000000   6.838395584  11.075185580 ignored
Warning: card CU       1.843072374   8.535613490  11.071046059 ignored
Warning: card CU       3.689036991   6.838262106  11.072555795 ignored
Warning: card CU       5.535001609   8.535613490  11.071046059 ignored
Warning: card CU       0.000000000  10.228560324  11.069967711 ignored
Warning: card CU       1.845418218  11.930202242  11.065383991 ignored
Warning: card CU       3.689036991  10.227004476  11.070198364 ignored
Warning: card CU       5.532655765  11.930202242  11.065383991 ignored
Warning: card CU       0.000000000  13.637894302  11.064603473 ignored
Warning: card CU       1.845399002  15.340406597  11.074309791 ignored
Warning: card CU       3.689036991  13.647917553  11.073455227 ignored
Warning: card CU       5.532674981  15.340406597  11.074309791 ignored
Warning: card CU       0.000000000   1.676402726  12.916798818 ignored
Warning: card CU       1.846142499  -0.025097799  12.954115926 ignored
Warning: card CU       3.689036991   1.647192299  12.949897687 ignored
Warning: card CU       5.531931484  -0.025097799  12.954115926 ignored
Warning: card CU       0.000000000   5.113426475  12.877799046 ignored
Warning: card CU       1.853363673   3.396920151  12.882278744 ignored
Warning: card CU       3.689036991   5.123170377  12.887012970 ignored
Warning: card CU       5.524710310   3.396920151  12.882278744 ignored
Warning: card CU       0.000000000   8.551064728  12.943765852 ignored
Warning: card CU       1.843770612   6.850442301  12.922224526 ignored
Warning: card CU       3.689036991   8.544652051  12.934517052 ignored
Warning: card CU       5.534303371   6.850442301  12.922224526 ignored
Warning: card CU       0.000000000  11.938188933  12.917000564 ignored
Warning: card CU       1.842509959  10.239506774  12.929510936 ignored
Warning: card CU       3.689036991  11.941677121  12.912780744 ignored
Warning: card CU       5.535564024  10.239506774  12.929510936 ignored
Warning: card CU       0.000000000  15.322641462  12.934274036 ignored
Warning: card CU       1.849530278  13.631898710  12.913233388 ignored
Warning: card CU       3.689036991  15.352632307  12.968917079 ignored
Warning: card CU       5.528543705  13.631898710  12.913233388 ignored
Warning: card CU       0.000000000  -0.009063083  14.772903694 ignored
Warning: card CU       1.841768845   1.726439316  14.700751915 ignored
Warning: card CU       3.689036991  -0.032767306  14.923258962 ignored
Warning: card CU       5.536305138   1.726439316  14.700751915 ignored
Warning: card CU       0.000000000   3.420157710  14.689853458 ignored
Warning: card CU       1.849360979   5.104600456  14.691237730 ignored
Warning: card CU       3.689036991   3.416572982  14.704284466 ignored
Warning: card CU       5.528713004   5.104600456  14.691237730 ignored
Warning: card CU       0.000000000   6.795142970  14.699938477 ignored
Warning: card CU       1.834508517   8.554377087  14.781353831 ignored
Warning: card CU       3.689036991   6.815211385  14.711346597 ignored
Warning: card CU       5.543565466   8.554377087  14.781353831 ignored
Warning: card CU       0.000000000  10.275807505  14.771604440 ignored
Warning: card CU       1.856274996  11.948705476  14.762848102 ignored
Warning: card CU       3.689036991  10.260547204  14.737887376 ignored
Warning: card CU       5.521798987  11.948705476  14.762848102 ignored
Warning: card CU       0.000000000  13.603690576  14.778828113 ignored
Warning: card CU       1.823981754  15.293169950  14.761127853 ignored
Warning: card CU       3.689036991  13.630935599  14.779351880 ignored
Warning: card CU       5.554092229  15.293169950  14.761127853 ignored
Warning: card C        0.000000000   0.670752585  17.528195844 ignored
Warning: card C        0.000000000   2.110750686  17.592684056 ignored
Warning: card C        1.230077244  -0.017132278  17.441953008 ignored
Warning: card C        1.227785152   2.822182153  17.593716107 ignored
Warning: card C        2.451965635   0.674846151  17.388947280 ignored
Warning: card C        2.455417304   2.111786989  17.496303172 ignored
Warning: card C        3.689036991  -0.015999983  17.183209224 ignored
Warning: card C        3.689036991   2.824171415  17.514915917 ignored
Warning: card C        4.926108347   0.674846151  17.388947280 ignored
Warning: card C        4.922656678   2.111786989  17.496303172 ignored
Warning: card C        6.147996739  -0.017132278  17.441953008 ignored
Warning: card C        6.150288831   2.822182153  17.593716107 ignored
Warning: card C        0.000000000   4.965213089  17.637135515 ignored
Warning: card C        0.000000000   6.394765603  17.588618843 ignored
Warning: card C        1.228033460   4.252536458  17.623130202 ignored
Warning: card C        1.229287553   7.106925436  17.549231980 ignored
Warning: card C        2.457948545   4.965409294  17.594226464 ignored
Warning: card C        2.458062247   6.394985135  17.566321935 ignored
Warning: card C        3.689036991   4.252443342  17.579693415 ignored
Warning: card C        3.689036991   7.106536928  17.522690667 ignored
Warning: card C        4.920125437   4.965409294  17.594226464 ignored
Warning: card C        4.920011735   6.394985135  17.566321935 ignored
Warning: card C        6.150040523   4.252536458  17.623130202 ignored
Warning: card C        6.148786430   7.106925436  17.549231980 ignored
Warning: card C        0.000000000   9.241861583  17.432748568 ignored
Warning: card C        1.228751745   8.548294717  17.463493890 ignored
Warning: card C        2.460599949   9.235118523  17.388283093 ignored
Warning: card C        3.689036991   8.547259439  17.458425172 ignored
Warning: card C        4.917474033   9.235118523  17.388283093 ignored
Warning: card C        6.149322238   8.548294717  17.463493890 ignored
Warning: card H        1.227916248  -1.109529303  17.395395872 ignored
Warning: card H        3.689036991  -1.103938753  17.296177128 ignored
Warning: card H        6.150157735  -1.109529303  17.395395872 ignored
Warning: card H        0.000000000  10.335707129  17.444012881 ignored
Warning: card H        4.918100613  10.327976124  17.349117907 ignored
Warning: card C        2.459973369  10.327976124  17.349117907 ignored
Warning: card O        1.350540117  11.137542215  17.392555692 ignored
Warning: card O        3.555512936  11.159862871  17.805713881 ignored
Warning: card H        3.305718254  12.104819310  17.680634117 ignored

     Current dimensions of program PWSCF are:
     Max number of different atomic species (ntypx) = 10
     Max number of k-points (npk) =  40000
     Max angular momentum in pseudopotentials (lmaxx) =  3
     WARNING: atomic wfc #  2 for atom type 4 has zero norm
     WARNING: atomic wfc #  4 for atom type 4 has zero norm
     WARNING: atomic wfc #  5 for atom type 4 has zero norm

     -------------------------------------
     Parameters for Dispersion Correction:
     -------------------------------------
       atom      VdW radius       C_6     

        Cu         2.952        374.666
        C_h        2.744         60.710
        C          2.744         60.710
        O          2.536         24.284
        H          1.892          4.857

     Subspace diagonalization in iterative solution of the eigenvalue problem:
     one sub-group per band group will be used
     scalapack distributed-memory algorithm (size of sub-group:  3*  3 procs)

 
     Parallelization info
     --------------------
     sticks:   dense  smooth     PW     G-vecs:    dense   smooth      PW
     Min         408     408    108                73226    73226    9928
     Max         410     410    109                73231    73231    9931
     Sum       11433   11433   3039              2050409  2050409  278033
 


     bravais-lattice index     =            0
     lattice parameter (alat)  =      13.9425  a.u.
     unit-cell volume          =   21209.0878 (a.u.)^3
     number of atoms/cell      =          139
     number of atomic types    =            5
     number of electrons       =      1242.00
     number of Kohn-Sham states=          745
     kinetic-energy cutoff     =      80.0000  Ry
     charge density cutoff     =     320.0000  Ry
     convergence threshold     =      1.0E-08
     mixing beta               =       0.7000
     number of iterations used =            8  local-TF  mixing
     Exchange-correlation      =  SLA  PW   PBE  PBE ( 1  4  3  4 0 0)
     nstep                     =           50


     celldm(1)=  13.942539  celldm(2)=   0.000000  celldm(3)=   0.000000
     celldm(4)=   0.000000  celldm(5)=   0.000000  celldm(6)=   0.000000

     crystal axes: (cart. coord. in units of alat)
               a(1) = (   1.000000   0.000000   0.000000 )  
               a(2) = (   0.000000   2.309401   0.000000 )  
               a(3) = (   0.000000   0.000000   3.388418 )  

     reciprocal axes: (cart. coord. in units 2 pi/alat)
               b(1) = (  1.000000  0.000000  0.000000 )  
               b(2) = (  0.000000  0.433013  0.000000 )  
               b(3) = (  0.000000  0.000000  0.295123 )  


     PseudoPot. # 1 for Cu read from file:
     /home/549/hxw549/Short/pseudopotentials/Cu.pbe-n-van_ak.UPF
     MD5 check sum: 601f7c30f7467666bec936e0661ce3e1
     Pseudo is Ultrasoft + core correction, Zval = 11.0
     Generated by new atomic code, or converted to UPF format
     Using radial grid of  867 points,  6 beta functions with: 
                l(1) =   0
                l(2) =   0
                l(3) =   1
                l(4) =   1
                l(5) =   2
                l(6) =   2
     Q(r) pseudized with  8 coefficients,  rinner =    1.400   1.400   1.400
                                                       1.400   1.400

     PseudoPot. # 2 for C  read from file:
     /home/549/hxw549/Short/pseudopotentials/C.star1s-pbe-mt_gipaw.UPF
     MD5 check sum: ef0cb3dee31bd9e4ba2a832a2c716264
     Pseudo is Norm-conserving, Zval =  5.0
     Generated by new atomic code, or converted to UPF format
     Using radial grid of 1073 points,  1 beta functions with: 
                l(1) =   0

     PseudoPot. # 3 for C  read from file:
     /home/549/hxw549/Short/pseudopotentials/C.pbe-mt_gipaw.UPF
     MD5 check sum: 5ac2f21f2c440b14befe521540822c15
     Pseudo is Norm-conserving, Zval =  4.0
     Generated by new atomic code, or converted to UPF format
     Using radial grid of 1073 points,  1 beta functions with: 
                l(1) =   0

     PseudoPot. # 4 for O  read from file:
     /home/549/hxw549/Short/pseudopotentials/O.pbe-van_gipaw.UPF
     MD5 check sum: 5ce2a047509d4f331db576c963e74b29
     Pseudo is Ultrasoft, Zval =  6.0
     Generated by new atomic code, or converted to UPF format
     Using radial grid of 1095 points,  4 beta functions with: 
                l(1) =   0
                l(2) =   0
                l(3) =   1
                l(4) =   1
     Q(r) pseudized with 0 coefficients 


     PseudoPot. # 5 for H  read from file:
     /home/549/hxw549/Short/pseudopotentials/H.pbe-van_ak.UPF
     MD5 check sum: 077eb6d537518a38cb46c6de387227b7
     Pseudo is Ultrasoft, Zval =  1.0
     Generated by new atomic code, or converted to UPF format
     Using radial grid of  615 points,  1 beta functions with: 
                l(1) =   0
     Q(r) pseudized with  8 coefficients,  rinner =    0.800

     atomic species   valence    mass     pseudopotential
        Cu            11.00    63.54600     Cu( 1.00)
        C_h            5.00    12.01070     C ( 1.00)
        C              4.00    12.01070     C ( 1.00)
        O              6.00    15.99940     O ( 1.00)
        H              1.00     1.00783     H ( 1.00)

     No symmetry found



   Cartesian axes

     site n.     atom                  positions (alat units)
         1           Cu  tau(   1) = (  -0.0000010  -0.0001024   1.0022789  )
         2           Cu  tau(   2) = (   0.2499713   0.2311823   1.0038641  )
         3           Cu  tau(   3) = (   0.5000187  -0.0000102   1.0022435  )
         4           Cu  tau(   4) = (   0.7500479   0.2313483   1.0038007  )
         5           Cu  tau(   5) = (   0.0000300   0.4621000   1.0055436  )
         6           Cu  tau(   6) = (   0.2499650   0.6925731   1.0058001  )
         7           Cu  tau(   7) = (   0.4999888   0.4620838   1.0053487  )
         8           Cu  tau(   8) = (   0.7500523   0.6924399   1.0056451  )
         9           Cu  tau(   9) = (   0.0000114   0.9235503   1.0043122  )
        10           Cu  tau(  10) = (   0.2501402   1.1549292   1.0027968  )
        11           Cu  tau(  11) = (   0.5000046   0.9233410   1.0045263  )
        12           Cu  tau(  12) = (   0.7498804   1.1550328   1.0029445  )
        13           Cu  tau(  13) = (  -0.0000228   1.3863433   1.0022823  )
        14           Cu  tau(  14) = (   0.2499828   1.6173785   1.0023857  )
        15           Cu  tau(  15) = (   0.5000299   1.3866465   1.0025264  )
        16           Cu  tau(  16) = (   0.7500376   1.6173920   1.0023686  )
        17           Cu  tau(  17) = (  -0.0000236   1.8478198   1.0020514  )
        18           Cu  tau(  18) = (   0.2500363   2.0783176   1.0016848  )
        19           Cu  tau(  19) = (   0.5000315   1.8476435   1.0020725  )
        20           Cu  tau(  20) = (   0.7499766   2.0781921   1.0018706  )
        21           Cu  tau(  21) = (   0.0000241   0.2294787   1.2519925  )
        22           Cu  tau(  22) = (   0.2499984  -0.0012855   1.2509174  )
        23           Cu  tau(  23) = (   0.4999982   0.2295650   1.2519102  )
        24           Cu  tau(  24) = (   0.7500182  -0.0009891   1.2505538  )
        25           Cu  tau(  25) = (  -0.0000014   0.6934415   1.2538640  )
        26           Cu  tau(  26) = (   0.2500219   0.4609347   1.2537420  )
        27           Cu  tau(  27) = (   0.5000198   0.6929376   1.2538628  )
        28           Cu  tau(  28) = (   0.7499991   0.4610826   1.2539454  )
        29           Cu  tau(  29) = (   0.0000550   1.1562701   1.2510649  )
        30           Cu  tau(  30) = (   0.2499944   0.9254634   1.2524932  )
        31           Cu  tau(  31) = (   0.4999579   1.1563145   1.2512067  )
        32           Cu  tau(  32) = (   0.7500180   0.9251352   1.2520536  )
        33           Cu  tau(  33) = (  -0.0000720   1.6174352   1.2508712  )
        34           Cu  tau(  34) = (   0.2500623   1.3866600   1.2504887  )
        35           Cu  tau(  35) = (   0.5000631   1.6176824   1.2514710  )
        36           Cu  tau(  36) = (   0.7499327   1.3868483   1.2507741  )
        37           Cu  tau(  37) = (   0.0000341   2.0781175   1.2508375  )
        38           Cu  tau(  38) = (   0.2499944   1.8482083   1.2510809  )
        39           Cu  tau(  39) = (   0.4999676   2.0781786   1.2506167  )
        40           Cu  tau(  40) = (   0.7499739   1.8479960   1.2515254  )
        41           Cu  tau(  41) = (   0.0001455  -0.0015727   1.5014123  )
        42           Cu  tau(  42) = (   0.2502561   0.2276867   1.5020008  )
        43           Cu  tau(  43) = (   0.4998633  -0.0017465   1.5014346  )
        44           Cu  tau(  44) = (   0.7497647   0.2275699   1.5020302  )
        45           Cu  tau(  45) = (  -0.0000808   0.4599442   1.5012320  )
        46           Cu  tau(  46) = (   0.2501152   0.6942862   1.5008699  )
        47           Cu  tau(  47) = (   0.5001029   0.4594036   1.5021937  )
        48           Cu  tau(  48) = (   0.7499002   0.6949743   1.5015443  )
        49           Cu  tau(  49) = (  -0.0000173   0.9272132   1.5017899  )
        50           Cu  tau(  50) = (   0.2497716   1.1581170   1.5023581  )
        51           Cu  tau(  51) = (   0.4999962   0.9265888   1.5010278  )
        52           Cu  tau(  52) = (   0.7501104   1.1571315   1.5010232  )
        53           Cu  tau(  53) = (   0.0002076   1.3872933   1.5013991  )
        54           Cu  tau(  54) = (   0.2498991   1.6171582   1.5003549  )
        55           Cu  tau(  55) = (   0.4997718   1.3871344   1.5017869  )
        56           Cu  tau(  56) = (   0.7498383   1.6169006   1.5013893  )
        57           Cu  tau(  57) = (   0.0001856   1.8477791   1.5016190  )
        58           Cu  tau(  58) = (   0.2500113   2.0779770   1.5026789  )
        59           Cu  tau(  59) = (   0.4995797   1.8491069   1.5021285  )
        60           Cu  tau(  60) = (   0.7499479   2.0790477   1.5013895  )
        61           Cu  tau(  61) = (  -0.0000386   0.2278754   1.7510298  )
        62           Cu  tau(  62) = (   0.2505319  -0.0023266   1.7549060  )
        63           Cu  tau(  63) = (   0.5000354   0.2249402   1.7544988  )
        64           Cu  tau(  64) = (   0.7494197  -0.0024889   1.7547750  )
        65           Cu  tau(  65) = (  -0.0003151   0.6935445   1.7464205  )
        66           Cu  tau(  66) = (   0.2509039   0.4614469   1.7464249  )
        67           Cu  tau(  67) = (   0.5002931   0.6946302   1.7477193  )
        68           Cu  tau(  68) = (   0.7491007   0.4614201   1.7465820  )
        69           Cu  tau(  69) = (  -0.0007486   1.1583339   1.7533203  )
        70           Cu  tau(  70) = (   0.2497893   0.9263562   1.7500184  )
        71           Cu  tau(  71) = (   0.4998676   1.1567063   1.7513274  )
        72           Cu  tau(  72) = (   0.7499614   0.9286559   1.7526686  )
        73           Cu  tau(  73) = (   0.0003664   1.6176392   1.7529776  )
        74           Cu  tau(  74) = (   0.2491370   1.3908118   1.7550965  )
        75           Cu  tau(  75) = (   0.4982605   1.6188255   1.7513443  )
        76           Cu  tau(  76) = (   0.7504376   1.3869172   1.7522692  )
        77           Cu  tau(  77) = (   0.0002472   2.0785818   1.7517455  )
        78           Cu  tau(  78) = (   0.2497267   1.8448973   1.7535166  )
        79           Cu  tau(  79) = (   0.4994625   2.0805854   1.7551097  )
        80           Cu  tau(  80) = (   0.7493179   1.8481564   1.7487732  )
        81           Cu  tau(  81) = (   0.0000938  -0.0008809   2.0024122  )
        82           Cu  tau(  82) = (   0.2496195   0.2348097   1.9922287  )
        83           Cu  tau(  83) = (   0.4996440  -0.0035721   2.0185191  )
        84           Cu  tau(  84) = (   0.7503174   0.2346042   1.9922861  )
        85           Cu  tau(  85) = (  -0.0001377   0.4639782   1.9914810  )
        86           Cu  tau(  86) = (   0.2505908   0.6919253   1.9920756  )
        87           Cu  tau(  87) = (   0.5000661   0.4631461   1.9932354  )
        88           Cu  tau(  88) = (   0.7491926   0.6923691   1.9923336  )
        89           Cu  tau(  89) = (   0.0001299   0.9210736   1.9926587  )
        90           Cu  tau(  90) = (   0.2480087   1.1566755   1.9961116  )
        91           Cu  tau(  91) = (   0.4990206   0.9238576   1.9953170  )
        92           Cu  tau(  92) = (   0.7489928   1.1579333   2.0080728  )
        93           Cu  tau(  93) = (  -0.0030141   1.3883374   2.0011145  )
        94           Cu  tau(  94) = (   0.2474854   1.6206900   2.0178155  )
        95           Cu  tau(  95) = (   0.5009712   1.3881904   1.9929562  )
        96           Cu  tau(  96) = (   0.7476310   1.6200307   1.9991891  )
        97           Cu  tau(  97) = (  -0.0032931   1.8486481   1.9994032  )
        98           Cu  tau(  98) = (   0.2481390   2.0736027   1.9997250  )
        99           Cu  tau(  99) = (   0.5006138   1.8485902   2.0009856  )
       100           Cu  tau( 100) = (   0.7507522   2.0748752   1.9998393  )
       101           C   tau( 101) = (   0.0002171   0.0837632   2.3714569  )
       102           C   tau( 102) = (   0.0000821   0.2790699   2.3822912  )
       103           C   tau( 103) = (   0.1667416  -0.0098782   2.3614647  )
       104           C   tau( 104) = (   0.1664298   0.3763369   2.3843618  )
       105           C   tau( 105) = (   0.3324073   0.0843167   2.3569182  )
       106           C   tau( 106) = (   0.3326502   0.2793528   2.3710095  )
       107           C   tau( 107) = (   0.4999586  -0.0094405   2.3322580  )
       108           C   tau( 108) = (   0.4996077   0.3763868   2.3741208  )
       109           C   tau( 109) = (   0.6673504   0.0842798   2.3570121  )
       110           C   tau( 110) = (   0.6669423   0.2792331   2.3711360  )
       111           C   tau( 111) = (   0.8333003  -0.0093761   2.3616423  )
       112           C   tau( 112) = (   0.8335213   0.3760041   2.3844602  )
       113           C   tau( 113) = (   0.0004241   0.6678936   2.3914045  )
       114           C   tau( 114) = (   0.0011186   0.8622174   2.3833896  )
       115           C   tau( 115) = (   0.1664631   0.5706983   2.3892845  )
       116           C   tau( 116) = (   0.1672733   0.9624145   2.3787111  )
       117           C   tau( 117) = (   0.3327978   0.6689700   2.3841540  )
       118           C   tau( 118) = (   0.3329195   0.8640710   2.3820138  )
       119           C   tau( 119) = (   0.4992873   0.5704632   2.3824652  )
       120           C   tau( 120) = (   0.4992800   0.9620246   2.3775862  )
       121           C   tau( 121) = (   0.6658840   0.6676043   2.3851104  )
       122           C   tau( 122) = (   0.6654059   0.8617797   2.3806581  )
       123           C   tau( 123) = (   0.8333059   0.5706663   2.3895766  )
       124           C   tau( 124) = (   0.8332916   0.9553213   2.3755495  )
       125           C   tau( 125) = (  -0.0029094   1.2456943   2.3569254  )
       126           C   tau( 126) = (   0.1662344   1.1593161   2.3676839  )
       127           C   tau( 127) = (   0.3347763   1.2599897   2.3709115  )
       128           C   tau( 128) = (   0.5013142   1.1584444   2.3710139  )
       129           C   tau( 129) = (   0.6697696   1.2438077   2.3462840  )
       130           C   tau( 130) = (   0.8339219   1.1475180   2.3572071  )
       131           H   tau( 131) = (   0.1657780  -0.1579236   2.3561755  )
       132           H   tau( 132) = (   0.5007107  -0.1572353   2.3427307  )
       133           H   tau( 133) = (   0.8335973  -0.1573939   2.3561490  )
       134           H   tau( 134) = (  -0.0125603   1.3928250   2.3577488  )
       135           H   tau( 135) = (   0.6787069   1.3902961   2.3375865  )
       136           C   tau( 136) = (   0.3301890   1.4575384   2.3677150  )
       137           O   tau( 137) = (   0.2013872   1.5529338   2.3022671  )
       138           O   tau( 138) = (   0.4776108   1.5497922   2.4340058  )
       139           H   tau( 139) = (   0.4576433   1.6785532   2.4021346  )

     number of k points=     6  gaussian smearing, width (Ry)=  0.1000
                       cart. coord. in units 2pi/alat
        k(    1) = (   0.0000000   0.0000000   0.0000000), wk =   0.2500000
        k(    2) = (   0.0000000  -0.2165064   0.0000000), wk =   0.2500000
        k(    3) = (   0.2500000   0.0000000   0.0000000), wk =   0.5000000
        k(    4) = (   0.2500000  -0.2165064   0.0000000), wk =   0.5000000
        k(    5) = (  -0.5000000   0.0000000   0.0000000), wk =   0.2500000
        k(    6) = (  -0.5000000  -0.2165064   0.0000000), wk =   0.2500000

     Dense  grid:  2050409 G-vectors     FFT dimensions: (  80, 192, 270)

     Largest allocated arrays     est. size (Mb)     dimensions
        Kohn-Sham Wavefunctions       104.25 Mb     (    9171,  745)
        NL pseudopotentials           259.31 Mb     (    9171, 1853)
        Each V/rho on FFT grid          2.34 Mb     (  153600)
        Each G-vector array             0.56 Mb     (   73230)
        G-vector shells                 0.27 Mb     (   35784)
     Largest temporary arrays     est. size (Mb)     dimensions
        Auxiliary wavefunctions       417.02 Mb     (    9171, 2980)
        Each subspace H/S matrix       15.05 Mb     (     993,  993)
        Each <psi_i|beta_j> matrix     21.06 Mb     (    1853,  745)
        Arrays for rho mixing          18.75 Mb     (  153600,    8)

     Initial potential from superposition of free atoms
     Check: negative starting charge=   -0.002147

     starting charge 1225.31748, renormalised to 1242.00000

     negative rho (up, down):  2.176E-03 0.000E+00
     Starting wfc are 1162 randomized atomic wfcs

     total cpu time spent up to now is      180.5 secs

     Self-consistent Calculation

     iteration #  1     ecut=    80.00 Ry     beta=0.70
     Davidson diagonalization with overlap
     c_bands:  1 eigenvalues not converged
     ethr =  1.00E-04,  avg # of iterations = 20.0

     negative rho (up, down):  2.896E+01 0.000E+00

     total cpu time spent up to now is     3109.4 secs

     total energy              =   -8325.21145063 Ry
     Harris-Foulkes estimate   =  -14931.60467192 Ry
     estimated scf accuracy    <  144633.57834379 Ry

     iteration #  2     ecut=    80.00 Ry     beta=0.70
     Davidson diagonalization with overlap
     ethr =  1.00E-02,  avg # of iterations = 14.8

     negative rho (up, down):  2.103E+01 0.000E+00

     total cpu time spent up to now is     4801.4 secs

     total energy              =  -12645.26376257 Ry
     Harris-Foulkes estimate   =  -13222.53275686 Ry
     estimated scf accuracy    <    1744.16585664 Ry

     iteration #  3     ecut=    80.00 Ry     beta=0.70
     Davidson diagonalization with overlap
     ethr =  1.00E-02,  avg # of iterations =  4.5

     negative rho (up, down):  1.572E+01 0.000E+00

     total cpu time spent up to now is     5433.4 secs

     total energy              =  -12709.90127954 Ry
     Harris-Foulkes estimate   =  -12792.39582152 Ry
     estimated scf accuracy    <     659.49722541 Ry

     iteration #  4     ecut=    80.00 Ry     beta=0.70
     Davidson diagonalization with overlap
     ethr =  1.00E-02,  avg # of iterations =  3.2

     negative rho (up, down):  1.576E+01 0.000E+00

     total cpu time spent up to now is     5898.0 secs

     total energy              =  -12748.54887316 Ry
     Harris-Foulkes estimate   =  -12746.74715055 Ry
     estimated scf accuracy    <    1205.99014316 Ry

     iteration #  5     ecut=    80.00 Ry     beta=0.70
     Davidson diagonalization with overlap
     ethr =  1.00E-02,  avg # of iterations =  1.8

     negative rho (up, down):  1.259E+01 0.000E+00

     total cpu time spent up to now is     6221.1 secs

     total energy              =  -12719.24995910 Ry
     Harris-Foulkes estimate   =  -12749.71512566 Ry
     estimated scf accuracy    <    1349.13685759 Ry

     iteration #  6     ecut=    80.00 Ry     beta=0.70
     Davidson diagonalization with overlap
     ethr =  1.00E-02,  avg # of iterations =  3.8

     negative rho (up, down):  7.615E+00 0.000E+00

     total cpu time spent up to now is     6636.2 secs

     total energy              =  -12674.10399146 Ry
     Harris-Foulkes estimate   =  -12746.12475030 Ry
     estimated scf accuracy    <    1591.39257226 Ry

     iteration #  7     ecut=    80.00 Ry     beta=0.70
     Davidson diagonalization with overlap
     ethr =  1.00E-02,  avg # of iterations =  4.0

     negative rho (up, down):  6.264E+00 0.000E+00

     total cpu time spent up to now is     7012.9 secs

     total energy              =  -12678.70017451 Ry
     Harris-Foulkes estimate   =  -12716.10695460 Ry
     estimated scf accuracy    <     540.42710439 Ry

     iteration #  8     ecut=    80.00 Ry     beta=0.70
     Davidson diagonalization with overlap
     ethr =  1.00E-02,  avg # of iterations =  4.5

     negative rho (up, down):  5.221E+00 0.000E+00

     total cpu time spent up to now is     7409.0 secs

     total energy              =  -12661.49820074 Ry
     Harris-Foulkes estimate   =  -12683.45743805 Ry
     estimated scf accuracy    <     372.53441957 Ry

     iteration #  9     ecut=    80.00 Ry     beta=0.70
     Davidson diagonalization with overlap
     ethr =  1.00E-02,  avg # of iterations =  1.0

     negative rho (up, down):  4.371E+00 0.000E+00

     total cpu time spent up to now is     7716.8 secs

     total energy              =  -12651.97684360 Ry
     Harris-Foulkes estimate   =  -12664.82187447 Ry
     estimated scf accuracy    <     243.79851532 Ry

     iteration # 10     ecut=    80.00 Ry     beta=0.70
     Davidson diagonalization with overlap
     ethr =  1.00E-02,  avg # of iterations =  1.0

     negative rho (up, down):  2.283E+00 0.000E+00

     total cpu time spent up to now is     8025.8 secs

     total energy              =  -12590.16710456 Ry
     Harris-Foulkes estimate   =  -12655.44991687 Ry
     estimated scf accuracy    <     217.21826477 Ry

     iteration # 11     ecut=    80.00 Ry     beta=0.70
     Davidson diagonalization with overlap
     ethr =  1.00E-02,  avg # of iterations =  2.2

     negative rho (up, down):  3.373E+00 0.000E+00

     total cpu time spent up to now is     8356.4 secs

     total energy              =  -12581.70010049 Ry
     Harris-Foulkes estimate   =  -12612.87431970 Ry
     estimated scf accuracy    <     518.57472296 Ry

     iteration # 12     ecut=    80.00 Ry     beta=0.70
     Davidson diagonalization with overlap
     ethr =  1.00E-02,  avg # of iterations =  2.0

     negative rho (up, down):  7.324E+00 0.000E+00

     total cpu time spent up to now is     8683.3 secs

     total energy              =  -12586.44885412 Ry
     Harris-Foulkes estimate   =  -12597.32027329 Ry
     estimated scf accuracy    <      64.05943567 Ry

     iteration # 13     ecut=    80.00 Ry     beta=0.70
     Davidson diagonalization with overlap
     ethr =  5.16E-03,  avg # of iterations =  1.8

     negative rho (up, down):  6.928E+00 0.000E+00

     total cpu time spent up to now is     9005.8 secs

     total energy              =  -12585.39948929 Ry
     Harris-Foulkes estimate   =  -12589.89911071 Ry
     estimated scf accuracy    <      30.16587419 Ry

     iteration # 14     ecut=    80.00 Ry     beta=0.70
     Davidson diagonalization with overlap
     ethr =  2.43E-03,  avg # of iterations =  2.0

     negative rho (up, down):  7.404E+00 0.000E+00

     total cpu time spent up to now is     9331.3 secs

     total energy              =  -12584.84606576 Ry
     Harris-Foulkes estimate   =  -12587.07200618 Ry
     estimated scf accuracy    <      25.58769725 Ry

     iteration # 15     ecut=    80.00 Ry     beta=0.70
     Davidson diagonalization with overlap
     ethr =  2.06E-03,  avg # of iterations =  1.8

     negative rho (up, down):  5.564E+00 0.000E+00

     total cpu time spent up to now is     9654.0 secs

     total energy              =  -12582.98185637 Ry
     Harris-Foulkes estimate   =  -12585.37866448 Ry
     estimated scf accuracy    <      15.96969915 Ry

     iteration # 16     ecut=    80.00 Ry     beta=0.70
     Davidson diagonalization with overlap
     ethr =  1.29E-03,  avg # of iterations =  5.7

     negative rho (up, down):  5.208E+00 0.000E+00

     total cpu time spent up to now is    10052.6 secs

     total energy              =  -12582.14433823 Ry
     Harris-Foulkes estimate   =  -12583.55691563 Ry
     estimated scf accuracy    <      21.35814735 Ry

     iteration # 17     ecut=    80.00 Ry     beta=0.70
     Davidson diagonalization with overlap
     ethr =  1.29E-03,  avg # of iterations =  5.5

     negative rho (up, down):  3.758E+00 0.000E+00

     total cpu time spent up to now is    10456.9 secs

     total energy              =  -12581.21367751 Ry
     Harris-Foulkes estimate   =  -12582.62440065 Ry
     estimated scf accuracy    <      12.32112498 Ry

     iteration # 18     ecut=    80.00 Ry     beta=0.70
     Davidson diagonalization with overlap
     ethr =  9.92E-04,  avg # of iterations =  1.7

     negative rho (up, down):  8.945E-01 0.000E+00

     total cpu time spent up to now is    10777.5 secs

     total energy              =  -12578.65539586 Ry
     Harris-Foulkes estimate   =  -12581.43835839 Ry
     estimated scf accuracy    <       9.76410856 Ry

     iteration # 19     ecut=    80.00 Ry     beta=0.70
     Davidson diagonalization with overlap
     ethr =  7.86E-04,  avg # of iterations =  6.0

     negative rho (up, down):  5.995E-01 0.000E+00

     total cpu time spent up to now is    11188.9 secs

     total energy              =  -12578.54186149 Ry
     Harris-Foulkes estimate   =  -12579.00826890 Ry
     estimated scf accuracy    <      10.40803311 Ry

     iteration # 20     ecut=    80.00 Ry     beta=0.70
     Davidson diagonalization with overlap
     ethr =  7.86E-04,  avg # of iterations =  1.2

     negative rho (up, down):  6.812E-01 0.000E+00

     total cpu time spent up to now is    11500.0 secs

     total energy              =  -12577.54694851 Ry
     Harris-Foulkes estimate   =  -12578.63637995 Ry
     estimated scf accuracy    <       6.52141992 Ry

     iteration # 21     ecut=    80.00 Ry     beta=0.70
     Davidson diagonalization with overlap
     ethr =  5.25E-04,  avg # of iterations =  4.7

     negative rho (up, down):  4.712E-01 0.000E+00

     total cpu time spent up to now is    11878.3 secs

     total energy              =  -12577.51230699 Ry
     Harris-Foulkes estimate   =  -12577.71628809 Ry
     estimated scf accuracy    <      11.80403574 Ry

     iteration # 22     ecut=    80.00 Ry     beta=0.70
     Davidson diagonalization with overlap
     ethr =  5.25E-04,  avg # of iterations =  1.5

     negative rho (up, down):  6.170E-01 0.000E+00

     total cpu time spent up to now is    12195.8 secs

     total energy              =  -12576.85721499 Ry
     Harris-Foulkes estimate   =  -12577.62351816 Ry
     estimated scf accuracy    <       8.10486077 Ry

     iteration # 23     ecut=    80.00 Ry     beta=0.70
     Davidson diagonalization with overlap
     ethr =  5.25E-04,  avg # of iterations =  1.5

     negative rho (up, down):  3.293E-01 0.000E+00

     total cpu time spent up to now is    12513.9 secs

     total energy              =  -12575.91575763 Ry
     Harris-Foulkes estimate   =  -12577.02815062 Ry
     estimated scf accuracy    <      10.00061104 Ry

     iteration # 24     ecut=    80.00 Ry     beta=0.70
     Davidson diagonalization with overlap
     ethr =  5.25E-04,  avg # of iterations =  1.8

     negative rho (up, down):  6.881E-01 0.000E+00

     total cpu time spent up to now is    12837.9 secs

     total energy              =  -12575.55777240 Ry
     Harris-Foulkes estimate   =  -12576.29600409 Ry
     estimated scf accuracy    <       4.91924445 Ry

     iteration # 25     ecut=    80.00 Ry     beta=0.70
     Davidson diagonalization with overlap
     ethr =  3.96E-04,  avg # of iterations =  7.8

     negative rho (up, down):  7.863E-01 0.000E+00

     total cpu time spent up to now is    13315.5 secs

     total energy              =  -12575.49701164 Ry
     Harris-Foulkes estimate   =  -12575.77561520 Ry
     estimated scf accuracy    <       1.77205252 Ry

     iteration # 26     ecut=    80.00 Ry     beta=0.70
     Davidson diagonalization with overlap
     ethr =  1.43E-04,  avg # of iterations =  6.7

     negative rho (up, down):  4.287E-01 0.000E+00

     total cpu time spent up to now is    13811.9 secs

     total energy              =  -12575.51231952 Ry
     Harris-Foulkes estimate   =  -12575.67518126 Ry
     estimated scf accuracy    <       0.72100901 Ry

     iteration # 27     ecut=    80.00 Ry     beta=0.70
     Davidson diagonalization with overlap
     ethr =  5.81E-05,  avg # of iterations = 14.7

     negative rho (up, down):  4.529E-01 0.000E+00

     total cpu time spent up to now is    14451.6 secs

     total energy              =  -12575.54389052 Ry
     Harris-Foulkes estimate   =  -12575.59747312 Ry
     estimated scf accuracy    <       0.46226140 Ry

     iteration # 28     ecut=    80.00 Ry     beta=0.70
     Davidson diagonalization with overlap
     ethr =  3.72E-05,  avg # of iterations =  7.2

     negative rho (up, down):  4.050E-01 0.000E+00

     total cpu time spent up to now is    14925.5 secs

     total energy              =  -12575.54661907 Ry
     Harris-Foulkes estimate   =  -12575.56579887 Ry
     estimated scf accuracy    <       0.23008948 Ry

     iteration # 29     ecut=    80.00 Ry     beta=0.70
     Davidson diagonalization with overlap
     ethr =  1.85E-05,  avg # of iterations =  6.5

     negative rho (up, down):  2.570E-01 0.000E+00

     total cpu time spent up to now is    15372.8 secs

     total energy              =  -12575.53136975 Ry
     Harris-Foulkes estimate   =  -12575.55609329 Ry
     estimated scf accuracy    <       0.11156719 Ry

     iteration # 30     ecut=    80.00 Ry     beta=0.70
     Davidson diagonalization with overlap
     ethr =  8.98E-06,  avg # of iterations = 13.5

     negative rho (up, down):  9.736E-02 0.000E+00

     total cpu time spent up to now is    16002.7 secs

     total energy              =  -12575.52480875 Ry
     Harris-Foulkes estimate   =  -12575.53754346 Ry
     estimated scf accuracy    <       0.04643817 Ry

     iteration # 31     ecut=    80.00 Ry     beta=0.70
     Davidson diagonalization with overlap
     ethr =  3.74E-06,  avg # of iterations = 12.3

     negative rho (up, down):  8.365E-02 0.000E+00

     total cpu time spent up to now is    16629.3 secs

     total energy              =  -12575.52704911 Ry
     Harris-Foulkes estimate   =  -12575.53188975 Ry
     estimated scf accuracy    <       0.02921974 Ry

     iteration # 32     ecut=    80.00 Ry     beta=0.70
     Davidson diagonalization with overlap
     ethr =  2.35E-06,  avg # of iterations =  3.3

     negative rho (up, down):  3.732E-02 0.000E+00

     total cpu time spent up to now is    16998.7 secs

     total energy              =  -12575.52913477 Ry
     Harris-Foulkes estimate   =  -12575.52968030 Ry
     estimated scf accuracy    <       0.00401396 Ry

     iteration # 33     ecut=    80.00 Ry     beta=0.70
     Davidson diagonalization with overlap
     ethr =  3.23E-07,  avg # of iterations = 12.5

     negative rho (up, down):  2.588E-02 0.000E+00

     total cpu time spent up to now is    17596.3 secs

     total energy              =  -12575.52916298 Ry
     Harris-Foulkes estimate   =  -12575.52942552 Ry
     estimated scf accuracy    <       0.00149800 Ry

     iteration # 34     ecut=    80.00 Ry     beta=0.70
     Davidson diagonalization with overlap
     ethr =  1.21E-07,  avg # of iterations =  7.2

     negative rho (up, down):  1.294E-02 0.000E+00

     total cpu time spent up to now is    18067.4 secs

     total energy              =  -12575.52914236 Ry
     Harris-Foulkes estimate   =  -12575.52937561 Ry
     estimated scf accuracy    <       0.00117653 Ry

     iteration # 35     ecut=    80.00 Ry     beta=0.70
     Davidson diagonalization with overlap
     c_bands:  1 eigenvalues not converged
     ethr =  9.47E-08,  avg # of iterations = 11.5

     negative rho (up, down):  1.057E-02 0.000E+00

     total cpu time spent up to now is    18634.3 secs

     total energy              =  -12575.52920635 Ry
     Harris-Foulkes estimate   =  -12575.52923456 Ry
     estimated scf accuracy    <       0.00042557 Ry

     iteration # 36     ecut=    80.00 Ry     beta=0.70
     Davidson diagonalization with overlap
     c_bands:  1 eigenvalues not converged
     ethr =  3.43E-08,  avg # of iterations =  9.0

     negative rho (up, down):  5.182E-03 0.000E+00

     total cpu time spent up to now is    19131.6 secs

     total energy              =  -12575.52923967 Ry
     Harris-Foulkes estimate   =  -12575.52923353 Ry
     estimated scf accuracy    <       0.00014032 Ry

     iteration # 37     ecut=    80.00 Ry     beta=0.70
     Davidson diagonalization with overlap
     ethr =  1.13E-08,  avg # of iterations = 10.8

     negative rho (up, down):  3.346E-03 0.000E+00

     total cpu time spent up to now is    19702.1 secs

     total energy              =  -12575.52922661 Ry
     Harris-Foulkes estimate   =  -12575.52925345 Ry
     estimated scf accuracy    <       0.00003408 Ry

     iteration # 38     ecut=    80.00 Ry     beta=0.70
     Davidson diagonalization with overlap
     ethr =  2.74E-09,  avg # of iterations =  6.0

     negative rho (up, down):  2.454E-03 0.000E+00

     total cpu time spent up to now is    20122.0 secs

     total energy              =  -12575.52922408 Ry
     Harris-Foulkes estimate   =  -12575.52923052 Ry
     estimated scf accuracy    <       0.00001153 Ry

     iteration # 39     ecut=    80.00 Ry     beta=0.70
     Davidson diagonalization with overlap
     ethr =  9.29E-10,  avg # of iterations =  8.3

     negative rho (up, down):  2.485E-03 0.000E+00

     total cpu time spent up to now is    20633.1 secs

     total energy              =  -12575.52922638 Ry
     Harris-Foulkes estimate   =  -12575.52922583 Ry
     estimated scf accuracy    <       0.00000427 Ry

     iteration # 40     ecut=    80.00 Ry     beta=0.70
     Davidson diagonalization with overlap
     ethr =  3.44E-10,  avg # of iterations =  3.0

     negative rho (up, down):  2.287E-03 0.000E+00

     total cpu time spent up to now is    21007.6 secs

     total energy              =  -12575.52922695 Ry
     Harris-Foulkes estimate   =  -12575.52922698 Ry
     estimated scf accuracy    <       0.00000129 Ry

     iteration # 41     ecut=    80.00 Ry     beta=0.70
     Davidson diagonalization with overlap
     ethr =  1.03E-10,  avg # of iterations =  3.0

     negative rho (up, down):  2.242E-03 0.000E+00

     total cpu time spent up to now is    21378.8 secs

     total energy              =  -12575.52922734 Ry
     Harris-Foulkes estimate   =  -12575.52922711 Ry
     estimated scf accuracy    <       0.00000055 Ry

     iteration # 42     ecut=    80.00 Ry     beta=0.70
     Davidson diagonalization with overlap
     ethr =  4.43E-11,  avg # of iterations =  3.0

     negative rho (up, down):  2.183E-03 0.000E+00

     total cpu time spent up to now is    21754.8 secs

     total energy              =  -12575.52922762 Ry
     Harris-Foulkes estimate   =  -12575.52922741 Ry
     estimated scf accuracy    <       0.00000026 Ry

     iteration # 43     ecut=    80.00 Ry     beta=0.70
     Davidson diagonalization with overlap
     ethr =  2.11E-11,  avg # of iterations =  3.5

     negative rho (up, down):  2.173E-03 0.000E+00

     total cpu time spent up to now is    22131.7 secs

     total energy              =  -12575.52922773 Ry
     Harris-Foulkes estimate   =  -12575.52922765 Ry
     estimated scf accuracy    <       0.00000005 Ry

     iteration # 44     ecut=    80.00 Ry     beta=0.70
     Davidson diagonalization with overlap
     ethr =  3.70E-12,  avg # of iterations =  3.0

     negative rho (up, down):  2.174E-03 0.000E+00

     total cpu time spent up to now is    22573.8 secs

     total energy              =  -12575.52922777 Ry
     Harris-Foulkes estimate   =  -12575.52922774 Ry
     estimated scf accuracy    <       0.00000004 Ry

     iteration # 45     ecut=    80.00 Ry     beta=0.70
     Davidson diagonalization with overlap
     ethr =  3.26E-12,  avg # of iterations =  2.8

     negative rho (up, down):  2.169E-03 0.000E+00

     total cpu time spent up to now is    22934.4 secs

     total energy              =  -12575.52922780 Ry
     Harris-Foulkes estimate   =  -12575.52922778 Ry
     estimated scf accuracy    <       0.00000002 Ry

     iteration # 46     ecut=    80.00 Ry     beta=0.70
     Davidson diagonalization with overlap
     ethr =  1.36E-12,  avg # of iterations =  2.0

     negative rho (up, down):  2.163E-03 0.000E+00

     total cpu time spent up to now is    23260.0 secs

     End of self-consistent calculation

          k = 0.0000 0.0000 0.0000 (256287 PWs)   bands (ev):

   -20.5489 -18.0622 -16.2179 -15.6415 -14.7211 -14.2613 -14.2518 -13.7295
   -13.6765 -13.5029 -12.8601 -12.7932 -12.1291 -11.7307 -11.6032 -10.5454
   -10.2608  -9.6806  -9.1390  -8.9792  -8.6809  -8.2326  -8.1310  -7.4852
    -7.3972  -7.3182  -7.0206  -6.9096  -6.4133  -6.2705  -6.1526  -5.9001
    -5.6831  -5.6210  -5.6145  -5.5850  -5.3602  -5.2232  -5.1556  -5.0285
    -4.6991  -4.6854  -4.4900  -4.4271  -4.3191  -4.1309  -4.1206  -4.0552
    -3.8559  -3.7803  -3.5392  -3.5373  -3.4010  -3.2774  -3.2032  -3.1523
    -3.1424  -3.1397  -3.1369  -3.1332  -3.1200  -3.0996  -3.0821  -3.0671
    -2.9254  -2.8486  -2.8418  -2.7856  -2.7360  -2.7278  -2.7114  -2.6269
    -2.4928  -2.4709  -2.4650  -2.4622  -2.3977  -2.3319  -2.3265  -2.3005
    -2.2919  -2.2878  -2.2871  -2.2847  -2.2822  -2.1609  -2.1594  -2.1515
    -2.1506  -2.0898  -2.0383  -2.0006  -1.9775  -1.9708  -1.9119  -1.8772
    -1.8764  -1.8718  -1.8620  -1.8412  -1.8134  -1.8059  -1.8019  -1.7869
    -1.7817  -1.7545  -1.7462  -1.7095  -1.7071  -1.7042  -1.6894  -1.6851
    -1.6548  -1.6487  -1.6404  -1.6238  -1.6194  -1.5856  -1.5804  -1.5490
    -1.5299  -1.5053  -1.4931  -1.4868  -1.4402  -1.4281  -1.4110  -1.4045
    -1.3926  -1.3824  -1.3472  -1.3447  -1.3284  -1.3222  -1.3040  -1.2965
    -1.2398  -1.2367  -1.2004  -1.1883  -1.1867  -1.1743  -1.1707  -1.1671
    -1.1658  -1.1614  -1.1608  -1.1560  -1.1548  -1.1417  -1.1377  -1.1363
    -1.1314  -1.1253  -1.0879  -1.0801  -1.0776  -1.0718  -1.0621  -1.0551
    -1.0542  -1.0527  -1.0210  -1.0048  -0.9991  -0.9947  -0.9921  -0.9909
    -0.9901  -0.9887  -0.9852  -0.9840  -0.9829  -0.9815  -0.9812  -0.9757
    -0.9742  -0.9734  -0.9615  -0.9398  -0.9123  -0.8602  -0.8311  -0.8229
    -0.8180  -0.8169  -0.8102  -0.8013  -0.7912  -0.7783  -0.7761  -0.7631
    -0.7521  -0.7416  -0.7358  -0.7329  -0.7314  -0.7262  -0.7015  -0.7012
    -0.6956  -0.6932  -0.6920  -0.6890  -0.6840  -0.6786  -0.6327  -0.6231
    -0.5977  -0.5770  -0.5757  -0.5700  -0.5667  -0.5629  -0.5596  -0.5513
    -0.5454  -0.5437  -0.5423  -0.5397  -0.5371  -0.5356  -0.5354  -0.5270
    -0.5228  -0.5209  -0.5202  -0.5180  -0.5069  -0.4870  -0.4824  -0.4801
    -0.4467  -0.4340  -0.4307  -0.4305  -0.4268  -0.4057  -0.4056  -0.3988
    -0.3980  -0.3910  -0.3895  -0.3849  -0.3807  -0.3784  -0.3647  -0.3622
    -0.3599  -0.3589  -0.3557  -0.3534  -0.3487  -0.3479  -0.3474  -0.3463
    -0.3337  -0.3323  -0.3253  -0.3215  -0.3194  -0.3068  -0.2876  -0.2651
    -0.2591  -0.2577  -0.2551  -0.2488  -0.2277  -0.2223  -0.2117  -0.2097
    -0.2049  -0.1999  -0.1995  -0.1973  -0.1959  -0.1949  -0.1685  -0.1553
    -0.1538  -0.1518  -0.1455  -0.1394  -0.1366  -0.1339  -0.1184  -0.1160
    -0.1107  -0.1084  -0.1024  -0.0999  -0.0938  -0.0914  -0.0908  -0.0860
    -0.0808  -0.0792  -0.0789  -0.0766  -0.0745  -0.0692  -0.0549  -0.0514
    -0.0388  -0.0347  -0.0208  -0.0066  -0.0021   0.0090   0.0162   0.0296
     0.0506   0.0581   0.0827   0.0901   0.0922   0.0934   0.1034   0.1096
     0.1106   0.1147   0.1247   0.1282   0.1371   0.1399   0.1502   0.1578
     0.1661   0.1910   0.1953   0.1971   0.1989   0.2026   0.2097   0.2151
     0.2236   0.2307   0.2362   0.2414   0.2472   0.2502   0.2706   0.2775
     0.2869   0.2877   0.2973   0.3010   0.3063   0.3103   0.3341   0.3382
     0.3484   0.3506   0.3519   0.3637   0.3652   0.3701   0.3735   0.3756
     0.3774   0.3850   0.3885   0.3900   0.3950   0.3969   0.3983   0.4055
     0.4083   0.4095   0.4125   0.4150   0.4172   0.4291   0.4307   0.4383
     0.4614   0.4624   0.4636   0.4653   0.4747   0.4778   0.4853   0.5032
     0.5063   0.5084   0.5096   0.5136   0.5148   0.5173   0.5186   0.5322
     0.5343   0.5404   0.5430   0.5462   0.5481   0.5495   0.5562   0.5580
     0.5606   0.5624   0.5773   0.5851   0.5876   0.5945   0.5952   0.6001
     0.6053   0.6054   0.6064   0.6150   0.6159   0.6204   0.6236   0.6294
     0.6523   0.6666   0.6671   0.6748   0.6768   0.6778   0.6859   0.6872
     0.6895   0.7145   0.7169   0.7249   0.7286   0.7382   0.7386   0.7476
     0.7499   0.7542   0.7553   0.7601   0.7639   0.7695   0.7777   0.7829
     0.7855   0.7912   0.7962   0.7991   0.8028   0.8088   0.8149   0.8205
     0.8328   0.8397   0.8412   0.8455   0.8483   0.8574   0.8644   0.8659
     0.8695   0.8718   0.8726   0.8748   0.8791   0.8805   0.8843   0.8931
     0.8938   0.8973   0.8993   0.9025   0.9083   0.9164   0.9258   0.9274
     0.9349   0.9427   0.9429   0.9476   0.9566   0.9597   0.9656   0.9691
     0.9711   0.9732   0.9741   0.9746   0.9776   0.9794   0.9905   0.9922
     0.9970   1.0016   1.0123   1.0238   1.0346   1.0372   1.0536   1.0559
     1.0597   1.0631   1.0655   1.0678   1.0697   1.0731   1.0770   1.0827
     1.0836   1.0949   1.0954   1.0986   1.0995   1.1041   1.1105   1.1132
     1.1168   1.1191   1.1234   1.1304   1.1345   1.1366   1.1384   1.1430
     1.1437   1.1492   1.1513   1.1533   1.1585   1.1611   1.1634   1.1675
     1.1702   1.1718   1.1734   1.1741   1.1785   1.1887   1.1922   1.2012
     1.2075   1.2107   1.2111   1.2163   1.2197   1.2255   1.2292   1.2404
     1.2461   1.2485   1.2530   1.2630   1.2662   1.2682   1.2707   1.2716
     1.2759   1.2814   1.2837   1.2870   1.2902   1.2938   1.2978   1.3010
     1.3045   1.3091   1.3103   1.3114   1.3192   1.3237   1.3265   1.3292
     1.3310   1.3344   1.3392   1.3407   1.3458   1.3497   1.3764   1.3807
     1.3884   1.4155   1.4172   1.4236   1.4289   1.4318   1.4433   1.4446
     1.4569   1.4642   1.4712   1.4841   1.4898   1.4917   1.5002   1.5054
     1.5074   1.5151   1.5233   1.7500   1.8144   1.8696   1.9272   1.9468
     1.9816   2.0164   2.0510   2.0644   2.0711   2.0715   2.0779   2.0870
     2.0994   2.1412   2.1790   2.2762   2.3072   2.3196   2.3292   2.3379
     2.3399   2.3723   2.3834   2.5706   2.5931   2.6043   2.6506   3.0107
     3.3312   3.3504   3.3955   3.5264   3.6326   3.6572   3.6956   3.7043
     3.7241   3.7398   3.7761   3.7976   3.8249   3.8405   3.8543   3.8675
     3.8834   3.8928   3.9380   3.9616   4.0756   4.0958   4.1410   4.2092
     4.3432   4.5563   4.6460   4.8131   5.0128   5.1078   5.1439   5.2824
     5.4238   5.4800   5.5342   5.6182   5.6720   5.7396   5.8000   5.8478
     6.0159   6.1441   6.1982   6.2560   6.2926   6.3248   6.3366   6.3912
     6.4695   6.5413   6.5621   6.5757   6.5954   6.6186   6.6579   6.7836
     6.8692   6.8963   6.9203   6.9657   6.9958   7.1191   7.2077   7.2150
     7.2863   7.3390   7.4455   7.4988   7.5118   7.5357   7.5494   7.5708
     7.5889   7.6732   7.7573   7.8131   7.9487   7.9826   7.9845   8.0215
     8.0383   8.1528   8.1946   8.2020   8.2098   8.2598   8.2767   8.3243
     8.3944   8.4054   8.4156   8.4626   8.4982   8.5233   8.5567   8.5674
     8.6531   8.6599   8.6872   8.6972   8.7588   8.7834   8.8186   8.8405
     8.8802   8.9123   8.9562   8.9997   9.0175   9.0716   9.1831   9.1931
     9.2236   9.3146   9.3622   9.4257   9.4373   9.4608   9.5579   9.6190
     9.6337

          k = 0.0000-0.2165 0.0000 (256176 PWs)   bands (ev):

   -20.5489 -18.0622 -16.2179 -15.6414 -14.7212 -14.2613 -14.2518 -13.7295
   -13.6765 -13.5027 -12.8602 -12.7933 -12.1294 -11.7305 -11.6032 -10.5456
   -10.2609  -9.6788  -9.1398  -8.9792  -8.6833  -8.2324  -8.1315  -7.4831
    -7.3972  -7.3168  -7.0202  -6.9101  -6.4128  -6.2708  -6.0266  -6.0121
    -5.9016  -5.6707  -5.5944  -5.3606  -5.2230  -5.1001  -5.0338  -4.9920
    -4.9657  -4.9186  -4.5379  -4.4439  -4.4037  -4.2317  -4.0178  -3.9106
    -3.7888  -3.6906  -3.4454  -3.4429  -3.4260  -3.4190  -3.2653  -3.2278
    -3.1898  -3.1710  -3.1579  -3.1225  -3.0971  -3.0907  -3.0573  -3.0038
    -2.7922  -2.7304  -2.7269  -2.7210  -2.7145  -2.7133  -2.6966  -2.6943
    -2.6264  -2.5941  -2.5788  -2.4320  -2.3997  -2.3844  -2.3555  -2.3162
    -2.3078  -2.2844  -2.2780  -2.2667  -2.2646  -2.2540  -2.1209  -2.1205
    -2.0964  -2.0962  -2.0531  -2.0184  -1.9882  -1.9758  -1.9220  -1.9038
    -1.8972  -1.8833  -1.8775  -1.8765  -1.8686  -1.8615  -1.8505  -1.8340
    -1.8155  -1.8054  -1.7798  -1.7735  -1.7529  -1.7365  -1.6382  -1.5948
    -1.5939  -1.5866  -1.5853  -1.5249  -1.5183  -1.5069  -1.5055  -1.4534
    -1.4491  -1.4335  -1.4149  -1.4144  -1.4101  -1.4075  -1.4032  -1.4012
    -1.3791  -1.3751  -1.3731  -1.3621  -1.3561  -1.3525  -1.3465  -1.3429
    -1.3215  -1.2931  -1.2898  -1.2688  -1.2657  -1.2242  -1.2227  -1.1878
    -1.1848  -1.1829  -1.1806  -1.1567  -1.1362  -1.1287  -1.1269  -1.1198
    -1.1165  -1.1099  -1.1087  -1.1081  -1.0770  -1.0683  -1.0582  -1.0568
    -1.0551  -1.0534  -1.0494  -1.0460  -1.0421  -1.0373  -1.0206  -1.0120
    -0.9740  -0.9670  -0.9655  -0.9583  -0.9547  -0.9467  -0.9404  -0.9360
    -0.9244  -0.9178  -0.9067  -0.8928  -0.8877  -0.8857  -0.8804  -0.8302
    -0.7983  -0.7977  -0.7898  -0.7807  -0.7759  -0.7679  -0.7671  -0.7460
    -0.7447  -0.7385  -0.7371  -0.7359  -0.7310  -0.7157  -0.7150  -0.6891
    -0.6869  -0.6780  -0.6756  -0.6725  -0.6710  -0.6684  -0.6655  -0.6449
    -0.6434  -0.6328  -0.6251  -0.6249  -0.6058  -0.5903  -0.5881  -0.5875
    -0.5874  -0.5827  -0.5803  -0.5575  -0.5530  -0.5374  -0.5153  -0.5102
    -0.5052  -0.4983  -0.4864  -0.4831  -0.4785  -0.4666  -0.4582  -0.4427
    -0.4403  -0.4355  -0.4307  -0.4286  -0.4252  -0.4177  -0.4169  -0.3988
    -0.3970  -0.3927  -0.3908  -0.3834  -0.3832  -0.3823  -0.3782  -0.3759
    -0.3704  -0.3612  -0.3551  -0.3478  -0.3469  -0.3389  -0.3383  -0.3217
    -0.3092  -0.2857  -0.2826  -0.2790  -0.2757  -0.2731  -0.2724  -0.2666
    -0.2615  -0.2486  -0.2452  -0.2393  -0.2331  -0.2280  -0.2258  -0.2219
    -0.2205  -0.2187  -0.2163  -0.2085  -0.2060  -0.2033  -0.1639  -0.1622
    -0.1604  -0.1580  -0.1569  -0.1538  -0.1401  -0.1307  -0.1297  -0.1242
    -0.1217  -0.1123  -0.1106  -0.1066  -0.1054  -0.0984  -0.0803  -0.0778
    -0.0677  -0.0659  -0.0645  -0.0626  -0.0480  -0.0433  -0.0390  -0.0317
    -0.0287  -0.0226  -0.0196  -0.0171  -0.0111  -0.0051   0.0048   0.0257
     0.0360   0.0421   0.0482   0.0504   0.0549   0.0645   0.0663   0.0719
     0.0797   0.0895   0.1063   0.1240   0.1276   0.1293   0.1404   0.1539
     0.1804   0.1835   0.2150   0.2250   0.2322   0.2405   0.2455   0.2500
     0.2531   0.2649   0.2714   0.2765   0.2876   0.2926   0.2958   0.3005
     0.3040   0.3064   0.3148   0.3158   0.3230   0.3253   0.3319   0.3333
     0.3346   0.3398   0.3432   0.3449   0.3600   0.3643   0.3667   0.3753
     0.3807   0.3828   0.3866   0.3922   0.3933   0.3935   0.3954   0.4027
     0.4085   0.4174   0.4178   0.4200   0.4228   0.4248   0.4322   0.4331
     0.4385   0.4441   0.4454   0.4477   0.4504   0.4557   0.4594   0.4638
     0.4793   0.4812   0.4964   0.5015   0.5108   0.5167   0.5174   0.5216
     0.5255   0.5301   0.5334   0.5352   0.5388   0.5407   0.5419   0.5433
     0.5566   0.5659   0.5751   0.5812   0.5869   0.5898   0.5904   0.5984
     0.6037   0.6058   0.6138   0.6228   0.6236   0.6287   0.6305   0.6346
     0.6392   0.6470   0.6490   0.6787   0.6840   0.6938   0.6995   0.7332
     0.7446   0.7495   0.7506   0.7515   0.7561   0.7604   0.7648   0.7651
     0.7689   0.7724   0.7760   0.7795   0.7833   0.7857   0.7903   0.7950
     0.7963   0.7989   0.8021   0.8086   0.8121   0.8165   0.8199   0.8204
     0.8233   0.8239   0.8250   0.8273   0.8307   0.8345   0.8387   0.8441
     0.8465   0.8470   0.8502   0.8526   0.8530   0.8598   0.8647   0.8706
     0.8731   0.8830   0.8875   0.8895   0.8914   0.8937   0.8963   0.8970
     0.9008   0.9020   0.9064   0.9095   0.9252   0.9425   0.9485   0.9817
     0.9857   0.9923   0.9948   1.0005   1.0096   1.0117   1.0143   1.0265
     1.0276   1.0305   1.0369   1.0391   1.0401   1.0447   1.0460   1.0546
     1.0587   1.0593   1.0602   1.0622   1.0637   1.0662   1.0674   1.0705
     1.0737   1.0743   1.0826   1.0852   1.0891   1.0917   1.0946   1.0963
     1.1007   1.1092   1.1152   1.1215   1.1269   1.1280   1.1297   1.1330
     1.1354   1.1383   1.1401   1.1531   1.1548   1.1564   1.1596   1.1653
     1.1659   1.1707   1.1768   1.1821   1.1838   1.1908   1.1920   1.1954
     1.1997   1.2094   1.2126   1.2144   1.2242   1.2338   1.2372   1.2388
     1.2433   1.2453   1.2490   1.2516   1.2520   1.2555   1.2573   1.2690
     1.2734   1.2805   1.2854   1.2888   1.2917   1.3012   1.3032   1.3077
     1.3094   1.3102   1.3111   1.3132   1.3148   1.3381   1.3412   1.3460
     1.3471   1.3524   1.3679   1.3699   1.3734   1.3766   1.3829   1.3841
     1.3881   1.3898   1.3956   1.4007   1.4133   1.4537   1.4555   1.4590
     1.4721   1.5377   1.5659   1.5881   1.5946   1.6031   1.6126   1.6218
     1.6330   1.6374   1.6501   1.6587   1.6629   1.6759   1.6792   1.6808
     1.6931   1.7101   1.7129   2.0125   2.0945   2.2588   2.2641   2.3037
     2.3093   2.3428   2.3577   2.4232   2.4301   2.4451   2.4511   2.4845
     2.5314   2.5619   2.5632   2.5716   2.6423   2.6490   2.6683   2.7812
     2.7821   3.0193   3.0194   3.0405   3.0561   3.2330   3.3062   3.3938
     3.5038   3.5376   3.6047   3.8819   3.9237   3.9700   4.0061   4.1695
     4.1836   4.1948   4.2038   4.2093   4.3187   4.4423   4.5677   4.5958
     4.6980   4.7498   4.8861   4.9295   4.9697   5.0825   5.1350   5.2093
     5.2128   5.2296   5.2698   5.3156   5.4290   5.5154   5.7213   6.0264
     6.0871   6.1194   6.1817   6.3121   6.3345   6.3909   6.4054   6.4405
     6.4611   6.5283   6.5563   6.6161   6.6550   6.7662   6.8012   6.8495
     6.8825   6.9195   6.9579   6.9597   6.9734   6.9864   7.0002   7.0037
     7.1003   7.1257   7.1950   7.2548   7.2925   7.4242   7.4908   7.5245
     7.5420   7.6580   7.6710   7.7660   7.8124   7.9369   7.9742   8.0286
     8.1224   8.1611   8.2110   8.2243   8.2675   8.3431   8.3788   8.4570
     8.5084   8.5240   8.5502   8.5630   8.5706   8.6284   8.6327   8.6586
     8.6730   8.6991   8.7236   8.7677   8.7830   8.8517   8.8822   8.9466
     9.0338   9.0722   9.1238   9.2191   9.2418   9.2440   9.2785   9.2834
     9.2955   9.3301   9.3972   9.4046   9.4939   9.5465   9.5606   9.6090
     9.6470

          k = 0.2500 0.0000 0.0000 (256240 PWs)   bands (ev):

   -20.5488 -18.0625 -16.0938 -15.5191 -15.1069 -14.6019 -14.5409 -13.6508
   -13.3866 -13.1798 -12.6491 -12.4736 -12.0073 -11.7951 -11.1485 -10.8389
   -10.3360  -9.9723  -9.5465  -9.2030  -9.0026  -8.7819  -8.3535  -7.8138
    -7.3633  -7.1000  -6.7496  -6.4721  -6.3458  -5.9733  -5.9290  -5.7606
    -5.5770  -5.4573  -5.4415  -5.3821  -5.0114  -4.9211  -4.6961  -4.6266
    -4.5865  -4.5450  -4.5083  -4.3116  -4.2172  -4.1487  -4.1322  -4.1127
    -3.9856  -3.9740  -3.9405  -3.8246  -3.7155  -3.6789  -3.6371  -3.6198
    -3.4028  -3.3432  -3.3153  -3.2568  -3.2105  -3.1668  -3.1370  -3.1007
    -3.0426  -3.0251  -2.9358  -2.9327  -2.8295  -2.8014  -2.7449  -2.7295
    -2.6544  -2.5338  -2.4678  -2.4495  -2.4135  -2.2379  -2.2354  -2.2193
    -2.2153  -2.2036  -2.1147  -2.0639  -2.0367  -1.9999  -1.9817  -1.9752
    -1.9624  -1.9387  -1.9382  -1.9325  -1.9269  -1.9242  -1.9083  -1.8888
    -1.8544  -1.8188  -1.8010  -1.7811  -1.7761  -1.7686  -1.7419  -1.7175
    -1.7162  -1.7153  -1.7120  -1.7049  -1.6901  -1.6742  -1.6541  -1.6396
    -1.6352  -1.6319  -1.6309  -1.5554  -1.5068  -1.4997  -1.4692  -1.4650
    -1.4469  -1.4440  -1.3959  -1.3918  -1.3840  -1.3778  -1.3709  -1.3617
    -1.3443  -1.3431  -1.3285  -1.3203  -1.3155  -1.3129  -1.3058  -1.2821
    -1.2778  -1.2726  -1.2667  -1.2632  -1.2515  -1.2485  -1.2447  -1.2398
    -1.2118  -1.2006  -1.1938  -1.1837  -1.1726  -1.1633  -1.1597  -1.1519
    -1.1436  -1.1417  -1.1366  -1.1318  -1.1275  -1.1234  -1.1232  -1.1195
    -1.1151  -1.1125  -1.1111  -1.1085  -1.0985  -1.0884  -1.0818  -1.0646
    -1.0467  -1.0358  -1.0297  -0.9995  -0.9904  -0.9880  -0.9502  -0.9475
    -0.9374  -0.9294  -0.9221  -0.9075  -0.9061  -0.8982  -0.8912  -0.8880
    -0.8832  -0.8789  -0.8760  -0.8643  -0.8602  -0.7900  -0.7587  -0.7457
    -0.7373  -0.7262  -0.7140  -0.7048  -0.7037  -0.6989  -0.6956  -0.6894
    -0.6872  -0.6827  -0.6729  -0.6714  -0.6680  -0.6612  -0.6490  -0.6353
    -0.6271  -0.6249  -0.6228  -0.6197  -0.6087  -0.5987  -0.5975  -0.5930
    -0.5867  -0.5764  -0.5440  -0.5382  -0.5371  -0.5336  -0.5283  -0.5222
    -0.5187  -0.5159  -0.5149  -0.4942  -0.4905  -0.4762  -0.4749  -0.4721
    -0.4617  -0.4368  -0.4340  -0.4302  -0.4290  -0.4220  -0.4182  -0.4136
    -0.4061  -0.3986  -0.3846  -0.3830  -0.3816  -0.3715  -0.3697  -0.3535
    -0.3508  -0.3386  -0.3366  -0.3319  -0.3266  -0.3194  -0.3191  -0.3117
    -0.3032  -0.2924  -0.2910  -0.2830  -0.2730  -0.2571  -0.2539  -0.2524
    -0.2472  -0.2326  -0.2121  -0.2083  -0.2054  -0.1998  -0.1965  -0.1817
    -0.1773  -0.1701  -0.1610  -0.1571  -0.1511  -0.1494  -0.1476  -0.1385
    -0.1348  -0.1335  -0.1302  -0.1293  -0.1284  -0.1250  -0.1195  -0.1140
    -0.1088  -0.1047  -0.1013  -0.0965  -0.0891  -0.0845  -0.0799  -0.0718
    -0.0641  -0.0563  -0.0522  -0.0366  -0.0291  -0.0239  -0.0213  -0.0156
    -0.0088  -0.0046  -0.0006   0.0025   0.0062   0.0111   0.0336   0.0447
     0.0771   0.0840   0.1057   0.1093   0.1159   0.1201   0.1236   0.1288
     0.1313   0.1337   0.1376   0.1419   0.1445   0.1488   0.1529   0.1551
     0.1573   0.1594   0.1658   0.1721   0.1740   0.1797   0.1850   0.1904
     0.1939   0.1971   0.2014   0.2047   0.2132   0.2203   0.2260   0.2449
     0.2660   0.2725   0.2794   0.2811   0.2875   0.2920   0.2977   0.3020
     0.3081   0.3149   0.3284   0.3305   0.3330   0.3348   0.3449   0.3481
     0.3513   0.3557   0.3598   0.3628   0.3666   0.3751   0.3773   0.3835
     0.3879   0.3927   0.4017   0.4078   0.4129   0.4142   0.4163   0.4204
     0.4315   0.4379   0.4405   0.4453   0.4502   0.4534   0.4578   0.4621
     0.4640   0.4677   0.4738   0.4776   0.4795   0.4928   0.4987   0.5021
     0.5123   0.5152   0.5201   0.5228   0.5263   0.5335   0.5409   0.5446
     0.5597   0.5691   0.5786   0.5876   0.5981   0.6003   0.6047   0.6083
     0.6147   0.6173   0.6260   0.6281   0.6359   0.6371   0.6410   0.6423
     0.6473   0.6588   0.6640   0.6748   0.6778   0.6848   0.6882   0.6948
     0.7017   0.7091   0.7142   0.7176   0.7217   0.7384   0.7408   0.7413
     0.7490   0.7503   0.7518   0.7523   0.7540   0.7637   0.7676   0.7767
     0.7864   0.7977   0.8064   0.8127   0.8174   0.8210   0.8288   0.8325
     0.8385   0.8454   0.8484   0.8505   0.8544   0.8579   0.8617   0.8636
     0.8670   0.8716   0.8737   0.8757   0.8778   0.8806   0.8822   0.8851
     0.8890   0.8908   0.8954   0.8972   0.8992   0.9048   0.9130   0.9155
     0.9205   0.9254   0.9272   0.9297   0.9339   0.9385   0.9468   0.9500
     0.9573   0.9602   0.9640   0.9681   0.9704   0.9748   0.9766   0.9818
     0.9863   0.9887   0.9969   1.0036   1.0071   1.0123   1.0139   1.0203
     1.0292   1.0401   1.0461   1.0488   1.0511   1.0573   1.0659   1.0697
     1.0766   1.0914   1.0949   1.1016   1.1040   1.1099   1.1144   1.1177
     1.1192   1.1214   1.1252   1.1295   1.1356   1.1383   1.1457   1.1474
     1.1496   1.1539   1.1560   1.1573   1.1593   1.1634   1.1649   1.1691
     1.1740   1.1796   1.1809   1.1839   1.1884   1.1916   1.1950   1.1991
     1.2097   1.2119   1.2165   1.2207   1.2237   1.2282   1.2326   1.2367
     1.2405   1.2437   1.2530   1.2564   1.2591   1.2647   1.2692   1.2755
     1.2776   1.2808   1.2829   1.2861   1.2876   1.2886   1.2908   1.2954
     1.2974   1.2990   1.3020   1.3030   1.3158   1.3216   1.3272   1.3299
     1.3312   1.3317   1.3395   1.3418   1.3433   1.3481   1.3513   1.3578
     1.3667   1.3682   1.3778   1.3809   1.3917   1.4034   1.4071   1.4177
     1.4373   1.4485   1.4654   1.4804   1.4828   1.4853   1.4912   1.5346
     1.5753   1.6117   1.6236   1.6279   1.6369   1.6605   1.6732   1.6950
     1.8876   1.8948   1.9244   1.9433   1.9605   1.9791   2.0399   2.1018
     2.1717   2.3876   2.4021   2.4195   2.4256   2.5707   2.6846   2.8327
     2.8389   2.8947   3.0437   3.0577   3.0759   3.0766   3.1024   3.1866
     3.2750   3.3340   3.4220   3.4841   3.4945   3.5034   3.5494   3.5636
     3.5954   3.6165   3.6686   3.6962   3.7281   3.7865   3.8459   3.9667
     4.0853   4.1287   4.1552   4.2438   4.3750   4.6098   4.6381   4.6976
     4.7874   4.9395   4.9526   5.0770   5.0894   5.1108   5.1731   5.2455
     5.3153   5.3409   5.3465   5.3702   5.4210   5.4751   5.5580   5.5799
     5.6404   5.7022   5.7310   5.8032   5.8528   5.8765   5.8789   5.9360
     6.0758   6.2900   6.4386   6.5373   6.5527   6.5950   6.6145   6.6429
     6.7606   6.8592   6.8698   6.8816   6.8943   6.9052   6.9733   7.0275
     7.0723   7.1837   7.2136   7.2672   7.2992   7.3657   7.4155   7.4315
     7.5074   7.5636   7.5846   7.6626   7.6922   7.7176   7.8169   7.8927
     7.8986   7.9156   7.9727   7.9989   8.0568   8.1316   8.1556   8.1646
     8.2012   8.2124   8.2429   8.2990   8.3663   8.4224   8.4742   8.4943
     8.5988   8.6148   8.6974   8.7856   8.8532   8.8668   8.9552   8.9957
     9.0040   9.0155   9.0383   9.0498   9.0647   9.0718   9.0860   9.1232
     9.1447   9.1670   9.2538   9.2958   9.3497   9.3799   9.4505   9.4841
     9.5184

          k = 0.2500-0.2165 0.0000 (256316 PWs)   bands (ev):

   -20.5488 -18.0625 -16.0938 -15.5191 -15.1069 -14.6020 -14.5409 -13.6508
   -13.3864 -13.1798 -12.6491 -12.4735 -12.0077 -11.7950 -11.1487 -10.8388
   -10.3356  -9.9722  -9.5454  -9.2031  -9.0032  -8.7821  -8.3566  -7.8140
    -7.3600  -7.0981  -6.7497  -6.4719  -6.3464  -5.9316  -5.8484  -5.8360
    -5.7587  -5.5720  -5.3934  -4.9684  -4.9140  -4.8269  -4.8047  -4.7627
    -4.6917  -4.6022  -4.4892  -4.4656  -4.3786  -4.2541  -4.1850  -4.0729
    -3.9338  -3.7982  -3.7202  -3.6811  -3.6523  -3.6343  -3.6042  -3.5944
    -3.5682  -3.4680  -3.3804  -3.2171  -3.2138  -3.1555  -3.1204  -3.0732
    -3.0539  -3.0386  -3.0162  -2.9828  -2.8934  -2.8445  -2.7280  -2.6519
    -2.4554  -2.4424  -2.4208  -2.3360  -2.3304  -2.3048  -2.3040  -2.3006
    -2.2322  -2.1799  -2.1479  -2.1439  -2.1314  -2.0780  -2.0549  -2.0055
    -1.9571  -1.9499  -1.9466  -1.9350  -1.8794  -1.8674  -1.8576  -1.8499
    -1.8405  -1.8350  -1.8315  -1.8198  -1.8150  -1.8106  -1.8094  -1.8031
    -1.7987  -1.7804  -1.7587  -1.7155  -1.7095  -1.6271  -1.6077  -1.6008
    -1.5593  -1.5278  -1.4692  -1.4652  -1.4627  -1.4294  -1.4143  -1.4128
    -1.4061  -1.3988  -1.3974  -1.3856  -1.3794  -1.3766  -1.3730  -1.3696
    -1.3674  -1.3610  -1.3539  -1.3515  -1.3450  -1.3389  -1.3297  -1.3185
    -1.3170  -1.3095  -1.3075  -1.2733  -1.2660  -1.2595  -1.2514  -1.2474
    -1.2463  -1.2336  -1.2156  -1.2110  -1.1828  -1.1785  -1.1740  -1.1706
    -1.1654  -1.1528  -1.1366  -1.1328  -1.1311  -1.1266  -1.1191  -1.1009
    -1.0978  -1.0954  -1.0924  -1.0903  -1.0847  -1.0681  -1.0623  -1.0563
    -1.0524  -1.0252  -1.0136  -1.0051  -0.9980  -0.9934  -0.9860  -0.9253
    -0.9198  -0.9145  -0.9062  -0.9031  -0.8981  -0.8652  -0.8609  -0.8559
    -0.8509  -0.8491  -0.8412  -0.8394  -0.8369  -0.8212  -0.7907  -0.7872
    -0.7833  -0.7581  -0.7462  -0.7441  -0.7186  -0.7083  -0.7008  -0.6986
    -0.6964  -0.6747  -0.6729  -0.6715  -0.6645  -0.6491  -0.6443  -0.6402
    -0.6388  -0.6308  -0.6256  -0.6063  -0.6035  -0.5879  -0.5835  -0.5703
    -0.5656  -0.5518  -0.5484  -0.5468  -0.5399  -0.5283  -0.5271  -0.5264
    -0.5113  -0.5095  -0.5034  -0.5022  -0.5012  -0.4928  -0.4898  -0.4857
    -0.4806  -0.4772  -0.4647  -0.4552  -0.4540  -0.4292  -0.4203  -0.4146
    -0.4037  -0.3978  -0.3923  -0.3866  -0.3788  -0.3769  -0.3637  -0.3593
    -0.3585  -0.3548  -0.3459  -0.3384  -0.3250  -0.3178  -0.2961  -0.2932
    -0.2577  -0.2500  -0.2486  -0.2471  -0.2463  -0.2439  -0.2349  -0.2251
    -0.2224  -0.2120  -0.2082  -0.2072  -0.1999  -0.1972  -0.1898  -0.1859
    -0.1789  -0.1740  -0.1687  -0.1629  -0.1571  -0.1526  -0.1478  -0.1448
    -0.1433  -0.1397  -0.1378  -0.1306  -0.1292  -0.1259  -0.1210  -0.1172
    -0.1121  -0.1110  -0.1094  -0.1049  -0.0995  -0.0800  -0.0751  -0.0686
    -0.0629  -0.0601  -0.0540  -0.0383  -0.0326  -0.0184  -0.0117  -0.0092
    -0.0030   0.0033   0.0070   0.0115   0.0129   0.0250   0.0268   0.0343
     0.0360   0.0443   0.0597   0.0629   0.0894   0.1084   0.1218   0.1288
     0.1318   0.1343   0.1388   0.1429   0.1468   0.1525   0.1544   0.1623
     0.1668   0.1682   0.1735   0.1776   0.1817   0.1869   0.1922   0.1953
     0.1996   0.2025   0.2174   0.2205   0.2273   0.2318   0.2378   0.2488
     0.2492   0.2547   0.2625   0.2721   0.2795   0.2894   0.2982   0.3039
     0.3102   0.3139   0.3167   0.3215   0.3314   0.3345   0.3368   0.3417
     0.3447   0.3467   0.3504   0.3569   0.3729   0.3763   0.3777   0.3849
     0.3884   0.4018   0.4254   0.4287   0.4315   0.4325   0.4488   0.4531
     0.4545   0.4613   0.4646   0.4697   0.4747   0.4774   0.4816   0.4837
     0.4878   0.4985   0.5029   0.5051   0.5079   0.5130   0.5158   0.5223
     0.5250   0.5277   0.5291   0.5354   0.5383   0.5439   0.5472   0.5495
     0.5536   0.5576   0.5613   0.5627   0.5677   0.5694   0.5725   0.5759
     0.5785   0.5840   0.5868   0.6034   0.6130   0.6148   0.6226   0.6247
     0.6283   0.6462   0.6552   0.6717   0.6796   0.6831   0.6840   0.6863
     0.6879   0.6906   0.6928   0.7073   0.7097   0.7106   0.7140   0.7157
     0.7175   0.7203   0.7305   0.7391   0.7448   0.7469   0.7557   0.7586
     0.7610   0.7666   0.7786   0.7820   0.7856   0.7909   0.8021   0.8143
     0.8191   0.8220   0.8241   0.8261   0.8307   0.8382   0.8426   0.8518
     0.8583   0.8601   0.8709   0.8732   0.8799   0.8880   0.8951   0.9031
     0.9083   0.9177   0.9315   0.9343   0.9417   0.9449   0.9460   0.9463
     0.9484   0.9496   0.9506   0.9529   0.9563   0.9610   0.9628   0.9660
     0.9691   0.9767   0.9806   0.9847   0.9885   0.9952   1.0083   1.0172
     1.0190   1.0237   1.0275   1.0286   1.0340   1.0361   1.0375   1.0429
     1.0449   1.0491   1.0517   1.0530   1.0579   1.0589   1.0628   1.0649
     1.0712   1.0759   1.0775   1.0799   1.0828   1.0849   1.0872   1.0914
     1.0971   1.1095   1.1117   1.1152   1.1273   1.1280   1.1305   1.1358
     1.1395   1.1459   1.1536   1.1578   1.1624   1.1672   1.1694   1.1787
     1.1807   1.1867   1.1876   1.1905   1.1933   1.1953   1.2031   1.2054
     1.2102   1.2129   1.2152   1.2192   1.2273   1.2326   1.2351   1.2389
     1.2396   1.2411   1.2431   1.2460   1.2523   1.2542   1.2555   1.2592
     1.2623   1.2650   1.2691   1.2761   1.2801   1.2899   1.2922   1.2948
     1.2962   1.2994   1.3013   1.3031   1.3047   1.3110   1.3121   1.3138
     1.3155   1.3346   1.3358   1.3373   1.3433   1.3543   1.3588   1.3618
     1.3681   1.3771   1.3811   1.3868   1.4052   1.4090   1.4104   1.4163
     1.4183   1.4350   1.4518   1.4716   1.5167   1.5254   1.5457   1.5603
     1.6079   1.6118   1.6158   1.6337   1.6480   1.6563   1.6772   1.7161
     1.7521   1.7744   1.9772   1.9834   2.0098   2.0151   2.1225   2.1517
     2.4269   2.4431   2.5250   2.5884   2.6041   2.6255   2.6515   2.6576
     2.6645   2.6844   2.7071   2.7667   2.8395   2.8807   2.9389   2.9925
     3.3897   3.4238   3.4357   3.4622   3.5507   3.5907   3.6519   3.7032
     3.7052   3.7369   3.8381   3.8466   3.9223   3.9417   4.0159   4.0212
     4.1961   4.2375   4.2533   4.3255   4.3489   4.4282   4.5217   4.5404
     4.5874   4.7519   4.7889   4.9096   4.9875   5.0173   5.0955   5.1337
     5.1820   5.2352   5.2757   5.3116   5.3391   5.3896   5.5287   5.6158
     5.6392   5.6955   5.7339   5.7745   5.8623   6.0306   6.2198   6.3192
     6.4127   6.4500   6.4586   6.5086   6.5871   6.6360   6.6759   6.7389
     6.7953   6.8811   6.9268   6.9595   6.9679   7.0003   7.0204   7.0627
     7.0913   7.1130   7.1797   7.2106   7.2630   7.2682   7.2888   7.2932
     7.3820   7.5061   7.5683   7.6133   7.6385   7.7244   7.7518   7.8387
     7.8488   7.9247   7.9512   8.0342   8.0524   8.0838   8.1523   8.2841
     8.3268   8.3714   8.4006   8.4279   8.4808   8.5027   8.5315   8.5573
     8.5754   8.6079   8.6251   8.6934   8.7300   8.7927   8.8435   8.8661
     8.8955   8.9454   8.9632   8.9985   9.0326   9.0608   9.0854   9.1006
     9.1196   9.1280   9.1642   9.2008   9.2258   9.2472   9.2662   9.3184
     9.3616

          k =-0.5000 0.0000 0.0000 (256496 PWs)   bands (ev):

   -20.5487 -18.0629 -15.7317 -15.7140 -15.1676 -15.1329 -14.2524 -14.2291
   -13.0959 -12.9848 -11.9183 -11.9159 -11.7812 -11.5776 -11.4533 -11.4477
   -10.5897 -10.3334  -9.6634  -9.2398  -9.0942  -8.9582  -8.4639  -8.1049
    -7.9586  -7.2228  -7.0961  -5.8375  -5.5031  -5.4433  -5.4369  -5.3530
    -5.3244  -5.1263  -4.9401  -4.9390  -4.9354  -4.9303  -4.9277  -4.8400
    -4.5950  -4.5777  -4.4788  -4.4626  -4.2993  -4.2732  -4.1317  -4.0902
    -4.0704  -4.0237  -3.9909  -3.9583  -3.8145  -3.7579  -3.6373  -3.6001
    -3.5630  -3.5593  -3.5572  -3.5486  -3.5362  -3.4365  -3.3878  -3.3489
    -3.3374  -3.0270  -2.9006  -2.8814  -2.7868  -2.7817  -2.7714  -2.7407
    -2.6239  -2.5424  -2.5083  -2.4700  -2.4226  -2.4157  -2.3977  -2.3668
    -2.2435  -2.1242  -2.0189  -2.0154  -2.0144  -2.0135  -2.0112  -2.0089
    -1.9540  -1.9464  -1.8814  -1.8660  -1.7894  -1.7880  -1.7877  -1.7858
    -1.7597  -1.7395  -1.7372  -1.7350  -1.7325  -1.6385  -1.6354  -1.6255
    -1.6236  -1.6188  -1.5847  -1.5694  -1.5569  -1.5546  -1.5466  -1.5450
    -1.5117  -1.5017  -1.4972  -1.4951  -1.4910  -1.4848  -1.4811  -1.4805
    -1.4781  -1.4754  -1.4384  -1.4367  -1.4338  -1.4310  -1.4079  -1.4053
    -1.4014  -1.3990  -1.3734  -1.3685  -1.3406  -1.3390  -1.3236  -1.3196
    -1.3164  -1.3138  -1.3013  -1.2868  -1.2805  -1.2766  -1.2733  -1.2696
    -1.2492  -1.2450  -1.2431  -1.2404  -1.2239  -1.2201  -1.2152  -1.1931
    -1.1896  -1.1806  -1.1671  -1.1483  -1.1441  -1.1242  -1.1200  -1.1164
    -1.1145  -1.1119  -1.0888  -1.0870  -1.0842  -1.0767  -1.0743  -1.0730
    -1.0654  -1.0620  -1.0563  -1.0499  -1.0431  -1.0372  -0.9934  -0.9800
    -0.9773  -0.9755  -0.9728  -0.9711  -0.9330  -0.9293  -0.9269  -0.8491
    -0.8468  -0.8449  -0.8419  -0.8144  -0.8124  -0.8105  -0.8086  -0.8018
    -0.8014  -0.7797  -0.7753  -0.7700  -0.7650  -0.7530  -0.7489  -0.7454
    -0.7436  -0.7412  -0.7378  -0.7155  -0.7132  -0.6964  -0.6924  -0.6078
    -0.6059  -0.5982  -0.5964  -0.5938  -0.5881  -0.5749  -0.5702  -0.5629
    -0.5579  -0.5509  -0.5449  -0.5378  -0.5341  -0.5143  -0.5129  -0.5086
    -0.5075  -0.4891  -0.4864  -0.4727  -0.4699  -0.4680  -0.4649  -0.4539
    -0.4461  -0.4371  -0.4358  -0.4316  -0.4297  -0.4211  -0.4200  -0.4133
    -0.4093  -0.3893  -0.3862  -0.3849  -0.3841  -0.3545  -0.3523  -0.3459
    -0.3416  -0.2820  -0.2795  -0.2770  -0.2753  -0.2701  -0.2684  -0.2670
    -0.2636  -0.2391  -0.2337  -0.2260  -0.2172  -0.1980  -0.1952  -0.1733
    -0.1709  -0.1683  -0.1674  -0.1667  -0.1626  -0.1617  -0.1593  -0.1588
    -0.1585  -0.1566  -0.1536  -0.1107  -0.1011  -0.0923  -0.0880  -0.0856
    -0.0821  -0.0727  -0.0693  -0.0675  -0.0669  -0.0616  -0.0595  -0.0581
    -0.0562  -0.0548  -0.0515  -0.0497  -0.0485  -0.0395  -0.0390  -0.0345
    -0.0271  -0.0261  -0.0247  -0.0245  -0.0207  -0.0202  -0.0159  -0.0139
    -0.0124  -0.0113  -0.0075  -0.0023   0.0033   0.0069   0.0106   0.0133
     0.0145   0.0171   0.0265   0.0299   0.0445   0.0519   0.0685   0.1187
     0.1335   0.1381   0.1434   0.1572   0.1707   0.1753   0.1788   0.1798
     0.1863   0.1898   0.1900   0.1937   0.1968   0.1979   0.2039   0.2056
     0.2127   0.2165   0.2196   0.2219   0.2231   0.2237   0.2253   0.2339
     0.2369   0.2385   0.2395   0.2436   0.2485   0.2573   0.2609   0.2634
     0.2648   0.2672   0.2768   0.2934   0.3236   0.3332   0.3506   0.3523
     0.3550   0.3571   0.3725   0.3753   0.3773   0.3803   0.3820   0.3841
     0.3870   0.3899   0.3920   0.3934   0.3954   0.3976   0.4018   0.4048
     0.4061   0.4084   0.4142   0.4211   0.4274   0.4361   0.4417   0.4438
     0.4516   0.4569   0.4617   0.4678   0.4794   0.4854   0.4906   0.4943
     0.4947   0.4958   0.4979   0.5042   0.5060   0.5069   0.5092   0.5125
     0.5211   0.5236   0.5278   0.5287   0.5402   0.5482   0.5562   0.5664
[...]
     atom   12 type  1   force =     0.00000226    0.00009303    0.00010251
     atom   13 type  1   force =     0.00000306    0.00003944    0.00006451
     atom   14 type  1   force =    -0.00001169   -0.00000329    0.00005497
     atom   15 type  1   force =    -0.00000878    0.00002673    0.00004821
     atom   16 type  1   force =     0.00000110    0.00001669    0.00006382
     atom   17 type  1   force =    -0.00000524   -0.00000521    0.00010663
     atom   18 type  1   force =     0.00000286    0.00001139    0.00013286
     atom   19 type  1   force =    -0.00000387   -0.00000430    0.00011471
     atom   20 type  1   force =    -0.00000746   -0.00004774    0.00020508
     atom   21 type  1   force =     0.00000585    0.00006118   -0.00000439
     atom   22 type  1   force =     0.00000611   -0.00011152    0.00032473
     atom   23 type  1   force =    -0.00000949    0.00006482    0.00008371
     atom   24 type  1   force =    -0.00001662    0.00003357    0.00013513
     atom   25 type  1   force =    -0.00000161    0.00000268   -0.00004990
     atom   26 type  1   force =     0.00000456   -0.00001626   -0.00010671
     atom   27 type  1   force =    -0.00000547    0.00003890   -0.00005857
     atom   28 type  1   force =    -0.00000747    0.00006248   -0.00001717
     atom   29 type  1   force =    -0.00001026    0.00012743    0.00019889
     atom   30 type  1   force =     0.00000552    0.00012202    0.00016319
     atom   31 type  1   force =    -0.00002076    0.00012958    0.00018304
     atom   32 type  1   force =    -0.00002514    0.00002884    0.00001432
     atom   33 type  1   force =    -0.00001826    0.00001052    0.00022642
     atom   34 type  1   force =    -0.00003145    0.00005455    0.00026847
     atom   35 type  1   force =    -0.00002048   -0.00001012    0.00019946
     atom   36 type  1   force =    -0.00000898    0.00008054    0.00021097
     atom   37 type  1   force =     0.00000730   -0.00008103    0.00030953
     atom   38 type  1   force =    -0.00001258    0.00000642    0.00017289
     atom   39 type  1   force =    -0.00003079   -0.00008510    0.00030165
     atom   40 type  1   force =    -0.00002857   -0.00010553    0.00031103
     atom   41 type  1   force =     0.00007360    0.00005373    0.00000684
     atom   42 type  1   force =     0.00001863    0.00014162    0.00004272
     atom   43 type  1   force =    -0.00011854   -0.00002562    0.00008704
     atom   44 type  1   force =    -0.00003930    0.00005990    0.00000860
     atom   45 type  1   force =    -0.00006894    0.00000921    0.00001177
     atom   46 type  1   force =    -0.00000836   -0.00020219   -0.00016181
     atom   47 type  1   force =     0.00004855    0.00010959    0.00003400
     atom   48 type  1   force =    -0.00004069    0.00007872    0.00005559
     atom   49 type  1   force =    -0.00005530   -0.00005392   -0.00003568
     atom   50 type  1   force =    -0.00001579    0.00018940    0.00028696
     atom   51 type  1   force =    -0.00004625    0.00009992    0.00016227
     atom   52 type  1   force =    -0.00010447    0.00001622    0.00015354
     atom   53 type  1   force =    -0.00012809    0.00014890    0.00025695
     atom   54 type  1   force =    -0.00005962    0.00016029    0.00018887
     atom   55 type  1   force =    -0.00004898    0.00012477    0.00021373
     atom   56 type  1   force =    -0.00006944   -0.00003409    0.00037989
     atom   57 type  1   force =    -0.00004631   -0.00011856    0.00030798
     atom   58 type  1   force =    -0.00002904   -0.00041174    0.00057151
     atom   59 type  1   force =    -0.00009588   -0.00017831    0.00034414
     atom   60 type  1   force =    -0.00006651   -0.00001415    0.00006775
     atom   61 type  1   force =    -0.00002693    0.00006109    0.00008062
     atom   62 type  1   force =    -0.00003320    0.00019171   -0.00001334
     atom   63 type  1   force =    -0.00004447    0.00012228    0.00004865
     atom   64 type  1   force =    -0.00011893    0.00008390   -0.00021279
     atom   65 type  1   force =    -0.00018019   -0.00005965    0.00011080
     atom   66 type  1   force =    -0.00001156    0.00012948    0.00012127
     atom   67 type  1   force =     0.00002650   -0.00010366    0.00007282
     atom   68 type  1   force =    -0.00005503   -0.00001254    0.00011780
     atom   69 type  1   force =     0.00002623   -0.00020085   -0.00024488
     atom   70 type  1   force =    -0.00013161   -0.00050167   -0.00041975
     atom   71 type  1   force =    -0.00028564    0.00007018    0.00011590
     atom   72 type  1   force =    -0.00014854    0.00009799    0.00018491
     atom   73 type  1   force =    -0.00043376   -0.00014046    0.00053580
     atom   74 type  1   force =    -0.00017293    0.00046192    0.00037643
     atom   75 type  1   force =     0.00008395   -0.00010012    0.00043042
     atom   76 type  1   force =    -0.00016417   -0.00016265    0.00018268
     atom   77 type  1   force =     0.00004973    0.00001319   -0.00001923
     atom   78 type  1   force =    -0.00014703   -0.00084939    0.00105544
     atom   79 type  1   force =    -0.00032727   -0.00018978    0.00014579
     atom   80 type  1   force =    -0.00017996    0.00005653    0.00007192
     atom   81 type  1   force =    -0.00004800    0.00003414    0.00013380
     atom   82 type  1   force =    -0.00003744    0.00013801    0.00017022
     atom   83 type  1   force =    -0.00031507    0.00022213    0.00002635
     atom   84 type  1   force =    -0.00009426   -0.00012829    0.00010159
     atom   85 type  1   force =    -0.00010612   -0.00002480    0.00003704
     atom   86 type  1   force =    -0.00003086    0.00002312    0.00037463
     atom   87 type  1   force =    -0.00003388   -0.00006471    0.00020461
     atom   88 type  1   force =    -0.00023060    0.00006522    0.00013315
     atom   89 type  1   force =    -0.00011094   -0.00003891    0.00007420
     atom   90 type  1   force =     0.00022452   -0.00071263   -0.00036202
     atom   91 type  1   force =    -0.00023606   -0.00023822   -0.00029591
     atom   92 type  1   force =    -0.00040181   -0.00016501    0.00027355
     atom   93 type  1   force =    -0.00034959   -0.00113508   -0.00038396
     atom   94 type  1   force =    -0.00022927    0.00013335    0.00167924
     atom   95 type  1   force =     0.00031342   -0.00024728   -0.00020071
     atom   96 type  1   force =     0.00002835   -0.00017411    0.00021739
     atom   97 type  1   force =    -0.00057470    0.00039525    0.00018245
     atom   98 type  1   force =    -0.00011187    0.00007176    0.00005024
     atom   99 type  1   force =     0.00007436   -0.00010881    0.00051387
     atom  100 type  1   force =    -0.00036509    0.00018720   -0.00026390
     atom  101 type  3   force =     0.00047823    0.00125668    0.00015019
     atom  102 type  3   force =    -0.00035383    0.00018518   -0.00033153
     atom  103 type  3   force =    -0.00099419    0.00127274   -0.00001167
     atom  104 type  3   force =     0.00098950    0.00153461   -0.00091109
     atom  105 type  3   force =     0.00022526    0.00162541    0.00046165
     atom  106 type  3   force =    -0.00001063    0.00095475    0.00006291
     atom  107 type  3   force =     0.00051286    0.00139045    0.00008576
     atom  108 type  3   force =    -0.00084501    0.00126613   -0.00056547
     atom  109 type  3   force =    -0.00082923    0.00132597    0.00037721
     atom  110 type  3   force =     0.00055502    0.00085359    0.00006367
     atom  111 type  3   force =    -0.00005165    0.00216906   -0.00001448
     atom  112 type  3   force =    -0.00006180    0.00160918   -0.00054398
     atom  113 type  3   force =     0.00123473   -0.00001571   -0.00095625
     atom  114 type  3   force =    -0.00008914   -0.00035119   -0.00055942
     atom  115 type  3   force =     0.00041404   -0.00021832   -0.00072648
     atom  116 type  3   force =     0.00064235   -0.00250496   -0.00047544
     atom  117 type  3   force =     0.00030632   -0.00066459    0.00144710
     atom  118 type  3   force =     0.00066858    0.00018028    0.00152980
     atom  119 type  3   force =     0.00021513    0.00030510   -0.00032140
     atom  120 type  3   force =     0.00004139   -0.00246102    0.00076398
     atom  121 type  3   force =     0.00052764    0.00075770   -0.00089415
     atom  122 type  3   force =    -0.00037248   -0.00055220   -0.00004858
     atom  123 type  3   force =    -0.00021624    0.00098599   -0.00105432
     atom  124 type  3   force =     0.00130429   -0.00020355    0.00085088
     atom  125 type  3   force =    -0.00011053   -0.00268382   -0.00079579
     atom  126 type  3   force =    -0.00141604   -0.00112280   -0.00123770
     atom  127 type  3   force =     0.00061315   -0.00122514   -0.00194726
     atom  128 type  3   force =    -0.00048635   -0.00088270   -0.00006782
     atom  129 type  3   force =    -0.00020983   -0.00247030   -0.00056274
     atom  130 type  3   force =     0.00008839   -0.00003116    0.00084434
     atom  131 type  5   force =     0.00029754    0.00204728   -0.00044180
     atom  132 type  5   force =    -0.00038871    0.00181546   -0.00059228
     atom  133 type  5   force =    -0.00012688    0.00098239   -0.00044567
     atom  134 type  5   force =     0.00228906   -0.00020646   -0.00037035
     atom  135 type  5   force =    -0.00067684   -0.00152415   -0.00001325
     atom  136 type  3   force =     0.00013825    0.00012295   -0.00403420
     atom  137 type  4   force =     0.00483634    0.00242310   -0.00486110
     atom  138 type  4   force =    -0.00182166   -0.00398939    0.00495742
     atom  139 type  5   force =    -0.00124670   -0.00215490   -0.00170616

     Total force =     0.015461     Total SCF correction =     0.000348

     number of scf cycles    =   3
     number of bfgs steps    =   2

     energy   old            =  -12575.5297053433 Ry
     energy   new            =  -12575.5301496077 Ry

     CASE: energy  _new < energy  _old

     new trust radius        =       0.0191846990 bohr
     new conv_thr            =       0.0000000100 Ry


ATOMIC_POSITIONS (angstrom)
Cu      -0.000047988  -0.000882156   7.395382934
Cu       1.844315299   1.705350123   7.406783936
Cu       3.689206236  -0.000100431   7.395030204
Cu       5.533898112   1.706929090   7.406218687
Cu       0.000294214   3.409457530   7.418936764
Cu       1.844257662   5.110259078   7.421039953
Cu       3.688878530   3.409181441   7.417428807
Cu       5.533939778   5.108997116   7.419623026
Cu       0.000082185   6.814307842   7.410120084
Cu       1.845539873   8.521276619   7.398893702
Cu       3.689065587   6.812802657   7.411736103
Cu       5.532666385   8.522088516   7.400031499
Cu      -0.000158039  10.228624785   7.395031466
Cu       1.844364954  11.933149881   7.395711593
Cu       3.689232742  10.230820106   7.396779123
Cu       5.533824915  11.933301726   7.395628560
Cu      -0.000188254  13.633360526   7.393393216
Cu       1.844793972  15.334067602   7.390780850
Cu       3.689258449  13.632063480   7.393567561
Cu       5.533359874  15.332997786   7.392323045
Cu       0.000193079   1.693303290   9.237293807
Cu       1.844522068  -0.009713409   9.230219121
Cu       3.688997113   1.693958834   9.236933745
Cu       5.533646567  -0.007151314   9.227055023
Cu      -0.000005017   5.116258902   9.251007353
Cu       1.844692524   3.400774711   9.249965514
Cu       3.689158955   5.112620763   9.250939205
Cu       5.533527948   3.402067708   9.251712117
Cu       0.000394365   8.531317618   9.231024142
Cu       1.844493702   6.828410817   9.241446908
Cu       3.688660164   8.531676664   9.232034353
Cu       5.533622550   6.825729627   9.237798300
Cu      -0.000577813  11.933581501   9.229682607
Cu       1.844914792  10.230960365   9.226988762
Cu       3.689453204  11.935334143   9.234032843
Cu       5.533022101  10.232437734   9.228932145
Cu       0.000276673  15.332373597   9.229616973
Cu       1.844445592  13.636261942   9.231083240
Cu       3.688716259  15.332812699   9.227953432
Cu       5.533287223  13.634401557   9.234712903
Cu       0.001268804  -0.011426053  11.077483143
Cu       1.846466519   1.680263042  11.081965783
Cu       3.687721471  -0.012906674  11.077851679
Cu       5.531710291   1.679218435  11.082099416
Cu      -0.000778579   3.393526071  11.076208671
Cu       1.845352265   5.121956219  11.073101852
Cu       3.689932661   3.389842303  11.083397376
Cu       5.532717295   5.127777198  11.078651773
Cu      -0.000268589   6.840908782  11.080229391
Cu       1.842842847   8.545096545  11.085302073
Cu       3.688882914   6.836787481  11.075187226
Cu       5.534065033   8.537402037  11.075117401
Cu       0.001140527  10.235912155  11.078140019
Cu       1.843648901  11.931986063  11.070203050
Cu       3.687251826  10.234659112  11.080845198
Cu       5.532190504  11.929505819  11.078406566
Cu       0.001249646  13.632789644  11.079825004
Cu       1.844526530  15.330424284  11.088337006
Cu       3.685686774  13.642393107  11.083700913
Cu       5.532996759  15.339363967  11.077504688
Cu      -0.000345592   1.681534742  12.919512168
Cu       1.848363139  -0.016599309  12.947771019
Cu       3.689186765   1.660028899  12.945024169
Cu       5.528968773  -0.018058832  12.946273447
Cu      -0.002809549   5.116854787  12.885606703
Cu       1.851188828   3.404946628  12.885625918
Cu       3.691299314   5.124818308  12.895165531
Cu       5.526759581   3.404401866  12.886787582
Cu      -0.005496604   8.545803296  12.935556656
Cu       1.842649374   6.833371652  12.910613543
Cu       3.687383772   8.534488864  12.921912913
Cu       5.532819458   6.851957223  12.931918388
Cu       0.001528121  11.934601613  12.934991509
Cu       1.837705354  10.262741821  12.950233868
Cu       3.676480711  11.943425131  12.922756506
Cu       5.536283053  10.232335772  12.929061894
Cu       0.001959214  15.335990241  12.924440299
Cu       1.842146907  13.609494678  12.940395276
Cu       3.684220681  15.350207255  12.949712253
Cu       5.528007448  13.636011389  12.902731172
Cu       0.000544344  -0.006370866  14.774265220
Cu       1.841655832   1.732888798  14.699239673
Cu       3.685533326  -0.025781077  14.892760693
Cu       5.535645689   1.730702304  14.699576894
Cu      -0.001302052   3.423170679  14.693464741
Cu       1.848886245   5.105166256  14.698819667
Cu       3.689447230   3.416950344  14.706690256
Cu       5.526942311   5.108528498  14.699999152
Cu       0.000642448   6.795639977  14.702253486
Cu       1.830443390   8.532180143  14.726683075
Cu       3.681149840   6.815638412  14.720637948
Cu       5.525241476   8.543001742  14.816149604
Cu      -0.023286934  10.240084943  14.763080786
Cu       1.825607833  11.958129257  14.891846255
Cu       3.697159174  10.241490025  14.703334100
Cu       5.516104744  11.952192156  14.750717923
Cu      -0.025749242  13.640478891  14.752273418
Cu       1.830467123  15.299368725  14.754244568
Cu       3.693640604  13.638617589  14.764866344
Cu       5.538204266  15.308975109  14.754250643
C       -0.001007499   0.624306870  17.497746299
C       -0.000834877   2.066200927  17.576823006
C        1.228427184  -0.068442197  17.422657689
C        1.228353874   2.777932742  17.588913467
C        2.452360833   0.623239022  17.391164284
C        2.455055878   2.062048596  17.494002249
C        3.689964392  -0.065282556  17.207162762
C        3.686378910   2.780280558  17.514426553
C        4.925454891   0.627600053  17.392241039
C        4.921062874   2.066702016  17.495421226
C        6.147823940  -0.066648016  17.423400757
C        6.149171406   2.780853819  17.590507758
C        0.004034331   4.926442595  17.642105406
C        0.009274015   6.357484695  17.583133214
C        1.230067254   4.211378428  17.625156377
C        1.233646830   7.095911236  17.546548403
C        2.456443397   4.936945022  17.595540357
C        2.457188297   6.373021795  17.581274399
C        3.684410751   4.211711059  17.576129727
C        3.685699841   7.093749153  17.541918613
C        4.914279144   4.926340377  17.595672210
C        4.912648624   6.356559216  17.563757605
C        6.149203301   4.213752584  17.627146006
C        6.149625120   7.046788253  17.529916558
C       -0.021109417   9.188787192  17.386641028
C        1.225166410   8.545673484  17.466062195
C        2.467069928   9.287977147  17.492514445
C        3.697398066   8.539464006  17.494601410
C        4.939187088   9.172527345  17.308014400
C        6.152060180   8.464161319  17.395977144
H        1.225138814  -1.161928479  17.382783622
H        3.692157507  -1.156176677  17.283310117
H        6.149950904  -1.160048636  17.382712473
H       -0.086633624  10.273294216  17.394919216
H        5.006666503  10.252732114  17.247119531
C        2.442843767  10.747907216  17.449869202
O        1.498621050  11.472625757  16.977255648
O        3.513324389  11.430440826  17.971634244
H        3.374173790  12.376477085  17.718850614



     Writing output data file gc.save
     Check: negative starting charge=   -0.002147
     NEW-OLD atomic charge density approx. for the potential
     Check: negative starting charge=   -0.002148

     negative rho (up, down):  2.167E-03 0.000E+00

     total cpu time spent up to now is    31667.6 secs

     Self-consistent Calculation

     iteration #  1     ecut=    80.00 Ry     beta=0.70
     Davidson diagonalization with overlap
     ethr =  1.00E-06,  avg # of iterations =  3.5

     negative rho (up, down):  2.117E-03 0.000E+00

     total cpu time spent up to now is    32268.8 secs

     total energy              =  -12575.53054793 Ry
     Harris-Foulkes estimate   =  -12575.53071579 Ry
     estimated scf accuracy    <       0.00211997 Ry

     iteration #  2     ecut=    80.00 Ry     beta=0.70
     Davidson diagonalization with overlap
     ethr =  1.71E-07,  avg # of iterations =  1.0

     negative rho (up, down):  2.084E-03 0.000E+00

     total cpu time spent up to now is    32590.5 secs

     total energy              =  -12575.53055807 Ry
     Harris-Foulkes estimate   =  -12575.53065036 Ry
     estimated scf accuracy    <       0.00033748 Ry

     iteration #  3     ecut=    80.00 Ry     beta=0.70
     Davidson diagonalization with overlap
     ethr =  2.72E-08,  avg # of iterations =  2.0

     negative rho (up, down):  2.049E-03 0.000E+00

     total cpu time spent up to now is    33024.6 secs

     total energy              =  -12575.53057781 Ry
     Harris-Foulkes estimate   =  -12575.53064351 Ry
     estimated scf accuracy    <       0.00075618 Ry

     iteration #  4     ecut=    80.00 Ry     beta=0.70
     Davidson diagonalization with overlap
     ethr =  2.72E-08,  avg # of iterations =  1.0

     negative rho (up, down):  2.049E-03 0.000E+00

     total cpu time spent up to now is    33384.5 secs

     total energy              =  -12575.53060484 Ry
     Harris-Foulkes estimate   =  -12575.53060797 Ry
     estimated scf accuracy    <       0.00001268 Ry

     iteration #  5     ecut=    80.00 Ry     beta=0.70
     Davidson diagonalization with overlap
     ethr =  1.02E-09,  avg # of iterations =  3.3

     negative rho (up, down):  2.057E-03 0.000E+00

     total cpu time spent up to now is    33840.7 secs

     total energy              =  -12575.53060575 Ry
     Harris-Foulkes estimate   =  -12575.53060735 Ry
     estimated scf accuracy    <       0.00000932 Ry

     iteration #  6     ecut=    80.00 Ry     beta=0.70
     Davidson diagonalization with overlap
     ethr =  7.50E-10,  avg # of iterations =  1.0

     negative rho (up, down):  2.079E-03 0.000E+00

     total cpu time spent up to now is    34183.1 secs

     total energy              =  -12575.53060610 Ry
     Harris-Foulkes estimate   =  -12575.53060641 Ry
     estimated scf accuracy    <       0.00000122 Ry

     iteration #  7     ecut=    80.00 Ry     beta=0.70
     Davidson diagonalization with overlap
