mpirun: INFO: switching to OpenMPI runtime version 1.10.2

     Program PWSCF v.5.4.0 starts on 16Sep2017 at 17:39:15 

     This program is part of the open-source Quantum ESPRESSO suite
     for quantum simulation of materials; please cite
         "P. Giannozzi et al., J. Phys.:Condens. Matter 21 395502 (2009);
          URL http://www.quantum-espresso.org", 
     in publications or presentations arising from this work. More details at
     http://www.quantum-espresso.org/quote

     Parallel version (MPI & OpenMP), running on      28 processor cores
     Number of MPI processes:                28
     Threads/MPI process:                     1
     R & G space division:  proc/nbgrp/npool/nimage =      28
     Waiting for input...
     Reading input from standard input
Warning: card &IONS ignored
Warning: card / ignored

     Current dimensions of program PWSCF are:
     Max number of different atomic species (ntypx) = 10
     Max number of k-points (npk) =  40000
     Max angular momentum in pseudopotentials (lmaxx) =  3
     WARNING: atomic wfc #  2 for atom type 4 has zero norm
     WARNING: atomic wfc #  4 for atom type 4 has zero norm
     WARNING: atomic wfc #  5 for atom type 4 has zero norm

     -------------------------------------
     Parameters for Dispersion Correction:
     -------------------------------------
       atom      VdW radius       C_6     

        Cu         2.952        374.666
        C_h        2.744         60.710
        C          2.744         60.710
        O          2.536         24.284
        H          1.892          4.857

     Subspace diagonalization in iterative solution of the eigenvalue problem:
     one sub-group per band group will be used
     scalapack distributed-memory algorithm (size of sub-group:  3*  3 procs)

 
     Parallelization info
     --------------------
     sticks:   dense  smooth     PW     G-vecs:    dense   smooth      PW
     Min         408     408    108                73226    73226    9928
     Max         410     410    109                73231    73231    9931
     Sum       11433   11433   3039              2050409  2050409  278033
 


     bravais-lattice index     =            0
     lattice parameter (alat)  =      13.9425  a.u.
     unit-cell volume          =   21209.0878 (a.u.)^3
     number of atoms/cell      =          139
     number of atomic types    =            5
     number of electrons       =      1242.00
     number of Kohn-Sham states=          745
     kinetic-energy cutoff     =      80.0000  Ry
     charge density cutoff     =     320.0000  Ry
     convergence threshold     =      1.0E-08
     mixing beta               =       0.7000
     number of iterations used =            8  local-TF  mixing
     Exchange-correlation      =  SLA  PW   PBE  PBE ( 1  4  3  4 0 0)

     celldm(1)=  13.942539  celldm(2)=   0.000000  celldm(3)=   0.000000
     celldm(4)=   0.000000  celldm(5)=   0.000000  celldm(6)=   0.000000

     crystal axes: (cart. coord. in units of alat)
               a(1) = (   1.000000   0.000000   0.000000 )  
               a(2) = (   0.000000   2.309401   0.000000 )  
               a(3) = (   0.000000   0.000000   3.388418 )  

     reciprocal axes: (cart. coord. in units 2 pi/alat)
               b(1) = (  1.000000  0.000000  0.000000 )  
               b(2) = (  0.000000  0.433013  0.000000 )  
               b(3) = (  0.000000  0.000000  0.295123 )  


     PseudoPot. # 1 for Cu read from file:
     /home/549/hxw549/Short/pseudopotentials/Cu.pbe-n-van_ak.UPF
     MD5 check sum: 601f7c30f7467666bec936e0661ce3e1
     Pseudo is Ultrasoft + core correction, Zval = 11.0
     Generated by new atomic code, or converted to UPF format
     Using radial grid of  867 points,  6 beta functions with: 
                l(1) =   0
                l(2) =   0
                l(3) =   1
                l(4) =   1
                l(5) =   2
                l(6) =   2
     Q(r) pseudized with  8 coefficients,  rinner =    1.400   1.400   1.400
                                                       1.400   1.400

     PseudoPot. # 2 for C  read from file:
     /home/549/hxw549/Short/pseudopotentials/C.star1s-pbe-mt_gipaw.UPF
     MD5 check sum: ef0cb3dee31bd9e4ba2a832a2c716264
     Pseudo is Norm-conserving, Zval =  5.0
     Generated by new atomic code, or converted to UPF format
     Using radial grid of 1073 points,  1 beta functions with: 
                l(1) =   0

     PseudoPot. # 3 for C  read from file:
     /home/549/hxw549/Short/pseudopotentials/C.pbe-mt_gipaw.UPF
     MD5 check sum: 5ac2f21f2c440b14befe521540822c15
     Pseudo is Norm-conserving, Zval =  4.0
     Generated by new atomic code, or converted to UPF format
     Using radial grid of 1073 points,  1 beta functions with: 
                l(1) =   0

     PseudoPot. # 4 for O  read from file:
     /home/549/hxw549/Short/pseudopotentials/O.pbe-van_gipaw.UPF
     MD5 check sum: 5ce2a047509d4f331db576c963e74b29
     Pseudo is Ultrasoft, Zval =  6.0
     Generated by new atomic code, or converted to UPF format
     Using radial grid of 1095 points,  4 beta functions with: 
                l(1) =   0
                l(2) =   0
                l(3) =   1
                l(4) =   1
     Q(r) pseudized with 0 coefficients 


     PseudoPot. # 5 for H  read from file:
     /home/549/hxw549/Short/pseudopotentials/H.pbe-van_ak.UPF
     MD5 check sum: 077eb6d537518a38cb46c6de387227b7
     Pseudo is Ultrasoft, Zval =  1.0
     Generated by new atomic code, or converted to UPF format
     Using radial grid of  615 points,  1 beta functions with: 
                l(1) =   0
     Q(r) pseudized with  8 coefficients,  rinner =    0.800

     atomic species   valence    mass     pseudopotential
        Cu            11.00    63.54600     Cu( 1.00)
        C_h            5.00    12.01070     C ( 1.00)
        C              4.00    12.01070     C ( 1.00)
        O              6.00    15.99940     O ( 1.00)
        H              1.00     1.00783     H ( 1.00)

     No symmetry found



   Cartesian axes

     site n.     atom                  positions (alat units)
         1           Cu  tau(   1) = (  -0.0010640  -0.0023908   1.0046138  )
         2           Cu  tau(   2) = (   0.2492312   0.2287438   1.0043535  )
         3           Cu  tau(   3) = (   0.4997213  -0.0020557   1.0044178  )
         4           Cu  tau(   4) = (   0.7494458   0.2297361   1.0044330  )
         5           Cu  tau(   5) = (  -0.0003137   0.4611849   1.0049174  )
         6           Cu  tau(   6) = (   0.2493451   0.6933339   1.0051902  )
         7           Cu  tau(   7) = (   0.4989850   0.4609350   1.0047007  )
         8           Cu  tau(   8) = (   0.7493025   0.6926311   1.0049004  )
         9           Cu  tau(   9) = (  -0.0009524   0.9253608   1.0047609  )
        10           Cu  tau(  10) = (   0.2493354   1.1572557   1.0045765  )
        11           Cu  tau(  11) = (   0.4995584   0.9253176   1.0049044  )
        12           Cu  tau(  12) = (   0.7492457   1.1577467   1.0049301  )
        13           Cu  tau(  13) = (  -0.0007607   1.3884523   1.0051980  )
        14           Cu  tau(  14) = (   0.2492853   1.6181647   1.0059253  )
        15           Cu  tau(  15) = (   0.4993115   1.3886309   1.0054232  )
        16           Cu  tau(  16) = (   0.7492725   1.6184104   1.0057216  )
        17           Cu  tau(  17) = (  -0.0005173   1.8474410   1.0056666  )
        18           Cu  tau(  18) = (   0.2493732   2.0771941   1.0049712  )
        19           Cu  tau(  19) = (   0.4991007   1.8472417   1.0058485  )
        20           Cu  tau(  20) = (   0.7492518   2.0762819   1.0054449  )
        21           Cu  tau(  21) = (  -0.0009628   0.2289347   1.2519010  )
        22           Cu  tau(  22) = (   0.2489710  -0.0022349   1.2533118  )
        23           Cu  tau(  23) = (   0.4989967   0.2289318   1.2519859  )
        24           Cu  tau(  24) = (   0.7490469  -0.0016894   1.2526627  )
        25           Cu  tau(  25) = (  -0.0009870   0.6931250   1.2520313  )
        26           Cu  tau(  26) = (   0.2490671   0.4602952   1.2521070  )
        27           Cu  tau(  27) = (   0.4990229   0.6927300   1.2520111  )
        28           Cu  tau(  28) = (   0.7489647   0.4607580   1.2524746  )
        29           Cu  tau(  29) = (  -0.0010398   1.1572051   1.2525916  )
        30           Cu  tau(  30) = (   0.2490028   0.9259700   1.2519533  )
        31           Cu  tau(  31) = (   0.4990907   1.1572486   1.2527904  )
        32           Cu  tau(  32) = (   0.7490506   0.9253261   1.2514892  )
        33           Cu  tau(  33) = (  -0.0010799   1.6180392   1.2552412  )
        34           Cu  tau(  34) = (   0.2490387   1.3874055   1.2537251  )
        35           Cu  tau(  35) = (   0.4990463   1.6181047   1.2558878  )
        36           Cu  tau(  36) = (   0.7489693   1.3879951   1.2542289  )
        37           Cu  tau(  37) = (  -0.0009952   2.0772742   1.2548392  )
        38           Cu  tau(  38) = (   0.2490000   1.8482620   1.2554079  )
        39           Cu  tau(  39) = (   0.4989851   2.0775805   1.2544442  )
        40           Cu  tau(  40) = (   0.7489314   1.8476310   1.2563228  )
        41           Cu  tau(  41) = (  -0.0012033  -0.0009002   1.5028346  )
        42           Cu  tau(  42) = (   0.2488076   0.2280811   1.5019068  )
        43           Cu  tau(  43) = (   0.4983360  -0.0012160   1.5030626  )
        44           Cu  tau(  44) = (   0.7482862   0.2282454   1.5017748  )
        45           Cu  tau(  45) = (  -0.0015433   0.4596013   1.4997607  )
        46           Cu  tau(  46) = (   0.2486489   0.6933466   1.4985181  )
        47           Cu  tau(  47) = (   0.4986141   0.4593638   1.5006040  )
        48           Cu  tau(  48) = (   0.7484418   0.6939650   1.4999225  )
        49           Cu  tau(  49) = (  -0.0015404   0.9257492   1.5004063  )
        50           Cu  tau(  50) = (   0.2484450   1.1571046   1.5030467  )
        51           Cu  tau(  51) = (   0.4986878   0.9253575   1.5000131  )
        52           Cu  tau(  52) = (   0.7486901   1.1560980   1.5017044  )
        53           Cu  tau(  53) = (  -0.0011572   1.3870323   1.5040793  )
        54           Cu  tau(  54) = (   0.2484867   1.6171270   1.5041129  )
        55           Cu  tau(  55) = (   0.4984038   1.3866792   1.5045243  )
        56           Cu  tau(  56) = (   0.7485057   1.6168076   1.5059139  )
        57           Cu  tau(  57) = (  -0.0010914   1.8476653   1.5064678  )
        58           Cu  tau(  58) = (   0.2484724   2.0779001   1.5067307  )
        59           Cu  tau(  59) = (   0.4979889   1.8491510   1.5064335  )
        60           Cu  tau(  60) = (   0.7485533   2.0792749   1.5047190  )
        61           Cu  tau(  61) = (  -0.0019222   0.2289416   1.7514670  )
        62           Cu  tau(  62) = (   0.2486960  -0.0003758   1.7563792  )
        63           Cu  tau(  63) = (   0.4980501   0.2266587   1.7544323  )
        64           Cu  tau(  64) = (   0.7476580  -0.0005336   1.7552543  )
        65           Cu  tau(  65) = (  -0.0024978   0.6919427   1.7449505  )
        66           Cu  tau(  66) = (   0.2489494   0.4620369   1.7451989  )
        67           Cu  tau(  67) = (   0.4986401   0.6929206   1.7462139  )
        68           Cu  tau(  68) = (   0.7471573   0.4612677   1.7462891  )
        69           Cu  tau(  69) = (  -0.0022490   1.1551077   1.7522669  )
        70           Cu  tau(  70) = (   0.2479337   0.9232175   1.7482809  )
        71           Cu  tau(  71) = (   0.4979930   1.1537702   1.7510653  )
        72           Cu  tau(  72) = (   0.7481522   0.9264039   1.7517944  )
        73           Cu  tau(  73) = (  -0.0013438   1.6160444   1.7569223  )
        74           Cu  tau(  74) = (   0.2473888   1.3887366   1.7563479  )
        75           Cu  tau(  75) = (   0.4967195   1.6179955   1.7540683  )
        76           Cu  tau(  76) = (   0.7489944   1.3843056   1.7536950  )
        77           Cu  tau(  77) = (  -0.0014346   2.0803638   1.7543298  )
        78           Cu  tau(  78) = (   0.2477692   1.8439700   1.7574531  )
        79           Cu  tau(  79) = (   0.4973971   2.0816154   1.7572255  )
        80           Cu  tau(  80) = (   0.7477757   1.8484657   1.7520294  )
        81           Cu  tau(  81) = (  -0.0006906   0.0016644   2.0048429  )
        82           Cu  tau(  82) = (   0.2476176   0.2382039   1.9922077  )
        83           Cu  tau(  83) = (   0.4958204  -0.0008510   2.0180479  )
        84           Cu  tau(  84) = (   0.7476787   0.2351869   1.9930299  )
        85           Cu  tau(  85) = (  -0.0033193   0.4642546   1.9916281  )
        86           Cu  tau(  86) = (   0.2481683   0.6899900   1.9920284  )
        87           Cu  tau(  87) = (   0.4986928   0.4639115   1.9938652  )
        88           Cu  tau(  88) = (   0.7471334   0.6917038   1.9924937  )
        89           Cu  tau(  89) = (  -0.0016118   0.9180049   1.9910334  )
        90           Cu  tau(  90) = (   0.2473558   1.1518387   1.9952740  )
        91           Cu  tau(  91) = (   0.4965321   0.9197123   1.9936536  )
        92           Cu  tau(  92) = (   0.7455861   1.1534598   2.0079317  )
        93           Cu  tau(  93) = (  -0.0047623   1.3820067   2.0006047  )
        94           Cu  tau(  94) = (   0.2456251   1.6195374   2.0182367  )
        95           Cu  tau(  95) = (   0.4997626   1.3852378   1.9910704  )
        96           Cu  tau(  96) = (   0.7467821   1.6174470   2.0002908  )
        97           Cu  tau(  97) = (  -0.0069666   1.8498164   2.0011514  )
        98           Cu  tau(  98) = (   0.2462826   2.0740046   2.0003043  )
        99           Cu  tau(  99) = (   0.5007068   1.8487305   2.0023364  )
       100           Cu  tau( 100) = (   0.7483286   2.0781054   2.0000404  )
       101           C   tau( 101) = (   0.0029054   0.0872648   2.3682851  )
       102           C   tau( 102) = (   0.0029640   0.2822904   2.3806890  )
       103           C   tau( 103) = (   0.1695057  -0.0063212   2.3579075  )
       104           C   tau( 104) = (   0.1695706   0.3786582   2.3836558  )
       105           C   tau( 105) = (   0.3353655   0.0874796   2.3551009  )
       106           C   tau( 106) = (   0.3357967   0.2820207   2.3707387  )
       107           C   tau( 107) = (   0.5029335  -0.0056998   2.3294250  )
       108           C   tau( 108) = (   0.5027383   0.3790160   2.3743544  )
       109           C   tau( 109) = (   0.6704159   0.0878548   2.3547576  )
       110           C   tau( 110) = (   0.6699918   0.2824373   2.3703235  )
       111           C   tau( 111) = (   0.8361923  -0.0061260   2.3575369  )
       112           C   tau( 112) = (   0.8366011   0.3789160   2.3834557  )
       113           C   tau( 113) = (   0.0039914   0.6692637   2.3901638  )
       114           C   tau( 114) = (   0.0047886   0.8628183   2.3799876  )
       115           C   tau( 115) = (   0.1700523   0.5725106   2.3894660  )
       116           C   tau( 116) = (   0.1708227   0.9620580   2.3728989  )
       117           C   tau( 117) = (   0.3364157   0.6704142   2.3869740  )
       118           C   tau( 118) = (   0.3366336   0.8645112   2.3824567  )
       119           C   tau( 119) = (   0.5028532   0.5725996   2.3841996  )
       120           C   tau( 120) = (   0.5032938   0.9615900   2.3764364  )
       121           C   tau( 121) = (   0.6696582   0.6692635   2.3853739  )
       122           C   tau( 122) = (   0.6697515   0.8627502   2.3802298  )
       123           C   tau( 123) = (   0.8368768   0.5727868   2.3885314  )
       124           C   tau( 124) = (   0.8372862   0.9564921   2.3724215  )
       125           C   tau( 125) = (   0.0012861   1.2460736   2.3404574  )
       126           C   tau( 126) = (   0.1696514   1.1576429   2.3549811  )
       127           C   tau( 127) = (   0.3379386   1.2570092   2.3615588  )
       128           C   tau( 128) = (   0.5046058   1.1563742   2.3655392  )
       129           C   tau( 129) = (   0.6721374   1.2425272   2.3358865  )
       130           C   tau( 130) = (   0.8374497   1.1482468   2.3484453  )
       131           H   tau( 131) = (   0.1694449  -0.1543018   2.3509582  )
       132           H   tau( 132) = (   0.5033915  -0.1534829   2.3385532  )
       133           H   tau( 133) = (   0.8366981  -0.1541085   2.3501637  )
       134           H   tau( 134) = (  -0.0054473   1.3935197   2.3405423  )
       135           H   tau( 135) = (   0.6793985   1.3888379   2.3243999  )
       136           C_h tau( 136) = (   0.3363181   1.4541569   2.3637881  )
       137           O   tau( 137) = (   0.2171155   1.5576896   2.2915398  )
       138           O   tau( 138) = (   0.4734734   1.5386774   2.4557375  )
       139           H   tau( 139) = (   0.4604717   1.6689179   2.4276426  )

     number of k points=     6  gaussian smearing, width (Ry)=  0.1000
                       cart. coord. in units 2pi/alat
        k(    1) = (   0.0000000   0.0000000   0.0000000), wk =   0.2500000
        k(    2) = (   0.0000000  -0.2165064   0.0000000), wk =   0.2500000
        k(    3) = (   0.2500000   0.0000000   0.0000000), wk =   0.5000000
        k(    4) = (   0.2500000  -0.2165064   0.0000000), wk =   0.5000000
        k(    5) = (  -0.5000000   0.0000000   0.0000000), wk =   0.2500000
        k(    6) = (  -0.5000000  -0.2165064   0.0000000), wk =   0.2500000

     Dense  grid:  2050409 G-vectors     FFT dimensions: (  80, 192, 270)

     Largest allocated arrays     est. size (Mb)     dimensions
        Kohn-Sham Wavefunctions       104.25 Mb     (    9171,  745)
        NL pseudopotentials           259.31 Mb     (    9171, 1853)
        Each V/rho on FFT grid          2.34 Mb     (  153600)
        Each G-vector array             0.56 Mb     (   73230)
        G-vector shells                 0.27 Mb     (   35784)
     Largest temporary arrays     est. size (Mb)     dimensions
        Auxiliary wavefunctions       417.02 Mb     (    9171, 2980)
        Each subspace H/S matrix       15.05 Mb     (     993,  993)
        Each <psi_i|beta_j> matrix     21.06 Mb     (    1853,  745)
        Arrays for rho mixing          18.75 Mb     (  153600,    8)

     Initial potential from superposition of free atoms
     Check: negative starting charge=   -0.002131

     starting charge 1225.31748, renormalised to 1242.00000

     negative rho (up, down):  2.160E-03 0.000E+00
     Starting wfc are 1162 randomized atomic wfcs

     total cpu time spent up to now is      182.3 secs

     Self-consistent Calculation

     iteration #  1     ecut=    80.00 Ry     beta=0.70
     Davidson diagonalization with overlap
     c_bands:  1 eigenvalues not converged
     ethr =  1.00E-04,  avg # of iterations = 20.0

     negative rho (up, down):  2.634E+01 0.000E+00

     total cpu time spent up to now is     3188.8 secs

     total energy              =   -8664.56391942 Ry
     Harris-Foulkes estimate   =  -15066.82690546 Ry
     estimated scf accuracy    <  144147.08420414 Ry

     iteration #  2     ecut=    80.00 Ry     beta=0.70
     Davidson diagonalization with overlap
     ethr =  1.00E-02,  avg # of iterations = 14.3

     negative rho (up, down):  1.910E+01 0.000E+00

     total cpu time spent up to now is     4871.8 secs

     total energy              =  -12637.77499386 Ry
     Harris-Foulkes estimate   =  -13202.26575003 Ry
     estimated scf accuracy    <    1681.11693662 Ry

     iteration #  3     ecut=    80.00 Ry     beta=0.70
     Davidson diagonalization with overlap
     ethr =  1.00E-02,  avg # of iterations =  4.7

     negative rho (up, down):  1.651E+01 0.000E+00

     total cpu time spent up to now is     5506.6 secs

     total energy              =  -12718.91667672 Ry
     Harris-Foulkes estimate   =  -12779.11990799 Ry
     estimated scf accuracy    <    1217.84562317 Ry

     iteration #  4     ecut=    80.00 Ry     beta=0.70
     Davidson diagonalization with overlap
     ethr =  1.00E-02,  avg # of iterations =  4.0

     negative rho (up, down):  1.403E+01 0.000E+00

     total cpu time spent up to now is     5902.6 secs

     total energy              =  -12692.48842925 Ry
     Harris-Foulkes estimate   =  -12742.48182047 Ry
     estimated scf accuracy    <     787.04775584 Ry

     iteration #  5     ecut=    80.00 Ry     beta=0.70
     Davidson diagonalization with overlap
     ethr =  1.00E-02,  avg # of iterations =  4.0

     negative rho (up, down):  8.829E+00 0.000E+00

     total cpu time spent up to now is     6317.7 secs

     total energy              =  -12669.17670546 Ry
     Harris-Foulkes estimate   =  -12731.14629700 Ry
     estimated scf accuracy    <     631.80531568 Ry

     iteration #  6     ecut=    80.00 Ry     beta=0.70
     Davidson diagonalization with overlap
     ethr =  1.00E-02,  avg # of iterations =  4.3

     negative rho (up, down):  7.229E+00 0.000E+00

     total cpu time spent up to now is     6738.1 secs

     total energy              =  -12674.36209427 Ry
     Harris-Foulkes estimate   =  -12720.21743810 Ry
     estimated scf accuracy    <     519.87454952 Ry

     iteration #  7     ecut=    80.00 Ry     beta=0.70
     Davidson diagonalization with overlap
     ethr =  1.00E-02,  avg # of iterations =  3.0

     negative rho (up, down):  6.377E+00 0.000E+00

     total cpu time spent up to now is     7094.4 secs

     total energy              =  -12675.37619263 Ry
     Harris-Foulkes estimate   =  -12696.63087096 Ry
     estimated scf accuracy    <     386.85511115 Ry

     iteration #  8     ecut=    80.00 Ry     beta=0.70
     Davidson diagonalization with overlap
     ethr =  1.00E-02,  avg # of iterations =  1.0

     negative rho (up, down):  4.636E+00 0.000E+00

     total cpu time spent up to now is     7406.6 secs

     total energy              =  -12653.92648400 Ry
     Harris-Foulkes estimate   =  -12677.54511584 Ry
     estimated scf accuracy    <     260.89587016 Ry

     iteration #  9     ecut=    80.00 Ry     beta=0.70
     Davidson diagonalization with overlap
     ethr =  1.00E-02,  avg # of iterations =  1.0

     negative rho (up, down):  1.223E+00 0.000E+00

     total cpu time spent up to now is     7716.6 secs

     total energy              =  -12622.12555259 Ry
     Harris-Foulkes estimate   =  -12656.49074673 Ry
     estimated scf accuracy    <     162.21790098 Ry

     iteration # 10     ecut=    80.00 Ry     beta=0.70
     Davidson diagonalization with overlap
     ethr =  1.00E-02,  avg # of iterations =  1.2

     negative rho (up, down):  1.822E+00 0.000E+00

     total cpu time spent up to now is     8035.2 secs

     total energy              =  -12639.27041918 Ry
     Harris-Foulkes estimate   =  -12631.10310930 Ry
     estimated scf accuracy    <     431.03096377 Ry

     iteration # 11     ecut=    80.00 Ry     beta=0.70
     Davidson diagonalization with overlap
     ethr =  1.00E-02,  avg # of iterations =  2.5

     negative rho (up, down):  1.746E+00 0.000E+00

     total cpu time spent up to now is     8379.7 secs

     total energy              =  -12664.47433424 Ry
     Harris-Foulkes estimate   =  -12661.22592627 Ry
     estimated scf accuracy    <    2160.80903885 Ry

     iteration # 12     ecut=    80.00 Ry     beta=0.70
     Davidson diagonalization with overlap
     ethr =  1.00E-02,  avg # of iterations =  1.0

     negative rho (up, down):  1.285E+00 0.000E+00

     total cpu time spent up to now is     8693.3 secs

     total energy              =  -12682.68367923 Ry
     Harris-Foulkes estimate   =  -12665.65887579 Ry
     estimated scf accuracy    <    2105.14279351 Ry

     iteration # 13     ecut=    80.00 Ry     beta=0.70
     Davidson diagonalization with overlap
     ethr =  1.00E-02,  avg # of iterations =  1.0

     negative rho (up, down):  8.790E-01 0.000E+00

     total cpu time spent up to now is     9007.2 secs

     total energy              =  -12621.40049981 Ry
     Harris-Foulkes estimate   =  -12683.63453744 Ry
     estimated scf accuracy    <    2074.75793759 Ry

     iteration # 14     ecut=    80.00 Ry     beta=0.70
     Davidson diagonalization with overlap
     ethr =  1.00E-02,  avg # of iterations =  2.2

     negative rho (up, down):  1.139E+00 0.000E+00

     total cpu time spent up to now is     9365.3 secs

     total energy              =  -12565.46441020 Ry
     Harris-Foulkes estimate   =  -12630.85209161 Ry
     estimated scf accuracy    <     697.44487755 Ry

     iteration # 15     ecut=    80.00 Ry     beta=0.70
     Davidson diagonalization with overlap
     ethr =  1.00E-02,  avg # of iterations =  3.0

     negative rho (up, down):  3.861E+00 0.000E+00

     total cpu time spent up to now is     9732.6 secs

     total energy              =  -12595.02619343 Ry
     Harris-Foulkes estimate   =  -12610.82606673 Ry
     estimated scf accuracy    <     203.43762375 Ry

     iteration # 16     ecut=    80.00 Ry     beta=0.70
     Davidson diagonalization with overlap
     ethr =  1.00E-02,  avg # of iterations =  1.2

     negative rho (up, down):  5.436E+00 0.000E+00

     total cpu time spent up to now is    10048.4 secs

     total energy              =  -12594.32548343 Ry
     Harris-Foulkes estimate   =  -12603.81228102 Ry
     estimated scf accuracy    <     201.54507773 Ry

     iteration # 17     ecut=    80.00 Ry     beta=0.70
     Davidson diagonalization with overlap
     ethr =  1.00E-02,  avg # of iterations =  1.0

     negative rho (up, down):  5.355E+00 0.000E+00

     total cpu time spent up to now is    10360.0 secs

     total energy              =  -12593.64391158 Ry
     Harris-Foulkes estimate   =  -12597.90947002 Ry
     estimated scf accuracy    <      47.06334531 Ry

     iteration # 18     ecut=    80.00 Ry     beta=0.70
     Davidson diagonalization with overlap
     ethr =  3.79E-03,  avg # of iterations =  1.2

     negative rho (up, down):  4.356E+00 0.000E+00

     total cpu time spent up to now is    10679.7 secs

     total energy              =  -12589.80399068 Ry
     Harris-Foulkes estimate   =  -12594.94410293 Ry
     estimated scf accuracy    <      38.07537990 Ry

     iteration # 19     ecut=    80.00 Ry     beta=0.70
     Davidson diagonalization with overlap
     ethr =  3.07E-03,  avg # of iterations =  1.3

     negative rho (up, down):  4.672E+00 0.000E+00

     total cpu time spent up to now is    11000.7 secs

     total energy              =  -12589.08122583 Ry
     Harris-Foulkes estimate   =  -12591.95496191 Ry
     estimated scf accuracy    <      45.69918123 Ry

     iteration # 20     ecut=    80.00 Ry     beta=0.70
     Davidson diagonalization with overlap
     ethr =  3.07E-03,  avg # of iterations =  2.8

     negative rho (up, down):  4.813E+00 0.000E+00

     total cpu time spent up to now is    11348.4 secs

     total energy              =  -12592.49938912 Ry
     Harris-Foulkes estimate   =  -12590.82526868 Ry
     estimated scf accuracy    <      55.53717779 Ry

     iteration # 21     ecut=    80.00 Ry     beta=0.70
     Davidson diagonalization with overlap
     ethr =  3.07E-03,  avg # of iterations =  1.2

     negative rho (up, down):  4.566E+00 0.000E+00

     total cpu time spent up to now is    11667.6 secs

     total energy              =  -12587.14574568 Ry
     Harris-Foulkes estimate   =  -12593.24069786 Ry
     estimated scf accuracy    <     165.80425580 Ry

     iteration # 22     ecut=    80.00 Ry     beta=0.70
     Davidson diagonalization with overlap
     ethr =  3.07E-03,  avg # of iterations =  2.0

     negative rho (up, down):  3.540E+00 0.000E+00

     total cpu time spent up to now is    12001.3 secs

     total energy              =  -12588.43033441 Ry
     Harris-Foulkes estimate   =  -12590.10199768 Ry
     estimated scf accuracy    <      20.55628715 Ry

     iteration # 23     ecut=    80.00 Ry     beta=0.70
     Davidson diagonalization with overlap
     ethr =  1.66E-03,  avg # of iterations =  2.0

     negative rho (up, down):  2.832E+00 0.000E+00

     total cpu time spent up to now is    12333.7 secs

     total energy              =  -12587.01461966 Ry
     Harris-Foulkes estimate   =  -12589.75058043 Ry
     estimated scf accuracy    <      62.38655502 Ry

     iteration # 24     ecut=    80.00 Ry     beta=0.70
     Davidson diagonalization with overlap
     ethr =  1.66E-03,  avg # of iterations =  3.8

     negative rho (up, down):  3.104E+00 0.000E+00

     total cpu time spent up to now is    12704.9 secs

     total energy              =  -12587.36580132 Ry
     Harris-Foulkes estimate   =  -12588.09710237 Ry
     estimated scf accuracy    <      14.37977841 Ry

     iteration # 25     ecut=    80.00 Ry     beta=0.70
     Davidson diagonalization with overlap
     ethr =  1.16E-03,  avg # of iterations =  5.5

     negative rho (up, down):  2.846E+00 0.000E+00

     total cpu time spent up to now is    13108.2 secs

     total energy              =  -12586.99369557 Ry
     Harris-Foulkes estimate   =  -12587.66789335 Ry
     estimated scf accuracy    <      12.03417285 Ry

     iteration # 26     ecut=    80.00 Ry     beta=0.70
     Davidson diagonalization with overlap
     ethr =  9.69E-04,  avg # of iterations =  1.8

     negative rho (up, down):  2.867E+00 0.000E+00

     total cpu time spent up to now is    13434.5 secs

     total energy              =  -12586.59020737 Ry
     Harris-Foulkes estimate   =  -12587.31473950 Ry
     estimated scf accuracy    <      11.68931309 Ry

     iteration # 27     ecut=    80.00 Ry     beta=0.70
     Davidson diagonalization with overlap
     ethr =  9.41E-04,  avg # of iterations =  4.8

     negative rho (up, down):  2.538E+00 0.000E+00

     total cpu time spent up to now is    13823.1 secs

     total energy              =  -12586.08476604 Ry
     Harris-Foulkes estimate   =  -12586.80686911 Ry
     estimated scf accuracy    <       8.17745035 Ry

     iteration # 28     ecut=    80.00 Ry     beta=0.70
     Davidson diagonalization with overlap
     ethr =  6.58E-04,  avg # of iterations =  1.3

     negative rho (up, down):  1.829E+00 0.000E+00

     total cpu time spent up to now is    14144.2 secs

     total energy              =  -12585.31048915 Ry
     Harris-Foulkes estimate   =  -12586.15927280 Ry
     estimated scf accuracy    <       8.67073378 Ry

     iteration # 29     ecut=    80.00 Ry     beta=0.70
     Davidson diagonalization with overlap
     ethr =  6.58E-04,  avg # of iterations =  3.5

     negative rho (up, down):  1.242E+00 0.000E+00

     total cpu time spent up to now is    14505.5 secs

     total energy              =  -12584.26832952 Ry
     Harris-Foulkes estimate   =  -12585.51340879 Ry
     estimated scf accuracy    <      11.97824961 Ry

     iteration # 30     ecut=    80.00 Ry     beta=0.70
     Davidson diagonalization with overlap
     ethr =  6.58E-04,  avg # of iterations =  4.8

     negative rho (up, down):  2.468E+00 0.000E+00

     total cpu time spent up to now is    14896.3 secs

     total energy              =  -12585.11729373 Ry
     Harris-Foulkes estimate   =  -12584.84941430 Ry
     estimated scf accuracy    <      29.53623216 Ry

     iteration # 31     ecut=    80.00 Ry     beta=0.70
     Davidson diagonalization with overlap
     ethr =  6.58E-04,  avg # of iterations =  4.0

     negative rho (up, down):  1.533E+00 0.000E+00

     total cpu time spent up to now is    15277.9 secs

     total energy              =  -12584.85572121 Ry
     Harris-Foulkes estimate   =  -12586.11785873 Ry
     estimated scf accuracy    <       6.06251655 Ry

     iteration # 32     ecut=    80.00 Ry     beta=0.70
     Davidson diagonalization with overlap
     ethr =  4.88E-04,  avg # of iterations =  3.8

     negative rho (up, down):  1.037E+00 0.000E+00

     total cpu time spent up to now is    15648.7 secs

     total energy              =  -12584.17588929 Ry
     Harris-Foulkes estimate   =  -12585.16535096 Ry
     estimated scf accuracy    <       7.60453286 Ry

     iteration # 33     ecut=    80.00 Ry     beta=0.70
     Davidson diagonalization with overlap
     ethr =  4.88E-04,  avg # of iterations =  8.5

     negative rho (up, down):  4.600E-01 0.000E+00

     total cpu time spent up to now is    16115.6 secs

     total energy              =  -12583.95476060 Ry
     Harris-Foulkes estimate   =  -12584.97652621 Ry
     estimated scf accuracy    <       3.07215894 Ry

     iteration # 34     ecut=    80.00 Ry     beta=0.70
     Davidson diagonalization with overlap
     ethr =  2.47E-04,  avg # of iterations = 10.8

     negative rho (up, down):  4.666E-01 0.000E+00

     total cpu time spent up to now is    16623.2 secs

     total energy              =  -12583.72335580 Ry
     Harris-Foulkes estimate   =  -12584.13033581 Ry
     estimated scf accuracy    <       1.67992456 Ry

     iteration # 35     ecut=    80.00 Ry     beta=0.70
     Davidson diagonalization with overlap
     ethr =  1.35E-04,  avg # of iterations =  4.0

     negative rho (up, down):  4.191E-01 0.000E+00

     total cpu time spent up to now is    16999.2 secs

     total energy              =  -12583.64179897 Ry
     Harris-Foulkes estimate   =  -12583.84214751 Ry
     estimated scf accuracy    <       0.68570039 Ry

     iteration # 36     ecut=    80.00 Ry     beta=0.70
     Davidson diagonalization with overlap
     ethr =  5.52E-05,  avg # of iterations =  7.5

     negative rho (up, down):  4.902E-01 0.000E+00

     total cpu time spent up to now is    17466.2 secs

     total energy              =  -12583.60723935 Ry
     Harris-Foulkes estimate   =  -12583.70215044 Ry
     estimated scf accuracy    <       1.00159598 Ry

     iteration # 37     ecut=    80.00 Ry     beta=0.70
     Davidson diagonalization with overlap
     ethr =  5.52E-05,  avg # of iterations =  6.5

     negative rho (up, down):  2.035E-01 0.000E+00

     total cpu time spent up to now is    17899.2 secs

     total energy              =  -12583.57725138 Ry
     Harris-Foulkes estimate   =  -12583.64585793 Ry
     estimated scf accuracy    <       0.37859456 Ry

     iteration # 38     ecut=    80.00 Ry     beta=0.70
     Davidson diagonalization with overlap
     ethr =  3.05E-05,  avg # of iterations =  7.2

     negative rho (up, down):  5.807E-02 0.000E+00

     total cpu time spent up to now is    18353.6 secs

     total energy              =  -12583.57099730 Ry
     Harris-Foulkes estimate   =  -12583.60586607 Ry
     estimated scf accuracy    <       0.30591246 Ry

     iteration # 39     ecut=    80.00 Ry     beta=0.70
     Davidson diagonalization with overlap
     ethr =  2.46E-05,  avg # of iterations =  6.5

     negative rho (up, down):  3.357E-02 0.000E+00

     total cpu time spent up to now is    18780.7 secs

     total energy              =  -12583.56054423 Ry
     Harris-Foulkes estimate   =  -12583.59435620 Ry
     estimated scf accuracy    <       0.21024307 Ry

     iteration # 40     ecut=    80.00 Ry     beta=0.70
     Davidson diagonalization with overlap
     ethr =  1.69E-05,  avg # of iterations =  4.8

     negative rho (up, down):  8.032E-02 0.000E+00

     total cpu time spent up to now is    19179.5 secs

     total energy              =  -12583.56780360 Ry
     Harris-Foulkes estimate   =  -12583.58712041 Ry
     estimated scf accuracy    <       0.13332927 Ry

     iteration # 41     ecut=    80.00 Ry     beta=0.70
     Davidson diagonalization with overlap
     ethr =  1.07E-05,  avg # of iterations =  9.2

     negative rho (up, down):  2.118E-02 0.000E+00

     total cpu time spent up to now is    19674.8 secs

     total energy              =  -12583.57108771 Ry
     Harris-Foulkes estimate   =  -12583.57695548 Ry
     estimated scf accuracy    <       0.05294529 Ry

     iteration # 42     ecut=    80.00 Ry     beta=0.70
     Davidson diagonalization with overlap
     ethr =  4.26E-06,  avg # of iterations = 11.5

     negative rho (up, down):  1.836E-02 0.000E+00

     total cpu time spent up to now is    20228.9 secs

     total energy              =  -12583.57061967 Ry
     Harris-Foulkes estimate   =  -12583.57474383 Ry
     estimated scf accuracy    <       0.02610779 Ry

     iteration # 43     ecut=    80.00 Ry     beta=0.70
     Davidson diagonalization with overlap
     ethr =  2.10E-06,  avg # of iterations = 12.0

     negative rho (up, down):  3.684E-02 0.000E+00

     total cpu time spent up to now is    20792.3 secs

     total energy              =  -12583.56979642 Ry
     Harris-Foulkes estimate   =  -12583.57175592 Ry
     estimated scf accuracy    <       0.01419386 Ry

     iteration # 44     ecut=    80.00 Ry     beta=0.70
     Davidson diagonalization with overlap
     ethr =  1.14E-06,  avg # of iterations =  9.0

     negative rho (up, down):  7.833E-05 0.000E+00

     total cpu time spent up to now is    21301.6 secs

     total energy              =  -12583.56998657 Ry
     Harris-Foulkes estimate   =  -12583.57056598 Ry
     estimated scf accuracy    <       0.00684740 Ry

     iteration # 45     ecut=    80.00 Ry     beta=0.70
     Davidson diagonalization with overlap
     ethr =  5.51E-07,  avg # of iterations =  9.5

     negative rho (up, down):  1.150E-02 0.000E+00

     total cpu time spent up to now is    21824.9 secs

     total energy              =  -12583.57003401 Ry
     Harris-Foulkes estimate   =  -12583.57062170 Ry
     estimated scf accuracy    <       0.00399670 Ry

     iteration # 46     ecut=    80.00 Ry     beta=0.70
     Davidson diagonalization with overlap
     ethr =  3.22E-07,  avg # of iterations =  6.7

     negative rho (up, down):  4.185E-03 0.000E+00

     total cpu time spent up to now is    22277.8 secs

     total energy              =  -12583.57037204 Ry
     Harris-Foulkes estimate   =  -12583.57036876 Ry
     estimated scf accuracy    <       0.00121467 Ry

     iteration # 47     ecut=    80.00 Ry     beta=0.70
     Davidson diagonalization with overlap
     ethr =  9.78E-08,  avg # of iterations =  8.2

     negative rho (up, down):  7.794E-03 0.000E+00

     total cpu time spent up to now is    22757.6 secs

     total energy              =  -12583.57076380 Ry
     Harris-Foulkes estimate   =  -12583.57048258 Ry
     estimated scf accuracy    <       0.00056027 Ry

     iteration # 48     ecut=    80.00 Ry     beta=0.70
     Davidson diagonalization with overlap
     ethr =  4.51E-08,  avg # of iterations =  8.7

     negative rho (up, down):  3.571E-03 0.000E+00

     total cpu time spent up to now is    23276.8 secs

     total energy              =  -12583.57082776 Ry
     Harris-Foulkes estimate   =  -12583.57080839 Ry
     estimated scf accuracy    <       0.00010650 Ry

     iteration # 49     ecut=    80.00 Ry     beta=0.70
     Davidson diagonalization with overlap
     ethr =  8.57E-09,  avg # of iterations = 11.0

     negative rho (up, down):  3.505E-03 0.000E+00

     total cpu time spent up to now is    23830.1 secs

     total energy              =  -12583.57084270 Ry
     Harris-Foulkes estimate   =  -12583.57084094 Ry
     estimated scf accuracy    <       0.00005878 Ry

     iteration # 50     ecut=    80.00 Ry     beta=0.70
     Davidson diagonalization with overlap
     ethr =  4.73E-09,  avg # of iterations =  2.7

     negative rho (up, down):  2.729E-03 0.000E+00

     total cpu time spent up to now is    24188.8 secs

     total energy              =  -12583.57084327 Ry
     Harris-Foulkes estimate   =  -12583.57084844 Ry
     estimated scf accuracy    <       0.00001067 Ry

     iteration # 51     ecut=    80.00 Ry     beta=0.70
     Davidson diagonalization with overlap
     c_bands:  1 eigenvalues not converged
     ethr =  8.59E-10,  avg # of iterations =  9.2

     negative rho (up, down):  2.818E-03 0.000E+00

     total cpu time spent up to now is    24690.2 secs

     total energy              =  -12583.57084490 Ry
     Harris-Foulkes estimate   =  -12583.57084455 Ry
     estimated scf accuracy    <       0.00000676 Ry

     iteration # 52     ecut=    80.00 Ry     beta=0.70
     Davidson diagonalization with overlap
     ethr =  5.44E-10,  avg # of iterations =  3.0

     negative rho (up, down):  2.347E-03 0.000E+00

     total cpu time spent up to now is    25056.7 secs

     total energy              =  -12583.57084531 Ry
     Harris-Foulkes estimate   =  -12583.57084550 Ry
     estimated scf accuracy    <       0.00000224 Ry

     iteration # 53     ecut=    80.00 Ry     beta=0.70
     Davidson diagonalization with overlap
     ethr =  1.81E-10,  avg # of iterations =  3.0

     negative rho (up, down):  2.415E-03 0.000E+00

     total cpu time spent up to now is    25436.7 secs

     total energy              =  -12583.57084555 Ry
     Harris-Foulkes estimate   =  -12583.57084555 Ry
     estimated scf accuracy    <       0.00000081 Ry

     iteration # 54     ecut=    80.00 Ry     beta=0.70
     Davidson diagonalization with overlap
     ethr =  6.53E-11,  avg # of iterations =  2.3

     negative rho (up, down):  2.451E-03 0.000E+00

     total cpu time spent up to now is    25793.9 secs

     total energy              =  -12583.57084569 Ry
     Harris-Foulkes estimate   =  -12583.57084564 Ry
     estimated scf accuracy    <       0.00000028 Ry

     iteration # 55     ecut=    80.00 Ry     beta=0.70
     Davidson diagonalization with overlap
     ethr =  2.28E-11,  avg # of iterations =  2.8

     negative rho (up, down):  2.417E-03 0.000E+00

     total cpu time spent up to now is    26166.8 secs

     total energy              =  -12583.57084578 Ry
     Harris-Foulkes estimate   =  -12583.57084571 Ry
     estimated scf accuracy    <       0.00000003 Ry

     iteration # 56     ecut=    80.00 Ry     beta=0.70
     Davidson diagonalization with overlap
     ethr =  2.55E-12,  avg # of iterations =  3.7

     negative rho (up, down):  2.358E-03 0.000E+00

     total cpu time spent up to now is    26569.4 secs

     End of self-consistent calculation

          k = 0.0000 0.0000 0.0000 (256287 PWs)   bands (ev):

   -22.3445 -19.4790 -16.6099 -16.0650 -15.1921 -14.6784 -14.6388 -14.2707
   -14.0813 -13.9637 -13.3990 -13.1921 -12.7155 -12.2094 -12.0001 -11.3851
   -10.6378 -10.3886  -9.6307  -9.3728  -9.3286  -8.7098  -8.6123  -8.2621
    -7.8731  -7.7633  -7.5271  -7.4056  -7.1024  -6.8595  -6.6420  -6.5304
    -6.5130  -6.2633  -6.0039  -5.9975  -5.9356  -5.7032  -5.6160  -5.5776
    -5.4651  -5.1389  -5.0683  -5.0130  -4.7700  -4.5177  -4.5041  -4.5028
    -4.3530  -4.2660  -3.9229  -3.9205  -3.8994  -3.8247  -3.6659  -3.5813
    -3.5351  -3.5327  -3.5239  -3.5221  -3.5209  -3.5143  -3.4603  -3.4539
    -3.3189  -3.2767  -3.2150  -3.2005  -3.1263  -3.1069  -3.0688  -3.0512
    -2.9999  -2.8508  -2.8463  -2.8428  -2.8412  -2.7156  -2.7098  -2.6766
    -2.6745  -2.6696  -2.6683  -2.6672  -2.6630  -2.5433  -2.5430  -2.5337
    -2.5327  -2.4681  -2.4375  -2.4185  -2.3651  -2.3596  -2.3005  -2.2797
    -2.2733  -2.2610  -2.2559  -2.2420  -2.2163  -2.1949  -2.1810  -2.1723
    -2.1663  -2.1504  -2.1327  -2.0904  -2.0878  -2.0832  -2.0771  -2.0674
    -2.0577  -2.0340  -2.0310  -2.0074  -1.9966  -1.9626  -1.9597  -1.9302
    -1.9137  -1.9016  -1.8811  -1.8707  -1.8272  -1.8123  -1.7974  -1.7860
    -1.7759  -1.7673  -1.7299  -1.7289  -1.7114  -1.7060  -1.6882  -1.6803
    -1.6484  -1.6261  -1.6192  -1.5713  -1.5697  -1.5572  -1.5564  -1.5512
    -1.5467  -1.5434  -1.5425  -1.5394  -1.5389  -1.5247  -1.5208  -1.5200
    -1.5166  -1.5079  -1.4819  -1.4715  -1.4623  -1.4585  -1.4534  -1.4409
    -1.4381  -1.4347  -1.4312  -1.3910  -1.3813  -1.3785  -1.3759  -1.3724
    -1.3720  -1.3698  -1.3676  -1.3668  -1.3660  -1.3650  -1.3640  -1.3598
    -1.3589  -1.3555  -1.3442  -1.3332  -1.3001  -1.2473  -1.2151  -1.2082
    -1.2046  -1.2025  -1.2008  -1.1911  -1.1786  -1.1630  -1.1591  -1.1460
    -1.1406  -1.1333  -1.1196  -1.1156  -1.1144  -1.1079  -1.0891  -1.0822
    -1.0791  -1.0770  -1.0743  -1.0716  -1.0673  -1.0634  -1.0530  -1.0156
    -1.0050  -0.9623  -0.9602  -0.9517  -0.9496  -0.9436  -0.9433  -0.9323
    -0.9288  -0.9284  -0.9232  -0.9216  -0.9200  -0.9192  -0.9179  -0.9108
    -0.9039  -0.9035  -0.9025  -0.8992  -0.8893  -0.8736  -0.8672  -0.8662
    -0.8296  -0.8181  -0.8114  -0.8108  -0.8105  -0.7864  -0.7859  -0.7808
    -0.7781  -0.7779  -0.7705  -0.7668  -0.7634  -0.7619  -0.7594  -0.7428
    -0.7397  -0.7394  -0.7366  -0.7329  -0.7311  -0.7299  -0.7283  -0.7269
    -0.7155  -0.7123  -0.7079  -0.7025  -0.6987  -0.6954  -0.6873  -0.6511
    -0.6441  -0.6368  -0.6351  -0.6319  -0.6169  -0.6045  -0.6023  -0.5970
    -0.5902  -0.5845  -0.5823  -0.5811  -0.5778  -0.5764  -0.5587  -0.5457
    -0.5332  -0.5316  -0.5299  -0.5231  -0.5203  -0.5175  -0.5071  -0.4988
    -0.4905  -0.4879  -0.4856  -0.4830  -0.4786  -0.4761  -0.4719  -0.4704
    -0.4672  -0.4614  -0.4575  -0.4564  -0.4543  -0.4526  -0.4496  -0.4350
    -0.4323  -0.4168  -0.4143  -0.3939  -0.3871  -0.3789  -0.3607  -0.3482
    -0.3303  -0.3200  -0.3137  -0.2887  -0.2868  -0.2858  -0.2823  -0.2776
    -0.2739  -0.2712  -0.2635  -0.2533  -0.2486  -0.2403  -0.2381  -0.2230
    -0.2173  -0.2008  -0.1885  -0.1827  -0.1791  -0.1744  -0.1695  -0.1676
    -0.1577  -0.1467  -0.1411  -0.1400  -0.1356  -0.1309  -0.1174  -0.0964
    -0.0937  -0.0916  -0.0860  -0.0794  -0.0766  -0.0714  -0.0453  -0.0421
    -0.0316  -0.0308  -0.0281  -0.0182  -0.0151  -0.0125  -0.0093  -0.0060
    -0.0027   0.0018   0.0101   0.0110   0.0153   0.0180   0.0188   0.0237
     0.0266   0.0280   0.0315   0.0342   0.0365   0.0476   0.0530   0.0555
     0.0779   0.0802   0.0839   0.0872   0.0904   0.0957   0.1074   0.1141
     0.1262   0.1290   0.1305   0.1359   0.1363   0.1377   0.1388   0.1512
     0.1529   0.1574   0.1664   0.1691   0.1710   0.1722   0.1759   0.1778
     0.1851   0.1875   0.1983   0.2045   0.2112   0.2162   0.2197   0.2244
     0.2260   0.2315   0.2317   0.2348   0.2388   0.2400   0.2456   0.2489
     0.2639   0.2871   0.2874   0.2959   0.2975   0.2992   0.3060   0.3071
     0.3075   0.3356   0.3377   0.3438   0.3485   0.3594   0.3603   0.3687
     0.3719   0.3766   0.3782   0.3829   0.3853   0.3874   0.3967   0.4032
     0.4058   0.4128   0.4133   0.4192   0.4222   0.4262   0.4329   0.4403
     0.4526   0.4566   0.4602   0.4637   0.4672   0.4787   0.4836   0.4869
     0.4908   0.4910   0.4942   0.4953   0.4988   0.5010   0.5082   0.5125
     0.5142   0.5192   0.5235   0.5272   0.5326   0.5380   0.5432   0.5470
     0.5555   0.5620   0.5645   0.5666   0.5765   0.5807   0.5850   0.5906
     0.5937   0.5946   0.5994   0.6001   0.6026   0.6042   0.6147   0.6172
     0.6209   0.6225   0.6318   0.6459   0.6557   0.6601   0.6746   0.6787
     0.6840   0.6867   0.6884   0.6902   0.6948   0.6969   0.7045   0.7060
     0.7091   0.7163   0.7166   0.7188   0.7221   0.7256   0.7286   0.7342
     0.7381   0.7412   0.7449   0.7499   0.7553   0.7571   0.7588   0.7616
     0.7652   0.7677   0.7722   0.7743   0.7792   0.7825   0.7873   0.7897
     0.7928   0.7946   0.7960   0.7964   0.7994   0.8038   0.8087   0.8268
     0.8313   0.8331   0.8358   0.8389   0.8420   0.8473   0.8501   0.8638
     0.8680   0.8717   0.8732   0.8856   0.8891   0.8924   0.8942   0.8946
     0.8995   0.9037   0.9065   0.9102   0.9129   0.9165   0.9202   0.9244
     0.9268   0.9320   0.9334   0.9340   0.9414   0.9447   0.9501   0.9516
     0.9552   0.9567   0.9598   0.9655   0.9689   0.9760   1.0028   1.0070
     1.0094   1.0396   1.0413   1.0448   1.0485   1.0586   1.0632   1.0706
     1.0779   1.0851   1.0894   1.1079   1.1132   1.1151   1.1243   1.1264
     1.1299   1.1402   1.1552   1.3631   1.4391   1.4465   1.5572   1.5786
     1.6131   1.6519   1.6836   1.6888   1.6938   1.6951   1.7045   1.7136
     1.7242   1.7700   1.8140   1.8680   1.9405   1.9465   1.9624   1.9697
     1.9775   2.0006   2.0196   2.1911   2.2094   2.2399   2.2825   2.5023
     2.7460   2.9840   3.0495   3.1541   3.2230   3.2859   3.3026   3.3378
     3.3457   3.3790   3.4131   3.4266   3.4423   3.4522   3.4798   3.4878
     3.4980   3.5324   3.5571   3.6426   3.6563   3.7189   3.7408   3.8776
     3.9159   4.0546   4.2664   4.4472   4.6532   4.7156   4.7822   4.7894
     4.9632   5.1194   5.1734   5.2747   5.3238   5.3827   5.3887   5.4432
     5.6798   5.8086   5.8353   5.8505   5.9086   5.9780   5.9853   6.0491
     6.1047   6.1794   6.2058   6.2183   6.2570   6.2808   6.2916   6.4259
     6.4793   6.5311   6.5737   6.6300   6.6624   6.8360   6.8497   6.9790
     7.0130   7.0886   7.1797   7.2023   7.2088   7.2435   7.3194   7.3492
     7.4140   7.5355   7.5787   7.6273   7.6819   7.7199   7.8154   7.8266
     7.8316   7.8675   7.9154   7.9386   7.9912   8.0421   8.0653   8.0783
     8.1393   8.1712   8.2176   8.2398   8.2467   8.2985   8.3309   8.3398
     8.3603   8.3729   8.3917   8.4340   8.4633   8.4969   8.5628   8.6076
     8.6944   8.7401   8.7661   8.7781   8.8195   8.8663   8.9635   9.0163
     9.0482   9.1048   9.2223   9.2395   9.2971   9.3165   9.3660   9.4578
     9.5189

          k = 0.0000-0.2165 0.0000 (256176 PWs)   bands (ev):

   -22.3445 -19.4790 -16.6099 -16.0649 -15.1922 -14.6784 -14.6388 -14.2706
   -14.0813 -13.9636 -13.3992 -13.1921 -12.7157 -12.2091 -12.0000 -11.3851
   -10.6379 -10.3878  -9.6320  -9.3727  -9.3293  -8.7091  -8.6123  -8.2610
    -7.8724  -7.7636  -7.5258  -7.4064  -7.1024  -6.8627  -6.6417  -6.5154
    -6.4125  -6.3832  -6.2545  -5.9384  -5.7004  -5.6158  -5.5727  -5.4519
    -5.3651  -5.3399  -5.2572  -5.1299  -4.8844  -4.6263  -4.4928  -4.3505
    -4.2676  -4.1374  -3.8896  -3.8291  -3.8278  -3.8054  -3.8022  -3.6564
    -3.6177  -3.5929  -3.5437  -3.5322  -3.5265  -3.4651  -3.4548  -3.4033
    -3.2655  -3.1143  -3.1047  -3.1028  -3.0961  -3.0938  -3.0763  -3.0683
    -3.0473  -3.0127  -2.9651  -2.9420  -2.7776  -2.7671  -2.7415  -2.6865
    -2.6795  -2.6724  -2.6627  -2.6523  -2.6471  -2.6392  -2.5040  -2.5035
    -2.4790  -2.4789  -2.4395  -2.4319  -2.3722  -2.3641  -2.3211  -2.3004
    -2.2851  -2.2758  -2.2659  -2.2630  -2.2585  -2.2564  -2.2354  -2.2333
    -2.2019  -2.1941  -2.1679  -2.1575  -2.1366  -2.1210  -2.0882  -1.9737
    -1.9730  -1.9641  -1.9614  -1.9202  -1.9009  -1.8894  -1.8867  -1.8388
    -1.8309  -1.8189  -1.7986  -1.7981  -1.7934  -1.7919  -1.7877  -1.7817
    -1.7679  -1.7600  -1.7564  -1.7445  -1.7400  -1.7350  -1.7265  -1.7220
    -1.7064  -1.6767  -1.6753  -1.6547  -1.6439  -1.6084  -1.6053  -1.5740
    -1.5714  -1.5677  -1.5662  -1.5637  -1.5365  -1.5190  -1.5130  -1.5112
    -1.5021  -1.4966  -1.4926  -1.4921  -1.4888  -1.4565  -1.4527  -1.4391
    -1.4382  -1.4372  -1.4325  -1.4281  -1.4243  -1.4227  -1.4023  -1.4004
    -1.3731  -1.3533  -1.3436  -1.3405  -1.3370  -1.3292  -1.3252  -1.3184
    -1.3087  -1.3016  -1.2932  -1.2765  -1.2732  -1.2678  -1.2611  -1.2158
    -1.1940  -1.1820  -1.1807  -1.1651  -1.1649  -1.1516  -1.1502  -1.1319
    -1.1286  -1.1217  -1.1202  -1.1182  -1.1144  -1.1062  -1.0977  -1.0888
    -1.0727  -1.0710  -1.0642  -1.0559  -1.0545  -1.0536  -1.0517  -1.0419
    -1.0246  -1.0170  -1.0112  -1.0026  -1.0025  -0.9781  -0.9727  -0.9677
    -0.9663  -0.9642  -0.9622  -0.9591  -0.9374  -0.9323  -0.9027  -0.8897
    -0.8854  -0.8776  -0.8674  -0.8670  -0.8648  -0.8495  -0.8424  -0.8255
    -0.8210  -0.8173  -0.8108  -0.8081  -0.8069  -0.8002  -0.7977  -0.7811
    -0.7796  -0.7759  -0.7715  -0.7659  -0.7640  -0.7621  -0.7612  -0.7553
    -0.7523  -0.7479  -0.7381  -0.7264  -0.7236  -0.7214  -0.7202  -0.7111
    -0.6998  -0.6787  -0.6620  -0.6598  -0.6583  -0.6540  -0.6528  -0.6482
    -0.6441  -0.6400  -0.6254  -0.6239  -0.6144  -0.6127  -0.6081  -0.6025
    -0.6014  -0.5981  -0.5979  -0.5939  -0.5882  -0.5834  -0.5671  -0.5497
    -0.5426  -0.5403  -0.5390  -0.5359  -0.5349  -0.5137  -0.5123  -0.5088
    -0.5018  -0.4982  -0.4943  -0.4889  -0.4878  -0.4788  -0.4712  -0.4601
    -0.4541  -0.4456  -0.4441  -0.4424  -0.4421  -0.4279  -0.4227  -0.4184
    -0.4113  -0.4056  -0.4002  -0.3993  -0.3937  -0.3834  -0.3823  -0.3540
    -0.3485  -0.3406  -0.3380  -0.3362  -0.3295  -0.3235  -0.3162  -0.3157
    -0.3069  -0.2949  -0.2904  -0.2593  -0.2549  -0.2539  -0.2448  -0.2289
    -0.2059  -0.2014  -0.1718  -0.1551  -0.1460  -0.1417  -0.1394  -0.1335
    -0.1309  -0.1269  -0.1088  -0.1024  -0.0969  -0.0877  -0.0814  -0.0797
    -0.0754  -0.0723  -0.0688  -0.0647  -0.0619  -0.0564  -0.0516  -0.0472
    -0.0463  -0.0387  -0.0362  -0.0352  -0.0203  -0.0180  -0.0104  -0.0046
     0.0015   0.0057   0.0087   0.0125   0.0167   0.0189   0.0196   0.0247
     0.0302   0.0361   0.0380   0.0405   0.0407   0.0453   0.0526   0.0540
     0.0584   0.0630   0.0649   0.0662   0.0703   0.0721   0.0741   0.0806
     0.0963   0.0987   0.1201   0.1235   0.1319   0.1387   0.1395   0.1421
     0.1454   0.1504   0.1552   0.1577   0.1619   0.1642   0.1660   0.1669
     0.1735   0.1842   0.1973   0.2018   0.2068   0.2104   0.2126   0.2190
     0.2254   0.2278   0.2323   0.2426   0.2483   0.2529   0.2535   0.2560
     0.2592   0.2681   0.2687   0.2974   0.3018   0.3167   0.3213   0.3521
     0.3663   0.3683   0.3693   0.3728   0.3746   0.3788   0.3838   0.3852
     0.3874   0.3937   0.3965   0.3990   0.4001   0.4061   0.4074   0.4116
     0.4178   0.4204   0.4255   0.4304   0.4335   0.4350   0.4399   0.4434
     0.4456   0.4483   0.4488   0.4500   0.4526   0.4550   0.4559   0.4621
     0.4690   0.4725   0.4734   0.4750   0.4752   0.4835   0.4846   0.4920
     0.4943   0.5040   0.5073   0.5094   0.5115   0.5143   0.5168   0.5183
     0.5214   0.5230   0.5266   0.5302   0.5421   0.5617   0.5702   0.5986
     0.6063   0.6138   0.6185   0.6216   0.6291   0.6349   0.6368   0.6441
     0.6506   0.6516   0.6560   0.6609   0.6622   0.6674   0.6689   0.6748
     0.6783   0.6817   0.6827   0.6842   0.6849   0.6883   0.6894   0.6914
     0.6934   0.6967   0.7033   0.7083   0.7105   0.7154   0.7177   0.7189
     0.7243   0.7284   0.7396   0.7469   0.7488   0.7521   0.7535   0.7542
     0.7584   0.7606   0.7628   0.7749   0.7794   0.7802   0.7814   0.7863
     0.7870   0.7919   0.7979   0.7990   0.8025   0.8146   0.8151   0.8164
     0.8228   0.8308   0.8350   0.8372   0.8443   0.8570   0.8605   0.8660
     0.8668   0.8686   0.8711   0.8723   0.8753   0.8796   0.8813   0.8939
     0.8953   0.8996   0.9080   0.9091   0.9119   0.9235   0.9268   0.9294
     0.9315   0.9334   0.9342   0.9353   0.9367   0.9614   0.9645   0.9695
     0.9712   0.9755   0.9868   0.9948   0.9949   1.0010   1.0050   1.0056
     1.0114   1.0149   1.0165   1.0189   1.0316   1.0771   1.0817   1.0848
     1.1030   1.1582   1.1903   1.2064   1.2203   1.2308   1.2327   1.2426
     1.2584   1.2617   1.2667   1.2825   1.2914   1.3010   1.3038   1.3078
     1.3188   1.3302   1.3416   1.6018   1.7352   1.8830   1.8976   1.9274
     1.9408   1.9670   1.9818   2.0500   2.0595   2.0631   2.0747   2.0954
     2.1657   2.1868   2.1901   2.2102   2.2459   2.2887   2.3173   2.4032
     2.4045   2.5747   2.6525   2.6526   2.6638   2.6892   2.9256   3.0194
     3.1296   3.1608   3.2306   3.3580   3.5793   3.6021   3.6423   3.7226
     3.8328   3.8347   3.8562   3.8591   3.8810   4.0081   4.1403   4.2505
     4.3698   4.4552   4.5004   4.5740   4.5905   4.6864   4.7615   4.7839
     4.8406   4.8455   4.8847   4.9185   4.9697   5.0653   5.2243   5.7063
     5.7530   5.7955   5.8449   5.9491   5.9672   6.0248   6.0578   6.0731
     6.1286   6.1611   6.1850   6.2401   6.3116   6.3871   6.4850   6.5049
     6.5293   6.5511   6.5824   6.6161   6.6287   6.6430   6.6512   6.6731
     6.7155   6.8499   6.9316   6.9809   7.0965   7.1626   7.1995   7.3063
     7.3591   7.3812   7.6023   7.6150   7.6752   7.7895   7.8414   7.8558
     7.8898   7.9679   7.9812   8.0345   8.0743   8.1629   8.1679   8.1922
     8.2085   8.2162   8.2604   8.2750   8.3224   8.3408   8.4008   8.4123
     8.4351   8.5204   8.5486   8.6095   8.7048   8.7197   8.7956   8.8394
     8.8516   8.8766   8.8888   8.9066   8.9365   8.9541   8.9844   8.9865
     9.0086   9.0849   9.1420   9.1810   9.2610   9.2736   9.2926   9.3463
     9.3738

          k = 0.2500 0.0000 0.0000 (256240 PWs)   bands (ev):

   -22.3444 -19.4792 -16.4862 -15.9437 -15.5051 -15.0966 -14.9466 -14.1894
   -13.8567 -13.5711 -13.1640 -12.9622 -12.5178 -12.1983 -11.7678 -11.2600
   -11.0565 -10.4454 -10.1436  -9.5955  -9.5183  -9.2793  -8.9779  -8.3515
    -8.0962  -7.6293  -7.2838  -7.0397  -6.9124  -6.7307  -6.5264  -6.3543
    -6.2280  -6.1020  -5.8458  -5.8254  -5.7683  -5.4794  -5.3416  -5.1436
    -5.0086  -4.9769  -4.9163  -4.8553  -4.6377  -4.6127  -4.5152  -4.5123
    -4.4519  -4.3631  -4.3565  -4.2431  -4.1541  -4.0832  -4.0471  -4.0364
    -3.9455  -3.7575  -3.7243  -3.6941  -3.6405  -3.5578  -3.5305  -3.4976
    -3.4596  -3.4269  -3.3179  -3.3156  -3.2935  -3.2088  -3.1605  -3.1007
    -3.0852  -2.9172  -2.8704  -2.8479  -2.8233  -2.6273  -2.6204  -2.6162
    -2.6017  -2.5961  -2.5802  -2.4499  -2.4159  -2.3885  -2.3687  -2.3520
    -2.3332  -2.3237  -2.3204  -2.3164  -2.3093  -2.3078  -2.2930  -2.2699
    -2.2415  -2.2236  -2.1936  -2.1820  -2.1591  -2.1538  -2.1280  -2.1207
    -2.1001  -2.0978  -2.0955  -2.0930  -2.0861  -2.0609  -2.0546  -2.0236
    -2.0191  -2.0109  -2.0099  -1.9633  -1.8924  -1.8876  -1.8526  -1.8508
    -1.8366  -1.8298  -1.7861  -1.7758  -1.7664  -1.7624  -1.7540  -1.7429
    -1.7284  -1.7262  -1.7106  -1.7055  -1.7007  -1.6976  -1.6913  -1.6692
    -1.6590  -1.6555  -1.6514  -1.6449  -1.6392  -1.6325  -1.6293  -1.6252
    -1.6014  -1.5884  -1.5753  -1.5710  -1.5635  -1.5492  -1.5425  -1.5325
    -1.5266  -1.5252  -1.5231  -1.5150  -1.5108  -1.5053  -1.5037  -1.5009
    -1.4964  -1.4944  -1.4934  -1.4917  -1.4811  -1.4710  -1.4641  -1.4543
    -1.4427  -1.4203  -1.4163  -1.4137  -1.3733  -1.3705  -1.3333  -1.3315
    -1.3192  -1.3136  -1.3050  -1.2918  -1.2902  -1.2826  -1.2789  -1.2734
    -1.2691  -1.2664  -1.2617  -1.2530  -1.2437  -1.1846  -1.1507  -1.1387
    -1.1260  -1.1086  -1.1075  -1.0938  -1.0869  -1.0861  -1.0797  -1.0725
    -1.0688  -1.0648  -1.0555  -1.0539  -1.0502  -1.0451  -1.0425  -1.0259
    -1.0088  -1.0067  -1.0042  -1.0003  -0.9926  -0.9804  -0.9790  -0.9780
    -0.9756  -0.9596  -0.9342  -0.9198  -0.9194  -0.9153  -0.9101  -0.9074
    -0.9047  -0.9000  -0.8972  -0.8763  -0.8745  -0.8651  -0.8536  -0.8508
    -0.8455  -0.8235  -0.8152  -0.8127  -0.8107  -0.8100  -0.8033  -0.7953
    -0.7871  -0.7817  -0.7792  -0.7647  -0.7632  -0.7561  -0.7508  -0.7418
    -0.7298  -0.7212  -0.7181  -0.7137  -0.7092  -0.7068  -0.6996  -0.6973
    -0.6908  -0.6720  -0.6687  -0.6646  -0.6569  -0.6515  -0.6420  -0.6336
    -0.6302  -0.6276  -0.6116  -0.5904  -0.5852  -0.5839  -0.5818  -0.5783
    -0.5683  -0.5561  -0.5399  -0.5356  -0.5322  -0.5301  -0.5280  -0.5224
    -0.5159  -0.5142  -0.5131  -0.5107  -0.5078  -0.5066  -0.5033  -0.4979
    -0.4931  -0.4844  -0.4815  -0.4794  -0.4757  -0.4679  -0.4588  -0.4540
    -0.4476  -0.4405  -0.4357  -0.4306  -0.4111  -0.4078  -0.4021  -0.4002
    -0.3954  -0.3831  -0.3795  -0.3789  -0.3719  -0.3666  -0.3544  -0.3427
    -0.3277  -0.3031  -0.2850  -0.2710  -0.2654  -0.2630  -0.2605  -0.2525
    -0.2497  -0.2460  -0.2423  -0.2393  -0.2377  -0.2334  -0.2306  -0.2280
    -0.2251  -0.2228  -0.2172  -0.2110  -0.2064  -0.2006  -0.1972  -0.1909
    -0.1868  -0.1814  -0.1808  -0.1761  -0.1686  -0.1622  -0.1575  -0.1401
    -0.1154  -0.1122  -0.1021  -0.1002  -0.0967  -0.0872  -0.0831  -0.0761
    -0.0704  -0.0652  -0.0494  -0.0451  -0.0434  -0.0406  -0.0369  -0.0323
    -0.0305  -0.0264  -0.0228  -0.0195  -0.0130  -0.0058  -0.0048   0.0031
     0.0070   0.0108   0.0166   0.0258   0.0318   0.0344   0.0370   0.0423
     0.0523   0.0580   0.0606   0.0661   0.0711   0.0723   0.0778   0.0802
     0.0837   0.0883   0.0926   0.0959   0.1004   0.1091   0.1182   0.1230
     0.1332   0.1356   0.1421   0.1448   0.1495   0.1534   0.1600   0.1661
     0.1803   0.1889   0.1997   0.2069   0.2195   0.2205   0.2221   0.2268
     0.2293   0.2402   0.2462   0.2513   0.2572   0.2581   0.2617   0.2629
     0.2677   0.2790   0.2817   0.2935   0.2985   0.3035   0.3070   0.3149
     0.3220   0.3296   0.3364   0.3387   0.3424   0.3587   0.3612   0.3623
     0.3702   0.3713   0.3739   0.3742   0.3769   0.3844   0.3852   0.3955
     0.4007   0.4166   0.4264   0.4307   0.4364   0.4436   0.4503   0.4546
     0.4615   0.4668   0.4695   0.4704   0.4733   0.4759   0.4818   0.4847
     0.4870   0.4904   0.4938   0.4986   0.5001   0.5024   0.5030   0.5054
     0.5078   0.5113   0.5172   0.5182   0.5213   0.5251   0.5332   0.5390
     0.5420   0.5482   0.5516   0.5532   0.5551   0.5599   0.5679   0.5721
     0.5794   0.5816   0.5868   0.5910   0.5941   0.5953   0.5985   0.6038
     0.6094   0.6106   0.6201   0.6243   0.6279   0.6323   0.6360   0.6423
     0.6480   0.6638   0.6687   0.6722   0.6744   0.6790   0.6897   0.6945
     0.7017   0.7128   0.7166   0.7220   0.7258   0.7299   0.7357   0.7396
     0.7423   0.7431   0.7467   0.7527   0.7575   0.7604   0.7678   0.7694
     0.7736   0.7752   0.7772   0.7801   0.7813   0.7857   0.7876   0.7914
     0.7972   0.7995   0.8018   0.8078   0.8099   0.8158   0.8190   0.8214
     0.8321   0.8349   0.8403   0.8449   0.8459   0.8506   0.8561   0.8604
     0.8644   0.8662   0.8732   0.8756   0.8772   0.8849   0.8899   0.8971
     0.9006   0.9023   0.9040   0.9062   0.9089   0.9111   0.9130   0.9171
     0.9190   0.9223   0.9249   0.9269   0.9386   0.9450   0.9486   0.9515
     0.9541   0.9573   0.9633   0.9653   0.9668   0.9716   0.9745   0.9797
     0.9894   0.9929   0.9981   1.0013   1.0089   1.0264   1.0319   1.0371
     1.0609   1.0746   1.0946   1.1042   1.1062   1.1102   1.1148   1.1653
     1.2096   1.2313   1.2443   1.2521   1.2547   1.2933   1.2989   1.3196
     1.5099   1.5166   1.5565   1.5712   1.5860   1.6176   1.6695   1.7126
     1.7995   1.9351   2.0266   2.0472   2.0524   2.0645   2.3411   2.4530
     2.4628   2.5427   2.6621   2.6823   2.6998   2.7009   2.7288   2.8232
     2.8484   2.9497   3.0221   3.0824   3.1208   3.1420   3.1704   3.1814
     3.2031   3.2453   3.2936   3.3274   3.3547   3.3951   3.4368   3.5047
     3.6598   3.7311   3.7607   3.8449   3.9662   4.1989   4.2919   4.3019
     4.3294   4.5861   4.6071   4.6287   4.7136   4.7517   4.7840   4.8698
     4.9489   4.9785   5.0025   5.0185   5.0458   5.1261   5.1640   5.2410
     5.3079   5.3676   5.4122   5.4596   5.4736   5.5003   5.5051   5.5696
     5.6978   5.7321   6.0659   6.1772   6.1886   6.2296   6.2523   6.2843
     6.4239   6.4917   6.5195   6.5328   6.5452   6.5507   6.6212   6.6872
     6.7384   6.8679   6.8980   6.9649   7.0089   7.0617   7.1144   7.1789
     7.2372   7.3024   7.3524   7.4328   7.5211   7.5360   7.5513   7.5749
     7.6133   7.6685   7.7260   7.7825   7.8051   7.8622   7.8789   7.9708
     8.0030   8.0304   8.0648   8.1175   8.1391   8.2944   8.4241   8.4366
     8.4900   8.5136   8.5393   8.5696   8.6207   8.6465   8.6667   8.6985
     8.7131   8.7736   8.8139   8.8420   8.9087   8.9281   8.9382   8.9501
     9.0125   9.0296   9.1257   9.1460   9.2054   9.2262   9.3201   9.3714
     9.3900

          k = 0.2500-0.2165 0.0000 (256316 PWs)   bands (ev):

   -22.3444 -19.4792 -16.4862 -15.9437 -15.5051 -15.0967 -14.9465 -14.1894
   -13.8565 -13.5711 -13.1640 -12.9621 -12.5182 -12.1982 -11.7677 -11.2598
   -11.0561 -10.4453 -10.1433  -9.5960  -9.5189  -9.2795  -8.9787  -8.3506
    -8.0950  -7.6288  -7.2825  -7.0397  -6.9137  -6.7334  -6.5275  -6.2404
    -6.2244  -6.2092  -6.0920  -5.7899  -5.4789  -5.3013  -5.2079  -5.1826
    -5.1514  -5.1091  -4.9836  -4.8723  -4.8441  -4.7373  -4.6322  -4.4885
    -4.4370  -4.2102  -4.1669  -4.0691  -4.0534  -4.0358  -4.0074  -3.9812
    -3.9645  -3.9336  -3.8687  -3.7100  -3.5935  -3.5541  -3.5151  -3.4850
    -3.4486  -3.4214  -3.4126  -3.3744  -3.3096  -3.2686  -3.2052  -3.0722
    -2.8645  -2.8392  -2.8214  -2.7181  -2.7077  -2.6874  -2.6865  -2.6817
    -2.6294  -2.6062  -2.5484  -2.5276  -2.5181  -2.4973  -2.4487  -2.3604
    -2.3370  -2.3329  -2.3297  -2.3228  -2.2660  -2.2558  -2.2429  -2.2379
    -2.2301  -2.2218  -2.2182  -2.2110  -2.2002  -2.1953  -2.1908  -2.1858
    -2.1811  -2.1730  -2.1659  -2.1030  -2.0935  -2.0606  -1.9913  -1.9845
    -1.9664  -1.9123  -1.8521  -1.8504  -1.8456  -1.8151  -1.7989  -1.7953
    -1.7934  -1.7826  -1.7810  -1.7677  -1.7638  -1.7587  -1.7572  -1.7542
    -1.7447  -1.7433  -1.7382  -1.7363  -1.7278  -1.7213  -1.7127  -1.7062
    -1.6998  -1.6924  -1.6903  -1.6591  -1.6487  -1.6412  -1.6350  -1.6340
    -1.6291  -1.6176  -1.5955  -1.5909  -1.5826  -1.5604  -1.5586  -1.5548
    -1.5518  -1.5380  -1.5334  -1.5207  -1.5160  -1.5129  -1.5106  -1.4830
    -1.4807  -1.4757  -1.4739  -1.4719  -1.4660  -1.4639  -1.4470  -1.4437
    -1.4337  -1.4226  -1.4037  -1.3943  -1.3812  -1.3786  -1.3767  -1.3074
    -1.3019  -1.2978  -1.2888  -1.2829  -1.2821  -1.2608  -1.2489  -1.2412
    -1.2356  -1.2320  -1.2246  -1.2235  -1.2207  -1.2041  -1.1889  -1.1705
    -1.1644  -1.1479  -1.1313  -1.1266  -1.1183  -1.0924  -1.0869  -1.0824
    -1.0799  -1.0786  -1.0563  -1.0535  -1.0506  -1.0343  -1.0274  -1.0231
    -1.0207  -1.0142  -1.0064  -0.9948  -0.9887  -0.9724  -0.9692  -0.9556
    -0.9508  -0.9426  -0.9313  -0.9293  -0.9255  -0.9135  -0.9106  -0.9063
    -0.8898  -0.8882  -0.8856  -0.8813  -0.8804  -0.8772  -0.8726  -0.8686
    -0.8653  -0.8576  -0.8453  -0.8390  -0.8366  -0.8236  -0.8032  -0.7980
    -0.7911  -0.7826  -0.7763  -0.7662  -0.7603  -0.7586  -0.7532  -0.7413
    -0.7370  -0.7362  -0.7292  -0.7244  -0.7054  -0.6992  -0.6834  -0.6732
    -0.6692  -0.6356  -0.6298  -0.6285  -0.6271  -0.6234  -0.6211  -0.6128
    -0.6077  -0.6028  -0.5915  -0.5884  -0.5850  -0.5818  -0.5727  -0.5628
    -0.5612  -0.5583  -0.5539  -0.5445  -0.5404  -0.5366  -0.5314  -0.5264
    -0.5248  -0.5229  -0.5192  -0.5145  -0.5109  -0.5103  -0.5064  -0.5015
    -0.4979  -0.4920  -0.4904  -0.4876  -0.4833  -0.4737  -0.4565  -0.4520
    -0.4462  -0.4410  -0.4393  -0.4241  -0.4177  -0.4118  -0.3896  -0.3867
    -0.3836  -0.3808  -0.3739  -0.3697  -0.3631  -0.3572  -0.3536  -0.3493
    -0.3462  -0.3448  -0.3314  -0.3195  -0.3161  -0.2774  -0.2597  -0.2518
    -0.2497  -0.2470  -0.2433  -0.2399  -0.2361  -0.2316  -0.2271  -0.2185
    -0.2173  -0.2146  -0.2075  -0.2062  -0.1976  -0.1933  -0.1889  -0.1856
    -0.1828  -0.1802  -0.1623  -0.1587  -0.1546  -0.1489  -0.1412  -0.1354
    -0.1307  -0.1253  -0.1183  -0.1097  -0.1024  -0.0892  -0.0848  -0.0741
    -0.0701  -0.0664  -0.0631  -0.0598  -0.0491  -0.0467  -0.0448  -0.0402
    -0.0388  -0.0347  -0.0312  -0.0267  -0.0107  -0.0043  -0.0002   0.0070
     0.0115   0.0210   0.0405   0.0467   0.0487   0.0499   0.0674   0.0728
     0.0760   0.0801   0.0861   0.0889   0.0931   0.0984   0.1021   0.1031
     0.1061   0.1181   0.1249   0.1257   0.1284   0.1332   0.1358   0.1442
     0.1464   0.1497   0.1518   0.1553   0.1569   0.1650   0.1697   0.1713
     0.1733   0.1778   0.1818   0.1836   0.1891   0.1910   0.1923   0.1937
     0.1972   0.2033   0.2098   0.2195   0.2321   0.2351   0.2437   0.2465
     0.2537   0.2674   0.2768   0.2913   0.2979   0.3022   0.3040   0.3062
     0.3079   0.3101   0.3124   0.3279   0.3325   0.3350   0.3356   0.3368
     0.3380   0.3413   0.3514   0.3587   0.3660   0.3684   0.3755   0.3779
     0.3811   0.3872   0.3973   0.4053   0.4095   0.4140   0.4191   0.4338
     0.4369   0.4400   0.4457   0.4470   0.4509   0.4545   0.4608   0.4719
     0.4812   0.4838   0.4928   0.4944   0.5012   0.5072   0.5139   0.5213
     0.5305   0.5368   0.5480   0.5541   0.5609   0.5674   0.5683   0.5692
     0.5711   0.5723   0.5732   0.5754   0.5776   0.5824   0.5841   0.5884
     0.5906   0.5982   0.6013   0.6063   0.6099   0.6162   0.6303   0.6373
     0.6421   0.6457   0.6487   0.6515   0.6557   0.6582   0.6605   0.6665
     0.6673   0.6712   0.6727   0.6751   0.6792   0.6825   0.6838   0.6893
     0.6935   0.6970   0.6991   0.7020   0.7048   0.7063   0.7093   0.7129
     0.7203   0.7303   0.7329   0.7401   0.7490   0.7513   0.7544   0.7590
     0.7623   0.7709   0.7759   0.7801   0.7850   0.7903   0.7919   0.7989
     0.8026   0.8088   0.8114   0.8121   0.8161   0.8182   0.8244   0.8265
     0.8323   0.8339   0.8367   0.8407   0.8478   0.8535   0.8553   0.8571
     0.8621   0.8634   0.8657   0.8682   0.8756   0.8762   0.8770   0.8806
     0.8834   0.8872   0.8920   0.9002   0.9029   0.9111   0.9144   0.9175
     0.9194   0.9212   0.9225   0.9241   0.9257   0.9314   0.9342   0.9352
     0.9386   0.9583   0.9599   0.9619   0.9651   0.9743   0.9816   0.9837
     0.9911   1.0000   1.0041   1.0095   1.0297   1.0326   1.0340   1.0402
     1.0423   1.0613   1.0785   1.0981   1.1443   1.1484   1.1632   1.1872
     1.2330   1.2353   1.2417   1.2628   1.2753   1.2831   1.3049   1.3347
     1.3905   1.4215   1.5976   1.6040   1.6351   1.6407   1.7493   1.7742
     1.8925   2.0587   2.0665   2.2286   2.2376   2.2527   2.2762   2.2871
     2.2921   2.3268   2.3388   2.4093   2.4624   2.5106   2.5874   2.6369
     2.8608   3.0584   3.0819   3.1239   3.1420   3.2383   3.2894   3.3066
     3.3357   3.3468   3.3915   3.4802   3.4954   3.5526   3.5726   3.6458
     3.6501   3.8552   3.8657   3.9732   3.9994   4.0415   4.1339   4.1616
     4.2475   4.2728   4.4558   4.5336   4.6058   4.6871   4.7348   4.7837
     4.8435   4.8547   4.9171   4.9436   4.9784   5.0274   5.0786   5.2249
     5.2550   5.3355   5.3706   5.4241   5.4725   5.6277   5.7716   5.9982
     6.0187   6.0672   6.0848   6.1717   6.2435   6.3139   6.3624   6.4093
     6.4461   6.4931   6.5877   6.6248   6.6395   6.6645   6.6846   6.7151
     6.7470   6.7865   6.8349   6.8493   6.8998   6.9293   6.9506   7.0341
     7.1287   7.2014   7.2654   7.3449   7.3883   7.5009   7.5392   7.5900
     7.6659   7.6810   7.7436   7.8014   7.9264   8.0162   8.0397   8.0709
     8.1210   8.1432   8.1521   8.1858   8.1990   8.2432   8.2707   8.3460
     8.4024   8.4435   8.4598   8.5314   8.5951   8.6117   8.6504   8.6827
     8.7056   8.7366   8.7546   8.7736   8.8007   8.8176   8.8552   8.8939
     8.9176   8.9544   9.0327   9.0508   9.1320   9.1601   9.1873   9.2455
     9.3067

          k =-0.5000 0.0000 0.0000 (256496 PWs)   bands (ev):

   -22.3444 -19.4794 -16.1204 -16.1122 -15.6094 -15.5509 -14.7966 -14.6176
   -13.7394 -13.3696 -12.5524 -12.3154 -12.2804 -11.9428 -11.8768 -11.8252
   -11.4129 -10.6975 -10.4497  -9.6759  -9.5259  -9.3498  -9.2175  -8.5336
    -8.4222  -8.0519  -7.5911  -7.0986  -6.6128  -6.0867  -5.8243  -5.8176
    -5.7232  -5.6791  -5.5426  -5.3325  -5.3196  -5.3174  -5.3147  -5.3065
    -5.2571  -5.1234  -4.8914  -4.8717  -4.8057  -4.7974  -4.5803  -4.4771
    -4.4567  -4.4310  -4.4115  -4.3947  -4.1932  -4.1691  -4.1192  -4.0611
    -3.9912  -3.9415  -3.9391  -3.9340  -3.9301  -3.8400  -3.8162  -3.7905
    -3.7067  -3.6688  -3.2934  -3.2870  -3.1677  -3.1599  -3.1536  -3.1301
    -3.0475  -3.0004  -2.8953  -2.8729  -2.7968  -2.7958  -2.7759  -2.7647
    -2.6742  -2.5854  -2.4021  -2.3985  -2.3981  -2.3963  -2.3934  -2.3927
    -2.3349  -2.3338  -2.2591  -2.2507  -2.2042  -2.1712  -2.1703  -2.1687
    -2.1662  -2.1220  -2.1208  -2.1203  -2.1162  -2.0434  -2.0120  -2.0112
    -2.0066  -2.0050  -1.9688  -1.9624  -1.9394  -1.9377  -1.9308  -1.9294
    -1.9037  -1.8837  -1.8817  -1.8795  -1.8740  -1.8688  -1.8680  -1.8659
    -1.8596  -1.8573  -1.8162  -1.8154  -1.8133  -1.8115  -1.7913  -1.7880
    -1.7853  -1.7835  -1.7686  -1.7518  -1.7248  -1.7223  -1.7208  -1.7048
    -1.7018  -1.6997  -1.6952  -1.6650  -1.6600  -1.6577  -1.6535  -1.6514
    -1.6314  -1.6252  -1.6240  -1.6221  -1.6049  -1.6043  -1.5929  -1.5807
    -1.5751  -1.5728  -1.5454  -1.5423  -1.5267  -1.5249  -1.5052  -1.5018
    -1.4977  -1.4968  -1.4881  -1.4683  -1.4668  -1.4583  -1.4552  -1.4529
    -1.4485  -1.4453  -1.4421  -1.4323  -1.4300  -1.4223  -1.4196  -1.3643
    -1.3592  -1.3583  -1.3562  -1.3545  -1.3487  -1.3144  -1.3112  -1.2318
    -1.2293  -1.2274  -1.2258  -1.1979  -1.1949  -1.1940  -1.1912  -1.1849
    -1.1841  -1.1661  -1.1604  -1.1542  -1.1511  -1.1466  -1.1338  -1.1287
    -1.1254  -1.1238  -1.1214  -1.0978  -1.0949  -1.0792  -1.0762  -1.0058
    -0.9949  -0.9900  -0.9789  -0.9773  -0.9734  -0.9581  -0.9550  -0.9457
    -0.9403  -0.9321  -0.9255  -0.9182  -0.9154  -0.9005  -0.8890  -0.8881
    -0.8855  -0.8845  -0.8703  -0.8544  -0.8525  -0.8508  -0.8462  -0.8405
    -0.8338  -0.8190  -0.8180  -0.8146  -0.8106  -0.8036  -0.8034  -0.7981
    -0.7905  -0.7749  -0.7704  -0.7676  -0.7662  -0.7595  -0.7371  -0.7304
    -0.7235  -0.7006  -0.6614  -0.6583  -0.6557  -0.6533  -0.6487  -0.6468
    -0.6437  -0.6389  -0.6193  -0.6146  -0.6049  -0.5989  -0.5775  -0.5698
    -0.5502  -0.5481  -0.5455  -0.5450  -0.5419  -0.5398  -0.5370  -0.5367
    -0.5351  -0.5340  -0.5324  -0.5257  -0.4935  -0.4849  -0.4766  -0.4667
    -0.4664  -0.4607  -0.4515  -0.4500  -0.4492  -0.4469  -0.4428  -0.4403
    -0.4390  -0.4373  -0.4336  -0.4307  -0.4280  -0.4218  -0.4195  -0.4164
    -0.4115  -0.4027  -0.4014  -0.3989  -0.3977  -0.3964  -0.3954  -0.3947
    -0.3921  -0.3902  -0.3880  -0.3862  -0.3777  -0.3744  -0.3667  -0.3650
    -0.3638  -0.3624  -0.3542  -0.3508  -0.3386  -0.3301  -0.3231  -0.2894
    -0.2486  -0.2457  -0.2385  -0.2351  -0.2092  -0.2042  -0.2023  -0.2013
    -0.1999  -0.1925  -0.1901  -0.1879  -0.1848  -0.1828  -0.1798  -0.1759
    -0.1720  -0.1694  -0.1639  -0.1626  -0.1594  -0.1569  -0.1567  -0.1480
    -0.1443  -0.1433  -0.1394  -0.1323  -0.1320  -0.1277  -0.1211  -0.1181
    -0.1172  -0.1094  -0.1023  -0.0858  -0.0578  -0.0481  -0.0374  -0.0284
    -0.0258  -0.0254  -0.0079  -0.0052  -0.0038  -0.0019   0.0040   0.0074
     0.0085   0.0093   0.0116   0.0127   0.0162   0.0188   0.0214   0.0261
     0.0272   0.0296   0.0327   0.0374   0.0465   0.0535   0.0593   0.0646
     0.0710   0.0803   0.0811   0.0846   0.1003   0.1054   0.1117   0.1138
     0.1152   0.1163   0.1181   0.1233   0.1275   0.1301   0.1312   0.1325
     0.1438   0.1462   0.1486   0.1512   0.1609   0.1626   0.1738   0.1838
     0.1873   0.1889   0.1902   0.1920   0.1971   0.2071   0.2164   0.2206
     0.2317   0.2388   0.2458   0.2471   0.2693   0.2809   0.2851   0.2904
     0.3040   0.3106   0.3196   0.3203   0.3229   0.3236   0.3259   0.3267
     0.3299   0.3343   0.3355   0.3475   0.3482   0.3570   0.3632   0.3658
     0.3686   0.3714   0.3725   0.3819   0.3844   0.3863   0.3900   0.3911
     0.3981   0.4060   0.4231   0.4307   0.4379   0.4416   0.4566   0.4764
     0.4897   0.4914   0.4979   0.5003   0.5023   0.5095   0.5203   0.5216
     0.5279   0.5339   0.5383   0.5506   0.5588   0.5606   0.5662   0.5699
     0.5796   0.5855   0.5906   0.5938   0.5960   0.5981   0.6006   0.6030
     0.6061   0.6080   0.6099   0.6104   0.6170   0.6182   0.6187   0.6200
     0.6256   0.6267   0.6309   0.6499   0.6551   0.6578   0.6580   0.6590
     0.6674   0.6693   0.6757   0.6803   0.6902   0.6937   0.6955   0.6995
     0.7070   0.7131   0.7190   0.7212   0.7244   0.7254   0.7257   0.7286
     0.7291   0.7362   0.7401   0.7468   0.7525   0.7626   0.7733   0.7776
     0.7828   0.7842   0.7959   0.7961   0.7973   0.7986   0.8006   0.8015
     0.8040   0.8059   0.8090   0.8109   0.8130   0.8135   0.8147   0.8160
     0.8183   0.8187   0.8199   0.8209   0.8233   0.8252   0.8286   0.8368
     0.8410   0.8455   0.8470   0.8548   0.8613   0.8636   0.8685   0.8755
     0.8785   0.8830   0.8939   0.8960   0.8966   0.8975   0.9024   0.9101
     0.9131   0.9170   0.9207   0.9219   0.9277   0.9309   0.9315   0.9416
     0.9475   0.9507   0.9537   0.9539   0.9573   0.9581   0.9630   0.9645
     0.9721   0.9746   0.9848   0.9897   0.9948   0.9954   0.9963   0.9972
     0.9996   1.0010   1.0133   1.0141   1.0506   1.0555   1.0653   1.0737
     1.0884   1.0897   1.0915   1.0945   1.4978   1.5106   1.5180   1.5379
     1.5959   1.6829   1.7250   1.7588   1.7652   1.7688   1.7761   1.7901
     1.8817   2.0679   2.0908   2.1538   2.2233   2.3083   2.3145   2.3232
     2.3245   2.3571   2.6616   2.6639   2.6660   2.6966   2.8675   2.9977
     3.0880   3.1826   3.2090   3.2599   3.3406   3.3870   3.4032   3.4206
     3.4330   3.5463   3.5484   3.5993   3.6240   3.7179   3.7962   4.1329
     4.1938   4.2150   4.2470   4.2753   4.3022   4.3204   4.3517   4.3858
     4.4099   4.4606   4.4682   4.4895   4.5008   4.5082   4.5468   4.5548
     4.5707   4.6068   4.6535   4.7151   4.7568   4.8709   4.8829   4.9722
     4.9956   5.0414   5.1091   5.1533   5.1968   5.4491   5.4646   5.4674
     5.4956   5.5578   5.5959   5.6178   5.6539   5.7945   5.8566   6.0616
     6.1053   6.1730   6.1882   6.5412   6.5882   6.6370   6.6555   6.7003
     6.7206   7.0032   7.0351   7.0813   7.0862   7.0955   7.1093   7.1159
     7.1654   7.2232   7.2944   7.3154   7.3403   7.3634   7.4111   7.4188
     7.4698   7.4884   7.5004   7.5177   7.5842   7.5978   7.7073   7.7588
     7.8464   7.9645   8.0510   8.0741   8.1589   8.2542   8.2720   8.3142
     8.3351   8.4613   8.5146   8.5214   8.5244   8.5401   8.5690   8.5997
     8.6785   8.7466   8.7522   8.8110   8.8575   8.9424   8.9569   8.9891
     9.0066   9.0321   9.0478   9.0660   9.1032   9.1226   9.1522   9.1820
     9.3686

          k =-0.5000-0.2165 0.0000 (256328 PWs)   bands (ev):

   -22.3444 -19.4794 -16.1204 -16.1122 -15.6093 -15.5509 -14.7968 -14.6176
   -13.7391 -13.3696 -12.5530 -12.3154 -12.2804 -11.9429 -11.8768 -11.8252
   -11.4123 -10.6976 -10.4492  -9.6758  -9.5257  -9.3497  -9.2200  -8.5338
    -8.4219  -8.0503  -7.5905  -7.0958  -6.6168  -6.0885  -5.7334  -5.7090
    -5.7069  -5.6839  -5.6736  -5.6714  -5.5275  -5.3304  -5.2585  -5.1266
    -4.8755  -4.8365  -4.7991  -4.7947  -4.7305  -4.7252  -4.7065  -4.6965
    -4.6478  -4.6235  -4.5544  -4.4442  -4.2981  -4.2882  -4.1323  -4.1036
    -4.0402  -3.9962  -3.9688  -3.8386  -3.8178  -3.7830  -3.7090  -3.6751
    -3.6329  -3.5984  -3.1432  -3.1289  -3.0975  -3.0956  -3.0895  -3.0711
    -3.0588  -3.0472  -3.0334  -3.0049  -2.9228  -2.8842  -2.6860  -2.6113
    -2.6032  -2.5981  -2.5863  -2.5828  -2.5339  -2.5236  -2.4633  -2.4577
    -2.3303  -2.3250  -2.3173  -2.3102  -2.2088  -2.1610  -2.1470  -2.0997
    -2.0968  -2.0598  -2.0195  -2.0167  -2.0121  -2.0093  -2.0018  -1.9725
    -1.9685  -1.9614  -1.9572  -1.9500  -1.9472  -1.9467  -1.9128  -1.9103
    -1.9062  -1.9026  -1.8990  -1.8978  -1.8888  -1.8852  -1.8793  -1.8776
    -1.8771  -1.8747  -1.8307  -1.8298  -1.8275  -1.8211  -1.8043  -1.7741
    -1.7654  -1.7538  -1.7476  -1.7466  -1.7124  -1.7112  -1.7090  -1.7060
    -1.7028  -1.6957  -1.6808  -1.6700  -1.6672  -1.6501  -1.6446  -1.6403
    -1.6382  -1.6374  -1.6359  -1.6320  -1.6305  -1.6270  -1.5973  -1.5828
    -1.5805  -1.5715  -1.5704  -1.5668  -1.5643  -1.5618  -1.5597  -1.5554
    -1.5538  -1.5509  -1.5444  -1.5407  -1.5056  -1.4895  -1.4722  -1.4105
    -1.4069  -1.3951  -1.3881  -1.3727  -1.3710  -1.3708  -1.3673  -1.3073
    -1.2993  -1.2948  -1.2925  -1.2852  -1.2832  -1.2819  -1.2781  -1.2767
    -1.2748  -1.2535  -1.2490  -1.2221  -1.2210  -1.2166  -1.2131  -1.2115
    -1.2071  -1.1977  -1.1948  -1.1889  -1.1831  -1.1762  -1.1720  -1.1170
    -1.1096  -1.0978  -1.0948  -1.0892  -1.0683  -1.0603  -1.0551  -1.0244
    -1.0197  -1.0160  -1.0104  -0.9789  -0.9680  -0.9667  -0.9653  -0.9525
    -0.9519  -0.9466  -0.9421  -0.9308  -0.9218  -0.9203  -0.9138  -0.9122
    -0.9090  -0.9087  -0.9061  -0.8859  -0.8567  -0.8509  -0.8452  -0.8014
    -0.7997  -0.7905  -0.7883  -0.7816  -0.7775  -0.7757  -0.7718  -0.7676
    -0.7606  -0.7593  -0.7570  -0.7427  -0.6933  -0.6884  -0.6797  -0.6762
    -0.6737  -0.6717  -0.6702  -0.6689  -0.6672  -0.6644  -0.6601  -0.6554
    -0.6321  -0.6306  -0.6300  -0.6274  -0.6208  -0.6192  -0.6172  -0.6156
    -0.6139  -0.6114  -0.6109  -0.6093  -0.5550  -0.5498  -0.5478  -0.5426
    -0.5312  -0.5291  -0.5216  -0.5138  -0.4841  -0.4800  -0.4726  -0.4665
    -0.4609  -0.4533  -0.4468  -0.4407  -0.4389  -0.4377  -0.4351  -0.4330
    -0.4286  -0.4282  -0.4262  -0.4248  -0.4211  -0.4194  -0.4170  -0.4140
    -0.4123  -0.4116  -0.4108  -0.4064  -0.4043  -0.4027  -0.3977  -0.3929
    -0.3909  -0.3875  -0.3746  -0.3718  -0.3701  -0.3694  -0.3583  -0.3556
    -0.3539  -0.3501  -0.3420  -0.3354  -0.3288  -0.3122  -0.3074  -0.3045
    -0.3025  -0.2823  -0.2776  -0.2754  -0.2723  -0.2665  -0.2131  -0.2042
    -0.1979  -0.1955  -0.1925  -0.1874  -0.1791  -0.1779  -0.1737  -0.1732
    -0.1668  -0.1653  -0.1612  -0.1566  -0.1539  -0.1506  -0.1472  -0.1463
    -0.1435  -0.1395  -0.1382  -0.1345  -0.1290  -0.1234  -0.0937  -0.0882
    -0.0838  -0.0723  -0.0672  -0.0655  -0.0567  -0.0524  -0.0494  -0.0484
    -0.0474  -0.0405  -0.0303  -0.0243  -0.0203  -0.0191  -0.0146  -0.0126
    -0.0094  -0.0072   0.0027   0.0156   0.0215   0.0260   0.0277   0.0312
     0.0350   0.0361   0.0441   0.0452   0.0459   0.0484   0.0518   0.0527
     0.0568   0.0588   0.0620   0.0654   0.0685   0.0772   0.0788   0.0856
     0.0952   0.0972   0.1163   0.1226   0.1287   0.1348   0.1425   0.1491
     0.1577   0.1587   0.1648   0.1654   0.1664   0.1688   0.1772   0.1793
     0.1920   0.1952   0.2036   0.2063   0.2095   0.2101   0.2105   0.2113
     0.2139   0.2163   0.2316   0.2451   0.2585   0.2604   0.2688   0.2719
     0.2902   0.2918   0.2948   0.2964   0.2988   0.3118   0.3245   0.3248
     0.3307   0.3332   0.3544   0.3586   0.3624   0.3642   0.4013   0.4045
     0.4051   0.4068   0.4174   0.4251   0.4321   0.4347   0.4405   0.4454
     0.4568   0.4689   0.4744   0.4811   0.4829   0.4912   0.4970   0.5010
     0.5092   0.5127   0.5165   0.5205   0.5230   0.5237   0.5249   0.5259
     0.5271   0.5273   0.5287   0.5310   0.5329   0.5372   0.5394   0.5431
     0.5478   0.5525   0.5572   0.5646   0.5666   0.5715   0.5773   0.5805
     0.5836   0.5861   0.5914   0.5936   0.5985   0.6015   0.6105   0.6149
     0.6169   0.6212   0.6252   0.6266   0.6305   0.6337   0.6529   0.6582
     0.6606   0.6649   0.6687   0.6716   0.6750   0.6755   0.6873   0.6948
     0.6971   0.7020   0.7046   0.7072   0.7224   0.7310   0.7372   0.7401
     0.7414   0.7459   0.7473   0.7491   0.7526   0.7574   0.7609   0.7627
     0.7650   0.7668   0.7675   0.7701   0.7724   0.7745   0.7972   0.8075
     0.8147   0.8170   0.8226   0.8265   0.8288   0.8305   0.8329   0.8349
     0.8359   0.8374   0.8397   0.8463   0.8490   0.8519   0.8593   0.8605
     0.8643   0.8661   0.8679   0.8716   0.8726   0.8733   0.8755   0.8773
     0.8786   0.8800   0.8824   0.8854   0.8885   0.8924   0.8949   0.8996
     0.9040   0.9056   0.9224   0.9317   0.9349   0.9369   0.9412   0.9453
     0.9484   0.9534   0.9568   0.9600   0.9622   0.9679   0.9703   0.9763
     0.9857   0.9871   1.0049   1.0115   1.0319   1.0458   1.0514   1.0526
     1.0536   1.0569   1.0746   1.0777   1.0832   1.0883   1.0932   1.0954
     1.0988   1.1006   1.1030   1.1166   1.1366   1.1623   1.3122   1.3210
     1.3236   1.3312   1.6142   1.8102   1.8519   1.8844   1.9451   1.9755
     2.0413   2.0482   2.0750   2.2506   2.2708   2.2852   2.3022   2.3419
     2.5655   2.5871   2.6386   2.6952   2.9089   2.9330   2.9355   2.9380
     2.9544   3.1274   3.1387   3.1815   3.2611   3.4117   3.4154   3.4213
     3.4242   3.6684   3.6967   3.7099   3.7149   3.7201   3.8156   3.9032
     3.9361   4.0113   4.0206   4.0505   4.0828   4.1258   4.1307   4.1716
     4.1926   4.3954   4.4400   4.5436   4.5724   4.6386   4.6435   4.6599
     4.6696   4.7140   4.7271   4.7833   4.8011   4.8308   4.8768   4.9278
     4.9865   5.0479   5.1337   5.2086   5.2178   5.2205   5.2372   5.4124
     5.4321   5.5198   5.5522   6.1020   6.1174   6.2818   6.2963   6.3411
     6.3558   6.4316   6.5241   6.5407   6.5934   6.6315   6.6474   6.6605
     6.6973   6.7114   6.7463   6.8369   6.8511   6.8573   6.8610   6.8619
     6.9360   6.9832   7.1060   7.1404   7.2237   7.3123   7.4440   7.4904
     7.5501   7.5980   7.6781   7.7252   7.7363   7.7462   7.7631   8.0056
     8.0143   8.2539   8.3132   8.3237   8.3391   8.3571   8.3701   8.3780
     8.4114   8.4186   8.4447   8.4512   8.4560   8.4635   8.5224   8.5469
     8.5682   8.6246   8.6540   8.6622   8.6641   8.6960   8.8201   8.8609
     8.8897   8.9044   8.9601   9.1012   9.1104   9.1461   9.2121   9.2846
     9.3700

     the Fermi energy is     2.8041 ev

!    total energy              =  -12583.57084583 Ry
     Harris-Foulkes estimate   =  -12583.57084579 Ry
     estimated scf accuracy    <          8.5E-09 Ry

     The total energy is the sum of the following terms:

     one-electron contribution = -110470.72887093 Ry
     hartree contribution      =   56557.51372764 Ry
     xc contribution           =   -4405.87348614 Ry
     ewald contribution        =   45741.65595510 Ry
     Dispersion Correction     =      -2.82763875 Ry
     smearing contrib. (-TS)   =      -3.31053275 Ry

     convergence has been achieved in  56 iterations

     Writing output data file gc.save
 
     init_run     :    170.71s CPU    182.08s WALL (       1 calls)
     electrons    :  24707.16s CPU  26387.32s WALL (       1 calls)

     Called by init_run:
     wfcinit      :    167.84s CPU    178.71s WALL (       1 calls)
     potinit      :      0.90s CPU      0.97s WALL (       1 calls)

     Called by electrons:
     c_bands      :  22060.61s CPU  23545.45s WALL (      56 calls)
     sum_band     :   2137.42s CPU   2255.36s WALL (      56 calls)
     v_of_rho     :      7.09s CPU      8.84s WALL (      57 calls)
     newd         :     19.38s CPU     36.99s WALL (      57 calls)
     mix_rho      :    482.57s CPU    540.85s WALL (      56 calls)

     Called by c_bands:
     init_us_2    :    101.10s CPU    102.83s WALL (     678 calls)
     cegterg      :  21645.37s CPU  23112.04s WALL (     336 calls)

     Called by sum_band:
     sum_band:bec :      5.77s CPU      6.66s WALL (     336 calls)
     addusdens    :     28.56s CPU     43.91s WALL (      56 calls)

     Called by *egterg:
     h_psi        :   8669.74s CPU   9336.38s WALL (    2031 calls)
     s_psi        :   2122.83s CPU   2135.70s WALL (    2031 calls)
     g_psi        :     21.33s CPU     21.36s WALL (    1689 calls)
     cdiaghg      :   5405.16s CPU   5694.24s WALL (    2025 calls)

     Called by h_psi:
     add_vuspsi   :   2125.27s CPU   2140.46s WALL (    2031 calls)

     General routines
     calbec       :   3062.76s CPU   3085.18s WALL (    2367 calls)
     fft          :      6.21s CPU      7.15s WALL (     740 calls)
     ffts         :    211.34s CPU    252.87s WALL (   30957 calls)
     fftw         :   4405.24s CPU   5070.86s WALL ( 1438336 calls)
     davcio       :      0.26s CPU      7.07s WALL (       6 calls)
 
     Parallel routines
     fft_scatter  :   2295.57s CPU   2600.11s WALL ( 1470033 calls)
 
     PWSCF        :     6h54m CPU        7h23m WALL

 
   This run was terminated on:   1: 2:17  17Sep2017            

=------------------------------------------------------------------------------=
   JOB DONE.
=------------------------------------------------------------------------------=
