
     Program PWSCF v.5.4.0 starts on 26Apr2017 at 20:41: 2 

     This program is part of the open-source Quantum ESPRESSO suite
     for quantum simulation of materials; please cite
         "P. Giannozzi et al., J. Phys.:Condens. Matter 21 395502 (2009);
          URL http://www.quantum-espresso.org", 
     in publications or presentations arising from this work. More details at
     http://www.quantum-espresso.org/quote

     Parallel version (MPI & OpenMP), running on      56 processor cores
     Number of MPI processes:                56
     Threads/MPI process:                     1
     R & G space division:  proc/nbgrp/npool/nimage =      56
     Waiting for input...
     Reading input from standard input
Warning: card &IONS ignored
Warning: card / ignored

     Current dimensions of program PWSCF are:
     Max number of different atomic species (ntypx) = 10
     Max number of k-points (npk) =  40000
     Max angular momentum in pseudopotentials (lmaxx) =  3

     -------------------------------------
     Parameters for Dispersion Correction:
     -------------------------------------
       atom      VdW radius       C_6     

        Cu         2.952        374.666
        C_h        2.744         60.710
        C          2.744         60.710
        H          1.892          4.857

     Subspace diagonalization in iterative solution of the eigenvalue problem:
     one sub-group per band group will be used
     scalapack distributed-memory algorithm (size of sub-group:  5*  5 procs)

 
     Parallelization info
     --------------------
     sticks:   dense  smooth     PW     G-vecs:    dense   smooth      PW
     Min         204     204     54                36612    36612    4962
     Max         205     205     55                36617    36617    4968
     Sum       11433   11433   3039              2050409  2050409  278033
 


     bravais-lattice index     =            0
     lattice parameter (alat)  =      13.9425  a.u.
     unit-cell volume          =   21209.0878 (a.u.)^3
     number of atoms/cell      =          154
     number of atomic types    =            4
     number of electrons       =      1304.00
     number of Kohn-Sham states=          782
     kinetic-energy cutoff     =      80.0000  Ry
     charge density cutoff     =     320.0000  Ry
     convergence threshold     =      1.0E-08
     mixing beta               =       0.7000
     number of iterations used =            8  local-TF  mixing
     Exchange-correlation      =  SLA  PW   PBE  PBE ( 1  4  3  4 0 0)

     celldm(1)=  13.942539  celldm(2)=   0.000000  celldm(3)=   0.000000
     celldm(4)=   0.000000  celldm(5)=   0.000000  celldm(6)=   0.000000

     crystal axes: (cart. coord. in units of alat)
               a(1) = (   1.000000   0.000000   0.000000 )  
               a(2) = (   0.000000   2.309401   0.000000 )  
               a(3) = (   0.000000   0.000000   3.388418 )  

     reciprocal axes: (cart. coord. in units 2 pi/alat)
               b(1) = (  1.000000  0.000000  0.000000 )  
               b(2) = (  0.000000  0.433013  0.000000 )  
               b(3) = (  0.000000  0.000000  0.295123 )  


     PseudoPot. # 1 for Cu read from file:
     /home/549/hxw549/Short/pseudopotentials/Cu.pbe-n-van_ak.UPF
     MD5 check sum: 601f7c30f7467666bec936e0661ce3e1
     Pseudo is Ultrasoft + core correction, Zval = 11.0
     Generated by new atomic code, or converted to UPF format
     Using radial grid of  867 points,  6 beta functions with: 
                l(1) =   0
                l(2) =   0
                l(3) =   1
                l(4) =   1
                l(5) =   2
                l(6) =   2
     Q(r) pseudized with  8 coefficients,  rinner =    1.400   1.400   1.400
                                                       1.400   1.400

     PseudoPot. # 2 for C  read from file:
     /home/549/hxw549/Short/pseudopotentials/C.star1s-pbe-mt_gipaw.UPF
     MD5 check sum: ef0cb3dee31bd9e4ba2a832a2c716264
     Pseudo is Norm-conserving, Zval =  5.0
     Generated by new atomic code, or converted to UPF format
     Using radial grid of 1073 points,  1 beta functions with: 
                l(1) =   0

     PseudoPot. # 3 for C  read from file:
     /home/549/hxw549/Short/pseudopotentials/C.pbe-mt_gipaw.UPF
     MD5 check sum: 5ac2f21f2c440b14befe521540822c15
     Pseudo is Norm-conserving, Zval =  4.0
     Generated by new atomic code, or converted to UPF format
     Using radial grid of 1073 points,  1 beta functions with: 
                l(1) =   0

     PseudoPot. # 4 for H  read from file:
     /home/549/hxw549/Short/pseudopotentials/H.pbe-van_ak.UPF
     MD5 check sum: 077eb6d537518a38cb46c6de387227b7
     Pseudo is Ultrasoft, Zval =  1.0
     Generated by new atomic code, or converted to UPF format
     Using radial grid of  615 points,  1 beta functions with: 
                l(1) =   0
     Q(r) pseudized with  8 coefficients,  rinner =    0.800

     atomic species   valence    mass     pseudopotential
        Cu            11.00    63.54600     Cu( 1.00)
        C_h            5.00    12.01070     C ( 1.00)
        C              4.00    12.01070     C ( 1.00)
        H              1.00     1.00783     H ( 1.00)

     No symmetry found



   Cartesian axes

     site n.     atom                  positions (alat units)
         1           Cu  tau(   1) = (   0.0002043  -0.0025717   0.9942108  )
         2           Cu  tau(   2) = (   0.2502613   0.2244800   0.9935968  )
         3           Cu  tau(   3) = (   0.5002401  -0.0038862   0.9924746  )
         4           Cu  tau(   4) = (   0.7502060   0.2245063   0.9935693  )
         5           Cu  tau(   5) = (   0.0002385   0.4557669   0.9935004  )
         6           Cu  tau(   6) = (   0.2507651   0.6896551   0.9949714  )
         7           Cu  tau(   7) = (   0.5002412   0.4563759   0.9953699  )
         8           Cu  tau(   8) = (   0.7497243   0.6896526   0.9949528  )
         9           Cu  tau(   9) = (   0.0002741   0.9239688   0.9944310  )
        10           Cu  tau(  10) = (   0.2507484   1.1588995   0.9942913  )
        11           Cu  tau(  11) = (   0.5002229   0.9239521   0.9954916  )
        12           Cu  tau(  12) = (   0.7497205   1.1588751   0.9942577  )
        13           Cu  tau(  13) = (   0.0002005   1.3941797   0.9917183  )
        14           Cu  tau(  14) = (   0.2501890   1.6270419   0.9911099  )
        15           Cu  tau(  15) = (   0.5002472   1.3936651   0.9934814  )
        16           Cu  tau(  16) = (   0.7502464   1.6270434   0.9911362  )
        17           Cu  tau(  17) = (   0.0002210   1.8550921   0.9925404  )
        18           Cu  tau(  18) = (   0.2495825   2.0811673   0.9931877  )
        19           Cu  tau(  19) = (   0.5001965   1.8563988   0.9902085  )
        20           Cu  tau(  20) = (   0.7508427   2.0811476   0.9932235  )
        21           Cu  tau(  21) = (   0.0002482   0.2242931   1.2447837  )
        22           Cu  tau(  22) = (   0.2498761  -0.0033647   1.2471709  )
        23           Cu  tau(  23) = (   0.5002534   0.2222256   1.2422400  )
        24           Cu  tau(  24) = (   0.7506131  -0.0032893   1.2472346  )
        25           Cu  tau(  25) = (   0.0002667   0.6880630   1.2386669  )
        26           Cu  tau(  26) = (   0.2499562   0.4537637   1.2405942  )
        27           Cu  tau(  27) = (   0.5002943   0.6886442   1.2414404  )
        28           Cu  tau(  28) = (   0.7505742   0.4537472   1.2405793  )
        29           Cu  tau(  29) = (   0.0002476   1.1616965   1.2368574  )
        30           Cu  tau(  30) = (   0.2501502   0.9246196   1.2399440  )
        31           Cu  tau(  31) = (   0.5002819   1.1610726   1.2392902  )
        32           Cu  tau(  32) = (   0.7504072   0.9246098   1.2398995  )
        33           Cu  tau(  33) = (   0.0002198   1.6276529   1.2413369  )
        34           Cu  tau(  34) = (   0.2500613   1.3973758   1.2371512  )
        35           Cu  tau(  35) = (   0.5002401   1.6298765   1.2389540  )
        36           Cu  tau(  36) = (   0.7504172   1.3973475   1.2371744  )
        37           Cu  tau(  37) = (   0.0002075   2.0807183   1.2476202  )
        38           Cu  tau(  38) = (   0.2497642   1.8554798   1.2448912  )
        39           Cu  tau(  39) = (   0.5002618   2.0801741   1.2465346  )
        40           Cu  tau(  40) = (   0.7507077   1.8554268   1.2449327  )
        41           Cu  tau(  41) = (   0.0002334  -0.0025479   1.5022411  )
        42           Cu  tau(  42) = (   0.2492996   0.2254476   1.4970463  )
        43           Cu  tau(  43) = (   0.5003214  -0.0027157   1.4992700  )
        44           Cu  tau(  44) = (   0.7512954   0.2255017   1.4971177  )
        45           Cu  tau(  45) = (   0.0003236   0.4551980   1.4912380  )
        46           Cu  tau(  46) = (   0.2489867   0.6863144   1.4839175  )
        47           Cu  tau(  47) = (   0.5002861   0.4519356   1.4867713  )
        48           Cu  tau(  48) = (   0.7516492   0.6862933   1.4839869  )
        49           Cu  tau(  49) = (   0.0002891   0.9256767   1.4809594  )
        50           Cu  tau(  50) = (   0.2492486   1.1657936   1.4807251  )
        51           Cu  tau(  51) = (   0.5003544   0.9256491   1.4819086  )
        52           Cu  tau(  52) = (   0.7513260   1.1657516   1.4807751  )
        53           Cu  tau(  53) = (   0.0002539   1.3977035   1.4865052  )
        54           Cu  tau(  54) = (   0.2494736   1.6273793   1.4925966  )
        55           Cu  tau(  55) = (   0.5002895   1.4001490   1.4829612  )
        56           Cu  tau(  56) = (   0.7510670   1.6273340   1.4927039  )
        57           Cu  tau(  57) = (   0.0002574   1.8538138   1.5005000  )
        58           Cu  tau(  58) = (   0.2505253   2.0800732   1.5028238  )
        59           Cu  tau(  59) = (   0.5002697   1.8533783   1.4989645  )
        60           Cu  tau(  60) = (   0.7500065   2.0800441   1.5027965  )
        61           Cu  tau(  61) = (   0.0002937   0.2304988   1.7509922  )
        62           Cu  tau(  62) = (   0.2500863   0.0006243   1.7553958  )
        63           Cu  tau(  63) = (   0.5003616   0.2277639   1.7456260  )
        64           Cu  tau(  64) = (   0.7505373   0.0005627   1.7554292  )
        65           Cu  tau(  65) = (   0.0004664   0.6922260   1.7324316  )
        66           Cu  tau(  66) = (   0.2495677   0.4596615   1.7423903  )
        67           Cu  tau(  67) = (   0.5003916   0.6843092   1.7208806  )
        68           Cu  tau(  68) = (   0.7511618   0.4598404   1.7425480  )
        69           Cu  tau(  69) = (   0.0003083   1.1637444   1.7266669  )
        70           Cu  tau(  70) = (   0.2482537   0.9279368   1.7172561  )
        71           Cu  tau(  71) = (   0.5003366   1.1707054   1.7175919  )
        72           Cu  tau(  72) = (   0.7523780   0.9278273   1.7174595  )
        73           Cu  tau(  73) = (   0.0002651   1.6217586   1.7491300  )
        74           Cu  tau(  74) = (   0.2494393   1.3965543   1.7355819  )
        75           Cu  tau(  75) = (   0.5003389   1.6217397   1.7455006  )
        76           Cu  tau(  76) = (   0.7511621   1.3963967   1.7358119  )
        77           Cu  tau(  77) = (   0.0003291   2.0792459   1.7574384  )
        78           Cu  tau(  78) = (   0.2504323   1.8496511   1.7542337  )
        79           Cu  tau(  79) = (   0.5002783   2.0803316   1.7561957  )
        80           Cu  tau(  80) = (   0.7501861   1.8497038   1.7542225  )
        81           Cu  tau(  81) = (   0.0003184   0.0041178   2.0034186  )
        82           Cu  tau(  82) = (   0.2487642   0.2367193   2.0013239  )
        83           Cu  tau(  83) = (   0.5003358   0.0055922   2.0032012  )
        84           Cu  tau(  84) = (   0.7519720   0.2368324   2.0013947  )
        85           Cu  tau(  85) = (   0.0005168   0.4719240   1.9933684  )
        86           Cu  tau(  86) = (   0.2511744   0.7019439   1.9732905  )
        87           Cu  tau(  87) = (   0.5003937   0.4613158   1.9840152  )
        88           Cu  tau(  88) = (   0.7499376   0.7020931   1.9731588  )
        89           Cu  tau(  89) = (   0.0006719   0.9309442   1.9670230  )
        90           Cu  tau(  90) = (   0.2472093   1.1617877   1.9664531  )
        91           Cu  tau(  91) = (   0.5003359   0.9344534   1.9351709  )
        92           Cu  tau(  92) = (   0.7534211   1.1612543   1.9666763  )
        93           Cu  tau(  93) = (   0.0002357   1.3850550   1.9949752  )
        94           Cu  tau(  94) = (   0.2507924   1.6139028   2.0000820  )
        95           Cu  tau(  95) = (   0.5003821   1.3850011   1.9865794  )
        96           Cu  tau(  96) = (   0.7498026   1.6139192   2.0001243  )
        97           Cu  tau(  97) = (   0.0002643   1.8448113   2.0041961  )
        98           Cu  tau(  98) = (   0.2503795   2.0793699   2.0038159  )
        99           Cu  tau(  99) = (   0.5003582   1.8452819   2.0008624  )
       100           Cu  tau( 100) = (   0.7502529   2.0794083   2.0038345  )
       101           C   tau( 101) = (  -0.0000820   0.0994921   2.4176984  )
       102           C   tau( 102) = (  -0.0000762   0.2913254   2.4480389  )
       103           C   tau( 103) = (   0.1666439   0.0023668   2.4080360  )
       104           C   tau( 104) = (   0.1667082   0.3864411   2.4688191  )
       105           C   tau( 105) = (   0.3333383   0.0990832   2.4193349  )
       106           C   tau( 106) = (   0.3334728   0.2909126   2.4500476  )
       107           C   tau( 107) = (   0.4999784   0.0017143   2.4092302  )
       108           C   tau( 108) = (   0.4999661   0.3868195   2.4710727  )
       109           C   tau( 109) = (   0.6666262   0.0992659   2.4189926  )
       110           C   tau( 110) = (   0.6664596   0.2910804   2.4501051  )
       111           C   tau( 111) = (   0.8332539   0.0023779   2.4079829  )
       112           C   tau( 112) = (   0.8332277   0.3866350   2.4687918  )
       113           C   tau( 113) = (   0.0000403   0.6720196   2.5268195  )
       114           C   tau( 114) = (  -0.0000986   0.8652796   2.5438154  )
       115           C   tau( 115) = (   0.1668103   0.5757926   2.5119236  )
       116           C   tau( 116) = (   0.1665600   0.9627473   2.5465274  )
       117           C   tau( 117) = (   0.3330312   0.6712277   2.5370352  )
       118           C_h tau( 118) = (   0.3329260   0.8649803   2.5584709  )
       119           C   tau( 119) = (   0.4999678   0.5758834   2.5165222  )
       120           C   tau( 120) = (   0.4998989   0.9628021   2.5587465  )
       121           C   tau( 121) = (   0.6668989   0.6713415   2.5368545  )
       122           C   tau( 122) = (   0.6667893   0.8649923   2.5586673  )
       123           C   tau( 123) = (   0.8331901   0.5761062   2.5113005  )
       124           C   tau( 124) = (   0.8331969   0.9626897   2.5461120  )
       125           C   tau( 125) = (  -0.0000243   1.2500548   2.4972855  )
       126           C   tau( 126) = (  -0.0000698   1.4397649   2.4566319  )
       127           C   tau( 127) = (   0.1667246   1.1549732   2.5191366  )
       128           C   tau( 128) = (   0.1668110   1.5354076   2.4386302  )
       129           C   tau( 129) = (   0.3337215   1.2505483   2.5022062  )
       130           C   tau( 130) = (   0.3335665   1.4402136   2.4597849  )
       131           C   tau( 131) = (   0.5000231   1.1549272   2.5262646  )
       132           C   tau( 132) = (   0.4999542   1.5364756   2.4422660  )
       133           C   tau( 133) = (   0.6663535   1.2507838   2.5026745  )
       134           C   tau( 134) = (   0.6663273   1.4403280   2.4596502  )
       135           C   tau( 135) = (   0.8332364   1.1550018   2.5191954  )
       136           C   tau( 136) = (   0.8330873   1.5356002   2.4386624  )
       137           C   tau( 137) = (   0.0000116   1.8253202   2.4018558  )
       138           C   tau( 138) = (   0.0000196   2.0197421   2.3966618  )
       139           C   tau( 139) = (   0.1668197   1.7277230   2.4111725  )
       140           C   tau( 140) = (   0.1665746   2.1176017   2.3972421  )
       141           C   tau( 141) = (   0.3331845   1.8256422   2.4066204  )
       142           C   tau( 142) = (   0.3332534   2.0196932   2.3984457  )
       143           C   tau( 143) = (   0.4999370   1.7289126   2.4167529  )
       144           C   tau( 144) = (   0.5000099   2.1170870   2.4001936  )
       145           C   tau( 145) = (   0.6667327   1.8257007   2.4067262  )
       146           C   tau( 146) = (   0.6667417   2.0197320   2.3984131  )
       147           C   tau( 147) = (   0.8331274   1.7279717   2.4117050  )
       148           C   tau( 148) = (   0.8334572   2.1176137   2.3974753  )
       149           H   tau( 149) = (   0.3319518   0.9970929   2.2372295  )
       150           H   tau( 150) = (   0.3375949   0.7492820   2.2231231  )
       151           C   tau( 151) = (   0.4041456   0.8783738   2.1864677  )
       152           C   tau( 152) = (   0.5984102   0.8800587   2.1857443  )
       153           H   tau( 153) = (   0.6686529   0.9999537   2.2365904  )
       154           H   tau( 154) = (   0.6674899   0.7523297   2.2227089  )

     number of k points=     6  gaussian smearing, width (Ry)=  0.1000
                       cart. coord. in units 2pi/alat
        k(    1) = (   0.0000000   0.0000000   0.0000000), wk =   0.2500000
        k(    2) = (   0.0000000  -0.2165064   0.0000000), wk =   0.2500000
        k(    3) = (   0.2500000   0.0000000   0.0000000), wk =   0.5000000
        k(    4) = (   0.2500000  -0.2165064   0.0000000), wk =   0.5000000
        k(    5) = (  -0.5000000   0.0000000   0.0000000), wk =   0.2500000
        k(    6) = (  -0.5000000  -0.2165064   0.0000000), wk =   0.2500000

     Dense  grid:  2050409 G-vectors     FFT dimensions: (  80, 192, 270)

     Largest allocated arrays     est. size (Mb)     dimensions
        Kohn-Sham Wavefunctions        54.94 Mb     (    4604,  782)
        NL pseudopotentials           130.25 Mb     (    4604, 1854)
        Each V/rho on FFT grid          1.17 Mb     (   76800)
        Each G-vector array             0.28 Mb     (   36616)
        G-vector shells                 0.14 Mb     (   17932)
     Largest temporary arrays     est. size (Mb)     dimensions
        Auxiliary wavefunctions       219.75 Mb     (    4604, 3128)
        Each subspace H/S matrix        5.96 Mb     (     625,  625)
        Each <psi_i|beta_j> matrix     22.12 Mb     (    1854,  782)
        Arrays for rho mixing           9.38 Mb     (   76800,    8)

     Initial potential from superposition of free atoms
     Check: negative starting charge=   -0.001699

     starting charge 1277.81747, renormalised to 1304.00000

     negative rho (up, down):  1.734E-03 0.000E+00
     Starting wfc are 1304 randomized atomic wfcs

     total cpu time spent up to now is      109.2 secs

     Self-consistent Calculation

     iteration #  1     ecut=    80.00 Ry     beta=0.70
     Davidson diagonalization with overlap
     c_bands:  2 eigenvalues not converged
     c_bands:  5 eigenvalues not converged
     c_bands:  5 eigenvalues not converged
     ethr =  1.00E-04,  avg # of iterations = 44.8

     negative rho (up, down):  2.553E+01 0.000E+00

     total cpu time spent up to now is     2466.9 secs

     total energy              =   -9862.26256931 Ry
     Harris-Foulkes estimate   =  -18067.89742133 Ry
     estimated scf accuracy    <  202911.43796991 Ry

     iteration #  2     ecut=    80.00 Ry     beta=0.70
     Davidson diagonalization with overlap
     ethr =  1.00E-02,  avg # of iterations = 15.8

     negative rho (up, down):  3.039E+01 0.000E+00

     total cpu time spent up to now is     3495.3 secs

     total energy              =  -11457.90379870 Ry
     Harris-Foulkes estimate   =  -13847.11217167 Ry
     estimated scf accuracy    <   44686.37667349 Ry

     iteration #  3     ecut=    80.00 Ry     beta=0.70
     Davidson diagonalization with overlap
     ethr =  1.00E-02,  avg # of iterations = 20.8

     negative rho (up, down):  3.008E+01 0.000E+00

     total cpu time spent up to now is     4973.9 secs

     total energy              =  -11875.15917091 Ry
     Harris-Foulkes estimate   =  -13968.92616465 Ry
     estimated scf accuracy    <    7897.78903991 Ry

     iteration #  4     ecut=    80.00 Ry     beta=0.70
     Davidson diagonalization with overlap
     ethr =  1.00E-02,  avg # of iterations =  4.3

     negative rho (up, down):  2.062E+01 0.000E+00

     total cpu time spent up to now is     5465.8 secs

     total energy              =  -12874.64306559 Ry
     Harris-Foulkes estimate   =  -13045.46068841 Ry
     estimated scf accuracy    <     897.31854048 Ry

     iteration #  5     ecut=    80.00 Ry     beta=0.70
     Davidson diagonalization with overlap
     ethr =  1.00E-02,  avg # of iterations =  3.0

     negative rho (up, down):  1.861E+01 0.000E+00

     total cpu time spent up to now is     5698.8 secs

     total energy              =  -12866.67278675 Ry
     Harris-Foulkes estimate   =  -12938.51564748 Ry
     estimated scf accuracy    <    3554.50367767 Ry

     iteration #  6     ecut=    80.00 Ry     beta=0.70
     Davidson diagonalization with overlap
     ethr =  1.00E-02,  avg # of iterations =  2.2

     negative rho (up, down):  1.547E+01 0.000E+00

     total cpu time spent up to now is     5882.3 secs

     total energy              =  -12842.73757450 Ry
     Harris-Foulkes estimate   =  -12903.78324899 Ry
     estimated scf accuracy    <    1104.82567051 Ry

     iteration #  7     ecut=    80.00 Ry     beta=0.70
     Davidson diagonalization with overlap
     ethr =  1.00E-02,  avg # of iterations =  2.2

     negative rho (up, down):  9.416E+00 0.000E+00

     total cpu time spent up to now is     6074.2 secs

     total energy              =  -12817.05900990 Ry
     Harris-Foulkes estimate   =  -12875.88398588 Ry
     estimated scf accuracy    <     620.05772393 Ry

     iteration #  8     ecut=    80.00 Ry     beta=0.70
     Davidson diagonalization with overlap
     ethr =  1.00E-02,  avg # of iterations =  2.2

     negative rho (up, down):  6.954E+00 0.000E+00

     total cpu time spent up to now is     6260.6 secs

     total energy              =  -12808.63143899 Ry
     Harris-Foulkes estimate   =  -12836.34670206 Ry
     estimated scf accuracy    <     342.37928619 Ry

     iteration #  9     ecut=    80.00 Ry     beta=0.70
     Davidson diagonalization with overlap
     ethr =  1.00E-02,  avg # of iterations =  1.2

     negative rho (up, down):  5.728E+00 0.000E+00

     total cpu time spent up to now is     6431.9 secs

     total energy              =  -12799.29278251 Ry
     Harris-Foulkes estimate   =  -12812.96284982 Ry
     estimated scf accuracy    <     246.72334912 Ry

     iteration # 10     ecut=    80.00 Ry     beta=0.70
     Davidson diagonalization with overlap
     ethr =  1.00E-02,  avg # of iterations =  1.0

     negative rho (up, down):  7.074E-01 0.000E+00

     total cpu time spent up to now is     6601.0 secs

     total energy              =  -12756.28173909 Ry
     Harris-Foulkes estimate   =  -12801.82573083 Ry
     estimated scf accuracy    <     232.80569138 Ry

     iteration # 11     ecut=    80.00 Ry     beta=0.70
     Davidson diagonalization with overlap
     ethr =  1.00E-02,  avg # of iterations =  2.2

     negative rho (up, down):  1.526E+00 0.000E+00

     total cpu time spent up to now is     6786.5 secs

     total energy              =  -12752.73860910 Ry
     Harris-Foulkes estimate   =  -12777.28099213 Ry
     estimated scf accuracy    <     965.95589756 Ry

     iteration # 12     ecut=    80.00 Ry     beta=0.70
     Davidson diagonalization with overlap
     ethr =  1.00E-02,  avg # of iterations =  1.0

     negative rho (up, down):  3.979E-01 0.000E+00

     total cpu time spent up to now is     6955.6 secs

     total energy              =  -12743.85127760 Ry
     Harris-Foulkes estimate   =  -12764.15123181 Ry
     estimated scf accuracy    <     534.71422303 Ry

     iteration # 13     ecut=    80.00 Ry     beta=0.70
     Davidson diagonalization with overlap
     ethr =  1.00E-02,  avg # of iterations =  1.8

     negative rho (up, down):  6.757E-01 0.000E+00

     total cpu time spent up to now is     7134.8 secs

     total energy              =  -12747.03690479 Ry
     Harris-Foulkes estimate   =  -12760.45840366 Ry
     estimated scf accuracy    <     105.90490073 Ry

     iteration # 14     ecut=    80.00 Ry     beta=0.70
     Davidson diagonalization with overlap
     ethr =  8.12E-03,  avg # of iterations =  1.0

     negative rho (up, down):  1.785E+00 0.000E+00

     total cpu time spent up to now is     7304.7 secs

     total energy              =  -12743.86406107 Ry
     Harris-Foulkes estimate   =  -12752.79405203 Ry
     estimated scf accuracy    <      48.21167393 Ry

     iteration # 15     ecut=    80.00 Ry     beta=0.70
     Davidson diagonalization with overlap
     ethr =  3.70E-03,  avg # of iterations =  1.0

     negative rho (up, down):  5.123E+00 0.000E+00

     total cpu time spent up to now is     7475.1 secs

     total energy              =  -12740.99385979 Ry
     Harris-Foulkes estimate   =  -12746.03855812 Ry
     estimated scf accuracy    <      34.23186397 Ry

     iteration # 16     ecut=    80.00 Ry     beta=0.70
     Davidson diagonalization with overlap
     ethr =  2.63E-03,  avg # of iterations =  1.5

     negative rho (up, down):  4.551E+00 0.000E+00

     total cpu time spent up to now is     7650.1 secs

     total energy              =  -12740.60908724 Ry
     Harris-Foulkes estimate   =  -12742.51046859 Ry
     estimated scf accuracy    <      14.22786789 Ry

     iteration # 17     ecut=    80.00 Ry     beta=0.70
     Davidson diagonalization with overlap
     ethr =  1.09E-03,  avg # of iterations =  5.3

     negative rho (up, down):  3.535E+00 0.000E+00

     total cpu time spent up to now is     7869.1 secs

     total energy              =  -12739.34888502 Ry
     Harris-Foulkes estimate   =  -12741.13233504 Ry
     estimated scf accuracy    <       9.74378329 Ry

     iteration # 18     ecut=    80.00 Ry     beta=0.70
     Davidson diagonalization with overlap
     ethr =  7.47E-04,  avg # of iterations =  6.0

     negative rho (up, down):  3.894E+00 0.000E+00

     total cpu time spent up to now is     8099.7 secs

     total energy              =  -12739.13779063 Ry
     Harris-Foulkes estimate   =  -12739.68277454 Ry
     estimated scf accuracy    <       8.54042600 Ry

     iteration # 19     ecut=    80.00 Ry     beta=0.70
     Davidson diagonalization with overlap
     ethr =  6.55E-04,  avg # of iterations =  6.7

     negative rho (up, down):  1.712E+00 0.000E+00

     total cpu time spent up to now is     8340.2 secs

     total energy              =  -12737.62384901 Ry
     Harris-Foulkes estimate   =  -12739.24766295 Ry
     estimated scf accuracy    <       7.06168560 Ry

     iteration # 20     ecut=    80.00 Ry     beta=0.70
     Davidson diagonalization with overlap
     ethr =  5.42E-04,  avg # of iterations =  6.2

     negative rho (up, down):  2.036E+00 0.000E+00

     total cpu time spent up to now is     8570.9 secs

     total energy              =  -12737.38621891 Ry
     Harris-Foulkes estimate   =  -12737.87014120 Ry
     estimated scf accuracy    <      10.78182981 Ry

     iteration # 21     ecut=    80.00 Ry     beta=0.70
     Davidson diagonalization with overlap
     ethr =  5.42E-04,  avg # of iterations =  1.8

     negative rho (up, down):  1.656E+00 0.000E+00

     total cpu time spent up to now is     8749.8 secs

     total energy              =  -12736.43626634 Ry
     Harris-Foulkes estimate   =  -12737.78885018 Ry
     estimated scf accuracy    <       7.59640267 Ry

     iteration # 22     ecut=    80.00 Ry     beta=0.70
     Davidson diagonalization with overlap
     ethr =  5.42E-04,  avg # of iterations =  1.0

     negative rho (up, down):  1.353E+00 0.000E+00

     total cpu time spent up to now is     8919.3 secs

     total energy              =  -12735.68564666 Ry
     Harris-Foulkes estimate   =  -12736.61533432 Ry
     estimated scf accuracy    <       3.94459457 Ry

     iteration # 23     ecut=    80.00 Ry     beta=0.70
     Davidson diagonalization with overlap
     ethr =  3.02E-04,  avg # of iterations =  7.2

     negative rho (up, down):  1.021E+00 0.000E+00

     total cpu time spent up to now is     9164.6 secs

     total energy              =  -12735.01027661 Ry
     Harris-Foulkes estimate   =  -12735.85309689 Ry
     estimated scf accuracy    <       2.77129610 Ry

     iteration # 24     ecut=    80.00 Ry     beta=0.70
     Davidson diagonalization with overlap
     ethr =  2.13E-04,  avg # of iterations =  5.2

     negative rho (up, down):  8.343E-01 0.000E+00

     total cpu time spent up to now is     9385.8 secs

     total energy              =  -12734.68537249 Ry
     Harris-Foulkes estimate   =  -12735.12034842 Ry
     estimated scf accuracy    <       1.83466863 Ry

     iteration # 25     ecut=    80.00 Ry     beta=0.70
     Davidson diagonalization with overlap
     ethr =  1.41E-04,  avg # of iterations =  7.0

     negative rho (up, down):  7.818E-01 0.000E+00

     total cpu time spent up to now is     9637.7 secs

     total energy              =  -12734.59213969 Ry
     Harris-Foulkes estimate   =  -12734.76102381 Ry
     estimated scf accuracy    <       1.28470504 Ry

     iteration # 26     ecut=    80.00 Ry     beta=0.70
     Davidson diagonalization with overlap
     ethr =  9.85E-05,  avg # of iterations =  6.7

     negative rho (up, down):  8.605E-01 0.000E+00

     total cpu time spent up to now is     9880.2 secs

     total energy              =  -12734.55622123 Ry
     Harris-Foulkes estimate   =  -12734.62981338 Ry
     estimated scf accuracy    <       0.39824856 Ry

     iteration # 27     ecut=    80.00 Ry     beta=0.70
     Davidson diagonalization with overlap
     ethr =  3.05E-05,  avg # of iterations =  7.7

     negative rho (up, down):  3.331E-01 0.000E+00

     total cpu time spent up to now is    10151.0 secs

     total energy              =  -12734.51524078 Ry
     Harris-Foulkes estimate   =  -12734.58764273 Ry
     estimated scf accuracy    <       0.23570294 Ry

     iteration # 28     ecut=    80.00 Ry     beta=0.70
     Davidson diagonalization with overlap
     c_bands:  1 eigenvalues not converged
     ethr =  1.81E-05,  avg # of iterations = 17.2

     negative rho (up, down):  1.532E-01 0.000E+00

     total cpu time spent up to now is    10546.0 secs

     total energy              =  -12734.52007015 Ry
     Harris-Foulkes estimate   =  -12734.53403055 Ry
     estimated scf accuracy    <       0.12578613 Ry

     iteration # 29     ecut=    80.00 Ry     beta=0.70
     Davidson diagonalization with overlap
     ethr =  9.65E-06,  avg # of iterations =  7.5

     negative rho (up, down):  7.727E-02 0.000E+00

     total cpu time spent up to now is    10808.2 secs

     total energy              =  -12734.52575776 Ry
     Harris-Foulkes estimate   =  -12734.52694468 Ry
     estimated scf accuracy    <       0.01841699 Ry

     iteration # 30     ecut=    80.00 Ry     beta=0.70
     Davidson diagonalization with overlap
     c_bands:  1 eigenvalues not converged
     ethr =  1.41E-06,  avg # of iterations = 11.3

     negative rho (up, down):  5.988E-02 0.000E+00

     total cpu time spent up to now is    11133.1 secs

     total energy              =  -12734.52676548 Ry
     Harris-Foulkes estimate   =  -12734.52782159 Ry
     estimated scf accuracy    <       0.01076488 Ry

     iteration # 31     ecut=    80.00 Ry     beta=0.70
     Davidson diagonalization with overlap
     ethr =  8.26E-07,  avg # of iterations =  8.7

     negative rho (up, down):  2.807E-02 0.000E+00

     total cpu time spent up to now is    11403.8 secs

     total energy              =  -12734.52676242 Ry
     Harris-Foulkes estimate   =  -12734.52753871 Ry
     estimated scf accuracy    <       0.00396894 Ry

     iteration # 32     ecut=    80.00 Ry     beta=0.70
     Davidson diagonalization with overlap
     c_bands:  1 eigenvalues not converged
     ethr =  3.04E-07,  avg # of iterations = 11.3

     negative rho (up, down):  1.456E-02 0.000E+00

     total cpu time spent up to now is    11718.6 secs

     total energy              =  -12734.52681715 Ry
     Harris-Foulkes estimate   =  -12734.52710345 Ry
     estimated scf accuracy    <       0.00190343 Ry

     iteration # 33     ecut=    80.00 Ry     beta=0.70
     Davidson diagonalization with overlap
     ethr =  1.46E-07,  avg # of iterations =  8.0

     negative rho (up, down):  8.946E-03 0.000E+00

     total cpu time spent up to now is    11985.6 secs

     total energy              =  -12734.52689167 Ry
     Harris-Foulkes estimate   =  -12734.52694487 Ry
     estimated scf accuracy    <       0.00038375 Ry

     iteration # 34     ecut=    80.00 Ry     beta=0.70
     Davidson diagonalization with overlap
     ethr =  2.94E-08,  avg # of iterations =  6.0

     negative rho (up, down):  5.739E-03 0.000E+00

     total cpu time spent up to now is    12224.9 secs

     total energy              =  -12734.52692588 Ry
     Harris-Foulkes estimate   =  -12734.52693223 Ry
     estimated scf accuracy    <       0.00017800 Ry

     iteration # 35     ecut=    80.00 Ry     beta=0.70
     Davidson diagonalization with overlap
     ethr =  1.36E-08,  avg # of iterations =  8.0

     negative rho (up, down):  4.411E-03 0.000E+00

     total cpu time spent up to now is    12491.6 secs

     total energy              =  -12734.52692994 Ry
     Harris-Foulkes estimate   =  -12734.52694158 Ry
     estimated scf accuracy    <       0.00006331 Ry

     iteration # 36     ecut=    80.00 Ry     beta=0.70
     Davidson diagonalization with overlap
     ethr =  4.85E-09,  avg # of iterations =  9.3

     negative rho (up, down):  4.652E-03 0.000E+00

     total cpu time spent up to now is    12787.2 secs

     total energy              =  -12734.52693569 Ry
     Harris-Foulkes estimate   =  -12734.52693598 Ry
     estimated scf accuracy    <       0.00001568 Ry

     iteration # 37     ecut=    80.00 Ry     beta=0.70
     Davidson diagonalization with overlap
     ethr =  1.20E-09,  avg # of iterations =  2.0

     negative rho (up, down):  3.416E-03 0.000E+00

     total cpu time spent up to now is    12981.1 secs

     total energy              =  -12734.52692382 Ry
     Harris-Foulkes estimate   =  -12734.52693754 Ry
     estimated scf accuracy    <       0.00000723 Ry

     iteration # 38     ecut=    80.00 Ry     beta=0.70
     Davidson diagonalization with overlap
     ethr =  5.55E-10,  avg # of iterations =  3.8

     negative rho (up, down):  2.320E-03 0.000E+00

     total cpu time spent up to now is    13194.0 secs

     total energy              =  -12734.52691768 Ry
     Harris-Foulkes estimate   =  -12734.52692446 Ry
     estimated scf accuracy    <       0.00000253 Ry

     iteration # 39     ecut=    80.00 Ry     beta=0.70
     Davidson diagonalization with overlap
     c_bands:  1 eigenvalues not converged
     ethr =  1.94E-10,  avg # of iterations = 10.8

     negative rho (up, down):  2.032E-03 0.000E+00

     total cpu time spent up to now is    13499.8 secs

     total energy              =  -12734.52691761 Ry
     Harris-Foulkes estimate   =  -12734.52691804 Ry
     estimated scf accuracy    <       0.00000146 Ry

     iteration # 40     ecut=    80.00 Ry     beta=0.70
     Davidson diagonalization with overlap
     ethr =  1.12E-10,  avg # of iterations =  2.8

     negative rho (up, down):  1.895E-03 0.000E+00

     total cpu time spent up to now is    13700.5 secs

     total energy              =  -12734.52691774 Ry
     Harris-Foulkes estimate   =  -12734.52691776 Ry
     estimated scf accuracy    <       0.00000022 Ry

     iteration # 41     ecut=    80.00 Ry     beta=0.70
     Davidson diagonalization with overlap
     ethr =  1.65E-11,  avg # of iterations =  3.0

     negative rho (up, down):  1.858E-03 0.000E+00

     total cpu time spent up to now is    13910.1 secs

     total energy              =  -12734.52691774 Ry
     Harris-Foulkes estimate   =  -12734.52691776 Ry
     estimated scf accuracy    <       0.00000005 Ry

     iteration # 42     ecut=    80.00 Ry     beta=0.70
     Davidson diagonalization with overlap
     ethr =  4.16E-12,  avg # of iterations =  2.8

     negative rho (up, down):  1.816E-03 0.000E+00

     total cpu time spent up to now is    14153.1 secs

     total energy              =  -12734.52691777 Ry
     Harris-Foulkes estimate   =  -12734.52691775 Ry
     estimated scf accuracy    <       0.00000004 Ry

     iteration # 43     ecut=    80.00 Ry     beta=0.70
     Davidson diagonalization with overlap
     ethr =  3.01E-12,  avg # of iterations =  2.0

     negative rho (up, down):  1.834E-03 0.000E+00

     total cpu time spent up to now is    14333.4 secs

     End of self-consistent calculation

          k = 0.0000 0.0000 0.0000 (256287 PWs)   bands (ev):

   -16.9230 -15.9230 -15.7233 -15.0900 -14.7262 -14.4497 -14.3260 -13.9441
   -13.8924 -13.7743 -13.7572 -13.1706 -13.0284 -12.8388 -12.8155 -12.7702
   -12.7634 -12.3450 -11.4158 -11.2382 -11.2037 -11.1007 -11.0081 -10.0213
    -9.5216  -9.4798  -9.3249  -9.2577  -8.6637  -8.4826  -8.3319  -8.2520
    -8.0894  -7.7691  -7.5906  -7.5191  -7.3593  -7.2642  -7.2538  -7.2126
    -7.1771  -6.0934  -6.0867  -5.8885  -5.8467  -5.7394  -5.6789  -5.6415
    -5.6191  -5.6019  -5.3976  -5.3643  -5.2272  -5.0661  -4.8145  -4.6222
    -4.5818  -4.4473  -4.3762  -4.2796  -4.2518  -4.1395  -3.8858  -3.8571
    -3.8006  -3.7704  -3.6993  -3.6634  -3.3741  -3.3643  -3.2779  -3.2731
    -3.2721  -3.1750  -3.1572  -3.1365  -3.0652  -2.9348  -2.9137  -2.8852
    -2.8821  -2.8800  -2.8705  -2.7790  -2.7519  -2.7218  -2.6888  -2.6534
    -2.6187  -2.5851  -2.5404  -2.5259  -2.5104  -2.4062  -2.4009  -2.3312
    -2.2457  -2.1754  -2.1680  -2.1359  -2.1299  -2.0721  -2.0625  -2.0385
    -2.0356  -2.0332  -2.0310  -1.9677  -1.9435  -1.9084  -1.9068  -1.8778
    -1.8770  -1.8331  -1.8279  -1.7367  -1.6874  -1.6711  -1.6637  -1.6557
    -1.6472  -1.6192  -1.6151  -1.5982  -1.5940  -1.5816  -1.5488  -1.5237
    -1.5223  -1.5184  -1.4847  -1.4529  -1.4444  -1.4421  -1.4369  -1.4323
    -1.4240  -1.4194  -1.4055  -1.3985  -1.3982  -1.3907  -1.3310  -1.3248
    -1.2888  -1.2506  -1.2411  -1.2334  -1.2190  -1.1901  -1.1836  -1.1625
    -1.1612  -1.1473  -1.1229  -1.1048  -1.1014  -1.0949  -1.0772  -1.0667
    -1.0379  -1.0351  -1.0269  -1.0001  -0.9537  -0.9508  -0.9477  -0.9334
    -0.9322  -0.9223  -0.9215  -0.9169  -0.9030  -0.9006  -0.8986  -0.8877
    -0.8767  -0.8738  -0.8685  -0.8639  -0.8596  -0.8350  -0.8285  -0.8208
    -0.8111  -0.8053  -0.7900  -0.7816  -0.7796  -0.7728  -0.7655  -0.7509
    -0.7419  -0.7354  -0.7345  -0.7298  -0.7288  -0.7249  -0.7217  -0.7191
    -0.7161  -0.7139  -0.7076  -0.7035  -0.6934  -0.6691  -0.6523  -0.6438
    -0.6405  -0.5934  -0.5924  -0.5844  -0.5699  -0.5684  -0.5622  -0.5513
    -0.5343  -0.5233  -0.5192  -0.5155  -0.5025  -0.4963  -0.4796  -0.4740
    -0.4688  -0.4629  -0.4546  -0.4498  -0.4462  -0.4419  -0.4403  -0.4345
    -0.4250  -0.4197  -0.4164  -0.4014  -0.3783  -0.3738  -0.3675  -0.3497
    -0.3387  -0.3190  -0.3089  -0.3003  -0.2974  -0.2902  -0.2876  -0.2862
    -0.2839  -0.2819  -0.2804  -0.2780  -0.2754  -0.2711  -0.2674  -0.2627
    -0.2595  -0.2379  -0.2325  -0.2250  -0.2185  -0.1963  -0.1939  -0.1889
    -0.1675  -0.1642  -0.1636  -0.1628  -0.1493  -0.1465  -0.1368  -0.1326
    -0.1295  -0.1238  -0.1216  -0.1145  -0.1115  -0.1094  -0.1030  -0.0989
    -0.0952  -0.0931  -0.0882  -0.0700  -0.0682  -0.0675  -0.0667  -0.0593
    -0.0515  -0.0377  -0.0305  -0.0270  -0.0131  -0.0048   0.0020   0.0163
     0.0200   0.0241   0.0270   0.0339   0.0432   0.0582   0.0613   0.0654
     0.0664   0.0721   0.0774   0.0803   0.0918   0.0947   0.1043   0.1234
     0.1258   0.1317   0.1346   0.1424   0.1460   0.1501   0.1512   0.1622
     0.1627   0.1659   0.1765   0.1805   0.1820   0.1852   0.1872   0.1982
     0.2019   0.2100   0.2121   0.2231   0.2262   0.2368   0.2416   0.2476
     0.2493   0.2597   0.2715   0.2786   0.2836   0.2894   0.2917   0.3254
     0.3270   0.3312   0.3344   0.3386   0.3702   0.3709   0.3803   0.3878
     0.3957   0.3997   0.4127   0.4154   0.4203   0.4392   0.4483   0.4608
     0.4624   0.4713   0.4795   0.4812   0.4851   0.4903   0.4950   0.5020
     0.5103   0.5131   0.5152   0.5259   0.5339   0.5380   0.5413   0.5477
     0.5480   0.5771   0.5811   0.5878   0.5911   0.5985   0.6032   0.6048
     0.6085   0.6129   0.6225   0.6263   0.6390   0.6398   0.6514   0.6560
     0.6570   0.6617   0.6647   0.6658   0.6718   0.6777   0.6853   0.6862
     0.6872   0.6885   0.6903   0.6962   0.7062   0.7105   0.7228   0.7254
     0.7276   0.7307   0.7359   0.7452   0.7453   0.7574   0.7640   0.7661
     0.7688   0.7711   0.7821   0.7905   0.7930   0.8002   0.8025   0.8047
     0.8059   0.8099   0.8120   0.8204   0.8326   0.8346   0.8377   0.8389
     0.8474   0.8544   0.8577   0.8629   0.8668   0.8682   0.8690   0.8703
     0.8745   0.8876   0.8946   0.8993   0.9051   0.9157   0.9177   0.9219
     0.9389   0.9414   0.9582   0.9598   0.9600   0.9648   0.9697   0.9721
     0.9748   0.9782   0.9897   0.9957   0.9966   1.0014   1.0100   1.0117
     1.0151   1.0176   1.0261   1.0282   1.0346   1.0415   1.0463   1.0487
     1.0545   1.0574   1.0650   1.0702   1.0791   1.0882   1.1001   1.1061
     1.1063   1.1119   1.1126   1.1149   1.1265   1.1289   1.1306   1.1348
     1.1370   1.1389   1.1419   1.1451   1.1531   1.1585   1.1599   1.1645
     1.1670   1.1725   1.1744   1.1764   1.1789   1.1854   1.1923   1.1971
     1.2002   1.2064   1.2068   1.2160   1.2172   1.2267   1.2327   1.2338
     1.2377   1.2403   1.2410   1.2427   1.2478   1.2485   1.2565   1.2569
     1.2648   1.2681   1.2722   1.2854   1.2905   1.2963   1.3081   1.3104
     1.3144   1.3209   1.3253   1.3287   1.3341   1.3431   1.3500   1.3523
     1.3536   1.3539   1.3610   1.3662   1.3679   1.3733   1.3794   1.3796
     1.3836   1.3858   1.3888   1.3925   1.3941   1.3956   1.4057   1.4099
     1.4101   1.4161   1.4236   1.4247   1.4272   1.4280   1.4300   1.4305
     1.4332   1.4397   1.4438   1.4449   1.4493   1.4531   1.4554   1.4616
     1.4655   1.4688   1.4708   1.4871   1.4894   1.4900   1.4939   1.5077
     1.5129   1.5166   1.5186   1.5246   1.5290   1.5309   1.5338   1.5346
     1.5423   1.5434   1.5472   1.5514   1.5523   1.5546   1.5558   1.5600
     1.5630   1.5638   1.5725   1.5746   1.5788   1.5827   1.5855   1.5885
     1.5958   1.5967   1.6034   1.6088   1.6304   1.6351   1.6409   1.6428
     1.6492   1.6698   1.6744   1.6750   1.6822   1.6852   1.7074   1.7242
     1.7284   1.7329   1.7400   1.7439   1.7521   1.7536   1.7565   1.7690
     1.7756   1.9085   2.0068   2.0767   2.2109   2.2110   2.2163   2.2685
     2.2988   2.3105   2.3171   2.3197   2.3275   2.3420   2.3452   2.4070
     2.4898   2.4971   2.5460   2.5468   2.5685   2.5707   2.5970   2.7324
     2.7653   2.8115   2.8466   2.9306   2.9501   3.1892   3.2119   3.2702
     3.2948   3.6075   3.6910   3.7689   3.8554   3.8917   3.9159   3.9741
     3.9814   3.9925   4.0504   4.0616   4.0755   4.0859   4.1128   4.1174
     4.1291   4.1343   4.2454   4.2865   4.3011   4.3084   4.4009   4.5910
     4.8061   4.8718   4.9041   5.0689   5.1170   5.1633   5.3092   5.4022
     5.4347   5.5416   5.6001   5.7292   5.7483   5.9318   6.0305   6.1182
     6.1283   6.3436   6.3559   6.3952   6.4839   6.5052   6.5230   6.5802
     6.6156   6.7009   6.7304   6.7772   6.8185   6.8449   6.8471   6.9042
     6.9309   6.9530   6.9602   7.1209   7.1377   7.1543   7.2065   7.2432
     7.4017   7.4837   7.5435   7.5902   7.6533   7.7189   7.7355   7.7964
     7.8750   7.9697   8.0479   8.0812   8.1500   8.2066   8.2342   8.2597
     8.2933   8.3735   8.3851   8.4084   8.4285   8.4434   8.4562   8.4948
     8.5454   8.6448   8.6473   8.7188   8.7224   8.7234   8.7317   8.7747
     8.7891   8.8961   8.8997   8.9282   9.0036   9.0177   9.0236   9.1034
     9.1137   9.1284   9.2064   9.2677   9.2752   9.3447   9.4251   9.4461
     9.4497   9.5135   9.5793   9.6195   9.6879   9.7538   9.7814   9.8345
     9.8680   9.9514   9.9908  10.1192  10.1539  10.1748

          k = 0.0000-0.2165 0.0000 (256176 PWs)   bands (ev):

   -16.9225 -15.9760 -15.5460 -15.3272 -14.7278 -14.3135 -14.0306 -14.0096
   -13.9515 -13.9234 -13.4947 -13.4329 -13.3831 -13.3614 -12.3620 -12.3082
   -12.1434 -12.0766 -12.0002 -11.8790 -11.8315 -10.3818 -10.2879 -10.2583
   -10.1284  -9.1870  -9.1141  -9.0040  -8.8341  -8.6832  -8.6472  -8.1144
    -8.0585  -7.9547  -7.8750  -7.8239  -7.1723  -7.0418  -6.7172  -6.6863
    -6.6083  -6.5907  -6.5509  -6.5297  -5.9962  -5.9086  -5.7632  -5.7482
    -5.2869  -5.2574  -5.1370  -5.0530  -4.9648  -4.9023  -4.7324  -4.7088
    -4.7014  -4.6776  -4.6353  -4.5295  -4.4287  -4.4077  -4.2313  -3.8588
    -3.6744  -3.6376  -3.5785  -3.4445  -3.4372  -3.3340  -3.1797  -3.1776
    -3.1652  -3.1650  -3.0299  -2.9785  -2.9769  -2.9072  -2.8898  -2.8632
    -2.8409  -2.8110  -2.7774  -2.7255  -2.7096  -2.6996  -2.6621  -2.6525
    -2.6240  -2.5755  -2.4654  -2.4602  -2.4554  -2.4375  -2.3839  -2.3675
    -2.3502  -2.3463  -2.2959  -2.2876  -2.2325  -2.1906  -2.1214  -2.0564
    -2.0374  -2.0233  -2.0219  -2.0089  -1.9907  -1.9710  -1.9412  -1.8629
    -1.8605  -1.8434  -1.8395  -1.8145  -1.7931  -1.7705  -1.7407  -1.6665
    -1.6425  -1.6407  -1.6274  -1.6240  -1.6158  -1.6024  -1.5864  -1.5636
    -1.5479  -1.5404  -1.5380  -1.5270  -1.5098  -1.4741  -1.4397  -1.3782
    -1.3663  -1.3177  -1.3093  -1.2782  -1.2534  -1.2432  -1.2378  -1.2353
    -1.2217  -1.2045  -1.1989  -1.1948  -1.1893  -1.1726  -1.1665  -1.1626
    -1.1525  -1.1422  -1.1359  -1.1333  -1.1256  -1.1159  -1.1110  -1.1007
    -1.0919  -1.0748  -1.0687  -1.0594  -1.0526  -1.0422  -1.0330  -0.9964
    -0.9756  -0.9709  -0.9577  -0.9446  -0.9401  -0.9313  -0.9281  -0.9207
    -0.9054  -0.8809  -0.8711  -0.8616  -0.8566  -0.8484  -0.8478  -0.8460
    -0.8409  -0.8126  -0.8015  -0.8005  -0.7974  -0.7937  -0.7832  -0.7767
    -0.7638  -0.7568  -0.7394  -0.7272  -0.7237  -0.7090  -0.7060  -0.6970
    -0.6957  -0.6803  -0.6656  -0.6624  -0.6544  -0.6479  -0.6357  -0.6309
    -0.6282  -0.6007  -0.5674  -0.5656  -0.5430  -0.5208  -0.5145  -0.5034
    -0.5033  -0.4986  -0.4938  -0.4927  -0.4864  -0.4844  -0.4802  -0.4664
    -0.4625  -0.4484  -0.4327  -0.4290  -0.4281  -0.4198  -0.4104  -0.4101
    -0.4082  -0.3979  -0.3738  -0.3668  -0.3652  -0.3637  -0.3619  -0.3570
    -0.3412  -0.3374  -0.3320  -0.3304  -0.3280  -0.3258  -0.2946  -0.2818
    -0.2806  -0.2737  -0.2536  -0.2449  -0.2127  -0.2061  -0.2036  -0.1985
    -0.1930  -0.1900  -0.1866  -0.1857  -0.1844  -0.1839  -0.1804  -0.1729
    -0.1623  -0.1556  -0.1470  -0.1391  -0.1356  -0.1342  -0.1288  -0.1255
    -0.1225  -0.1196  -0.1165  -0.1082  -0.1035  -0.1018  -0.0956  -0.0936
    -0.0787  -0.0771  -0.0754  -0.0745  -0.0657  -0.0475  -0.0405  -0.0307
    -0.0245  -0.0165  -0.0081  -0.0046  -0.0012   0.0025   0.0097   0.0146
     0.0274   0.0282   0.0316   0.0361   0.0468   0.0487   0.0597   0.0602
     0.0643   0.0648   0.0698   0.0728   0.0889   0.1015   0.1101   0.1156
     0.1200   0.1226   0.1325   0.1422   0.1466   0.1509   0.1529   0.1615
     0.1682   0.1703   0.1782   0.1809   0.1894   0.1932   0.1969   0.1994
     0.2026   0.2042   0.2157   0.2192   0.2238   0.2337   0.2352   0.2479
     0.2491   0.2516   0.2623   0.2638   0.2692   0.2706   0.2737   0.2767
     0.2893   0.3092   0.3130   0.3211   0.3248   0.3268   0.3413   0.3532
     0.3554   0.3647   0.3816   0.4034   0.4043   0.4081   0.4144   0.4266
     0.4542   0.4718   0.4729   0.4770   0.4916   0.5081   0.5133   0.5169
     0.5280   0.5397   0.5434   0.5487   0.5504   0.5594   0.5633   0.5653
     0.5724   0.5795   0.5833   0.5890   0.5951   0.6013   0.6042   0.6057
     0.6069   0.6160   0.6191   0.6235   0.6337   0.6356   0.6362   0.6398
     0.6453   0.6495   0.6528   0.6549   0.6571   0.6596   0.6644   0.6686
     0.6740   0.6785   0.6789   0.6868   0.6879   0.6903   0.6944   0.7014
     0.7047   0.7067   0.7095   0.7175   0.7227   0.7282   0.7368   0.7398
     0.7448   0.7460   0.7486   0.7652   0.7703   0.7812   0.7815   0.7899
     0.7910   0.7956   0.7982   0.7989   0.8022   0.8120   0.8156   0.8169
     0.8203   0.8322   0.8370   0.8479   0.8513   0.8614   0.8686   0.8696
     0.8821   0.8845   0.8906   0.8992   0.9036   0.9067   0.9107   0.9143
     0.9187   0.9208   0.9504   0.9538   0.9645   0.9912   0.9990   1.0003
     1.0062   1.0089   1.0098   1.0133   1.0157   1.0196   1.0267   1.0332
     1.0374   1.0397   1.0414   1.0422   1.0472   1.0516   1.0543   1.0564
     1.0582   1.0606   1.0632   1.0719   1.0809   1.0837   1.0847   1.0850
     1.0854   1.0967   1.1021   1.1046   1.1057   1.1084   1.1089   1.1122
     1.1166   1.1177   1.1250   1.1277   1.1280   1.1331   1.1356   1.1381
     1.1487   1.1518   1.1525   1.1557   1.1582   1.1606   1.1623   1.1648
     1.1682   1.1743   1.1924   1.1981   1.2037   1.2127   1.2371   1.2389
     1.2493   1.2534   1.2591   1.2645   1.2765   1.2859   1.2910   1.2957
     1.2988   1.3019   1.3042   1.3062   1.3079   1.3091   1.3115   1.3132
     1.3136   1.3224   1.3235   1.3242   1.3252   1.3376   1.3379   1.3409
     1.3436   1.3485   1.3497   1.3499   1.3526   1.3575   1.3656   1.3734
     1.3748   1.3800   1.3855   1.3873   1.3906   1.3919   1.3995   1.4074
     1.4099   1.4121   1.4151   1.4250   1.4254   1.4282   1.4326   1.4342
     1.4422   1.4425   1.4475   1.4493   1.4523   1.4579   1.4676   1.4717
     1.4794   1.4851   1.4905   1.4908   1.4992   1.5008   1.5024   1.5051
     1.5090   1.5098   1.5192   1.5213   1.5249   1.5270   1.5442   1.5477
     1.5482   1.5539   1.5610   1.5660   1.5685   1.5691   1.5694   1.5702
     1.5772   1.5812   1.5915   1.5994   1.6007   1.6068   1.6087   1.6139
     1.6146   1.6186   1.6268   1.6314   1.6357   1.6368   1.6414   1.6480
     1.6823   1.6880   1.6946   1.6950   1.7026   1.7152   1.7810   1.7994
     1.8122   1.8428   1.8568   1.8632   1.8672   1.8733   1.8893   1.9077
     1.9234   1.9298   1.9326   1.9380   1.9442   1.9539   1.9821   1.9918
     2.1764   2.2203   2.2266   2.2620   2.4925   2.4959   2.5275   2.5520
     2.5792   2.6059   2.6105   2.6427   2.6842   2.7078   2.7151   2.7159
     2.8260   2.8293   2.8352   2.8483   2.9127   3.0341   3.0395   3.1176
     3.1559   3.2872   3.2891   3.3026   3.4211   3.6465   3.7929   3.8027
     3.8792   4.0801   4.1126   4.1215   4.1721   4.1802   4.2229   4.2498
     4.3133   4.3996   4.4194   4.4533   4.5392   4.6097   4.6427   4.7600
     4.8485   5.0457   5.0589   5.2008   5.2430   5.3464   5.3917   5.4232
     5.4554   5.4662   5.5215   5.6236   5.7569   5.7918   5.8836   5.9269
     5.9715   6.0166   6.0347   6.3594   6.3797   6.4155   6.4174   6.4932
     6.5097   6.6557   6.6882   6.7711   6.8497   6.9072   6.9654   7.0864
     7.0910   7.1379   7.1556   7.1610   7.1742   7.2197   7.2483   7.3252
     7.3496   7.3829   7.4225   7.4343   7.4819   7.4968   7.6645   7.7222
     7.7504   7.7790   7.8328   7.9044   8.2216   8.2493   8.2921   8.3496
     8.3952   8.4016   8.4114   8.4615   8.4816   8.5052   8.5238   8.5554
     8.5793   8.6111   8.7056   8.7698   8.7874   8.8036   8.8147   8.8324
     8.9211   8.9733   8.9801   9.1111   9.1439   9.1501   9.1717   9.2495
     9.2874   9.3063   9.3391   9.3513   9.3937   9.4046   9.4336   9.4675
     9.4907   9.5317   9.5338   9.5391   9.6028   9.6096   9.6197   9.6767
     9.8920   9.9103   9.9508  10.0023  10.0155  10.0286

          k = 0.2500 0.0000 0.0000 (256240 PWs)   bands (ev):

   -16.8717 -15.8115 -15.6003 -15.3111 -14.8260 -14.6555 -14.6274 -14.5612
   -13.7862 -13.6345 -13.4253 -12.9503 -12.8755 -12.7958 -12.6852 -12.3521
   -12.0621 -11.9429 -11.8297 -11.7584 -11.0208 -10.8221 -10.4731 -10.3671
   -10.1616  -9.8985  -9.6371  -9.5859  -9.1742  -8.9354  -8.8436  -8.4861
    -8.1051  -7.7364  -7.5345  -7.4585  -7.2989  -7.2776  -7.1679  -6.7759
    -6.6444  -6.0570  -5.9339  -5.7481  -5.7084  -5.6578  -5.6097  -5.3068
    -5.2190  -5.1939  -5.1336  -5.0708  -4.9687  -4.6523  -4.6431  -4.3435
    -4.3328  -4.3129  -4.2975  -4.2176  -4.1096  -4.1021  -3.9988  -3.8863
    -3.8756  -3.8679  -3.7522  -3.7182  -3.7099  -3.6968  -3.6458  -3.5533
    -3.3931  -3.3832  -3.3605  -3.2722  -3.2377  -3.2313  -3.2185  -3.1306
    -3.0301  -3.0132  -2.9784  -2.9730  -2.8601  -2.8401  -2.8236  -2.7242
    -2.6876  -2.6710  -2.6642  -2.6204  -2.4949  -2.4686  -2.3756  -2.3226
    -2.2740  -2.1997  -2.1796  -2.1559  -2.1495  -2.0194  -1.9709  -1.9688
    -1.9577  -1.9523  -1.8809  -1.8739  -1.8196  -1.8035  -1.7974  -1.7190
    -1.6939  -1.6894  -1.6790  -1.6760  -1.6732  -1.6589  -1.6523  -1.6384
    -1.6229  -1.6149  -1.5726  -1.5663  -1.5253  -1.5213  -1.5103  -1.4981
    -1.4753  -1.4589  -1.4569  -1.4506  -1.4491  -1.4452  -1.4380  -1.4102
    -1.3985  -1.3874  -1.3820  -1.3736  -1.3676  -1.2946  -1.2625  -1.2399
    -1.2062  -1.1981  -1.1885  -1.1675  -1.1377  -1.1286  -1.1215  -1.1144
    -1.1070  -1.1013  -1.0870  -1.0773  -1.0647  -1.0630  -1.0591  -1.0492
    -1.0422  -1.0257  -1.0121  -1.0111  -1.0088  -0.9944  -0.9868  -0.9847
    -0.9798  -0.9736  -0.9678  -0.9571  -0.9383  -0.9205  -0.9132  -0.9104
    -0.9058  -0.9009  -0.8950  -0.8915  -0.8888  -0.8811  -0.8780  -0.8736
    -0.8681  -0.8663  -0.8570  -0.8527  -0.8496  -0.8424  -0.8404  -0.8374
    -0.8218  -0.7991  -0.7921  -0.7874  -0.7742  -0.7657  -0.7522  -0.7409
    -0.7276  -0.7101  -0.7009  -0.6933  -0.6868  -0.6727  -0.6589  -0.6494
    -0.6426  -0.6299  -0.6265  -0.6209  -0.6145  -0.6099  -0.5965  -0.5842
    -0.5699  -0.5425  -0.5268  -0.5013  -0.4819  -0.4706  -0.4609  -0.4572
    -0.4517  -0.4415  -0.4374  -0.4329  -0.4309  -0.4154  -0.4114  -0.4070
    -0.3986  -0.3955  -0.3898  -0.3721  -0.3620  -0.3604  -0.3566  -0.3540
    -0.3498  -0.3472  -0.3449  -0.3396  -0.3270  -0.3009  -0.2878  -0.2804
    -0.2745  -0.2722  -0.2658  -0.2607  -0.2571  -0.2534  -0.2506  -0.2416
    -0.2375  -0.2239  -0.2166  -0.2077  -0.1877  -0.1867  -0.1841  -0.1781
    -0.1767  -0.1758  -0.1686  -0.1665  -0.1589  -0.1499  -0.1436  -0.1340
    -0.1323  -0.1248  -0.1090  -0.1025  -0.0906  -0.0866  -0.0809  -0.0793
    -0.0750  -0.0603  -0.0589  -0.0567  -0.0418  -0.0382  -0.0351  -0.0315
    -0.0190  -0.0076  -0.0040   0.0018   0.0111   0.0145   0.0173   0.0362
     0.0410   0.0477   0.0565   0.0660   0.0673   0.0816   0.0934   0.0966
     0.0986   0.1055   0.1080   0.1122   0.1197   0.1228   0.1266   0.1327
     0.1374   0.1427   0.1438   0.1470   0.1495   0.1562   0.1648   0.1711
     0.1730   0.1743   0.1818   0.1827   0.1921   0.2063   0.2098   0.2212
     0.2248   0.2265   0.2359   0.2416   0.2438   0.2484   0.2551   0.2614
     0.2699   0.2768   0.2777   0.2938   0.3044   0.3167   0.3294   0.3419
     0.3461   0.3518   0.3639   0.3736   0.3778   0.3854   0.3898   0.3965
     0.4012   0.4064   0.4079   0.4180   0.4206   0.4245   0.4314   0.4348
     0.4380   0.4401   0.4429   0.4556   0.4581   0.4643   0.4696   0.4738
     0.4791   0.4843   0.4863   0.4966   0.5018   0.5093   0.5150   0.5267
     0.5348   0.5425   0.5485   0.5532   0.5570   0.5603   0.5699   0.5733
     0.5793   0.5830   0.5918   0.5968   0.6035   0.6107   0.6118   0.6163
     0.6227   0.6244   0.6283   0.6326   0.6416   0.6468   0.6567   0.6582
     0.6635   0.6682   0.6705   0.6773   0.6805   0.6867   0.6924   0.7009
     0.7029   0.7057   0.7102   0.7149   0.7213   0.7243   0.7357   0.7454
     0.7479   0.7530   0.7542   0.7558   0.7615   0.7670   0.7710   0.7769
     0.7788   0.7805   0.7887   0.7957   0.8064   0.8177   0.8235   0.8315
     0.8378   0.8433   0.8563   0.8600   0.8614   0.8646   0.8687   0.8790
     0.8864   0.8892   0.8914   0.8983   0.9027   0.9102   0.9150   0.9239
     0.9304   0.9347   0.9437   0.9451   0.9529   0.9660   0.9696   0.9725
     0.9782   0.9802   0.9899   0.9964   0.9987   1.0012   1.0031   1.0100
     1.0140   1.0151   1.0195   1.0251   1.0301   1.0367   1.0422   1.0502
     1.0558   1.0613   1.0658   1.0794   1.0837   1.0909   1.0982   1.1006
     1.1067   1.1111   1.1130   1.1174   1.1223   1.1281   1.1309   1.1316
     1.1349   1.1367   1.1379   1.1398   1.1459   1.1483   1.1522   1.1536
     1.1587   1.1694   1.1712   1.1756   1.1786   1.1806   1.1842   1.1872
     1.1907   1.1932   1.1999   1.2047   1.2074   1.2101   1.2185   1.2235
     1.2252   1.2272   1.2319   1.2354   1.2381   1.2433   1.2463   1.2474
     1.2533   1.2567   1.2576   1.2629   1.2670   1.2786   1.2902   1.3006
     1.3057   1.3077   1.3107   1.3123   1.3193   1.3323   1.3396   1.3458
     1.3527   1.3623   1.3634   1.3648   1.3667   1.3709   1.3743   1.3791
     1.3828   1.3841   1.3876   1.3907   1.3955   1.3997   1.4039   1.4081
     1.4117   1.4149   1.4171   1.4207   1.4233   1.4261   1.4284   1.4328
     1.4348   1.4387   1.4449   1.4479   1.4502   1.4558   1.4582   1.4685
     1.4709   1.4728   1.4790   1.4832   1.4911   1.4935   1.4966   1.5002
     1.5096   1.5136   1.5184   1.5194   1.5239   1.5279   1.5327   1.5341
     1.5419   1.5434   1.5469   1.5502   1.5541   1.5568   1.5587   1.5649
     1.5668   1.5708   1.5722   1.5772   1.5802   1.5842   1.5864   1.5901
     1.5992   1.6005   1.6034   1.6082   1.6118   1.6141   1.6195   1.6233
     1.6263   1.6349   1.6416   1.6632   1.6661   1.6759   1.6827   1.6885
     1.6969   1.7377   1.7389   1.7486   1.7525   1.7580   1.7965   1.8546
     1.8682   1.8779   1.8854   1.8935   1.9570   1.9958   2.0166   2.1009
     2.1477   2.1549   2.1723   2.1857   2.2117   2.2487   2.2927   2.3139
     2.5660   2.6503   2.6650   2.6832   2.8403   3.0864   3.0916   3.1102
     3.2958   3.3011   3.3311   3.3325   3.3407   3.4035   3.4702   3.5097
     3.5688   3.6306   3.7125   3.7675   3.7894   3.7944   3.8037   3.8516
     3.8709   3.9104   3.9717   3.9872   4.0814   4.1031   4.2025   4.2983
     4.3347   4.4310   4.5706   4.6095   4.6954   4.7692   4.7998   4.8359
     4.9260   5.1145   5.1932   5.3154   5.3303   5.3426   5.4124   5.4559
     5.5075   5.5247   5.5573   5.5894   5.6021   5.6295   5.6348   5.7192
     5.7990   5.8287   5.8499   5.9293   5.9868   6.0076   6.0987   6.1301
     6.1426   6.4002   6.4943   6.5628   6.7446   6.8033   6.8190   6.8363
     6.8617   6.8791   6.9024   6.9535   7.0113   7.1153   7.1457   7.1722
     7.2018   7.2377   7.2540   7.3095   7.4249   7.4800   7.4868   7.5524
     7.6140   7.6784   7.7039   7.7401   7.7760   7.8344   8.0175   8.0992
     8.1282   8.1452   8.1654   8.2104   8.2144   8.2779   8.2955   8.3160
     8.3467   8.3954   8.4419   8.4864   8.5558   8.5874   8.7520   8.8169
     8.9333   9.0246   9.0649   9.0696   9.0902   9.1134   9.1887   9.2258
     9.2367   9.2434   9.3114   9.3300   9.3953   9.3967   9.4259   9.4675
     9.5253   9.5432   9.5529   9.5773   9.6477   9.6754   9.7219   9.7810
     9.8411   9.8494   9.8724   9.9078   9.9396  10.0411

          k = 0.2500-0.2165 0.0000 (256316 PWs)   bands (ev):

   -16.8714 -15.8519 -15.5148 -15.2072 -15.1121 -14.8631 -14.3744 -14.2306
   -13.9445 -13.8120 -13.3718 -12.9478 -12.9352 -12.8568 -12.4421 -12.3367
   -12.3245 -11.8993 -11.7762 -11.2021 -11.1189 -11.0135 -10.8746 -10.6200
   -10.2986  -9.5263  -9.4468  -9.1290  -9.0984  -8.8690  -8.8009  -8.3976
    -8.3375  -8.1850  -8.1275  -8.0944  -6.9602  -6.7484  -6.5616  -6.3904
    -6.3160  -6.2001  -6.1227  -6.0556  -5.8760  -5.8466  -5.5850  -5.5713
    -5.2659  -5.1285  -4.9897  -4.9544  -4.8183  -4.6949  -4.5672  -4.5440
    -4.5210  -4.4682  -4.3025  -4.2233  -4.2070  -4.2028  -4.0826  -3.9545
    -3.9116  -3.8361  -3.8044  -3.6074  -3.5173  -3.4801  -3.4683  -3.3782
    -3.3529  -3.3394  -3.3302  -3.3151  -3.2192  -3.2039  -3.1700  -3.0896
    -3.0767  -2.9335  -2.8753  -2.8540  -2.8462  -2.8354  -2.8101  -2.7858
    -2.7691  -2.7364  -2.7290  -2.5910  -2.4984  -2.4864  -2.4728  -2.3797
    -2.2362  -2.1967  -2.1796  -2.1178  -2.0751  -2.0665  -2.0530  -2.0442
    -2.0048  -1.9132  -1.8927  -1.8865  -1.8836  -1.8565  -1.7981  -1.7590
    -1.7517  -1.7187  -1.6978  -1.6939  -1.6828  -1.6598  -1.6413  -1.6146
    -1.5991  -1.5931  -1.5809  -1.5784  -1.5756  -1.5661  -1.5566  -1.5497
    -1.5482  -1.5464  -1.5309  -1.5255  -1.4819  -1.4680  -1.4426  -1.4015
    -1.3548  -1.3414  -1.2895  -1.2604  -1.2384  -1.2112  -1.1984  -1.1704
    -1.1649  -1.1574  -1.1526  -1.1483  -1.1460  -1.1434  -1.1357  -1.1293
    -1.1115  -1.1077  -1.1071  -1.1016  -1.0937  -1.0898  -1.0807  -1.0729
    -1.0639  -1.0549  -1.0459  -1.0409  -1.0292  -1.0220  -1.0090  -0.9909
    -0.9862  -0.9846  -0.9823  -0.9684  -0.9436  -0.9399  -0.9348  -0.9246
    -0.9104  -0.9026  -0.8989  -0.8824  -0.8792  -0.8758  -0.8676  -0.8643
    -0.8576  -0.8455  -0.8419  -0.8342  -0.8268  -0.8173  -0.8123  -0.8049
    -0.8010  -0.7921  -0.7892  -0.7765  -0.7662  -0.7404  -0.7371  -0.7211
    -0.7158  -0.6951  -0.6835  -0.6821  -0.6718  -0.6633  -0.6363  -0.6266
    -0.6211  -0.6122  -0.6048  -0.5990  -0.5893  -0.5846  -0.5728  -0.5681
    -0.5615  -0.5500  -0.5258  -0.5118  -0.5052  -0.4994  -0.4811  -0.4711
    -0.4646  -0.4574  -0.4465  -0.4419  -0.4313  -0.4270  -0.4179  -0.4051
    -0.4032  -0.3837  -0.3790  -0.3753  -0.3691  -0.3654  -0.3578  -0.3562
    -0.3366  -0.3219  -0.3202  -0.3093  -0.3038  -0.2975  -0.2962  -0.2871
    -0.2777  -0.2738  -0.2692  -0.2676  -0.2630  -0.2543  -0.2504  -0.2465
    -0.2405  -0.2379  -0.2327  -0.2269  -0.2185  -0.2147  -0.2017  -0.1983
    -0.1903  -0.1867  -0.1739  -0.1662  -0.1628  -0.1514  -0.1431  -0.1386
    -0.1302  -0.1220  -0.1192  -0.1150  -0.1040  -0.0955  -0.0866  -0.0852
    -0.0694  -0.0585  -0.0552  -0.0455  -0.0414  -0.0317  -0.0149  -0.0122
     0.0054   0.0096   0.0140   0.0214   0.0228   0.0278   0.0298   0.0478
     0.0530   0.0562   0.0598   0.0694   0.0734   0.0797   0.0875   0.0921
     0.0954   0.1036   0.1089   0.1105   0.1134   0.1157   0.1180   0.1203
     0.1270   0.1290   0.1310   0.1327   0.1355   0.1455   0.1489   0.1573
     0.1669   0.1764   0.1834   0.1873   0.1907   0.1963   0.2019   0.2042
     0.2164   0.2362   0.2432   0.2488   0.2556   0.2625   0.2669   0.2689
     0.2758   0.2804   0.2832   0.2895   0.2923   0.3006   0.3029   0.3062
     0.3128   0.3291   0.3315   0.3469   0.3560   0.3753   0.3787   0.3858
     0.3899   0.3949   0.4034   0.4065   0.4160   0.4249   0.4279   0.4313
     0.4365   0.4531   0.4537   0.4586   0.4609   0.4658   0.4679   0.4830
     0.4896   0.4923   0.4953   0.4968   0.5069   0.5227   0.5271   0.5296
     0.5364   0.5405   0.5433   0.5602   0.5631   0.5682   0.5784   0.5805
     0.5867   0.5930   0.5969   0.6001   0.6074   0.6109   0.6169   0.6198
     0.6228   0.6287   0.6347   0.6470   0.6507   0.6540   0.6732   0.6826
     0.6888   0.6976   0.7020   0.7064   0.7101   0.7165   0.7204   0.7244
     0.7263   0.7328   0.7367   0.7409   0.7429   0.7491   0.7540   0.7626
     0.7663   0.7732   0.7768   0.7808   0.7841   0.7862   0.7913   0.7933
     0.7951   0.7993   0.8028   0.8062   0.8121   0.8133   0.8166   0.8214
     0.8250   0.8326   0.8347   0.8379   0.8401   0.8426   0.8492   0.8535
     0.8581   0.8714   0.8774   0.8830   0.8854   0.8906   0.9005   0.9086
     0.9123   0.9264   0.9278   0.9400   0.9451   0.9490   0.9520   0.9554
     0.9592   0.9696   0.9723   0.9732   0.9754   0.9775   0.9794   0.9831
     0.9922   1.0009   1.0069   1.0092   1.0206   1.0229   1.0254   1.0307
     1.0327   1.0364   1.0485   1.0512   1.0579   1.0605   1.0703   1.0773
     1.0811   1.0840   1.0888   1.0945   1.1069   1.1154   1.1174   1.1222
     1.1254   1.1382   1.1480   1.1490   1.1565   1.1669   1.1757   1.1835
     1.1879   1.1955   1.2014   1.2022   1.2045   1.2066   1.2105   1.2166
     1.2168   1.2195   1.2209   1.2231   1.2248   1.2262   1.2315   1.2331
     1.2378   1.2450   1.2535   1.2557   1.2605   1.2664   1.2727   1.2799
     1.2862   1.2911   1.2933   1.2968   1.2990   1.3006   1.3040   1.3106
     1.3138   1.3145   1.3165   1.3206   1.3239   1.3257   1.3313   1.3336
     1.3352   1.3370   1.3442   1.3454   1.3483   1.3530   1.3581   1.3621
     1.3657   1.3783   1.3839   1.3863   1.3890   1.3910   1.3941   1.3976
     1.4013   1.4082   1.4117   1.4210   1.4270   1.4340   1.4407   1.4433
     1.4468   1.4488   1.4514   1.4537   1.4584   1.4628   1.4647   1.4670
     1.4712   1.4795   1.4848   1.4859   1.4886   1.4933   1.4948   1.5004
     1.5041   1.5069   1.5116   1.5150   1.5195   1.5231   1.5254   1.5275
     1.5291   1.5309   1.5327   1.5381   1.5437   1.5508   1.5517   1.5551
     1.5601   1.5632   1.5659   1.5732   1.5776   1.5787   1.5893   1.5928
     1.5974   1.5981   1.5992   1.6128   1.6206   1.6234   1.6269   1.6304
     1.6367   1.6382   1.6461   1.6645   1.6661   1.6672   1.6830   1.6882
     1.6955   1.7124   1.7575   1.7712   1.7743   1.8065   1.8301   1.8579
     1.8633   1.8760   1.8807   1.8849   1.8912   1.9010   1.9193   1.9277
     1.9906   2.2278   2.2338   2.2573   2.2669   2.3193   2.3789   2.4524
     2.6819   2.6976   2.8411   2.8683   2.8740   2.8764   2.8941   2.9047
     2.9678   3.0518   3.0793   3.1076   3.1238   3.3218   3.5812   3.5969
     3.6595   3.6756   3.6994   3.8329   3.8850   3.9470   3.9613   3.9950
     4.0330   4.1022   4.1523   4.1952   4.2304   4.2658   4.2870   4.4358
     4.4720   4.5117   4.6202   4.6576   4.6977   4.7051   4.7597   4.8415
     4.8785   4.9352   4.9806   5.0124   5.0516   5.1126   5.1567   5.2662
     5.2761   5.3460   5.4539   5.4628   5.5327   5.5487   5.6184   5.7271
     5.8085   5.8587   5.8901   5.9468   6.0291   6.0944   6.1939   6.2372
     6.3097   6.5717   6.6646   6.7082   6.7912   6.8253   6.8599   6.9175
     6.9447   6.9716   6.9999   7.0517   7.1188   7.1350   7.1887   7.2301
     7.2867   7.3132   7.3340   7.3557   7.3869   7.4646   7.4934   7.5055
     7.5188   7.5984   7.6760   7.6965   7.8267   7.8511   7.9068   7.9175
     7.9344   8.0372   8.2292   8.2436   8.2617   8.3186   8.3673   8.4585
     8.5563   8.6284   8.6494   8.6751   8.6922   8.6976   8.7233   8.7775
     8.8000   8.8226   8.8846   8.8874   9.0022   9.0356   9.0851   9.1313
     9.1599   9.1990   9.2356   9.2397   9.2654   9.2860   9.3232   9.3700
     9.3831   9.4075   9.4392   9.4635   9.5332   9.5524   9.5627   9.6513
     9.6964   9.7029   9.8385   9.8870  10.0117  10.0226

          k =-0.5000 0.0000 0.0000 (256496 PWs)   bands (ev):

   -16.8106 -15.6493 -15.4308 -15.3027 -15.2640 -15.1957 -14.4870 -14.3009
   -14.1934 -14.1619 -12.9184 -12.6172 -12.4954 -12.4176 -12.3582 -12.1035
   -12.0510 -11.5973 -11.5757 -11.4418 -11.4303 -10.9316 -10.8885 -10.7902
   -10.5717  -9.9999  -9.9842  -9.7468  -9.4285  -8.8793  -8.8718  -8.6835
    -8.6563  -8.1139  -7.5941  -7.4285  -7.3849  -7.1975  -7.1399  -7.1199
    -5.9575  -5.9231  -5.5035  -5.2591  -5.1919  -5.1688  -5.0103  -4.9265
    -4.8244  -4.6693  -4.6656  -4.6621  -4.6565  -4.6272  -4.5912  -4.4948
    -4.4655  -4.4247  -4.3989  -4.3637  -4.3025  -4.2905  -4.1536  -4.1435
    -4.1427  -4.1358  -3.8812  -3.7782  -3.7106  -3.6929  -3.6456  -3.5635
    -3.5257  -3.4546  -3.3796  -3.3422  -3.3073  -3.3002  -3.2983  -3.2910
    -3.2697  -3.2258  -3.1944  -3.1435  -3.1333  -3.1221  -2.7900  -2.6655
    -2.6497  -2.6314  -2.5876  -2.5606  -2.5487  -2.5202  -2.5048  -2.5033
    -2.4549  -2.4133  -2.3116  -2.2787  -2.2553  -2.1919  -2.0493  -2.0466
    -1.9488  -1.8077  -1.7686  -1.7653  -1.7603  -1.7516  -1.7509  -1.7459
    -1.6596  -1.6567  -1.6520  -1.6211  -1.5968  -1.5557  -1.5392  -1.5388
    -1.5245  -1.5058  -1.4925  -1.4838  -1.4729  -1.4678  -1.4437  -1.4083
    -1.3824  -1.3807  -1.3687  -1.3114  -1.3080  -1.3068  -1.3059  -1.2942
    -1.2910  -1.2853  -1.2831  -1.2768  -1.2686  -1.2355  -1.2345  -1.2273
    -1.2200  -1.2185  -1.2170  -1.2124  -1.2056  -1.1847  -1.1814  -1.1728
    -1.1692  -1.1501  -1.1486  -1.1463  -1.1443  -1.1405  -1.1143  -1.0869
    -1.0852  -1.0670  -1.0629  -1.0553  -1.0516  -1.0480  -1.0426  -1.0296
    -1.0171  -1.0111  -1.0022  -0.9877  -0.9853  -0.9803  -0.9723  -0.9676
    -0.9562  -0.9532  -0.9475  -0.9437  -0.9270  -0.9026  -0.8826  -0.8737
    -0.8657  -0.8594  -0.8539  -0.8506  -0.8395  -0.8374  -0.8310  -0.8170
    -0.8134  -0.8087  -0.8070  -0.8043  -0.8001  -0.7972  -0.7935  -0.7918
    -0.7818  -0.7604  -0.7406  -0.7201  -0.7085  -0.7020  -0.6857  -0.6811
    -0.6708  -0.6529  -0.5989  -0.5917  -0.5879  -0.5826  -0.5576  -0.5542
    -0.5525  -0.5505  -0.5425  -0.5416  -0.5156  -0.5005  -0.4976  -0.4923
    -0.4874  -0.4813  -0.4789  -0.4784  -0.4746  -0.4628  -0.4603  -0.4509
    -0.4441  -0.4055  -0.3921  -0.3586  -0.3491  -0.3360  -0.3205  -0.3176
    -0.3150  -0.3032  -0.2916  -0.2894  -0.2849  -0.2841  -0.2817  -0.2706
    -0.2566  -0.2545  -0.2501  -0.2495  -0.2430  -0.2372  -0.2278  -0.2230
    -0.2168  -0.2087  -0.2075  -0.2054  -0.1923  -0.1862  -0.1779  -0.1770
    -0.1702  -0.1649  -0.1597  -0.1525  -0.1291  -0.1284  -0.1239  -0.1214
    -0.1175  -0.1120  -0.1044  -0.0937  -0.0816  -0.0729  -0.0492  -0.0434
    -0.0378  -0.0351  -0.0211  -0.0194  -0.0130  -0.0080  -0.0025   0.0027
     0.0077   0.0167   0.0298   0.0466   0.0540   0.0797   0.0820   0.0857
     0.0899   0.0931   0.0991   0.1007   0.1016   0.1036   0.1043   0.1078
     0.1167   0.1234   0.1486   0.1622   0.1716   0.1725   0.1763   0.1822
     0.1827   0.1838   0.1874   0.1932   0.1961   0.2028   0.2053   0.2073
     0.2090   0.2126   0.2166   0.2174   0.2241   0.2250   0.2272   0.2312
     0.2348   0.2424   0.2472   0.2494   0.2530   0.2541   0.2580   0.2609
     0.2647   0.2804   0.2824   0.2878   0.2912   0.2924   0.2967   0.3010
     0.3057   0.3142   0.3186   0.3426   0.3464   0.3731   0.3858   0.3971
     0.4016   0.4129   0.4203   0.4316   0.4352   0.4379   0.4429   0.4530
     0.4546   0.4652   0.4695   0.4750   0.4845   0.4879   0.4891   0.4969
     0.4976   0.5013   0.5024   0.5091   0.5122   0.5130   0.5210   0.5250
     0.5259   0.5293   0.5297   0.5352   0.5394   0.5497   0.5555   0.5649
     0.5901   0.6030   0.6037   0.6080   0.6151   0.6173   0.6228   0.6348
     0.6360   0.6413   0.6467   0.6477   0.6537   0.6561   0.6607   0.6630
     0.6635   0.6656   0.6692   0.6731   0.6776   0.6814   0.6836   0.6864
     0.6933   0.6942   0.7010   0.7023   0.7096   0.7132   0.7163   0.7332
     0.7353   0.7507   0.7514   0.7520   0.7587   0.7599   0.7641   0.7650
     0.7693   0.7701   0.7720   0.7791   0.7816   0.7822   0.7827   0.7863
     0.7925   0.8010   0.8035   0.8149   0.8215   0.8271   0.8306   0.8343
     0.8412   0.8439   0.8471   0.8493   0.8559   0.8567   0.8721   0.8857
     0.8911   0.8937   0.8979   0.9081   0.9202   0.9325   0.9363   0.9388
     0.9439   0.9481   0.9500   0.9519   0.9582   0.9596   0.9601   0.9624
     0.9672   0.9795   0.9835   0.9849   0.9877   0.9955   1.0029   1.0030
     1.0074   1.0141   1.0179   1.0195   1.0231   1.0312   1.0337   1.0372
     1.0532   1.0614   1.0624   1.0711   1.0796   1.1109   1.1217   1.1257
     1.1331   1.1374   1.1397   1.1506   1.1550   1.1563   1.1713   1.1736
     1.1761   1.1844   1.1914   1.1927   1.1992   1.2012   1.2041   1.2089
     1.2112   1.2175   1.2290   1.2339   1.2363   1.2367   1.2380   1.2442
     1.2464   1.2477   1.2498   1.2502   1.2524   1.2565   1.2602   1.2620
     1.2697   1.2703   1.2773   1.2871   1.2911   1.2926   1.2954   1.3003
     1.3109   1.3157   1.3174   1.3255   1.3292   1.3298   1.3380   1.3396
     1.3498   1.3501   1.3569   1.3587   1.3590   1.3612   1.3645   1.3670
     1.3677   1.3703   1.3758   1.3807   1.3913   1.4086   1.4134   1.4146
     1.4186   1.4191   1.4223   1.4241   1.4259   1.4266   1.4292   1.4317
     1.4330   1.4387   1.4399   1.4411   1.4424   1.4455   1.4505   1.4510
     1.4562   1.4579   1.4590   1.4610   1.4660   1.4682   1.4711   1.4737
     1.4743   1.4854   1.4891   1.4949   1.4987   1.5046   1.5063   1.5104
     1.5130   1.5171   1.5258   1.5293   1.5303   1.5364   1.5405   1.5440
     1.5452   1.5472   1.5486   1.5598   1.5624   1.5637   1.5657   1.5666
     1.5739   1.5793   1.5856   1.5920   1.5957   1.5973   1.5994   1.6002
     1.6010   1.6100   1.6193   1.6281   1.6315   1.6335   1.6353   1.6370
     1.6390   1.6452   1.6559   1.6856   1.6927   1.7043   1.7120   1.7204
     1.7218   1.7243   1.7352   1.8782   2.1107   2.1412   2.1593   2.2119
     2.2828   2.3251   2.3472   2.3863   2.3979   2.4014   2.4051   2.4626
     2.6671   2.6749   2.6958   2.8828   2.9095   2.9417   2.9466   3.2028
     3.2284   3.2914   3.3061   3.3152   3.5013   3.5853   3.7809   3.8292
     3.8570   3.8995   3.9261   3.9873   4.0189   4.0436   4.1097   4.1757
     4.1817   4.1833   4.1966   4.2015   4.4526   4.6393   4.6825   4.7035
     4.7334   4.7526   4.7660   4.8123   4.9127   4.9350   4.9641   5.0029
     5.0367   5.0700   5.1059   5.1191   5.1361   5.1467   5.1661   5.1700
     5.1839   5.2193   5.3106   5.3599   5.4333   5.4594   5.5192   5.5652
     5.5897   5.6193   5.6407   5.6681   5.8684   5.9692   5.9713   6.0088
     6.0492   6.0685   6.0841   6.0913   6.1604   6.3294   6.3417   6.3532
     6.4054   6.4421   6.5384   6.5702   6.5978   6.6880   6.7775   7.1411
     7.1773   7.1931   7.2062   7.3103   7.3693   7.5773   7.6586   7.6811
     7.6933   7.6937   7.7090   7.7718   7.8354   7.8788   7.9026   7.9528
     7.9632   8.0115   8.0256   8.0589   8.0884   8.1032   8.1153   8.1236
     8.2209   8.2356   8.2724   8.4754   8.6783   8.7256   8.7347   8.7656
     8.9005   8.9044   8.9070   8.9259   8.9435   8.9818   9.0662   9.0670
     9.1146   9.1413   9.1459   9.3235   9.3856   9.3976   9.4259   9.4562
     9.4869   9.5096   9.5233   9.5402   9.5647   9.5711   9.5751   9.5786
     9.6361   9.7328   9.7659   9.8804   9.8972   9.9381

          k =-0.5000-0.2165 0.0000 (256328 PWs)   bands (ev):

   -16.8105 -15.6104 -15.4910 -15.4705 -15.0429 -14.8894 -14.8205 -14.7781
   -13.7526 -13.5363 -13.4056 -13.3709 -12.4222 -12.2803 -12.0676 -11.6899
   -11.6631 -11.6413 -11.4983 -11.4066 -11.3522 -11.2072 -11.1960 -11.1008
   -11.0849  -9.7248  -9.7042  -9.4740  -9.4319  -8.9679  -8.6559  -8.5275
    -8.5084  -8.1109  -8.0081  -7.9781  -7.7858  -7.7700  -6.3132  -5.9977
    -5.9187  -5.7383  -5.6045  -5.3652  -5.2582  -5.0915  -5.0828  -5.0503
    -5.0477  -5.0413  -5.0346  -5.0339  -4.8755  -4.8147  -4.6647  -4.6519
    -4.1718  -4.0869  -4.0857  -4.0809  -4.0654  -4.0648  -4.0559  -4.0465
    -3.9924  -3.9535  -3.9362  -3.8853  -3.8738  -3.8048  -3.6462  -3.6399
    -3.6340  -3.5112  -3.4928  -3.4679  -3.4374  -3.4196  -3.4127  -3.3671
    -3.2350  -3.2147  -3.1327  -3.1084  -3.0621  -2.9106  -2.8591  -2.7817
    -2.5587  -2.5131  -2.4602  -2.4559  -2.4519  -2.4457  -2.4319  -2.4181
    -2.4015  -2.3631  -2.3470  -2.2112  -2.1552  -2.0819  -1.9707  -1.9580
    -1.9554  -1.9411  -1.9296  -1.9184  -1.9008  -1.8950  -1.8378  -1.8065
    -1.7651  -1.7022  -1.6803  -1.6796  -1.6642  -1.6388  -1.5922  -1.4827
    -1.4716  -1.4689  -1.4401  -1.4196  -1.4053  -1.3773  -1.3739  -1.3689
    -1.3615  -1.3566  -1.3296  -1.3253  -1.3149  -1.2924  -1.2919  -1.2829
    -1.2787  -1.2723  -1.2660  -1.2640  -1.2571  -1.2548  -1.2499  -1.2470
    -1.2432  -1.2373  -1.2357  -1.2329  -1.2288  -1.2016  -1.1930  -1.1882
    -1.1726  -1.1636  -1.1457  -1.1197  -1.0990  -1.0893  -1.0784  -1.0778
    -1.0684  -1.0668  -1.0641  -1.0598  -1.0391  -1.0354  -1.0226  -1.0214
    -1.0159  -1.0122  -1.0011  -0.9982  -0.9942  -0.9935  -0.9774  -0.9732
    -0.9631  -0.9596  -0.9543  -0.9502  -0.9440  -0.9426  -0.9353  -0.9327
    -0.9177  -0.9168  -0.9037  -0.9003  -0.8981  -0.8949  -0.8856  -0.8769
    -0.8549  -0.8431  -0.7985  -0.7834  -0.7611  -0.7490  -0.7412  -0.7395
    -0.7380  -0.7306  -0.7172  -0.6799  -0.6669  -0.6521  -0.6476  -0.6474
    -0.6418  -0.6352  -0.6346  -0.6312  -0.6267  -0.6219  -0.5983  -0.5839
    -0.5780  -0.5762  -0.5719  -0.5688  -0.5599  -0.5520  -0.5485  -0.5457
    -0.5454  -0.5119  -0.5083  -0.4777  -0.4372  -0.4362  -0.4262  -0.4222
    -0.4181  -0.4178  -0.3988  -0.3792  -0.3747  -0.3736  -0.3552  -0.3391
    -0.3381  -0.3265  -0.3232  -0.3198  -0.3042  -0.3032  -0.2983  -0.2962
    -0.2732  -0.2725  -0.2693  -0.2645  -0.2628  -0.2627  -0.2135  -0.2088
    -0.2006  -0.1987  -0.1871  -0.1835  -0.1698  -0.1496  -0.1486  -0.1318
    -0.1291  -0.1287  -0.1274  -0.1272  -0.1205  -0.1199  -0.1139  -0.0839
    -0.0676  -0.0652  -0.0526  -0.0459  -0.0450  -0.0431  -0.0393  -0.0390
    -0.0345  -0.0311  -0.0260  -0.0129  -0.0063  -0.0033   0.0047   0.0060
     0.0075   0.0104   0.0163   0.0164   0.0276   0.0290   0.0412   0.0425
     0.0509   0.0628   0.0835   0.0909   0.0968   0.1130   0.1180   0.1414
     0.1459   0.1698   0.1717   0.1742   0.1753   0.1765   0.1813   0.1851
     0.1864   0.1931   0.1965   0.2029   0.2095   0.2123   0.2155   0.2186
     0.2193   0.2239   0.2260   0.2287   0.2333   0.2378   0.2417   0.2440
     0.2449   0.2486   0.2492   0.2541   0.2666   0.2677   0.2755   0.2761
     0.2812   0.2886   0.2929   0.3004   0.3016   0.3045   0.3123   0.3210
     0.3277   0.3316   0.3365   0.3483   0.3562   0.3630   0.3727   0.3760
     0.3791   0.4063   0.4176   0.4310   0.4312   0.4387   0.4618   0.4619
     0.4726   0.4758   0.4825   0.4846   0.4919   0.5014   0.5077   0.5088
     0.5113   0.5136   0.5181   0.5212   0.5257   0.5310   0.5350   0.5372
     0.5552   0.5601   0.5639   0.5682   0.5713   0.5744   0.5797   0.5826
     0.5848   0.5868   0.5896   0.5912   0.5941   0.5967   0.5995   0.6044
     0.6092   0.6172   0.6220   0.6329   0.6461   0.6538   0.6563   0.6586
     0.6631   0.6666   0.6726   0.6734   0.6772   0.6804   0.6845   0.6864
     0.6901   0.6962   0.6985   0.7018   0.7058   0.7133   0.7155   0.7170
     0.7225   0.7298   0.7305   0.7347   0.7367   0.7436   0.7513   0.7579
     0.7657   0.7741   0.7746   0.7832   0.7879   0.7959   0.7969   0.7985
     0.8001   0.8108   0.8128   0.8166   0.8173   0.8244   0.8364   0.8404
     0.8437   0.8447   0.8459   0.8502   0.8553   0.8586   0.8606   0.8615
     0.8654   0.8703   0.8929   0.8999   0.9024   0.9110   0.9127   0.9186
     0.9300   0.9324   0.9367   0.9410   0.9462   0.9537   0.9691   0.9715
     0.9847   0.9898   0.9902   0.9921   0.9959   0.9970   1.0092   1.0129
     1.0355   1.0484   1.0542   1.0573   1.0600   1.0830   1.0919   1.0964
     1.1040   1.1125   1.1132   1.1169   1.1290   1.1308   1.1352   1.1394
     1.1410   1.1467   1.1487   1.1514   1.1520   1.1558   1.1613   1.1618
     1.1630   1.1650   1.1665   1.1667   1.1721   1.1736   1.1803   1.1816
     1.1881   1.1942   1.1960   1.1964   1.2011   1.2024   1.2074   1.2094
     1.2190   1.2221   1.2281   1.2388   1.2418   1.2442   1.2469   1.2510
     1.2577   1.2590   1.2652   1.2661   1.2709   1.2716   1.2855   1.3025
     1.3038   1.3063   1.3114   1.3151   1.3186   1.3226   1.3250   1.3293
     1.3314   1.3319   1.3383   1.3390   1.3477   1.3597   1.3623   1.3706
     1.3712   1.3827   1.3865   1.3866   1.3899   1.3947   1.3956   1.3975
     1.3996   1.4012   1.4026   1.4065   1.4069   1.4283   1.4411   1.4481
     1.4515   1.4545   1.4624   1.4659   1.4698   1.4701   1.4708   1.4732
     1.4745   1.4760   1.4764   1.4777   1.4811   1.4815   1.4867   1.4906
     1.4915   1.4920   1.4978   1.4993   1.5049   1.5071   1.5111   1.5115
     1.5155   1.5180   1.5198   1.5201   1.5210   1.5230   1.5300   1.5356
     1.5410   1.5519   1.5538   1.5582   1.5593   1.5636   1.5636   1.5767
     1.5842   1.5857   1.5869   1.5873   1.5995   1.6146   1.6165   1.6236
     1.6258   1.6405   1.6477   1.6540   1.6592   1.6606   1.6818   1.6838
     1.6906   1.6964   1.7070   1.7128   1.7142   1.7164   1.7192   1.7255
     1.7267   1.7341   1.7342   1.7366   1.7377   1.8897   1.9415   1.9519
     1.9590   2.1028   2.3972   2.3975   2.4179   2.5755   2.6267   2.6634
     2.6736   2.6887   2.8577   2.8969   2.9188   2.9696   3.1421   3.1678
     3.1990   3.5138   3.5160   3.5648   3.5676   3.6016   3.6625   3.7312
     3.7339   3.8218   4.0022   4.0448   4.0450   4.0529   4.2209   4.2889
     4.3044   4.3132   4.3182   4.3361   4.3537   4.3601   4.4362   4.4557
     4.6257   4.6545   4.7042   4.7248   4.7736   4.7970   4.9149   4.9886
     4.9996   5.0402   5.0766   5.1052   5.1613   5.1940   5.2225   5.2414
     5.2631   5.2851   5.3291   5.3460   5.3541   5.3920   5.4340   5.4575
     5.4837   5.6634   5.7361   5.7721   5.7911   5.7928   5.8278   5.8289
     5.8359   5.8575   5.8854   5.9030   5.9149   6.3473   6.3561   6.7197
     6.7703   7.0475   7.0579   7.0894   7.1242   7.1837   7.2008   7.2123
     7.2340   7.2354   7.2626   7.2838   7.2998   7.3926   7.4001   7.4560
     7.4900   7.5163   7.5736   7.5757   7.6019   7.6942   7.7710   7.8613
     7.9686   7.9754   8.0288   8.0349   8.0582   8.1747   8.2533   8.2947
     8.3374   8.3961   8.4016   8.4223   8.4270   8.4756   8.8636   8.9449
     8.9547   8.9691   8.9819   8.9835   8.9883   9.0057   9.0613   9.0813
     9.1272   9.1626   9.1812   9.1861   9.2035   9.2336   9.3000   9.3026
     9.3626   9.3752   9.4106   9.4740   9.5319   9.5431   9.5513   9.5656
     9.5759   9.6947   9.8785   9.9492   9.9686  10.0132

     the Fermi energy is     3.4409 ev

!    total energy              =  -12734.52691777 Ry
     Harris-Foulkes estimate   =  -12734.52691778 Ry
     estimated scf accuracy    <          9.4E-09 Ry

     The total energy is the sum of the following terms:

     one-electron contribution = -104203.73005845 Ry
     hartree contribution      =   53473.56547884 Ry
     xc contribution           =   -4456.84869196 Ry
     ewald contribution        =   42458.78147312 Ry
     Dispersion Correction     =      -2.93421543 Ry
     smearing contrib. (-TS)   =      -3.36090389 Ry

     convergence has been achieved in  43 iterations

     Writing output data file gc.save
 
     init_run     :    101.59s CPU    109.04s WALL (       1 calls)
     electrons    :  13283.53s CPU  14224.35s WALL (       1 calls)

     Called by init_run:
     wfcinit      :     99.16s CPU    106.30s WALL (       1 calls)
     potinit      :      0.41s CPU      0.43s WALL (       1 calls)

     Called by electrons:
     c_bands      :  12309.91s CPU  13148.98s WALL (      43 calls)
     sum_band     :    802.06s CPU    874.85s WALL (      43 calls)
     v_of_rho     :      2.73s CPU      3.48s WALL (      44 calls)
     newd         :      7.81s CPU     14.44s WALL (      44 calls)
     mix_rho      :    160.87s CPU    182.55s WALL (      43 calls)

     Called by c_bands:
     init_us_2    :     35.71s CPU     36.40s WALL (     522 calls)
     cegterg      :  12155.41s CPU  12986.25s WALL (     271 calls)

     Called by sum_band:
     sum_band:bec :      4.44s CPU      5.12s WALL (     258 calls)
     addusdens    :      7.72s CPU     14.20s WALL (      43 calls)

     Called by *egterg:
     h_psi        :   4278.14s CPU   4634.61s WALL (    1965 calls)
     s_psi        :   1026.31s CPU   1039.15s WALL (    1965 calls)
     g_psi        :     11.09s CPU     11.10s WALL (    1688 calls)
     cdiaghg      :   3621.10s CPU   3762.22s WALL (    1950 calls)

     Called by h_psi:
     add_vuspsi   :   1032.05s CPU   1047.20s WALL (    1965 calls)

     General routines
     calbec       :   1446.72s CPU   1457.76s WALL (    2223 calls)
     fft          :      3.28s CPU      3.92s WALL (     571 calls)
     ffts         :     94.11s CPU    107.16s WALL (   24966 calls)
     fftw         :   2425.68s CPU   2723.74s WALL ( 1353080 calls)
     davcio       :      0.13s CPU      3.00s WALL (       6 calls)
 
     Parallel routines
     fft_scatter  :   1594.71s CPU   1740.45s WALL ( 1378617 calls)
 
     PWSCF        :     3h43m CPU        3h59m WALL

 
   This run was terminated on:   0:40: 3  27Apr2017            

=------------------------------------------------------------------------------=
   JOB DONE.
=------------------------------------------------------------------------------=
