
     Program PWSCF v.5.4.0 starts on  7Apr2017 at 16:56:47 

     This program is part of the open-source Quantum ESPRESSO suite
     for quantum simulation of materials; please cite
         "P. Giannozzi et al., J. Phys.:Condens. Matter 21 395502 (2009);
          URL http://www.quantum-espresso.org", 
     in publications or presentations arising from this work. More details at
     http://www.quantum-espresso.org/quote

     Parallel version (MPI & OpenMP), running on      56 processor cores
     Number of MPI processes:                56
     Threads/MPI process:                     1
     R & G space division:  proc/nbgrp/npool/nimage =      56
     Waiting for input...
     Reading input from standard input
Warning: card &IONS ignored
Warning: card / ignored

     Current dimensions of program PWSCF are:
     Max number of different atomic species (ntypx) = 10
     Max number of k-points (npk) =  40000
     Max angular momentum in pseudopotentials (lmaxx) =  3

     -------------------------------------
     Parameters for Dispersion Correction:
     -------------------------------------
       atom      VdW radius       C_6     

        Cu         2.952        374.666

     Subspace diagonalization in iterative solution of the eigenvalue problem:
     one sub-group per band group will be used
     scalapack distributed-memory algorithm (size of sub-group:  5*  5 procs)

 
     Parallelization info
     --------------------
     sticks:   dense  smooth     PW     G-vecs:    dense   smooth      PW
     Min         204     204     54                36612    36612    4962
     Max         205     205     55                36617    36617    4968
     Sum       11433   11433   3039              2050409  2050409  278033
 


     bravais-lattice index     =            0
     lattice parameter (alat)  =      13.9425  a.u.
     unit-cell volume          =   21209.0878 (a.u.)^3
     number of atoms/cell      =          100
     number of atomic types    =            1
     number of electrons       =      1100.00
     number of Kohn-Sham states=          660
     kinetic-energy cutoff     =      80.0000  Ry
     charge density cutoff     =     320.0000  Ry
     convergence threshold     =      1.0E-10
     mixing beta               =       0.7000
     number of iterations used =            8  local-TF  mixing
     Exchange-correlation      =  SLA  PW   PBE  PBE ( 1  4  3  4 0 0)

     celldm(1)=  13.942539  celldm(2)=   0.000000  celldm(3)=   0.000000
     celldm(4)=   0.000000  celldm(5)=   0.000000  celldm(6)=   0.000000

     crystal axes: (cart. coord. in units of alat)
               a(1) = (   1.000000   0.000000   0.000000 )  
               a(2) = (   0.000000   2.309401   0.000000 )  
               a(3) = (   0.000000   0.000000   3.388418 )  

     reciprocal axes: (cart. coord. in units 2 pi/alat)
               b(1) = (  1.000000  0.000000  0.000000 )  
               b(2) = (  0.000000  0.433013  0.000000 )  
               b(3) = (  0.000000  0.000000  0.295123 )  


     PseudoPot. # 1 for Cu read from file:
     /home/549/hxw549/Short/pseudopotentials/Cu.pbe-n-van_ak.UPF
     MD5 check sum: 601f7c30f7467666bec936e0661ce3e1
     Pseudo is Ultrasoft + core correction, Zval = 11.0
     Generated by new atomic code, or converted to UPF format
     Using radial grid of  867 points,  6 beta functions with: 
                l(1) =   0
                l(2) =   0
                l(3) =   1
                l(4) =   1
                l(5) =   2
                l(6) =   2
     Q(r) pseudized with  8 coefficients,  rinner =    1.400   1.400   1.400
                                                       1.400   1.400

     atomic species   valence    mass     pseudopotential
        Cu            11.00    63.54600     Cu( 1.00)

     No symmetry found


                                    s                        frac. trans.

      isym =  1     identity                                     

 cryst.   s( 1) = (     1          0          0      )
                  (     0          1          0      )
                  (     0          0          1      )

 cart.    s( 1) = (  1.0000000  0.0000000  0.0000000 )
                  (  0.0000000  1.0000000  0.0000000 )
                  (  0.0000000  0.0000000  1.0000000 )


   Cartesian axes

     site n.     atom                  positions (alat units)
         1           Cu  tau(   1) = (   0.0000000   0.0009664  24.9279861  )
         2           Cu  tau(   2) = (   1.8444643   3.9355850  24.9323654  )
         3           Cu  tau(   3) = (   3.6890370   0.0005327  24.9287248  )
         4           Cu  tau(   4) = (   5.5336097   3.9355850  24.9323654  )
         5           Cu  tau(   5) = (   0.0000000   7.8693236  24.9335617  )
         6           Cu  tau(   6) = (   1.8444007  11.8040622  24.9297838  )
         7           Cu  tau(   7) = (   3.6890370   7.8698089  24.9327975  )
         8           Cu  tau(   8) = (   5.5336732  11.8040622  24.9297838  )
         9           Cu  tau(   9) = (   0.0000000  15.7397485  24.9265531  )
        10           Cu  tau(  10) = (   1.8446342  19.6755708  24.9284337  )
        11           Cu  tau(  11) = (   3.6890370  15.7396340  24.9268171  )
        12           Cu  tau(  12) = (   5.5334398  19.6755708  24.9284337  )
        13           Cu  tau(  13) = (   0.0000000  23.6100895  24.9320761  )
        14           Cu  tau(  14) = (   1.8445397  27.5444868  24.9331042  )
        15           Cu  tau(  15) = (   3.6890370  23.6108718  24.9325113  )
        16           Cu  tau(  16) = (   5.5335343  27.5444868  24.9331042  )
        17           Cu  tau(  17) = (   0.0000000  31.4793266  24.9299226  )
        18           Cu  tau(  18) = (   1.8445500  35.4145992  24.9268625  )
        19           Cu  tau(  19) = (   3.6890370  31.4785726  24.9294315  )
        20           Cu  tau(  20) = (   5.5335239  35.4145992  24.9268625  )
        21           Cu  tau(  21) = (   0.0000000   3.9326956  31.1441085  )
        22           Cu  tau(  22) = (   1.8444389  -0.0017203  31.1394100  )
        23           Cu  tau(  23) = (   3.6890370   3.9341839  31.1418655  )
        24           Cu  tau(  24) = (   5.5336351  -0.0017203  31.1394100  )
        25           Cu  tau(  25) = (   0.0000000  11.8076149  31.1410162  )
        26           Cu  tau(  26) = (   1.8444253   7.8707825  31.1436474  )
        27           Cu  tau(  27) = (   3.6890370  11.8062961  31.1401855  )
        28           Cu  tau(  28) = (   5.5336486   7.8707825  31.1436474  )
        29           Cu  tau(  29) = (   0.0000000  19.6733936  31.1391894  )
        30           Cu  tau(  30) = (   1.8445042  15.7403082  31.1378714  )
        31           Cu  tau(  31) = (   3.6890370  19.6727466  31.1394992  )
        32           Cu  tau(  32) = (   5.5335698  15.7403082  31.1378714  )
        33           Cu  tau(  33) = (   0.0000000  27.5451875  31.1422752  )
        34           Cu  tau(  34) = (   1.8446371  23.6082781  31.1428338  )
        35           Cu  tau(  35) = (   3.6890370  27.5460838  31.1450477  )
        36           Cu  tau(  36) = (   5.5334369  23.6082781  31.1428338  )
        37           Cu  tau(  37) = (   0.0000000  35.4154077  31.1379038  )
        38           Cu  tau(  38) = (   1.8446371  31.4817904  31.1405250  )
        39           Cu  tau(  39) = (   3.6890370  35.4150033  31.1378803  )
        40           Cu  tau(  40) = (   5.5334369  31.4817904  31.1405250  )
        41           Cu  tau(  41) = (   0.0000000  -0.0054219  37.3857613  )
        42           Cu  tau(  42) = (   1.8446839   3.9311991  37.3791950  )
        43           Cu  tau(  43) = (   3.6890370  -0.0035086  37.3819366  )
        44           Cu  tau(  44) = (   5.5333901   3.9311991  37.3791950  )
        45           Cu  tau(  45) = (   0.0000000   7.8724197  37.3764282  )
        46           Cu  tau(  46) = (   1.8447689  11.8100672  37.3820183  )
        47           Cu  tau(  47) = (   3.6890370   7.8718087  37.3803605  )
        48           Cu  tau(  48) = (   5.5333051  11.8100672  37.3820183  )
        49           Cu  tau(  49) = (   0.0000000  15.7419246  37.3863596  )
        50           Cu  tau(  50) = (   1.8443032  19.6703043  37.3834354  )
        51           Cu  tau(  51) = (   3.6890370  15.7399399  37.3851806  )
        52           Cu  tau(  52) = (   5.5337708  19.6703043  37.3834354  )
        53           Cu  tau(  53) = (   0.0000000  23.6065083  37.3801653  )
        54           Cu  tau(  54) = (   1.8444158  27.5468707  37.3782461  )
        55           Cu  tau(  55) = (   3.6890370  23.6053282  37.3783660  )
        56           Cu  tau(  56) = (   5.5336582  27.5468707  37.3782461  )
        57           Cu  tau(  57) = (   0.0000000  31.4840582  37.3807691  )
        58           Cu  tau(  58) = (   1.8444670  35.4158525  37.3852248  )
        59           Cu  tau(  59) = (   3.6890370  31.4858371  37.3837574  )
        60           Cu  tau(  60) = (   5.5336070  35.4158525  37.3852248  )
        61           Cu  tau(  61) = (   0.0000000   3.9372417  43.6019428  )
        62           Cu  tau(  62) = (   1.8453217  -0.0022047  43.6261970  )
        63           Cu  tau(  63) = (   3.6890370   3.9292551  43.6149625  )
        64           Cu  tau(  64) = (   5.5327523  -0.0022047  43.6261970  )
        65           Cu  tau(  65) = (   0.0000000  11.8045624  43.6151485  )
        66           Cu  tau(  66) = (   1.8466717   7.8711895  43.6029917  )
        67           Cu  tau(  67) = (   3.6890370  11.8097030  43.6282958  )
        68           Cu  tau(  68) = (   5.5314023   7.8711895  43.6029917  )
        69           Cu  tau(  69) = (   0.0000000  19.6727909  43.6337581  )
        70           Cu  tau(  70) = (   1.8446810  15.7404082  43.6345870  )
        71           Cu  tau(  71) = (   3.6890370  19.6731490  43.6227950  )
        72           Cu  tau(  72) = (   5.5333929  15.7404082  43.6345870  )
        73           Cu  tau(  73) = (   0.0000000  27.5481900  43.6101875  )
        74           Cu  tau(  74) = (   1.8426281  23.6076368  43.6068326  )
        75           Cu  tau(  75) = (   3.6890370  27.5432741  43.5980825  )
        76           Cu  tau(  76) = (   5.5354459  23.6076368  43.6068326  )
        77           Cu  tau(  77) = (   0.0000000  35.4115366  43.6375350  )
        78           Cu  tau(  78) = (   1.8433574  31.4824341  43.6195186  )
        79           Cu  tau(  79) = (   3.6890370  35.4188560  43.6350060  )
        80           Cu  tau(  80) = (   5.5347166  31.4824341  43.6195186  )
        81           Cu  tau(  81) = (   0.0000000   0.0182858  49.7667758  )
        82           Cu  tau(  82) = (   1.8467718   3.9439170  49.7621930  )
        83           Cu  tau(  83) = (   3.6890370   0.0022745  49.8116739  )
        84           Cu  tau(  84) = (   5.5313022   3.9439170  49.7621930  )
        85           Cu  tau(  85) = (   0.0000000   7.8692238  49.7544459  )
        86           Cu  tau(  86) = (   1.8507465  11.7932384  49.7757044  )
        87           Cu  tau(  87) = (   3.6890370   7.8601486  49.7833958  )
        88           Cu  tau(  88) = (   5.5273275  11.7932384  49.7757044  )
        89           Cu  tau(  89) = (   0.0000000  15.7179014  49.7897957  )
        90           Cu  tau(  90) = (   1.8380808  19.6849423  49.7816049  )
        91           Cu  tau(  91) = (   3.6890370  15.7571897  49.8014356  )
        92           Cu  tau(  92) = (   5.5399932  19.6849423  49.7816049  )
        93           Cu  tau(  93) = (   0.0000000  23.6260192  49.7907407  )
        94           Cu  tau(  94) = (   1.8441735  27.5398661  49.7576246  )
        95           Cu  tau(  95) = (   3.6890370  23.6126593  49.7545000  )
        96           Cu  tau(  96) = (   5.5339005  27.5398661  49.7576246  )
        97           Cu  tau(  97) = (   0.0000000  31.4680407  49.8080298  )
        98           Cu  tau(  98) = (   1.8427191  35.4123246  49.7878355  )
        99           Cu  tau(  99) = (   3.6890370  31.4671675  49.7596163  )
       100           Cu  tau( 100) = (   5.5353549  35.4123246  49.7878355  )

   Crystallographic axes

     site n.     atom                  positions (cryst. coord.)
         1           Cu  tau(   1) = (  0.0000000  0.0004185  7.3568210  )
         2           Cu  tau(   2) = (  1.8444643  1.7041583  7.3581135  )
         3           Cu  tau(   3) = (  3.6890370  0.0002306  7.3570390  )
         4           Cu  tau(   4) = (  5.5336097  1.7041583  7.3581135  )
         5           Cu  tau(   5) = (  0.0000000  3.4075171  7.3584665  )
         6           Cu  tau(   6) = (  1.8444007  5.1113089  7.3573516  )
         7           Cu  tau(   7) = (  3.6890370  3.4077272  7.3582410  )
         8           Cu  tau(   8) = (  5.5336732  5.1113089  7.3573516  )
         9           Cu  tau(   9) = (  0.0000000  6.8155110  7.3563981  )
        10           Cu  tau(  10) = (  1.8446342  8.5197721  7.3569531  )
        11           Cu  tau(  11) = (  3.6890370  6.8154615  7.3564760  )
        12           Cu  tau(  12) = (  5.5334398  8.5197721  7.3569531  )
        13           Cu  tau(  13) = (  0.0000000 10.2234687  7.3580281  )
        14           Cu  tau(  14) = (  1.8445397 11.9271127  7.3583315  )
        15           Cu  tau(  15) = (  3.6890370 10.2238074  7.3581565  )
        16           Cu  tau(  16) = (  5.5335343 11.9271127  7.3583315  )
        17           Cu  tau(  17) = (  0.0000000 13.6309482  7.3573925  )
        18           Cu  tau(  18) = (  1.8445500 15.3349713  7.3564894  )
        19           Cu  tau(  19) = (  3.6890370 13.6306218  7.3572476  )
        20           Cu  tau(  20) = (  5.5335239 15.3349713  7.3564894  )
        21           Cu  tau(  21) = (  0.0000000  1.7029071  9.1913415  )
        22           Cu  tau(  22) = (  1.8444389 -0.0007449  9.1899548  )
        23           Cu  tau(  23) = (  3.6890370  1.7035516  9.1906795  )
        24           Cu  tau(  24) = (  5.5336351 -0.0007449  9.1899548  )
        25           Cu  tau(  25) = (  0.0000000  5.1128472  9.1904288  )
        26           Cu  tau(  26) = (  1.8444253  3.4081488  9.1912054  )
        27           Cu  tau(  27) = (  3.6890370  5.1122762  9.1901837  )
        28           Cu  tau(  28) = (  5.5336486  3.4081488  9.1912054  )
        29           Cu  tau(  29) = (  0.0000000  8.5188293  9.1898897  )
        30           Cu  tau(  30) = (  1.8445042  6.8157534  9.1895007  )
        31           Cu  tau(  31) = (  3.6890370  8.5185492  9.1899812  )
        32           Cu  tau(  32) = (  5.5335698  6.8157534  9.1895007  )
        33           Cu  tau(  33) = (  0.0000000 11.9274160  9.1908004  )
        34           Cu  tau(  34) = (  1.8446371 10.2226843  9.1909653  )
        35           Cu  tau(  35) = (  3.6890370 11.9278042  9.1916186  )
        36           Cu  tau(  36) = (  5.5334369 10.2226843  9.1909653  )
        37           Cu  tau(  37) = (  0.0000000 15.3353214  9.1895103  )
        38           Cu  tau(  38) = (  1.8446371 13.6320151  9.1902839  )
        39           Cu  tau(  39) = (  3.6890370 15.3351463  9.1895034  )
        40           Cu  tau(  40) = (  5.5334369 13.6320151  9.1902839  )
        41           Cu  tau(  41) = (  0.0000000 -0.0023478 11.0333965  )
        42           Cu  tau(  42) = (  1.8446839  1.7022592 11.0314586  )
        43           Cu  tau(  43) = (  3.6890370 -0.0015193 11.0322678  )
        44           Cu  tau(  44) = (  5.5333901  1.7022592 11.0314586  )
        45           Cu  tau(  45) = (  0.0000000  3.4088577 11.0306421  )
        46           Cu  tau(  46) = (  1.8447689  5.1139091 11.0322919  )
        47           Cu  tau(  47) = (  3.6890370  3.4085932 11.0318026  )
        48           Cu  tau(  48) = (  5.5333051  5.1139091 11.0322919  )
        49           Cu  tau(  49) = (  0.0000000  6.8164533 11.0335731  )
        50           Cu  tau(  50) = (  1.8443032  8.5174916 11.0327101  )
        51           Cu  tau(  51) = (  3.6890370  6.8155939 11.0332251  )
        52           Cu  tau(  52) = (  5.5337708  8.5174916 11.0327101  )
        53           Cu  tau(  53) = (  0.0000000 10.2219179 11.0317450  )
        54           Cu  tau(  54) = (  1.8444158 11.9281449 11.0311786  )
        55           Cu  tau(  55) = (  3.6890370 10.2214069 11.0312140  )
        56           Cu  tau(  56) = (  5.5336582 11.9281449 11.0311786  )
        57           Cu  tau(  57) = (  0.0000000 13.6329971 11.0319232  )
        58           Cu  tau(  58) = (  1.8444670 15.3355140 11.0332382  )
        59           Cu  tau(  59) = (  3.6890370 13.6337674 11.0328051  )
        60           Cu  tau(  60) = (  5.5336070 15.3355140 11.0332382  )
        61           Cu  tau(  61) = (  0.0000000  1.7048757 12.8679344  )
        62           Cu  tau(  62) = (  1.8453217 -0.0009547 12.8750923  )
        63           Cu  tau(  63) = (  3.6890370  1.7014173 12.8717768  )
        64           Cu  tau(  64) = (  5.5327523 -0.0009547 12.8750923  )
        65           Cu  tau(  65) = (  0.0000000  5.1115255 12.8718317  )
        66           Cu  tau(  66) = (  1.8466717  3.4083250 12.8682439  )
        67           Cu  tau(  67) = (  3.6890370  5.1137514 12.8757118  )
        68           Cu  tau(  68) = (  5.5314023  3.4083250 12.8682439  )
        69           Cu  tau(  69) = (  0.0000000  8.5185684 12.8773238  )
        70           Cu  tau(  70) = (  1.8446810  6.8157967 12.8775685  )
        71           Cu  tau(  71) = (  3.6890370  8.5187234 12.8740884  )
        72           Cu  tau(  72) = (  5.5333929  6.8157967 12.8775685  )
        73           Cu  tau(  73) = (  0.0000000 11.9287162 12.8703676  )
        74           Cu  tau(  74) = (  1.8426281 10.2224066 12.8693775  )
        75           Cu  tau(  75) = (  3.6890370 11.9265875 12.8667951  )
        76           Cu  tau(  76) = (  5.5354459 10.2224066 12.8693775  )
        77           Cu  tau(  77) = (  0.0000000 15.3336451 12.8784385  )
        78           Cu  tau(  78) = (  1.8433574 13.6322938 12.8731214  )
        79           Cu  tau(  79) = (  3.6890370 15.3368145 12.8776921  )
        80           Cu  tau(  80) = (  5.5347166 13.6322938 12.8731214  )
        81           Cu  tau(  81) = (  0.0000000  0.0079180 14.6873181  )
        82           Cu  tau(  82) = (  1.8467718  1.7077661 14.6859656  )
        83           Cu  tau(  83) = (  3.6890370  0.0009849 14.7005686  )
        84           Cu  tau(  84) = (  5.5313022  1.7077661 14.6859656  )
        85           Cu  tau(  85) = (  0.0000000  3.4074739 14.6836793  )
        86           Cu  tau(  86) = (  1.8507465  5.1066220 14.6899532  )
        87           Cu  tau(  87) = (  3.6890370  3.4035442 14.6922231  )
        88           Cu  tau(  88) = (  5.5273275  5.1066220 14.6899532  )
        89           Cu  tau(  89) = (  0.0000000  6.8060510 14.6941119  )
        90           Cu  tau(  90) = (  1.8380808  8.5238301 14.6916946  )
        91           Cu  tau(  91) = (  3.6890370  6.8230633 14.6975471  )
        92           Cu  tau(  92) = (  5.5399932  8.5238301 14.6916946  )
        93           Cu  tau(  93) = (  0.0000000 10.2303664 14.6943907  )
        94           Cu  tau(  94) = (  1.8441735 11.9251118 14.6846174  )
        95           Cu  tau(  95) = (  3.6890370 10.2245814 14.6836953  )
        96           Cu  tau(  96) = (  5.5339005 11.9251118 14.6846174  )
        97           Cu  tau(  97) = (  0.0000000 13.6260613 14.6994931  )
        98           Cu  tau(  98) = (  1.8427191 15.3339863 14.6935333  )
        99           Cu  tau(  99) = (  3.6890370 13.6256832 14.6852052  )
       100           Cu  tau( 100) = (  5.5353549 15.3339863 14.6935333  )

     number of k points=     6  gaussian smearing, width (Ry)=  0.1000
                       cart. coord. in units 2pi/alat
        k(    1) = (   0.0000000   0.0000000   0.0000000), wk =   0.2500000
        k(    2) = (   0.0000000  -0.2165064   0.0000000), wk =   0.2500000
        k(    3) = (   0.2500000   0.0000000   0.0000000), wk =   0.5000000
        k(    4) = (   0.2500000  -0.2165064   0.0000000), wk =   0.5000000
        k(    5) = (  -0.5000000   0.0000000   0.0000000), wk =   0.2500000
        k(    6) = (  -0.5000000  -0.2165064   0.0000000), wk =   0.2500000

                       cryst. coord.
        k(    1) = (   0.0000000   0.0000000   0.0000000), wk =   0.2500000
        k(    2) = (   0.0000000  -0.5000000   0.0000000), wk =   0.2500000
        k(    3) = (   0.2500000   0.0000000   0.0000000), wk =   0.5000000
        k(    4) = (   0.2500000  -0.5000000   0.0000000), wk =   0.5000000
        k(    5) = (  -0.5000000   0.0000000   0.0000000), wk =   0.2500000
        k(    6) = (  -0.5000000  -0.5000000   0.0000000), wk =   0.2500000

     Dense  grid:  2050409 G-vectors     FFT dimensions: (  80, 192, 270)

     Largest allocated arrays     est. size (Mb)     dimensions
        Kohn-Sham Wavefunctions        46.37 Mb     (    4604,  660)
        NL pseudopotentials           126.45 Mb     (    4604, 1800)
        Each V/rho on FFT grid          1.17 Mb     (   76800)
        Each G-vector array             0.28 Mb     (   36616)
        G-vector shells                 0.14 Mb     (   17932)
     Largest temporary arrays     est. size (Mb)     dimensions
        Auxiliary wavefunctions       185.46 Mb     (    4604, 2640)
        Each subspace H/S matrix        4.25 Mb     (     528,  528)
        Each <psi_i|beta_j> matrix     18.13 Mb     (    1800,  660)
        Arrays for rho mixing           9.38 Mb     (   76800,    8)

     Initial potential from superposition of free atoms

     starting charge 1098.81757, renormalised to 1100.00000
     Starting wfc are  900 randomized atomic wfcs

     total cpu time spent up to now is       70.2 secs

     Self-consistent Calculation

     iteration #  1     ecut=    80.00 Ry     beta=0.70
     Davidson diagonalization with overlap
     c_bands:  2 eigenvalues not converged
     c_bands:  2 eigenvalues not converged
     ethr =  1.00E-04,  avg # of iterations = 14.5

     total cpu time spent up to now is      561.0 secs

     total energy              =  -12130.21177514 Ry
     Harris-Foulkes estimate   =  -12135.41794945 Ry
     estimated scf accuracy    <      22.91685781 Ry

     iteration #  2     ecut=    80.00 Ry     beta=0.70
     Davidson diagonalization with overlap
     ethr =  2.08E-03,  avg # of iterations =  1.8

     total cpu time spent up to now is      704.0 secs

     total energy              =  -12129.91139527 Ry
     Harris-Foulkes estimate   =  -12132.06879322 Ry
     estimated scf accuracy    <       7.64116551 Ry

     iteration #  3     ecut=    80.00 Ry     beta=0.70
     Davidson diagonalization with overlap
     ethr =  6.95E-04,  avg # of iterations =  5.0

     total cpu time spent up to now is      897.0 secs

     total energy              =  -12129.89777691 Ry
     Harris-Foulkes estimate   =  -12131.08685494 Ry
     estimated scf accuracy    <       5.57958327 Ry

     iteration #  4     ecut=    80.00 Ry     beta=0.70
     Davidson diagonalization with overlap
     ethr =  5.07E-04,  avg # of iterations =  3.7

     total cpu time spent up to now is     1058.2 secs

     total energy              =  -12130.45849312 Ry
     Harris-Foulkes estimate   =  -12130.55833367 Ry
     estimated scf accuracy    <       0.71725840 Ry

     iteration #  5     ecut=    80.00 Ry     beta=0.70
     Davidson diagonalization with overlap
     ethr =  6.52E-05,  avg # of iterations =  8.8

     total cpu time spent up to now is     1297.4 secs

     total energy              =  -12130.49508815 Ry
     Harris-Foulkes estimate   =  -12130.56260879 Ry
     estimated scf accuracy    <       0.39479957 Ry

     iteration #  6     ecut=    80.00 Ry     beta=0.70
     Davidson diagonalization with overlap
     c_bands:  1 eigenvalues not converged
     ethr =  3.59E-05,  avg # of iterations =  7.0

     total cpu time spent up to now is     1489.8 secs

     total energy              =  -12130.50070809 Ry
     Harris-Foulkes estimate   =  -12130.53992245 Ry
     estimated scf accuracy    <       0.26084619 Ry

     iteration #  7     ecut=    80.00 Ry     beta=0.70
     Davidson diagonalization with overlap
     ethr =  2.37E-05,  avg # of iterations =  4.5

     total cpu time spent up to now is     1655.5 secs

     total energy              =  -12130.50461879 Ry
     Harris-Foulkes estimate   =  -12130.51782874 Ry
     estimated scf accuracy    <       0.12208924 Ry

     iteration #  8     ecut=    80.00 Ry     beta=0.70
     Davidson diagonalization with overlap
     ethr =  1.11E-05,  avg # of iterations =  8.5

     total cpu time spent up to now is     1865.4 secs

     total energy              =  -12130.51051758 Ry
     Harris-Foulkes estimate   =  -12130.51176307 Ry
     estimated scf accuracy    <       0.02307615 Ry

     iteration #  9     ecut=    80.00 Ry     beta=0.70
     Davidson diagonalization with overlap
     ethr =  2.10E-06,  avg # of iterations =  6.0

     total cpu time spent up to now is     2051.4 secs

     total energy              =  -12130.51329519 Ry
     Harris-Foulkes estimate   =  -12130.51315582 Ry
     estimated scf accuracy    <       0.01467921 Ry

     iteration # 10     ecut=    80.00 Ry     beta=0.70
     Davidson diagonalization with overlap
     ethr =  1.33E-06,  avg # of iterations =  7.0

     total cpu time spent up to now is     2249.3 secs

     total energy              =  -12130.51389602 Ry
     Harris-Foulkes estimate   =  -12130.51438256 Ry
     estimated scf accuracy    <       0.00399942 Ry

     iteration # 11     ecut=    80.00 Ry     beta=0.70
     Davidson diagonalization with overlap
     ethr =  3.64E-07,  avg # of iterations =  2.7

     total cpu time spent up to now is     2403.6 secs

     total energy              =  -12130.51432853 Ry
     Harris-Foulkes estimate   =  -12130.51438611 Ry
     estimated scf accuracy    <       0.00102853 Ry

     iteration # 12     ecut=    80.00 Ry     beta=0.70
     Davidson diagonalization with overlap
     ethr =  9.35E-08,  avg # of iterations =  2.0

     negative rho (up, down):  1.047E-08 0.000E+00

     total cpu time spent up to now is     2558.4 secs

     total energy              =  -12130.51444395 Ry
     Harris-Foulkes estimate   =  -12130.51445443 Ry
     estimated scf accuracy    <       0.00029329 Ry

     iteration # 13     ecut=    80.00 Ry     beta=0.70
     Davidson diagonalization with overlap
     ethr =  2.67E-08,  avg # of iterations =  2.3

     total cpu time spent up to now is     2720.3 secs

     total energy              =  -12130.51449494 Ry
     Harris-Foulkes estimate   =  -12130.51448540 Ry
     estimated scf accuracy    <       0.00007501 Ry

     iteration # 14     ecut=    80.00 Ry     beta=0.70
     Davidson diagonalization with overlap
     ethr =  6.82E-09,  avg # of iterations =  3.0

     total cpu time spent up to now is     2917.7 secs

     total energy              =  -12130.51450962 Ry
     Harris-Foulkes estimate   =  -12130.51451095 Ry
     estimated scf accuracy    <       0.00003142 Ry

     iteration # 15     ecut=    80.00 Ry     beta=0.70
     Davidson diagonalization with overlap
     ethr =  2.86E-09,  avg # of iterations =  2.3

     total cpu time spent up to now is     3068.4 secs

     total energy              =  -12130.51451509 Ry
     Harris-Foulkes estimate   =  -12130.51451249 Ry
     estimated scf accuracy    <       0.00000747 Ry

     iteration # 16     ecut=    80.00 Ry     beta=0.70
     Davidson diagonalization with overlap
     ethr =  6.79E-10,  avg # of iterations =  3.0

     total cpu time spent up to now is     3244.1 secs

     total energy              =  -12130.51451655 Ry
     Harris-Foulkes estimate   =  -12130.51451632 Ry
     estimated scf accuracy    <       0.00000369 Ry

     iteration # 17     ecut=    80.00 Ry     beta=0.70
     Davidson diagonalization with overlap
     ethr =  3.36E-10,  avg # of iterations =  3.0

     total cpu time spent up to now is     3406.4 secs

     total energy              =  -12130.51451703 Ry
     Harris-Foulkes estimate   =  -12130.51451705 Ry
     estimated scf accuracy    <       0.00000145 Ry

     iteration # 18     ecut=    80.00 Ry     beta=0.70
     Davidson diagonalization with overlap
     ethr =  1.32E-10,  avg # of iterations =  2.0

     total cpu time spent up to now is     3554.0 secs

     total energy              =  -12130.51451722 Ry
     Harris-Foulkes estimate   =  -12130.51451719 Ry
     estimated scf accuracy    <       0.00000044 Ry

     iteration # 19     ecut=    80.00 Ry     beta=0.70
     Davidson diagonalization with overlap
     ethr =  3.99E-11,  avg # of iterations =  2.8

     total cpu time spent up to now is     3716.3 secs

     total energy              =  -12130.51451730 Ry
     Harris-Foulkes estimate   =  -12130.51451728 Ry
     estimated scf accuracy    <       0.00000007 Ry

     iteration # 20     ecut=    80.00 Ry     beta=0.70
     Davidson diagonalization with overlap
     ethr =  6.46E-12,  avg # of iterations =  3.0

     total cpu time spent up to now is     3952.8 secs

     total energy              =  -12130.51451730 Ry
     Harris-Foulkes estimate   =  -12130.51451732 Ry
     estimated scf accuracy    <       0.00000004 Ry

     iteration # 21     ecut=    80.00 Ry     beta=0.70
     Davidson diagonalization with overlap
     ethr =  3.53E-12,  avg # of iterations =  2.0

     total cpu time spent up to now is     4098.4 secs

     total energy              =  -12130.51451730 Ry
     Harris-Foulkes estimate   =  -12130.51451731 Ry
     estimated scf accuracy    <          8.7E-09 Ry

     iteration # 22     ecut=    80.00 Ry     beta=0.70
     Davidson diagonalization with overlap
     ethr =  7.87E-13,  avg # of iterations =  2.0

     total cpu time spent up to now is     4248.8 secs

     total energy              =  -12130.51451730 Ry
     Harris-Foulkes estimate   =  -12130.51451730 Ry
     estimated scf accuracy    <          3.5E-09 Ry

     iteration # 23     ecut=    80.00 Ry     beta=0.70
     Davidson diagonalization with overlap
     ethr =  3.21E-13,  avg # of iterations =  2.0

     total cpu time spent up to now is     4398.3 secs

     total energy              =  -12130.51451730 Ry
     Harris-Foulkes estimate   =  -12130.51451730 Ry
     estimated scf accuracy    <          4.0E-10 Ry

     iteration # 24     ecut=    80.00 Ry     beta=0.70
     Davidson diagonalization with overlap
     ethr =  1.00E-13,  avg # of iterations =  2.3

     total cpu time spent up to now is     4549.1 secs

     total energy              =  -12130.51451730 Ry
     Harris-Foulkes estimate   =  -12130.51451730 Ry
     estimated scf accuracy    <          1.8E-10 Ry

     iteration # 25     ecut=    80.00 Ry     beta=0.70
     Davidson diagonalization with overlap
     ethr =  1.00E-13,  avg # of iterations =  1.0

     total cpu time spent up to now is     4685.3 secs

     total energy              =  -12130.51451730 Ry
     Harris-Foulkes estimate   =  -12130.51451730 Ry
     estimated scf accuracy    <          1.0E-10 Ry

     iteration # 26     ecut=    80.00 Ry     beta=0.70
     Davidson diagonalization with overlap
     ethr =  1.00E-13,  avg # of iterations =  2.0

     total cpu time spent up to now is     4830.1 secs

     End of self-consistent calculation

          k = 0.0000 0.0000 0.0000 (256287 PWs)   bands (ev):

    -5.7539  -5.6386  -5.6086  -5.5797  -5.4361  -5.4005  -5.3234  -5.2819
    -5.2530  -5.2465  -5.2359  -5.2313  -5.2254  -5.1903  -5.1847  -5.1480
    -5.0879  -5.0812  -5.0062  -4.9818  -4.9511  -4.9253  -4.9095  -4.8676
    -4.8503  -4.8221  -4.8120  -4.7794  -4.7628  -4.7579  -4.7306  -4.6909
    -4.6643  -4.6468  -4.6329  -4.5939  -4.5774  -4.5729  -4.5598  -4.5370
    -4.5079  -4.4539  -4.3423  -4.1402  -4.0808  -4.0487  -4.0482  -4.0445
    -4.0420  -4.0362  -4.0194  -4.0029  -3.9809  -3.9488  -3.9387  -3.9115
    -3.9042  -3.8857  -3.8787  -3.8326  -3.8224  -3.7903  -3.7871  -3.7661
    -3.7618  -3.7603  -3.7298  -3.7175  -3.7019  -3.7016  -3.6881  -3.6813
    -3.6584  -3.6487  -3.6329  -3.6326  -3.6102  -3.6085  -3.5447  -3.5171
    -3.4897  -3.4717  -3.4649  -3.4499  -3.3950  -3.3186  -3.2732  -3.2286
    -3.1466  -3.0937  -3.0644  -3.0424  -3.0228  -2.9989  -2.9590  -2.9527
    -2.8922  -2.8616  -2.8474  -2.8244  -2.8003  -2.7852  -2.7809  -2.7664
    -2.7592  -2.7457  -2.7396  -2.7278  -2.7150  -2.7115  -2.7038  -2.6918
    -2.6790  -2.6709  -2.6545  -2.6402  -2.6315  -2.6237  -2.6172  -2.6003
    -2.5980  -2.5873  -2.5841  -2.5589  -2.5517  -2.5406  -2.5239  -2.4967
    -2.4603  -2.4406  -2.4242  -2.4055  -2.3981  -2.3571  -2.3409  -2.3239
    -2.2800  -2.2741  -2.2727  -2.2536  -2.2473  -2.2409  -2.2197  -2.2124
    -2.2039  -2.1676  -2.1605  -2.1538  -2.1457  -2.1168  -2.0914  -2.0787
    -2.0670  -2.0637  -2.0527  -2.0487  -2.0287  -2.0197  -2.0159  -1.9911
    -1.9845  -1.9765  -1.9625  -1.9567  -1.9500  -1.9427  -1.9163  -1.8936
    -1.8072  -1.7455  -1.7329  -1.6974  -1.6928  -1.6854  -1.6635  -1.6310
    -1.5914  -1.5749  -1.5553  -1.5465  -1.5415  -1.5355  -1.5300  -1.5232
    -1.5112  -1.5015  -1.4976  -1.4894  -1.4837  -1.4736  -1.4552  -1.4528
    -1.4344  -1.4271  -1.4212  -1.4154  -1.4070  -1.3853  -1.3828  -1.3750
    -1.3609  -1.3576  -1.3521  -1.3352  -1.3001  -1.2982  -1.2955  -1.2790
    -1.2777  -1.2619  -1.2579  -1.2415  -1.2108  -1.1955  -1.1832  -1.1709
    -1.1625  -1.1499  -1.1420  -1.1392  -1.1200  -1.1144  -1.1077  -1.1060
    -1.1005  -1.0935  -1.0776  -1.0756  -1.0696  -1.0557  -1.0449  -1.0444
    -1.0360  -1.0309  -1.0264  -1.0252  -1.0240  -1.0189  -1.0106  -1.0087
    -1.0023  -0.9824  -0.9797  -0.9775  -0.9612  -0.9483  -0.9442  -0.9285
    -0.9238  -0.9146  -0.9027  -0.8852  -0.8813  -0.8782  -0.8733  -0.8677
    -0.8639  -0.8608  -0.8517  -0.8500  -0.8477  -0.8419  -0.8399  -0.8353
    -0.8337  -0.8260  -0.8228  -0.8154  -0.8043  -0.8013  -0.7974  -0.7950
    -0.7833  -0.7761  -0.7682  -0.7654  -0.7517  -0.7431  -0.7202  -0.7144
    -0.7037  -0.6991  -0.6938  -0.6798  -0.6772  -0.6730  -0.6639  -0.6545
    -0.6510  -0.6209  -0.6139  -0.5989  -0.5929  -0.5778  -0.5725  -0.5649
    -0.5497  -0.5380  -0.5366  -0.5277  -0.5181  -0.5092  -0.4860  -0.4721
    -0.4655  -0.4485  -0.4390  -0.4234  -0.4157  -0.4075  -0.4017  -0.3998
    -0.3979  -0.3972  -0.3872  -0.3837  -0.3721  -0.3642  -0.3490  -0.3424
    -0.3225  -0.3150  -0.3095  -0.2984  -0.2941  -0.2789  -0.2727  -0.2678
    -0.2618  -0.2557  -0.2493  -0.2438  -0.2426  -0.2410  -0.2365  -0.2359
    -0.2292  -0.2256  -0.2237  -0.2206  -0.2124  -0.2111  -0.2086  -0.2048
    -0.2037  -0.1964  -0.1909  -0.1883  -0.1815  -0.1799  -0.1789  -0.1766
    -0.1695  -0.1677  -0.1666  -0.1650  -0.1578  -0.1553  -0.1447  -0.1377
    -0.1138  -0.1039  -0.1004  -0.0974  -0.0812  -0.0752  -0.0600  -0.0591
    -0.0498  -0.0489  -0.0453  -0.0413  -0.0373  -0.0284  -0.0259  -0.0227
    -0.0183  -0.0171  -0.0143  -0.0100  -0.0084  -0.0079  -0.0038  -0.0014
    -0.0002   0.0042   0.0059   0.0101   0.0144   0.0165   0.0192   0.0222
     0.0239   0.0257   0.0274   0.0326   0.0354   0.0393   0.0422   0.0437
     0.0504   0.0511   0.0516   0.0552   0.0565   0.0580   0.0589   0.0625
     0.0649   0.0676   0.0691   0.0718   0.0779   0.0787   0.0832   0.0854
     0.0860   0.0869   0.0924   0.0952   0.0993   0.0999   0.1026   0.1036
     0.1053   0.1092   0.1120   0.1128   0.1143   0.1163   0.1225   0.1231
     0.1271   0.1276   0.1296   0.1301   0.1320   0.1380   0.1436   0.1478
     0.1534   0.1538   0.1551   0.1691   0.1782   0.1860   0.2042   0.2092
     0.2113   0.2208   0.2295   0.2395   0.2427   0.2486   0.2523   0.2532
     0.2554   0.2600   0.2691   0.2767   0.2864   0.2895   0.3106   0.3206
     0.3275   0.3336   0.3341   0.3398   0.3405   0.3439   0.3468   0.3483
     0.3503   0.3578   0.3594   0.3625   0.3649   0.3686   0.3723   0.3785
     0.3816   0.3905   0.3954   0.4122   0.4165   0.4209   0.4246   0.4289
     0.4304   0.4307   0.4328   0.4358   0.4361   0.4415   0.4452   0.4515
     0.4545   0.4586   0.4666   0.4697   0.4879   0.4995   0.5040   0.5261
     0.5329   0.5857   0.6016   0.6355   0.6559   0.7042   0.7327   0.7413
     0.8183   0.8234   0.8319   0.8650   0.8873   0.9034   0.9231   0.9598
     0.9726   0.9841   1.0079   1.0349   1.0477   1.0583   1.0598   1.0657
     1.0749   1.0847   1.0903   1.1061   1.1362   1.1655   1.1737   1.1785
     1.1909   1.1963   1.2155   1.2309   1.2990   1.3645   1.3942   1.4095
     1.4455   1.4943   1.5079   1.5938   1.6040   1.6271   1.6459   1.8647
     1.9792   2.0226   2.0907   2.1111   2.1226   2.1761   2.2002   2.2158
     2.2285   2.2313   2.3167   2.3302   2.3364   2.3429   2.3783   2.4063
     2.4156   2.4327   2.5044   2.5376   2.5636   2.5674   2.6767   2.6813
     2.7224   2.7243   2.7984   2.8670   3.0290   3.1283   3.3523   3.4052
     3.4753   3.5002   3.6567   3.7249   3.8043   3.8549   3.9045   3.9433
     4.0281   4.0645   4.0712   4.0825   4.1720   4.2009   4.4279   4.5166
     4.5942   4.7521   4.8830   4.9665   4.9857   5.0060   5.0524   5.0631
     5.0873   5.0976   5.1215   5.1265   5.1588   5.1888   5.2245   5.2760
     5.2892   5.3088   5.3224   5.3385   5.3545   5.3635   5.4186   5.5138
     5.5176   5.6026   5.7248   5.7798   5.7892   5.8291   5.8887   5.9237
     5.9428   6.1084   6.2092   6.3148   6.3212   6.3743   6.4009   6.4156
     6.4786   6.5010   6.5469   6.5742   6.6245   6.6523   6.7213   6.7297
     6.7359   6.7881   6.8246   6.8698   6.9048   6.9580   6.9935   7.0315
     7.0446   7.0708   7.0867   7.1180

     occupation numbers 
     1.0000   1.0000   1.0000   1.0000   1.0000   1.0000   1.0000   1.0000
     1.0000   1.0000   1.0000   1.0000   1.0000   1.0000   1.0000   1.0000
     1.0000   1.0000   1.0000   1.0000   1.0000   1.0000   1.0000   1.0000
     1.0000   1.0000   1.0000   1.0000   1.0000   1.0000   1.0000   1.0000
     1.0000   1.0000   1.0000   1.0000   1.0000   1.0000   1.0000   1.0000
     1.0000   1.0000   1.0000   1.0000   1.0000   1.0000   1.0000   1.0000
     1.0000   1.0000   1.0000   1.0000   1.0000   1.0000   1.0000   1.0000
     1.0000   1.0000   1.0000   1.0000   1.0000   1.0000   1.0000   1.0000
     1.0000   1.0000   1.0000   1.0000   1.0000   1.0000   1.0000   1.0000
     1.0000   1.0000   1.0000   1.0000   1.0000   1.0000   1.0000   1.0000
     1.0000   1.0000   1.0000   1.0000   1.0000   1.0000   1.0000   1.0000
     1.0000   1.0000   1.0000   1.0000   1.0000   1.0000   1.0000   1.0000
     1.0000   1.0000   1.0000   1.0000   1.0000   1.0000   1.0000   1.0000
     1.0000   1.0000   1.0000   1.0000   1.0000   1.0000   1.0000   1.0000
     1.0000   1.0000   1.0000   1.0000   1.0000   1.0000   1.0000   1.0000
     1.0000   1.0000   1.0000   1.0000   1.0000   1.0000   1.0000   1.0000
     1.0000   1.0000   1.0000   1.0000   1.0000   1.0000   1.0000   1.0000
     1.0000   1.0000   1.0000   1.0000   1.0000   1.0000   1.0000   1.0000
     1.0000   1.0000   1.0000   1.0000   1.0000   1.0000   1.0000   1.0000
     1.0000   1.0000   1.0000   1.0000   1.0000   1.0000   1.0000   1.0000
     1.0000   1.0000   1.0000   1.0000   1.0000   1.0000   1.0000   1.0000
     1.0000   1.0000   1.0000   1.0000   1.0000   1.0000   1.0000   1.0000
     0.9999   0.9999   0.9999   0.9999   0.9999   0.9999   0.9999   0.9999
     0.9999   0.9999   0.9999   0.9999   0.9999   0.9999   0.9999   0.9999
     0.9999   0.9999   0.9999   0.9999   0.9999   0.9999   0.9999   0.9999
     0.9998   0.9998   0.9998   0.9998   0.9998   0.9998   0.9998   0.9998
     0.9998   0.9998   0.9998   0.9998   0.9997   0.9997   0.9997   0.9997
     0.9997   0.9997   0.9996   0.9996   0.9996   0.9996   0.9996   0.9996
     0.9996   0.9996   0.9995   0.9995   0.9995   0.9995   0.9995   0.9995
     0.9995   0.9995   0.9994   0.9994   0.9994   0.9994   0.9994   0.9994
     0.9994   0.9994   0.9993   0.9993   0.9993   0.9993   0.9993   0.9992
     0.9992   0.9992   0.9991   0.9991   0.9991   0.9991   0.9990   0.9990
     0.9990   0.9990   0.9990   0.9990   0.9990   0.9989   0.9989   0.9989
     0.9989   0.9989   0.9989   0.9988   0.9988   0.9988   0.9988   0.9987
     0.9987   0.9987   0.9986   0.9986   0.9985   0.9985   0.9984   0.9984
     0.9983   0.9983   0.9982   0.9981   0.9981   0.9981   0.9980   0.9980
     0.9980   0.9978   0.9977   0.9976   0.9975   0.9974   0.9974   0.9973
     0.9972   0.9971   0.9971   0.9970   0.9969   0.9968   0.9965   0.9964
     0.9963   0.9961   0.9960   0.9958   0.9957   0.9956   0.9955   0.9955
     0.9955   0.9955   0.9953   0.9953   0.9951   0.9950   0.9947   0.9946
     0.9943   0.9942   0.9941   0.9939   0.9938   0.9935   0.9934   0.9933
     0.9932   0.9931   0.9930   0.9928   0.9928   0.9928   0.9927   0.9927
     0.9925   0.9925   0.9924   0.9924   0.9922   0.9921   0.9921   0.9920
     0.9920   0.9918   0.9917   0.9916   0.9915   0.9914   0.9914   0.9913
     0.9912   0.9911   0.9911   0.9910   0.9909   0.9908   0.9905   0.9903
     0.9897   0.9894   0.9893   0.9892   0.9887   0.9885   0.9880   0.9880
     0.9877   0.9877   0.9876   0.9874   0.9873   0.9870   0.9869   0.9868
     0.9866   0.9866   0.9865   0.9863   0.9863   0.9862   0.9861   0.9860
     0.9860   0.9858   0.9857   0.9856   0.9854   0.9853   0.9852   0.9851
     0.9850   0.9850   0.9849   0.9847   0.9846   0.9844   0.9843   0.9842
     0.9840   0.9839   0.9839   0.9838   0.9837   0.9837   0.9836   0.9835
     0.9834   0.9832   0.9832   0.9831   0.9828   0.9828   0.9826   0.9825
     0.9824   0.9824   0.9821   0.9820   0.9818   0.9818   0.9817   0.9816
     0.9815   0.9814   0.9812   0.9812   0.9811   0.9810   0.9807   0.9807
     0.9805   0.9805   0.9804   0.9803   0.9802   0.9799   0.9797   0.9794
     0.9792   0.9791   0.9791   0.9783   0.9778   0.9774   0.9764   0.9761
     0.9759   0.9754   0.9749   0.9742   0.9740   0.9737   0.9734   0.9734
     0.9732   0.9729   0.9723   0.9718   0.9712   0.9710   0.9695   0.9688
     0.9682   0.9678   0.9678   0.9673   0.9673   0.9670   0.9668   0.9667
     0.9665   0.9659   0.9658   0.9656   0.9654   0.9651   0.9648   0.9643
     0.9640   0.9633   0.9629   0.9614   0.9611   0.9607   0.9603   0.9600
     0.9598   0.9598   0.9596   0.9593   0.9593   0.9588   0.9585   0.9579
     0.9576   0.9572   0.9565   0.9562   0.9544   0.9532   0.9528   0.9505
     0.9497   0.9438   0.9419   0.9377   0.9350   0.9284   0.9243   0.9230
     0.9108   0.9099   0.9085   0.9027   0.8986   0.8956   0.8919   0.8846
     0.8820   0.8796   0.8746   0.8687   0.8659   0.8635   0.8631   0.8618
     0.8597   0.8574   0.8561   0.8523   0.8450   0.8376   0.8355   0.8343
     0.8310   0.8296   0.8245   0.8203   0.8012   0.7816   0.7724   0.7676
     0.7560   0.7398   0.7352   0.7052   0.7015   0.6931   0.6863   0.6017
     0.5552   0.5373   0.5091   0.5007   0.4959   0.4737   0.4638   0.4573
     0.4521   0.4510   0.4161   0.4106   0.4081   0.4055   0.3913   0.3801
     0.3765   0.3697   0.3420   0.3294   0.3197   0.3183   0.2789   0.2773
     0.2631   0.2625   0.2380   0.2165   0.1705   0.1456   0.0988   0.0896
     0.0783   0.0746   0.0543   0.0469   0.0393   0.0351   0.0313   0.0285
     0.0232   0.0212   0.0209   0.0203   0.0162   0.0150   0.0081   0.0062
     0.0050   0.0030   0.0020   0.0015   0.0014   0.0013   0.0011   0.0011
     0.0010   0.0010   0.0009   0.0009   0.0008   0.0007   0.0006   0.0005
     0.0005   0.0004   0.0004   0.0004   0.0004   0.0004   0.0003   0.0002
     0.0002   0.0001   0.0001   0.0001   0.0001   0.0001   0.0000   0.0000
     0.0000   0.0000   0.0000   0.0000   0.0000   0.0000   0.0000   0.0000
     0.0000   0.0000   0.0000   0.0000   0.0000   0.0000   0.0000   0.0000
     0.0000   0.0000   0.0000   0.0000   0.0000   0.0000   0.0000   0.0000
     0.0000   0.0000   0.0000   0.0000

          k = 0.0000-0.2165 0.0000 (256176 PWs)   bands (ev):

    -5.7539  -5.6386  -5.6085  -5.5797  -5.4359  -5.4009  -5.2819  -5.2698
    -5.2476  -5.2404  -5.2359  -5.2278  -5.1906  -5.1808  -5.1442  -5.1380
    -5.1035  -5.0820  -5.0611  -5.0448  -5.0066  -5.0056  -4.9808  -4.9284
    -4.9148  -4.8889  -4.8613  -4.7674  -4.7324  -4.6700  -4.6529  -4.6272
    -4.6179  -4.6098  -4.5943  -4.5570  -4.5472  -4.5299  -4.5167  -4.4876
    -4.4485  -4.4314  -4.3390  -4.2406  -4.1796  -4.1387  -4.1186  -4.0573
    -4.0461  -4.0365  -4.0015  -3.9859  -3.9415  -3.9181  -3.9108  -3.8988
    -3.8839  -3.8805  -3.8657  -3.8555  -3.8516  -3.7903  -3.7872  -3.7778
    -3.7674  -3.7618  -3.7350  -3.7157  -3.7016  -3.6907  -3.6865  -3.6813
    -3.6584  -3.6486  -3.6330  -3.6326  -3.6102  -3.6086  -3.5447  -3.5170
    -3.4897  -3.4719  -3.4649  -3.4498  -3.3951  -3.3178  -3.2743  -3.2274
    -3.1459  -3.0920  -3.0643  -3.0393  -3.0255  -2.9990  -2.9595  -2.9489
    -2.8918  -2.8644  -2.8351  -2.8223  -2.7988  -2.7842  -2.7726  -2.7639
    -2.7585  -2.7469  -2.7446  -2.7209  -2.7160  -2.7131  -2.6970  -2.6886
    -2.6753  -2.6643  -2.6579  -2.6461  -2.6363  -2.6326  -2.6304  -2.6253
    -2.6095  -2.6051  -2.5970  -2.5859  -2.5698  -2.5474  -2.5355  -2.5241
    -2.4996  -2.4728  -2.4620  -2.4422  -2.3935  -2.3703  -2.3654  -2.3328
    -2.3237  -2.3024  -2.2863  -2.2817  -2.2556  -2.2487  -2.2384  -2.2245
    -2.1817  -2.1648  -2.1172  -2.0838  -2.0774  -2.0756  -2.0690  -2.0637
    -2.0593  -2.0550  -2.0433  -2.0303  -1.9934  -1.9756  -1.9651  -1.9550
    -1.9395  -1.8910  -1.8762  -1.8534  -1.8492  -1.8460  -1.8374  -1.8345
    -1.8277  -1.8220  -1.8168  -1.8072  -1.7819  -1.7688  -1.7362  -1.7092
    -1.6853  -1.6530  -1.5943  -1.5913  -1.5728  -1.5659  -1.5346  -1.5279
    -1.5149  -1.5095  -1.4983  -1.4937  -1.4803  -1.4673  -1.4458  -1.4396
    -1.4205  -1.4177  -1.4099  -1.3983  -1.3875  -1.3744  -1.3614  -1.3505
    -1.3431  -1.3344  -1.3270  -1.3149  -1.2951  -1.2875  -1.2766  -1.2578
    -1.2480  -1.2420  -1.2373  -1.2231  -1.2191  -1.2074  -1.1847  -1.1735
    -1.1518  -1.1475  -1.1426  -1.1274  -1.1241  -1.1125  -1.0999  -1.0910
    -1.0792  -1.0743  -1.0710  -1.0594  -1.0585  -1.0504  -1.0447  -1.0425
    -1.0379  -1.0301  -1.0288  -1.0244  -1.0156  -1.0090  -1.0030  -1.0006
    -0.9949  -0.9874  -0.9804  -0.9787  -0.9739  -0.9712  -0.9629  -0.9594
    -0.9542  -0.9467  -0.9410  -0.9277  -0.9233  -0.9170  -0.8924  -0.8868
    -0.8788  -0.8761  -0.8693  -0.8646  -0.8557  -0.8453  -0.8418  -0.8396
    -0.8358  -0.8338  -0.8291  -0.8174  -0.8125  -0.7979  -0.7929  -0.7899
    -0.7749  -0.7689  -0.7640  -0.7566  -0.7504  -0.7483  -0.7431  -0.7415
    -0.7346  -0.7023  -0.6913  -0.6776  -0.6626  -0.6519  -0.6443  -0.6165
    -0.6151  -0.6067  -0.5888  -0.5846  -0.5779  -0.5757  -0.5699  -0.5620
    -0.5588  -0.5506  -0.5414  -0.5354  -0.5266  -0.5189  -0.4913  -0.4857
    -0.4609  -0.4545  -0.4232  -0.4074  -0.3908  -0.3853  -0.3840  -0.3764
    -0.3683  -0.3555  -0.3522  -0.3487  -0.3380  -0.3309  -0.3262  -0.3187
    -0.3117  -0.3083  -0.3005  -0.2882  -0.2799  -0.2711  -0.2691  -0.2668
    -0.2632  -0.2591  -0.2575  -0.2533  -0.2453  -0.2441  -0.2399  -0.2368
    -0.2342  -0.2334  -0.2266  -0.2244  -0.2215  -0.2192  -0.2105  -0.2062
    -0.2012  -0.1988  -0.1944  -0.1808  -0.1791  -0.1629  -0.1596  -0.1556
    -0.1514  -0.1441  -0.1405  -0.1359  -0.1319  -0.1276  -0.1187  -0.1062
    -0.1020  -0.0905  -0.0853  -0.0825  -0.0822  -0.0777  -0.0724  -0.0700
    -0.0681  -0.0622  -0.0610  -0.0586  -0.0557  -0.0484  -0.0427  -0.0379
    -0.0326  -0.0303  -0.0211  -0.0188  -0.0148  -0.0101  -0.0082  -0.0035
     0.0004   0.0033   0.0057   0.0095   0.0145   0.0168   0.0201   0.0238
     0.0243   0.0272   0.0277   0.0312   0.0378   0.0394   0.0433   0.0452
     0.0479   0.0491   0.0532   0.0541   0.0566   0.0575   0.0606   0.0618
     0.0639   0.0671   0.0692   0.0708   0.0723   0.0740   0.0763   0.0780
     0.0845   0.0884   0.0926   0.0968   0.0998   0.1021   0.1106   0.1116
     0.1132   0.1152   0.1211   0.1226   0.1265   0.1291   0.1350   0.1366
     0.1386   0.1454   0.1457   0.1483   0.1582   0.1662   0.1685   0.1730
     0.1889   0.1942   0.1976   0.2020   0.2044   0.2107   0.2129   0.2231
     0.2257   0.2274   0.2304   0.2372   0.2392   0.2425   0.2436   0.2461
     0.2492   0.2521   0.2625   0.2725   0.2795   0.2812   0.2831   0.2894
     0.2915   0.2956   0.3031   0.3145   0.3216   0.3261   0.3331   0.3359
     0.3437   0.3473   0.3567   0.3617   0.3671   0.3733   0.3776   0.3777
     0.3899   0.3950   0.3996   0.4064   0.4097   0.4113   0.4148   0.4218
     0.4247   0.4266   0.4282   0.4332   0.4333   0.4371   0.4407   0.4481
     0.4537   0.4583   0.4692   0.4750   0.4846   0.4862   0.5128   0.5193
     0.5256   0.6764   0.6991   0.7069   0.7374   0.7579   0.7932   0.7968
     0.8120   0.8255   0.8374   0.8456   0.8711   0.8906   0.9068   0.9164
     0.9320   0.9400   0.9696   0.9718   0.9780   0.9977   1.0146   1.0171
     1.0293   1.0429   1.0500   1.0575   1.0787   1.1052   1.1091   1.1263
     1.1327   1.1417   1.1493   1.1582   1.1736   1.1767   1.1829   1.1938
     1.2087   1.2234   1.2277   1.3034   1.4278   1.6437   1.6531   1.7363
     1.8655   1.9125   2.0414   2.1009   2.1218   2.2109   2.2903   2.3379
     2.3906   2.4417   2.5460   2.6836   2.7022   2.7425   2.7546   2.8127
     2.8355   2.8789   2.8985   2.9128   2.9246   3.0073   3.0122   3.0180
     3.0550   3.1043   3.1368   3.1486   3.1807   3.2067   3.2278   3.2602
     3.2905   3.3065   3.3221   3.3972   3.4135   3.4253   3.4748   3.4986
     3.5555   3.6173   3.6632   3.8114   3.9373   3.9677   4.0394   4.0568
     4.1286   4.3167   4.5980   4.6081   4.6674   4.6824   4.7856   4.8435
     4.9085   5.0276   5.1284   5.1720   5.2674   5.2857   5.3020   5.3153
     5.3901   5.4140   5.4528   5.4880   5.5147   5.6240   5.6780   5.7255
     5.7890   5.8038   5.8865   6.0290   6.0848   6.0953   6.1429   6.2288
     6.2511   6.3954   6.4314   6.4503   6.4664   6.4770   6.5137   6.5391
     6.6164   6.6299   6.6512   6.6697   6.6914   6.7128   6.7817   6.8024
     6.8320   6.8939   6.9004   6.9313   6.9853   7.1422   7.1656   7.1900
     7.1996   7.2481   7.2752   7.2958

     occupation numbers 
     1.0000   1.0000   1.0000   1.0000   1.0000   1.0000   1.0000   1.0000
     1.0000   1.0000   1.0000   1.0000   1.0000   1.0000   1.0000   1.0000
     1.0000   1.0000   1.0000   1.0000   1.0000   1.0000   1.0000   1.0000
     1.0000   1.0000   1.0000   1.0000   1.0000   1.0000   1.0000   1.0000
     1.0000   1.0000   1.0000   1.0000   1.0000   1.0000   1.0000   1.0000
     1.0000   1.0000   1.0000   1.0000   1.0000   1.0000   1.0000   1.0000
     1.0000   1.0000   1.0000   1.0000   1.0000   1.0000   1.0000   1.0000
     1.0000   1.0000   1.0000   1.0000   1.0000   1.0000   1.0000   1.0000
     1.0000   1.0000   1.0000   1.0000   1.0000   1.0000   1.0000   1.0000
     1.0000   1.0000   1.0000   1.0000   1.0000   1.0000   1.0000   1.0000
     1.0000   1.0000   1.0000   1.0000   1.0000   1.0000   1.0000   1.0000
     1.0000   1.0000   1.0000   1.0000   1.0000   1.0000   1.0000   1.0000
     1.0000   1.0000   1.0000   1.0000   1.0000   1.0000   1.0000   1.0000
     1.0000   1.0000   1.0000   1.0000   1.0000   1.0000   1.0000   1.0000
     1.0000   1.0000   1.0000   1.0000   1.0000   1.0000   1.0000   1.0000
     1.0000   1.0000   1.0000   1.0000   1.0000   1.0000   1.0000   1.0000
     1.0000   1.0000   1.0000   1.0000   1.0000   1.0000   1.0000   1.0000
     1.0000   1.0000   1.0000   1.0000   1.0000   1.0000   1.0000   1.0000
     1.0000   1.0000   1.0000   1.0000   1.0000   1.0000   1.0000   1.0000
     1.0000   1.0000   1.0000   1.0000   1.0000   1.0000   1.0000   1.0000
     1.0000   1.0000   1.0000   1.0000   1.0000   1.0000   1.0000   1.0000
     1.0000   1.0000   1.0000   1.0000   1.0000   1.0000   1.0000   1.0000
     1.0000   1.0000   0.9999   0.9999   0.9999   0.9999   0.9999   0.9999
     0.9999   0.9999   0.9999   0.9999   0.9999   0.9999   0.9999   0.9999
     0.9999   0.9999   0.9999   0.9999   0.9999   0.9999   0.9998   0.9998
     0.9998   0.9998   0.9998   0.9998   0.9998   0.9998   0.9998   0.9998
     0.9998   0.9998   0.9998   0.9997   0.9997   0.9997   0.9997   0.9997
     0.9997   0.9996   0.9996   0.9996   0.9996   0.9996   0.9996   0.9996
     0.9995   0.9995   0.9995   0.9995   0.9995   0.9995   0.9995   0.9995
     0.9995   0.9995   0.9995   0.9994   0.9994   0.9994   0.9994   0.9994
     0.9994   0.9994   0.9993   0.9993   0.9993   0.9993   0.9993   0.9993
     0.9993   0.9993   0.9992   0.9992   0.9992   0.9992   0.9991   0.9991
     0.9991   0.9991   0.9990   0.9990   0.9990   0.9989   0.9989   0.9989
     0.9989   0.9989   0.9989   0.9988   0.9988   0.9988   0.9987   0.9987
     0.9987   0.9986   0.9986   0.9986   0.9985   0.9985   0.9985   0.9985
     0.9985   0.9983   0.9982   0.9981   0.9980   0.9980   0.9979   0.9977
     0.9977   0.9976   0.9975   0.9975   0.9974   0.9974   0.9974   0.9973
     0.9973   0.9972   0.9971   0.9970   0.9970   0.9969   0.9966   0.9965
     0.9963   0.9962   0.9958   0.9956   0.9954   0.9953   0.9953   0.9952
     0.9950   0.9949   0.9948   0.9947   0.9946   0.9945   0.9944   0.9943
     0.9941   0.9941   0.9939   0.9937   0.9936   0.9934   0.9934   0.9933
     0.9932   0.9932   0.9931   0.9930   0.9929   0.9929   0.9928   0.9927
     0.9926   0.9926   0.9925   0.9924   0.9924   0.9923   0.9921   0.9920
     0.9919   0.9919   0.9918   0.9914   0.9914   0.9910   0.9909   0.9908
     0.9907   0.9905   0.9904   0.9903   0.9902   0.9901   0.9898   0.9895
     0.9893   0.9890   0.9888   0.9887   0.9887   0.9886   0.9884   0.9884
     0.9883   0.9881   0.9881   0.9880   0.9879   0.9877   0.9875   0.9873
     0.9871   0.9870   0.9867   0.9866   0.9865   0.9863   0.9863   0.9861
     0.9859   0.9858   0.9857   0.9856   0.9854   0.9853   0.9852   0.9850
     0.9850   0.9849   0.9849   0.9848   0.9845   0.9844   0.9843   0.9842
     0.9841   0.9840   0.9839   0.9838   0.9837   0.9837   0.9835   0.9835
     0.9834   0.9833   0.9832   0.9831   0.9830   0.9830   0.9829   0.9828
     0.9825   0.9823   0.9821   0.9819   0.9818   0.9817   0.9813   0.9812
     0.9812   0.9811   0.9808   0.9807   0.9805   0.9804   0.9801   0.9800
     0.9799   0.9796   0.9796   0.9794   0.9789   0.9785   0.9784   0.9781
     0.9772   0.9769   0.9767   0.9765   0.9764   0.9760   0.9759   0.9752
     0.9751   0.9750   0.9748   0.9744   0.9743   0.9740   0.9740   0.9738
     0.9736   0.9734   0.9728   0.9721   0.9716   0.9715   0.9714   0.9710
     0.9708   0.9705   0.9700   0.9692   0.9687   0.9684   0.9678   0.9676
     0.9670   0.9668   0.9660   0.9656   0.9652   0.9647   0.9643   0.9643
     0.9633   0.9629   0.9625   0.9619   0.9617   0.9615   0.9612   0.9606
     0.9603   0.9602   0.9600   0.9596   0.9596   0.9592   0.9589   0.9582
     0.9577   0.9573   0.9562   0.9557   0.9547   0.9546   0.9518   0.9512
     0.9505   0.9323   0.9291   0.9280   0.9236   0.9205   0.9149   0.9143
     0.9118   0.9095   0.9075   0.9061   0.9016   0.8980   0.8950   0.8932
     0.8902   0.8886   0.8826   0.8822   0.8809   0.8768   0.8732   0.8726
     0.8699   0.8669   0.8654   0.8637   0.8588   0.8525   0.8516   0.8474
     0.8458   0.8436   0.8417   0.8395   0.8355   0.8347   0.8331   0.8303
     0.8263   0.8224   0.8212   0.7999   0.7618   0.6871   0.6836   0.6522
     0.6014   0.5825   0.5295   0.5049   0.4963   0.4594   0.4268   0.4075
     0.3864   0.3662   0.3262   0.2765   0.2700   0.2564   0.2523   0.2334
     0.2263   0.2129   0.2071   0.2028   0.1994   0.1762   0.1749   0.1734
     0.1637   0.1514   0.1436   0.1408   0.1335   0.1278   0.1232   0.1165
     0.1104   0.1073   0.1044   0.0909   0.0882   0.0862   0.0784   0.0749
     0.0669   0.0589   0.0535   0.0387   0.0289   0.0269   0.0226   0.0217
     0.0181   0.0110   0.0049   0.0047   0.0040   0.0038   0.0027   0.0023
     0.0018   0.0012   0.0009   0.0007   0.0005   0.0005   0.0005   0.0004
     0.0003   0.0003   0.0003   0.0002   0.0002   0.0001   0.0001   0.0001
     0.0001   0.0001   0.0000   0.0000   0.0000   0.0000   0.0000   0.0000
     0.0000   0.0000   0.0000   0.0000   0.0000   0.0000   0.0000   0.0000
     0.0000   0.0000   0.0000   0.0000   0.0000   0.0000   0.0000   0.0000
     0.0000   0.0000   0.0000   0.0000   0.0000   0.0000   0.0000   0.0000
     0.0000   0.0000   0.0000   0.0000

          k = 0.2500 0.0000 0.0000 (256240 PWs)   bands (ev):

    -5.7535  -5.6381  -5.6078  -5.5791  -5.4357  -5.3998  -5.3050  -5.2813
    -5.2481  -5.2444  -5.2350  -5.2290  -5.2146  -5.1893  -5.1692  -5.1330
    -5.0821  -5.0723  -5.0078  -4.9680  -4.9493  -4.9254  -4.8990  -4.8659
    -4.8397  -4.8113  -4.8021  -4.7720  -4.7603  -4.7474  -4.7259  -4.6832
    -4.6568  -4.6401  -4.6340  -4.5944  -4.5768  -4.5726  -4.5573  -4.5362
    -4.5060  -4.4544  -4.3416  -4.1402  -4.0814  -4.0486  -4.0480  -4.0454
    -4.0423  -4.0363  -4.0196  -4.0026  -3.9815  -3.9498  -3.9395  -3.9113
    -3.9046  -3.8855  -3.8785  -3.8325  -3.8213  -3.7900  -3.7868  -3.7662
    -3.7616  -3.7601  -3.7299  -3.7179  -3.7025  -3.7013  -3.6877  -3.6809
    -3.6580  -3.6484  -3.6326  -3.6323  -3.6099  -3.6079  -3.5440  -3.5168
    -3.4894  -3.4713  -3.4645  -3.4496  -3.3942  -3.3193  -3.2708  -3.2167
    -3.1362  -3.0849  -3.0642  -3.0350  -3.0227  -2.9995  -2.9537  -2.9444
    -2.8928  -2.8578  -2.8371  -2.8197  -2.7995  -2.7851  -2.7782  -2.7618
    -2.7575  -2.7459  -2.7333  -2.7278  -2.7128  -2.7074  -2.7020  -2.6912
    -2.6757  -2.6715  -2.6512  -2.6408  -2.6323  -2.6236  -2.6109  -2.6001
    -2.5969  -2.5862  -2.5803  -2.5555  -2.5509  -2.5348  -2.5204  -2.4891
    -2.4577  -2.4375  -2.4210  -2.3993  -2.3841  -2.3430  -2.3309  -2.3172
    -2.2818  -2.2757  -2.2717  -2.2659  -2.2457  -2.2315  -2.2211  -2.2130
    -2.2064  -2.1824  -2.1671  -2.1529  -2.1416  -2.1258  -2.1036  -2.0871
    -2.0839  -2.0640  -2.0616  -2.0549  -2.0452  -2.0310  -2.0081  -2.0014
    -1.9802  -1.9736  -1.9636  -1.9593  -1.9475  -1.9348  -1.9169  -1.8899
    -1.7919  -1.7388  -1.7260  -1.6987  -1.6952  -1.6815  -1.6630  -1.6334
    -1.5921  -1.5767  -1.5545  -1.5449  -1.5399  -1.5364  -1.5303  -1.5232
    -1.5110  -1.5016  -1.4981  -1.4878  -1.4847  -1.4748  -1.4568  -1.4519
    -1.4362  -1.4294  -1.4234  -1.4190  -1.4092  -1.3880  -1.3852  -1.3796
    -1.3627  -1.3593  -1.3543  -1.3355  -1.3017  -1.2996  -1.2963  -1.2795
    -1.2778  -1.2634  -1.2620  -1.2432  -1.2111  -1.1960  -1.1861  -1.1734
    -1.1626  -1.1504  -1.1417  -1.1403  -1.1235  -1.1184  -1.1112  -1.1083
    -1.1032  -1.0961  -1.0781  -1.0738  -1.0735  -1.0587  -1.0525  -1.0475
    -1.0346  -1.0331  -1.0286  -1.0258  -1.0234  -1.0192  -1.0146  -1.0106
    -1.0004  -0.9944  -0.9881  -0.9777  -0.9616  -0.9560  -0.9458  -0.9388
    -0.9362  -0.9270  -0.9122  -0.8942  -0.8875  -0.8817  -0.8781  -0.8745
    -0.8669  -0.8637  -0.8575  -0.8541  -0.8493  -0.8458  -0.8426  -0.8370
    -0.8364  -0.8275  -0.8238  -0.8200  -0.8112  -0.8042  -0.8031  -0.8003
    -0.7931  -0.7790  -0.7698  -0.7658  -0.7525  -0.7463  -0.7331  -0.7303
    -0.7158  -0.7060  -0.7012  -0.6913  -0.6847  -0.6791  -0.6695  -0.6620
    -0.6554  -0.6537  -0.6489  -0.6009  -0.5965  -0.5929  -0.5843  -0.5719
    -0.5524  -0.5469  -0.5419  -0.5323  -0.5230  -0.5050  -0.4913  -0.4767
    -0.4656  -0.4506  -0.4389  -0.4212  -0.4163  -0.4070  -0.4029  -0.4004
    -0.3991  -0.3969  -0.3894  -0.3859  -0.3775  -0.3693  -0.3566  -0.3505
    -0.3283  -0.3216  -0.3065  -0.2988  -0.2965  -0.2849  -0.2791  -0.2699
    -0.2617  -0.2538  -0.2480  -0.2426  -0.2408  -0.2370  -0.2336  -0.2323
    -0.2291  -0.2263  -0.2205  -0.2180  -0.2167  -0.2108  -0.2091  -0.2070
    -0.2034  -0.2000  -0.1961  -0.1926  -0.1888  -0.1871  -0.1842  -0.1815
    -0.1787  -0.1735  -0.1703  -0.1692  -0.1649  -0.1639  -0.1532  -0.1413
    -0.1206  -0.1116  -0.1083  -0.1008  -0.0913  -0.0796  -0.0626  -0.0599
    -0.0559  -0.0524  -0.0492  -0.0471  -0.0394  -0.0320  -0.0296  -0.0266
    -0.0250  -0.0226  -0.0202  -0.0165  -0.0137  -0.0090  -0.0072  -0.0040
    -0.0026  -0.0007   0.0043   0.0069   0.0115   0.0138   0.0184   0.0219
     0.0226   0.0253   0.0262   0.0299   0.0332   0.0358   0.0387   0.0398
     0.0450   0.0481   0.0498   0.0516   0.0531   0.0545   0.0563   0.0608
     0.0612   0.0638   0.0670   0.0706   0.0758   0.0774   0.0786   0.0831
     0.0842   0.0858   0.0907   0.0928   0.0953   0.0959   0.1009   0.1017
     0.1038   0.1068   0.1084   0.1095   0.1129   0.1154   0.1173   0.1208
     0.1238   0.1250   0.1267   0.1276   0.1299   0.1361   0.1405   0.1446
     0.1486   0.1520   0.1534   0.1688   0.1733   0.1825   0.2033   0.2063
     0.2178   0.2248   0.2285   0.2371   0.2441   0.2485   0.2532   0.2537
     0.2562   0.2590   0.2671   0.2722   0.2822   0.2855   0.3078   0.3136
     0.3189   0.3270   0.3307   0.3357   0.3401   0.3424   0.3432   0.3462
     0.3473   0.3522   0.3590   0.3609   0.3627   0.3645   0.3658   0.3696
     0.3724   0.3789   0.3825   0.3867   0.4056   0.4079   0.4135   0.4173
     0.4178   0.4231   0.4271   0.4296   0.4323   0.4355   0.4363   0.4380
     0.4460   0.4505   0.4518   0.4543   0.4610   0.4766   0.4875   0.4950
     0.5008   0.5117   0.5226   0.5448   0.5574   0.5728   0.5878   0.6028
     0.6152   0.6367   0.6476   0.6501   0.6698   0.6824   0.7034   0.7090
     0.7139   0.7865   0.8068   0.8551   0.9106   0.9390   0.9990   1.0147
     1.0189   1.0260   1.0513   1.0554   1.0575   1.0701   1.0832   1.1123
     1.1182   1.1636   1.1794   1.1831   1.2016   1.2601   1.2974   1.3555
     1.3620   1.4224   1.4478   1.5158   1.5571   1.6008   1.6761   1.9407
     1.9640   2.0272   2.0692   2.1085   2.1449   2.2416   2.2545   2.2890
     2.3171   2.3245   2.4224   2.4772   2.6754   2.6795   2.7980   2.8921
     2.9386   2.9518   3.0190   3.0461   3.1285   3.2107   3.2265   3.3075
     3.3457   3.3939   3.4786   3.4882   3.5062   3.5630   3.6464   3.7378
     3.7625   4.0585   4.1055   4.1356   4.1460   4.1645   4.2006   4.2101
     4.2396   4.2618   4.2844   4.3035   4.3151   4.3208   4.3350   4.4981
     4.5807   4.6590   4.7378   4.7927   4.8283   4.9579   5.0460   5.0643
     5.0884   5.1235   5.1337   5.1418   5.1812   5.1884   5.1996   5.2426
     5.2529   5.2685   5.3027   5.3321   5.3607   5.4045   5.4330   5.4734
     5.4873   5.4936   5.5576   5.5955   5.6507   5.7646   5.8100   5.8938
     5.9322   5.9987   6.0453   6.1149   6.1224   6.2660   6.3836   6.4568
     6.5515   6.6211   6.6394   6.6533   6.6580   6.6859   6.7338   6.7429
     6.7924   6.8071   6.8396   6.8555   6.8761   6.9060   6.9259   6.9288
     6.9525   7.0052   7.0204   7.0707

     occupation numbers 
     1.0000   1.0000   1.0000   1.0000   1.0000   1.0000   1.0000   1.0000
     1.0000   1.0000   1.0000   1.0000   1.0000   1.0000   1.0000   1.0000
     1.0000   1.0000   1.0000   1.0000   1.0000   1.0000   1.0000   1.0000
     1.0000   1.0000   1.0000   1.0000   1.0000   1.0000   1.0000   1.0000
     1.0000   1.0000   1.0000   1.0000   1.0000   1.0000   1.0000   1.0000
     1.0000   1.0000   1.0000   1.0000   1.0000   1.0000   1.0000   1.0000
     1.0000   1.0000   1.0000   1.0000   1.0000   1.0000   1.0000   1.0000
     1.0000   1.0000   1.0000   1.0000   1.0000   1.0000   1.0000   1.0000
     1.0000   1.0000   1.0000   1.0000   1.0000   1.0000   1.0000   1.0000
     1.0000   1.0000   1.0000   1.0000   1.0000   1.0000   1.0000   1.0000
     1.0000   1.0000   1.0000   1.0000   1.0000   1.0000   1.0000   1.0000
     1.0000   1.0000   1.0000   1.0000   1.0000   1.0000   1.0000   1.0000
     1.0000   1.0000   1.0000   1.0000   1.0000   1.0000   1.0000   1.0000
     1.0000   1.0000   1.0000   1.0000   1.0000   1.0000   1.0000   1.0000
     1.0000   1.0000   1.0000   1.0000   1.0000   1.0000   1.0000   1.0000
     1.0000   1.0000   1.0000   1.0000   1.0000   1.0000   1.0000   1.0000
     1.0000   1.0000   1.0000   1.0000   1.0000   1.0000   1.0000   1.0000
     1.0000   1.0000   1.0000   1.0000   1.0000   1.0000   1.0000   1.0000
     1.0000   1.0000   1.0000   1.0000   1.0000   1.0000   1.0000   1.0000
     1.0000   1.0000   1.0000   1.0000   1.0000   1.0000   1.0000   1.0000
     1.0000   1.0000   1.0000   1.0000   1.0000   1.0000   1.0000   1.0000
     1.0000   1.0000   1.0000   1.0000   1.0000   1.0000   1.0000   1.0000
     0.9999   0.9999   0.9999   0.9999   0.9999   0.9999   0.9999   0.9999
     0.9999   0.9999   0.9999   0.9999   0.9999   0.9999   0.9999   0.9999
     0.9999   0.9999   0.9999   0.9999   0.9999   0.9999   0.9999   0.9999
     0.9998   0.9998   0.9998   0.9998   0.9998   0.9998   0.9998   0.9998
     0.9998   0.9998   0.9998   0.9998   0.9997   0.9997   0.9997   0.9997
     0.9997   0.9997   0.9996   0.9996   0.9996   0.9996   0.9996   0.9996
     0.9996   0.9996   0.9995   0.9995   0.9995   0.9995   0.9995   0.9995
     0.9995   0.9995   0.9995   0.9994   0.9994   0.9994   0.9994   0.9994
     0.9994   0.9994   0.9994   0.9993   0.9993   0.9993   0.9993   0.9992
     0.9992   0.9992   0.9992   0.9991   0.9991   0.9991   0.9991   0.9990
     0.9990   0.9990   0.9990   0.9990   0.9990   0.9989   0.9989   0.9989
     0.9989   0.9989   0.9989   0.9988   0.9988   0.9988   0.9988   0.9988
     0.9987   0.9987   0.9986   0.9986   0.9986   0.9985   0.9985   0.9984
     0.9984   0.9983   0.9983   0.9982   0.9982   0.9981   0.9981   0.9980
     0.9980   0.9980   0.9980   0.9976   0.9976   0.9975   0.9975   0.9974
     0.9972   0.9971   0.9971   0.9970   0.9969   0.9967   0.9966   0.9964
     0.9963   0.9961   0.9960   0.9958   0.9957   0.9956   0.9955   0.9955
     0.9955   0.9955   0.9953   0.9953   0.9952   0.9951   0.9949   0.9948
     0.9944   0.9943   0.9940   0.9939   0.9939   0.9937   0.9935   0.9934
     0.9932   0.9931   0.9929   0.9928   0.9928   0.9927   0.9926   0.9926
     0.9925   0.9925   0.9924   0.9923   0.9923   0.9921   0.9921   0.9920
     0.9920   0.9919   0.9918   0.9917   0.9916   0.9916   0.9915   0.9915
     0.9914   0.9913   0.9912   0.9912   0.9910   0.9910   0.9907   0.9904
     0.9899   0.9896   0.9895   0.9893   0.9890   0.9887   0.9881   0.9880
     0.9879   0.9878   0.9877   0.9876   0.9874   0.9871   0.9870   0.9869
     0.9869   0.9868   0.9867   0.9866   0.9865   0.9863   0.9862   0.9861
     0.9861   0.9860   0.9858   0.9857   0.9855   0.9854   0.9853   0.9851
     0.9851   0.9850   0.9850   0.9848   0.9847   0.9846   0.9845   0.9844
     0.9842   0.9841   0.9840   0.9839   0.9839   0.9838   0.9837   0.9835
     0.9835   0.9834   0.9833   0.9831   0.9829   0.9828   0.9828   0.9826
     0.9825   0.9824   0.9822   0.9821   0.9820   0.9820   0.9817   0.9817
     0.9816   0.9815   0.9814   0.9813   0.9812   0.9811   0.9810   0.9808
     0.9807   0.9806   0.9805   0.9805   0.9804   0.9800   0.9798   0.9796
     0.9794   0.9792   0.9792   0.9783   0.9781   0.9776   0.9764   0.9762
     0.9756   0.9751   0.9749   0.9744   0.9740   0.9737   0.9734   0.9733
     0.9732   0.9730   0.9725   0.9721   0.9715   0.9712   0.9697   0.9693
     0.9689   0.9683   0.9680   0.9676   0.9673   0.9671   0.9671   0.9668
     0.9668   0.9664   0.9658   0.9657   0.9656   0.9654   0.9653   0.9650
     0.9648   0.9642   0.9639   0.9636   0.9620   0.9618   0.9613   0.9610
     0.9609   0.9605   0.9601   0.9599   0.9597   0.9594   0.9593   0.9591
     0.9584   0.9580   0.9579   0.9576   0.9570   0.9555   0.9544   0.9537
     0.9531   0.9520   0.9508   0.9484   0.9470   0.9453   0.9435   0.9417
     0.9402   0.9375   0.9361   0.9358   0.9332   0.9315   0.9285   0.9277
     0.9270   0.9160   0.9127   0.9044   0.8943   0.8888   0.8765   0.8731
     0.8722   0.8707   0.8650   0.8641   0.8636   0.8608   0.8577   0.8508
     0.8494   0.8381   0.8340   0.8331   0.8282   0.8123   0.8016   0.7844
     0.7824   0.7635   0.7553   0.7325   0.7182   0.7027   0.6751   0.5710
     0.5614   0.5354   0.5181   0.5018   0.4867   0.4467   0.4414   0.4273
     0.4159   0.4129   0.3738   0.3524   0.2793   0.2779   0.2382   0.2090
     0.1953   0.1916   0.1731   0.1660   0.1455   0.1269   0.1235   0.1071
     0.1000   0.0915   0.0778   0.0764   0.0738   0.0658   0.0555   0.0456
     0.0432   0.0216   0.0192   0.0178   0.0173   0.0165   0.0150   0.0146
     0.0135   0.0127   0.0120   0.0114   0.0110   0.0109   0.0104   0.0066
     0.0052   0.0041   0.0032   0.0027   0.0024   0.0016   0.0011   0.0011
     0.0010   0.0009   0.0008   0.0008   0.0007   0.0007   0.0007   0.0006
     0.0005   0.0005   0.0005   0.0004   0.0004   0.0003   0.0003   0.0002
     0.0002   0.0002   0.0002   0.0001   0.0001   0.0001   0.0001   0.0000
     0.0000   0.0000   0.0000   0.0000   0.0000   0.0000   0.0000   0.0000
     0.0000   0.0000   0.0000   0.0000   0.0000   0.0000   0.0000   0.0000
     0.0000   0.0000   0.0000   0.0000   0.0000   0.0000   0.0000   0.0000
     0.0000   0.0000   0.0000   0.0000

          k = 0.2500-0.2165 0.0000 (256316 PWs)   bands (ev):

    -5.7535  -5.6381  -5.6078  -5.5792  -5.4355  -5.4001  -5.2811  -5.2569
    -5.2464  -5.2371  -5.2347  -5.2251  -5.1895  -5.1653  -5.1276  -5.1230
    -5.0905  -5.0794  -5.0459  -5.0322  -5.0070  -4.9939  -4.9687  -4.9246
    -4.9097  -4.8820  -4.8607  -4.7689  -4.7314  -4.6671  -4.6484  -4.6260
    -4.6171  -4.6087  -4.5949  -4.5534  -4.5441  -4.5252  -4.5118  -4.4827
    -4.4440  -4.4292  -4.3381  -4.2406  -4.1801  -4.1395  -4.1189  -4.0574
    -4.0457  -4.0365  -4.0012  -3.9856  -3.9424  -3.9180  -3.9105  -3.8987
    -3.8840  -3.8803  -3.8657  -3.8542  -3.8518  -3.7900  -3.7869  -3.7783
    -3.7672  -3.7615  -3.7349  -3.7154  -3.7013  -3.6908  -3.6863  -3.6809
    -3.6580  -3.6483  -3.6326  -3.6323  -3.6099  -3.6080  -3.5441  -3.5167
    -3.4894  -3.4715  -3.4645  -3.4495  -3.3943  -3.3188  -3.2715  -3.2148
    -3.1349  -3.0828  -3.0641  -3.0320  -3.0247  -2.9996  -2.9549  -2.9411
    -2.8925  -2.8628  -2.8229  -2.8103  -2.7972  -2.7845  -2.7706  -2.7599
    -2.7564  -2.7455  -2.7433  -2.7203  -2.7134  -2.6994  -2.6923  -2.6857
    -2.6742  -2.6616  -2.6493  -2.6436  -2.6348  -2.6311  -2.6281  -2.6174
    -2.6090  -2.6024  -2.5973  -2.5822  -2.5657  -2.5440  -2.5318  -2.5185
    -2.4963  -2.4647  -2.4561  -2.4378  -2.3833  -2.3663  -2.3594  -2.3364
    -2.3294  -2.3073  -2.2940  -2.2822  -2.2594  -2.2478  -2.2401  -2.2238
    -2.1739  -2.1648  -2.1121  -2.1072  -2.0937  -2.0878  -2.0812  -2.0656
    -2.0630  -2.0591  -2.0556  -2.0394  -1.9927  -1.9785  -1.9714  -1.9666
    -1.9428  -1.8981  -1.8683  -1.8557  -1.8495  -1.8430  -1.8385  -1.8299
    -1.8223  -1.8169  -1.8148  -1.8063  -1.7881  -1.7737  -1.7379  -1.7119
    -1.6872  -1.6600  -1.5983  -1.5917  -1.5770  -1.5650  -1.5358  -1.5273
    -1.5156  -1.5107  -1.4985  -1.4938  -1.4793  -1.4654  -1.4464  -1.4398
    -1.4206  -1.4181  -1.4107  -1.3998  -1.3867  -1.3750  -1.3601  -1.3523
    -1.3405  -1.3322  -1.3233  -1.3169  -1.2958  -1.2863  -1.2776  -1.2580
    -1.2489  -1.2418  -1.2391  -1.2260  -1.2193  -1.2089  -1.1856  -1.1756
    -1.1575  -1.1481  -1.1419  -1.1302  -1.1256  -1.1116  -1.1045  -1.0929
    -1.0849  -1.0786  -1.0732  -1.0651  -1.0633  -1.0572  -1.0515  -1.0493
    -1.0446  -1.0395  -1.0358  -1.0298  -1.0258  -1.0151  -1.0121  -1.0038
    -0.9988  -0.9911  -0.9898  -0.9787  -0.9743  -0.9716  -0.9645  -0.9581
    -0.9575  -0.9477  -0.9415  -0.9270  -0.9240  -0.9171  -0.9014  -0.8930
    -0.8925  -0.8843  -0.8741  -0.8681  -0.8593  -0.8499  -0.8475  -0.8441
    -0.8392  -0.8377  -0.8319  -0.8276  -0.8190  -0.8086  -0.8038  -0.8006
    -0.7885  -0.7800  -0.7746  -0.7628  -0.7551  -0.7505  -0.7482  -0.7398
    -0.7370  -0.7115  -0.6948  -0.6785  -0.6666  -0.6564  -0.6466  -0.6202
    -0.6151  -0.6100  -0.5887  -0.5862  -0.5788  -0.5781  -0.5703  -0.5623
    -0.5597  -0.5513  -0.5402  -0.5356  -0.5284  -0.5176  -0.4964  -0.4880
    -0.4646  -0.4520  -0.4251  -0.4101  -0.3964  -0.3918  -0.3849  -0.3788
    -0.3764  -0.3663  -0.3521  -0.3490  -0.3424  -0.3357  -0.3242  -0.3216
    -0.3114  -0.3096  -0.2999  -0.2923  -0.2845  -0.2736  -0.2698  -0.2649
    -0.2604  -0.2569  -0.2511  -0.2440  -0.2427  -0.2385  -0.2372  -0.2330
    -0.2299  -0.2269  -0.2235  -0.2221  -0.2186  -0.2154  -0.2125  -0.2110
    -0.2051  -0.2015  -0.1936  -0.1884  -0.1838  -0.1688  -0.1627  -0.1582
    -0.1572  -0.1512  -0.1472  -0.1399  -0.1363  -0.1319  -0.1207  -0.1098
    -0.1027  -0.0974  -0.0901  -0.0875  -0.0860  -0.0843  -0.0830  -0.0800
    -0.0756  -0.0693  -0.0649  -0.0621  -0.0604  -0.0506  -0.0453  -0.0444
    -0.0338  -0.0320  -0.0230  -0.0210  -0.0168  -0.0157  -0.0094  -0.0089
    -0.0023   0.0006   0.0040   0.0079   0.0116   0.0152   0.0186   0.0218
     0.0224   0.0237   0.0257   0.0278   0.0327   0.0357   0.0394   0.0408
     0.0438   0.0467   0.0494   0.0518   0.0531   0.0552   0.0565   0.0585
     0.0606   0.0634   0.0654   0.0671   0.0695   0.0724   0.0742   0.0765
     0.0795   0.0805   0.0886   0.0933   0.0959   0.1012   0.1035   0.1059
     0.1095   0.1099   0.1143   0.1178   0.1212   0.1246   0.1325   0.1339
     0.1347   0.1397   0.1437   0.1453   0.1568   0.1636   0.1661   0.1799
     0.1818   0.1885   0.1935   0.1981   0.2020   0.2106   0.2149   0.2191
     0.2214   0.2225   0.2261   0.2299   0.2368   0.2402   0.2405   0.2458
     0.2500   0.2529   0.2622   0.2703   0.2710   0.2735   0.2821   0.2875
     0.2910   0.2956   0.3041   0.3118   0.3217   0.3254   0.3291   0.3338
     0.3395   0.3435   0.3538   0.3584   0.3620   0.3721   0.3738   0.3743
     0.3879   0.3924   0.3995   0.4017   0.4056   0.4067   0.4086   0.4109
     0.4141   0.4186   0.4203   0.4219   0.4243   0.4272   0.4335   0.4381
     0.4443   0.4542   0.4594   0.4656   0.4681   0.4717   0.4761   0.4938
     0.5000   0.5126   0.5158   0.5320   0.5439   0.5541   0.5839   0.5977
     0.6234   0.6445   0.6656   0.6814   0.7156   0.7290   0.7371   0.7710
     0.7927   0.8044   0.8299   0.8622   0.8693   0.8715   0.8927   0.9217
     0.9342   0.9443   0.9595   0.9686   0.9713   1.0083   1.0185   1.0372
     1.0482   1.0634   1.1093   1.1134   1.1196   1.1285   1.1328   1.1441
     1.1493   1.1584   1.1792   1.1878   1.2059   1.3883   1.7432   1.8322
     2.2888   2.3631   2.5834   2.6249   2.6864   2.7292   2.7331   2.7568
     2.7669   2.7869   2.8185   2.8596   2.8799   2.9162   2.9234   2.9466
     2.9842   3.0346   3.0698   3.1005   3.1360   3.1729   3.1941   3.2093
     3.2669   3.3048   3.3367   3.3933   3.4337   3.5069   3.5257   3.5441
     3.5943   3.6279   3.6471   3.7329   3.7455   3.7529   3.8395   3.8877
     3.9027   3.9326   3.9662   4.0528   4.0870   4.1484   4.3390   4.3865
     4.4046   4.4196   4.4562   4.6565   4.6626   4.7072   4.7318   4.7521
     4.8467   4.8912   4.9434   5.2719   5.3721   5.3965   5.5455   5.5634
     5.5856   5.6031   5.6227   5.6654   5.6993   5.7560   5.7992   5.8116
     5.8494   5.8899   5.9222   5.9502   5.9687   6.0229   6.0853   6.1044
     6.1348   6.1486   6.1737   6.2287   6.2519   6.2883   6.3336   6.3574
     6.3934   6.4369   6.4974   6.5390   6.5569   6.5850   6.6732   6.7211
     6.7345   6.7632   6.8114   6.8463   6.8718   6.9038   6.9361   6.9686
     7.0260   7.0500   7.1174   7.1665

     occupation numbers 
     1.0000   1.0000   1.0000   1.0000   1.0000   1.0000   1.0000   1.0000
     1.0000   1.0000   1.0000   1.0000   1.0000   1.0000   1.0000   1.0000
     1.0000   1.0000   1.0000   1.0000   1.0000   1.0000   1.0000   1.0000
     1.0000   1.0000   1.0000   1.0000   1.0000   1.0000   1.0000   1.0000
     1.0000   1.0000   1.0000   1.0000   1.0000   1.0000   1.0000   1.0000
     1.0000   1.0000   1.0000   1.0000   1.0000   1.0000   1.0000   1.0000
     1.0000   1.0000   1.0000   1.0000   1.0000   1.0000   1.0000   1.0000
     1.0000   1.0000   1.0000   1.0000   1.0000   1.0000   1.0000   1.0000
     1.0000   1.0000   1.0000   1.0000   1.0000   1.0000   1.0000   1.0000
     1.0000   1.0000   1.0000   1.0000   1.0000   1.0000   1.0000   1.0000
     1.0000   1.0000   1.0000   1.0000   1.0000   1.0000   1.0000   1.0000
     1.0000   1.0000   1.0000   1.0000   1.0000   1.0000   1.0000   1.0000
     1.0000   1.0000   1.0000   1.0000   1.0000   1.0000   1.0000   1.0000
     1.0000   1.0000   1.0000   1.0000   1.0000   1.0000   1.0000   1.0000
     1.0000   1.0000   1.0000   1.0000   1.0000   1.0000   1.0000   1.0000
     1.0000   1.0000   1.0000   1.0000   1.0000   1.0000   1.0000   1.0000
     1.0000   1.0000   1.0000   1.0000   1.0000   1.0000   1.0000   1.0000
     1.0000   1.0000   1.0000   1.0000   1.0000   1.0000   1.0000   1.0000
     1.0000   1.0000   1.0000   1.0000   1.0000   1.0000   1.0000   1.0000
     1.0000   1.0000   1.0000   1.0000   1.0000   1.0000   1.0000   1.0000
     1.0000   1.0000   1.0000   1.0000   1.0000   1.0000   1.0000   1.0000
     1.0000   1.0000   1.0000   1.0000   1.0000   1.0000   1.0000   1.0000
     1.0000   1.0000   0.9999   0.9999   0.9999   0.9999   0.9999   0.9999
     0.9999   0.9999   0.9999   0.9999   0.9999   0.9999   0.9999   0.9999
     0.9999   0.9999   0.9999   0.9999   0.9999   0.9999   0.9998   0.9998
     0.9998   0.9998   0.9998   0.9998   0.9998   0.9998   0.9998   0.9998
     0.9998   0.9998   0.9998   0.9997   0.9997   0.9997   0.9997   0.9997
     0.9997   0.9996   0.9996   0.9996   0.9996   0.9996   0.9996   0.9996
     0.9996   0.9995   0.9995   0.9995   0.9995   0.9995   0.9995   0.9995
     0.9995   0.9995   0.9995   0.9995   0.9994   0.9994   0.9994   0.9994
     0.9994   0.9994   0.9994   0.9993   0.9993   0.9993   0.9993   0.9993
     0.9993   0.9993   0.9992   0.9992   0.9992   0.9992   0.9991   0.9991
     0.9991   0.9991   0.9990   0.9990   0.9990   0.9990   0.9990   0.9989
     0.9989   0.9989   0.9989   0.9989   0.9988   0.9988   0.9988   0.9988
     0.9987   0.9987   0.9987   0.9986   0.9986   0.9985   0.9985   0.9985
     0.9985   0.9983   0.9982   0.9981   0.9981   0.9980   0.9979   0.9977
     0.9977   0.9977   0.9975   0.9975   0.9974   0.9974   0.9974   0.9973
     0.9973   0.9972   0.9971   0.9970   0.9970   0.9969   0.9967   0.9966
     0.9963   0.9962   0.9958   0.9956   0.9954   0.9954   0.9953   0.9952
     0.9952   0.9950   0.9948   0.9947   0.9946   0.9945   0.9943   0.9943
     0.9941   0.9941   0.9939   0.9938   0.9936   0.9934   0.9934   0.9933
     0.9932   0.9931   0.9930   0.9929   0.9928   0.9927   0.9927   0.9926
     0.9926   0.9925   0.9924   0.9924   0.9923   0.9922   0.9922   0.9921
     0.9920   0.9919   0.9917   0.9916   0.9915   0.9911   0.9910   0.9909
     0.9908   0.9907   0.9906   0.9904   0.9903   0.9902   0.9899   0.9896
     0.9894   0.9892   0.9890   0.9889   0.9889   0.9888   0.9888   0.9887
     0.9885   0.9883   0.9882   0.9881   0.9881   0.9877   0.9876   0.9875
     0.9872   0.9871   0.9868   0.9867   0.9866   0.9865   0.9863   0.9863
     0.9860   0.9859   0.9858   0.9857   0.9855   0.9854   0.9852   0.9851
     0.9851   0.9851   0.9850   0.9849   0.9847   0.9846   0.9844   0.9844
     0.9842   0.9841   0.9840   0.9839   0.9839   0.9838   0.9837   0.9836
     0.9835   0.9834   0.9833   0.9833   0.9832   0.9830   0.9829   0.9828
     0.9827   0.9827   0.9823   0.9821   0.9820   0.9817   0.9816   0.9815
     0.9813   0.9813   0.9811   0.9809   0.9808   0.9806   0.9802   0.9801
     0.9801   0.9799   0.9797   0.9796   0.9790   0.9786   0.9785   0.9777
     0.9776   0.9773   0.9770   0.9767   0.9765   0.9760   0.9757   0.9755
     0.9753   0.9753   0.9751   0.9748   0.9744   0.9742   0.9742   0.9738
     0.9736   0.9734   0.9728   0.9723   0.9722   0.9720   0.9715   0.9711
     0.9709   0.9705   0.9699   0.9694   0.9687   0.9684   0.9681   0.9678
     0.9673   0.9670   0.9662   0.9659   0.9656   0.9648   0.9647   0.9646
     0.9635   0.9631   0.9625   0.9623   0.9620   0.9619   0.9618   0.9616
     0.9613   0.9609   0.9607   0.9606   0.9604   0.9601   0.9596   0.9591
     0.9586   0.9576   0.9572   0.9566   0.9563   0.9560   0.9555   0.9538
[...]
     0.9996   0.9996   0.9995   0.9995   0.9995   0.9995   0.9995   0.9995
     0.9995   0.9995   0.9995   0.9995   0.9994   0.9994   0.9994   0.9994
     0.9994   0.9994   0.9994   0.9993   0.9993   0.9993   0.9993   0.9993
     0.9993   0.9993   0.9992   0.9992   0.9991   0.9991   0.9991   0.9991
     0.9990   0.9990   0.9990   0.9990   0.9990   0.9990   0.9989   0.9989
     0.9989   0.9989   0.9989   0.9989   0.9988   0.9988   0.9988   0.9988
     0.9988   0.9987   0.9986   0.9986   0.9986   0.9986   0.9985   0.9985
     0.9984   0.9984   0.9983   0.9983   0.9983   0.9982   0.9982   0.9981
     0.9981   0.9980   0.9980   0.9977   0.9977   0.9976   0.9975   0.9974
     0.9973   0.9972   0.9972   0.9970   0.9969   0.9967   0.9967   0.9965
     0.9963   0.9962   0.9960   0.9958   0.9957   0.9956   0.9955   0.9955
     0.9955   0.9955   0.9954   0.9953   0.9952   0.9951   0.9950   0.9949
     0.9946   0.9944   0.9940   0.9939   0.9939   0.9938   0.9936   0.9934
     0.9932   0.9930   0.9930   0.9929   0.9928   0.9927   0.9926   0.9926
     0.9925   0.9924   0.9923   0.9923   0.9922   0.9921   0.9921   0.9920
     0.9920   0.9919   0.9919   0.9918   0.9917   0.9917   0.9916   0.9916
     0.9915   0.9914   0.9913   0.9912   0.9912   0.9912   0.9909   0.9905
     0.9901   0.9899   0.9898   0.9893   0.9891   0.9888   0.9886   0.9882
     0.9879   0.9879   0.9878   0.9876   0.9876   0.9875   0.9872   0.9870
     0.9870   0.9869   0.9868   0.9867   0.9866   0.9864   0.9863   0.9862
     0.9861   0.9860   0.9859   0.9858   0.9856   0.9856   0.9854   0.9852
     0.9851   0.9851   0.9850   0.9849   0.9848   0.9847   0.9846   0.9845
     0.9844   0.9843   0.9841   0.9840   0.9840   0.9839   0.9838   0.9837
     0.9836   0.9835   0.9834   0.9831   0.9831   0.9829   0.9828   0.9827
     0.9825   0.9824   0.9824   0.9823   0.9822   0.9822   0.9821   0.9819
     0.9817   0.9816   0.9815   0.9815   0.9814   0.9813   0.9812   0.9810
     0.9809   0.9809   0.9808   0.9806   0.9805   0.9802   0.9800   0.9798
     0.9797   0.9794   0.9793   0.9788   0.9784   0.9774   0.9765   0.9763
     0.9757   0.9751   0.9749   0.9746   0.9745   0.9743   0.9738   0.9736
     0.9733   0.9732   0.9731   0.9728   0.9724   0.9722   0.9717   0.9708
     0.9705   0.9700   0.9694   0.9689   0.9686   0.9683   0.9680   0.9676
     0.9672   0.9669   0.9667   0.9664   0.9662   0.9658   0.9655   0.9654
     0.9652   0.9649   0.9647   0.9647   0.9646   0.9641   0.9639   0.9636
     0.9629   0.9623   0.9623   0.9615   0.9610   0.9609   0.9605   0.9605
     0.9601   0.9596   0.9593   0.9592   0.9591   0.9585   0.9584   0.9581
     0.9577   0.9575   0.9569   0.9557   0.9551   0.9540   0.9536   0.9529
     0.9503   0.9475   0.9461   0.9439   0.9419   0.9410   0.9387   0.9373
     0.9365   0.9338   0.9338   0.9271   0.9197   0.8983   0.8858   0.8803
     0.8767   0.8756   0.8741   0.8698   0.8681   0.8677   0.8647   0.8598
     0.8533   0.8490   0.8476   0.8394   0.8352   0.8344   0.8299   0.8116
     0.8090   0.7879   0.7815   0.7711   0.7378   0.6840   0.6785   0.6004
     0.5902   0.5652   0.5447   0.4987   0.4704   0.4621   0.4522   0.4455
     0.4192   0.3895   0.3512   0.3363   0.2324   0.2057   0.1643   0.0804
     0.0723   0.0591   0.0336   0.0315   0.0301   0.0286   0.0247   0.0212
     0.0206   0.0195   0.0180   0.0169   0.0156   0.0153   0.0149   0.0134
     0.0133   0.0124   0.0103   0.0089   0.0080   0.0080   0.0070   0.0054
     0.0051   0.0044   0.0041   0.0040   0.0039   0.0038   0.0037   0.0032
     0.0031   0.0027   0.0019   0.0019   0.0016   0.0015   0.0012   0.0011
     0.0010   0.0010   0.0009   0.0008   0.0006   0.0006   0.0005   0.0005
     0.0004   0.0004   0.0004   0.0003   0.0003   0.0003   0.0002   0.0002
     0.0002   0.0002   0.0001   0.0001   0.0001   0.0001   0.0001   0.0001
     0.0001   0.0001   0.0000   0.0000   0.0000   0.0000   0.0000   0.0000
     0.0000   0.0000   0.0000   0.0000   0.0000   0.0000   0.0000   0.0000
     0.0000   0.0000   0.0000   0.0000   0.0000   0.0000   0.0000   0.0000
     0.0000   0.0000   0.0000   0.0000

          k =-0.5000-0.2165 0.0000 (256328 PWs)   bands (ev):

    -5.7531  -5.6375  -5.6070  -5.5787  -5.4350  -5.3993  -5.2804  -5.2491
    -5.2448  -5.2351  -5.2312  -5.2179  -5.1883  -5.1492  -5.1113  -5.1073
    -5.0822  -5.0720  -5.0303  -5.0204  -5.0075  -4.9821  -4.9567  -4.9235
    -4.9022  -4.8748  -4.8587  -4.7704  -4.7307  -4.6648  -4.6442  -4.6246
    -4.6162  -4.6079  -4.5955  -4.5502  -4.5406  -4.5198  -4.5067  -4.4776
    -4.4393  -4.4265  -4.3371  -4.2406  -4.1806  -4.1404  -4.1192  -4.0575
    -4.0454  -4.0364  -4.0009  -3.9853  -3.9432  -3.9180  -3.9101  -3.8986
    -3.8841  -3.8801  -3.8657  -3.8529  -3.8520  -3.7896  -3.7865  -3.7788
    -3.7671  -3.7612  -3.7347  -3.7150  -3.7009  -3.6908  -3.6861  -3.6806
    -3.6577  -3.6479  -3.6323  -3.6320  -3.6096  -3.6075  -3.5435  -3.5164
    -3.4891  -3.4712  -3.4642  -3.4491  -3.3935  -3.3198  -3.2688  -3.2020
    -3.1238  -3.0734  -3.0639  -3.0252  -3.0233  -3.0002  -2.9501  -2.9331
    -2.8931  -2.8606  -2.8168  -2.8003  -2.7893  -2.7838  -2.7663  -2.7577
    -2.7520  -2.7459  -2.7410  -2.7195  -2.7095  -2.6910  -2.6854  -2.6794
    -2.6740  -2.6585  -2.6423  -2.6397  -2.6338  -2.6293  -2.6242  -2.6091
    -2.6082  -2.6006  -2.5953  -2.5792  -2.5592  -2.5398  -2.5277  -2.5114
    -2.4929  -2.4564  -2.4492  -2.4328  -2.3720  -2.3636  -2.3535  -2.3456
    -2.3370  -2.3142  -2.2991  -2.2831  -2.2681  -2.2466  -2.2437  -2.2249
    -2.1673  -2.1653  -2.1377  -2.1155  -2.1110  -2.1022  -2.0975  -2.0807
    -2.0704  -2.0584  -2.0571  -2.0515  -1.9967  -1.9810  -1.9779  -1.9746
    -1.9405  -1.9067  -1.8631  -1.8563  -1.8459  -1.8394  -1.8384  -1.8260
    -1.8235  -1.8084  -1.8071  -1.8021  -1.7909  -1.7747  -1.7360  -1.7142
    -1.6881  -1.6670  -1.6012  -1.5919  -1.5795  -1.5654  -1.5370  -1.5271
    -1.5164  -1.5119  -1.4985  -1.4937  -1.4784  -1.4632  -1.4470  -1.4402
    -1.4204  -1.4181  -1.4115  -1.4011  -1.3858  -1.3751  -1.3576  -1.3538
    -1.3376  -1.3276  -1.3195  -1.3172  -1.2968  -1.2835  -1.2780  -1.2586
    -1.2500  -1.2422  -1.2405  -1.2286  -1.2202  -1.2109  -1.1866  -1.1790
    -1.1644  -1.1485  -1.1432  -1.1320  -1.1273  -1.1135  -1.1078  -1.0980
    -1.0902  -1.0852  -1.0791  -1.0752  -1.0694  -1.0669  -1.0584  -1.0560
    -1.0556  -1.0494  -1.0431  -1.0418  -1.0328  -1.0253  -1.0247  -1.0129
    -1.0015  -1.0003  -0.9921  -0.9786  -0.9746  -0.9717  -0.9662  -0.9591
    -0.9563  -0.9474  -0.9407  -0.9284  -0.9251  -0.9190  -0.9128  -0.9048
    -0.8999  -0.8930  -0.8770  -0.8707  -0.8627  -0.8580  -0.8553  -0.8479
    -0.8456  -0.8436  -0.8372  -0.8347  -0.8279  -0.8254  -0.8123  -0.8083
    -0.7982  -0.7930  -0.7788  -0.7685  -0.7585  -0.7535  -0.7483  -0.7422
    -0.7332  -0.7180  -0.6985  -0.6787  -0.6687  -0.6612  -0.6491  -0.6268
    -0.6154  -0.6111  -0.5895  -0.5876  -0.5797  -0.5789  -0.5708  -0.5623
    -0.5599  -0.5515  -0.5399  -0.5351  -0.5302  -0.5163  -0.5007  -0.4904
    -0.4685  -0.4491  -0.4251  -0.4104  -0.4026  -0.3958  -0.3868  -0.3820
    -0.3779  -0.3768  -0.3576  -0.3543  -0.3436  -0.3377  -0.3265  -0.3214
    -0.3118  -0.3104  -0.2996  -0.2956  -0.2891  -0.2753  -0.2706  -0.2661
    -0.2647  -0.2612  -0.2512  -0.2473  -0.2437  -0.2387  -0.2374  -0.2316
    -0.2292  -0.2199  -0.2171  -0.2150  -0.2126  -0.2110  -0.2085  -0.2039
    -0.2003  -0.1989  -0.1952  -0.1920  -0.1837  -0.1748  -0.1711  -0.1641
    -0.1627  -0.1561  -0.1521  -0.1446  -0.1412  -0.1362  -0.1265  -0.1223
    -0.1138  -0.1064  -0.1040  -0.0970  -0.0940  -0.0904  -0.0892  -0.0882
    -0.0808  -0.0747  -0.0717  -0.0659  -0.0601  -0.0577  -0.0487  -0.0463
    -0.0400  -0.0348  -0.0325  -0.0225  -0.0197  -0.0168  -0.0154  -0.0085
    -0.0056  -0.0014   0.0004   0.0063   0.0089   0.0114   0.0130   0.0164
     0.0197   0.0210   0.0226   0.0246   0.0290   0.0316   0.0364   0.0381
     0.0395   0.0420   0.0456   0.0463   0.0486   0.0521   0.0540   0.0565
     0.0575   0.0602   0.0624   0.0645   0.0664   0.0668   0.0720   0.0725
     0.0752   0.0766   0.0829   0.0870   0.0931   0.0947   0.0974   0.1001
     0.1006   0.1051   0.1077   0.1088   0.1141   0.1194   0.1228   0.1266
     0.1289   0.1345   0.1391   0.1398   0.1518   0.1545   0.1566   0.1641
     0.1799   0.1859   0.1882   0.1949   0.1991   0.2062   0.2094   0.2124
     0.2168   0.2193   0.2237   0.2269   0.2295   0.2338   0.2388   0.2423
     0.2427   0.2447   0.2503   0.2599   0.2645   0.2744   0.2805   0.2824
     0.2894   0.2920   0.2956   0.3044   0.3086   0.3117   0.3169   0.3246
     0.3274   0.3304   0.3336   0.3372   0.3460   0.3495   0.3547   0.3551
     0.3603   0.3673   0.3730   0.3742   0.3807   0.3847   0.3863   0.3892
     0.3950   0.4030   0.4033   0.4085   0.4100   0.4125   0.4133   0.4191
     0.4213   0.4255   0.4308   0.4357   0.4383   0.4458   0.4515   0.4579
     0.4584   0.4645   0.4687   0.4700   0.4713   0.4786   0.4831   0.4952
     0.5087   0.5118   0.5315   0.5452   0.5506   0.5749   0.5966   0.6286
     0.6819   0.7269   0.7433   0.7486   0.7865   0.8163   0.8756   0.8789
     0.8953   0.9037   0.9304   0.9433   0.9558   0.9755   0.9915   0.9999
     1.0201   1.0403   1.0687   1.1023   1.1062   1.1207   1.1224   1.1306
     1.1417   1.1520   1.1733   1.1758   1.1864   1.2084   1.8469   1.9360
     2.3933   2.4043   2.4452   2.4677   2.5810   2.6178   2.7160   2.7554
     2.8116   2.8400   2.8676   2.9772   2.9881   3.0129   3.0553   3.0718
     3.1016   3.1272   3.2170   3.3444   3.5240   3.6042   3.6522   3.7619
     3.9420   3.9717   4.0071   4.0299   4.0810   4.0979   4.1003   4.1276
     4.1413   4.1654   4.2399   4.2971   4.3385   4.4125   4.4620   4.4854
     4.5102   4.5535   4.5614   4.5737   4.6777   4.7048   4.7191   4.7455
     4.8059   4.8078   4.8917   4.9112   4.9331   4.9596   4.9771   5.0407
     5.0596   5.1349   5.1592   5.1631   5.1876   5.2447   5.2908   5.3202
     5.3548   5.3861   5.4191   5.4551   5.4657   5.5143   5.5620   5.6630
     5.7044   5.7322   5.7390   5.7488   5.8010   5.8696   5.9010   5.9119
     5.9483   5.9913   6.0053   6.0080   6.0196   6.0638   6.0658   6.0709
     6.0996   6.1136   6.1579   6.1694   6.1879   6.2230   6.2618   6.2839
     6.2967   6.3137   6.3429   6.3500   6.3916   6.4004   6.4053   6.4267
     6.4347   6.4594   6.4776   6.4890

     occupation numbers 
     1.0000   1.0000   1.0000   1.0000   1.0000   1.0000   1.0000   1.0000
     1.0000   1.0000   1.0000   1.0000   1.0000   1.0000   1.0000   1.0000
     1.0000   1.0000   1.0000   1.0000   1.0000   1.0000   1.0000   1.0000
     1.0000   1.0000   1.0000   1.0000   1.0000   1.0000   1.0000   1.0000
     1.0000   1.0000   1.0000   1.0000   1.0000   1.0000   1.0000   1.0000
     1.0000   1.0000   1.0000   1.0000   1.0000   1.0000   1.0000   1.0000
     1.0000   1.0000   1.0000   1.0000   1.0000   1.0000   1.0000   1.0000
     1.0000   1.0000   1.0000   1.0000   1.0000   1.0000   1.0000   1.0000
     1.0000   1.0000   1.0000   1.0000   1.0000   1.0000   1.0000   1.0000
     1.0000   1.0000   1.0000   1.0000   1.0000   1.0000   1.0000   1.0000
     1.0000   1.0000   1.0000   1.0000   1.0000   1.0000   1.0000   1.0000
     1.0000   1.0000   1.0000   1.0000   1.0000   1.0000   1.0000   1.0000
     1.0000   1.0000   1.0000   1.0000   1.0000   1.0000   1.0000   1.0000
     1.0000   1.0000   1.0000   1.0000   1.0000   1.0000   1.0000   1.0000
     1.0000   1.0000   1.0000   1.0000   1.0000   1.0000   1.0000   1.0000
     1.0000   1.0000   1.0000   1.0000   1.0000   1.0000   1.0000   1.0000
     1.0000   1.0000   1.0000   1.0000   1.0000   1.0000   1.0000   1.0000
     1.0000   1.0000   1.0000   1.0000   1.0000   1.0000   1.0000   1.0000
     1.0000   1.0000   1.0000   1.0000   1.0000   1.0000   1.0000   1.0000
     1.0000   1.0000   1.0000   1.0000   1.0000   1.0000   1.0000   1.0000
     1.0000   1.0000   1.0000   1.0000   1.0000   1.0000   1.0000   1.0000
     1.0000   1.0000   1.0000   1.0000   1.0000   1.0000   1.0000   1.0000
     1.0000   1.0000   0.9999   0.9999   0.9999   0.9999   0.9999   0.9999
     0.9999   0.9999   0.9999   0.9999   0.9999   0.9999   0.9999   0.9999
     0.9999   0.9999   0.9999   0.9999   0.9999   0.9999   0.9998   0.9998
     0.9998   0.9998   0.9998   0.9998   0.9998   0.9998   0.9998   0.9998
     0.9998   0.9998   0.9998   0.9997   0.9997   0.9997   0.9997   0.9997
     0.9997   0.9997   0.9996   0.9996   0.9996   0.9996   0.9996   0.9996
     0.9996   0.9996   0.9995   0.9995   0.9995   0.9995   0.9995   0.9995
     0.9995   0.9995   0.9995   0.9995   0.9995   0.9994   0.9994   0.9994
     0.9994   0.9994   0.9994   0.9993   0.9993   0.9993   0.9993   0.9993
     0.9993   0.9993   0.9992   0.9992   0.9992   0.9992   0.9992   0.9991
     0.9991   0.9991   0.9991   0.9990   0.9990   0.9990   0.9990   0.9990
     0.9989   0.9989   0.9989   0.9989   0.9989   0.9989   0.9988   0.9988
     0.9988   0.9987   0.9987   0.9986   0.9986   0.9986   0.9985   0.9985
     0.9985   0.9984   0.9983   0.9981   0.9981   0.9980   0.9980   0.9978
     0.9977   0.9977   0.9975   0.9975   0.9974   0.9974   0.9974   0.9973
     0.9973   0.9972   0.9971   0.9970   0.9970   0.9969   0.9967   0.9966
     0.9964   0.9961   0.9958   0.9956   0.9955   0.9954   0.9953   0.9952
     0.9952   0.9952   0.9949   0.9948   0.9947   0.9946   0.9944   0.9943
     0.9941   0.9941   0.9939   0.9938   0.9937   0.9935   0.9934   0.9933
     0.9933   0.9932   0.9930   0.9929   0.9928   0.9927   0.9927   0.9926
     0.9925   0.9923   0.9923   0.9922   0.9922   0.9921   0.9921   0.9920
     0.9919   0.9919   0.9918   0.9917   0.9915   0.9913   0.9912   0.9910
     0.9910   0.9908   0.9907   0.9905   0.9904   0.9903   0.9900   0.9899
     0.9897   0.9895   0.9894   0.9892   0.9891   0.9890   0.9890   0.9889
     0.9887   0.9885   0.9884   0.9882   0.9880   0.9880   0.9877   0.9876
     0.9874   0.9872   0.9871   0.9868   0.9867   0.9866   0.9865   0.9863
     0.9862   0.9860   0.9859   0.9857   0.9856   0.9855   0.9855   0.9853
     0.9852   0.9852   0.9851   0.9850   0.9848   0.9847   0.9845   0.9845
     0.9844   0.9843   0.9842   0.9841   0.9840   0.9839   0.9838   0.9837
     0.9837   0.9836   0.9835   0.9834   0.9833   0.9833   0.9830   0.9830
     0.9829   0.9828   0.9826   0.9824   0.9821   0.9820   0.9819   0.9818
     0.9818   0.9815   0.9814   0.9814   0.9811   0.9809   0.9807   0.9805
     0.9804   0.9801   0.9799   0.9799   0.9792   0.9791   0.9790   0.9786
     0.9777   0.9774   0.9773   0.9769   0.9767   0.9762   0.9761   0.9759
     0.9756   0.9755   0.9752   0.9750   0.9749   0.9746   0.9743   0.9741
     0.9740   0.9739   0.9736   0.9729   0.9726   0.9720   0.9716   0.9714
     0.9710   0.9708   0.9705   0.9699   0.9696   0.9694   0.9690   0.9685
     0.9683   0.9680   0.9678   0.9675   0.9669   0.9666   0.9662   0.9661
     0.9657   0.9652   0.9647   0.9646   0.9641   0.9638   0.9636   0.9634
     0.9629   0.9622   0.9622   0.9618   0.9616   0.9614   0.9613   0.9608
     0.9606   0.9603   0.9598   0.9593   0.9591   0.9584   0.9579   0.9573
     0.9572   0.9567   0.9563   0.9561   0.9560   0.9553   0.9549   0.9537
     0.9523   0.9520   0.9499   0.9484   0.9478   0.9450   0.9425   0.9385
     0.9315   0.9251   0.9227   0.9219   0.9160   0.9111   0.9008   0.9002
     0.8972   0.8956   0.8905   0.8879   0.8854   0.8814   0.8781   0.8763
     0.8720   0.8675   0.8611   0.8532   0.8523   0.8488   0.8484   0.8463
     0.8436   0.8410   0.8356   0.8349   0.8322   0.8264   0.6089   0.5729
     0.3853   0.3809   0.3649   0.3561   0.3132   0.2998   0.2653   0.2521
     0.2338   0.2248   0.2164   0.1845   0.1815   0.1747   0.1636   0.1594
     0.1520   0.1458   0.1255   0.1002   0.0712   0.0605   0.0548   0.0433
     0.0286   0.0267   0.0245   0.0231   0.0204   0.0195   0.0194   0.0181
     0.0175   0.0164   0.0135   0.0116   0.0103   0.0084   0.0073   0.0068
     0.0064   0.0056   0.0055   0.0053   0.0038   0.0035   0.0034   0.0031
     0.0026   0.0025   0.0019   0.0018   0.0017   0.0015   0.0015   0.0012
     0.0011   0.0008   0.0008   0.0008   0.0007   0.0006   0.0005   0.0004
     0.0004   0.0003   0.0003   0.0003   0.0002   0.0002   0.0002   0.0001
     0.0001   0.0001   0.0001   0.0001   0.0001   0.0000   0.0000   0.0000
     0.0000   0.0000   0.0000   0.0000   0.0000   0.0000   0.0000   0.0000
     0.0000   0.0000   0.0000   0.0000   0.0000   0.0000   0.0000   0.0000
     0.0000   0.0000   0.0000   0.0000   0.0000   0.0000   0.0000   0.0000
     0.0000   0.0000   0.0000   0.0000

     the Fermi energy is     2.1128 ev

!    total energy              =  -12130.51451730 Ry
     Harris-Foulkes estimate   =  -12130.51451730 Ry
     estimated scf accuracy    <          3.8E-11 Ry

     The total energy is the sum of the following terms:

     one-electron contribution =  -20940.32636100 Ry
     hartree contribution      =   11714.63319125 Ry
     xc contribution           =   -4287.62355827 Ry
     ewald contribution        =    1388.05714027 Ry
     Dispersion Correction     =      -1.23106399 Ry
     smearing contrib. (-TS)   =      -4.02386555 Ry

     convergence has been achieved in  26 iterations

     Writing output data file copper.save
 
     init_run     :     64.84s CPU     70.12s WALL (       1 calls)
     electrons    :   4422.34s CPU   4760.15s WALL (       1 calls)

     Called by init_run:
     wfcinit      :     62.93s CPU     67.87s WALL (       1 calls)
     potinit      :      0.14s CPU      0.17s WALL (       1 calls)

     Called by electrons:
     c_bands      :   3989.01s CPU   4285.86s WALL (      26 calls)
     sum_band     :    411.35s CPU    446.57s WALL (      26 calls)
     v_of_rho     :      1.87s CPU      2.18s WALL (      27 calls)
     v_h          :      0.14s CPU      0.21s WALL (      27 calls)
     v_xc         :      1.73s CPU      1.97s WALL (      27 calls)
     newd         :      5.18s CPU      8.16s WALL (      27 calls)
     mix_rho      :     14.88s CPU     17.31s WALL (      26 calls)

     Called by c_bands:
     init_us_2    :     21.23s CPU     21.47s WALL (     318 calls)
     cegterg      :   3894.35s CPU   4188.40s WALL (     156 calls)

     Called by sum_band:
     sum_band:bec :      2.30s CPU      2.72s WALL (     156 calls)
     addusdens    :      4.89s CPU      7.81s WALL (      26 calls)

     Called by *egterg:
     h_psi        :   1779.32s CPU   1923.83s WALL (     788 calls)
     s_psi        :    430.54s CPU    435.33s WALL (     788 calls)
     g_psi        :      4.18s CPU      4.17s WALL (     626 calls)
     cdiaghg      :    804.11s CPU    836.01s WALL (     782 calls)
     cegterg:over :    349.43s CPU    354.47s WALL (     626 calls)
     cegterg:upda :    270.54s CPU    305.50s WALL (     626 calls)
     cegterg:last :    196.41s CPU    204.71s WALL (     162 calls)
     cdiaghg:chol :     34.40s CPU     35.79s WALL (     782 calls)
     cdiaghg:inve :     37.00s CPU     37.06s WALL (     782 calls)
     cdiaghg:para :     60.80s CPU     78.33s WALL (    1564 calls)

     Called by h_psi:
     h_psi:vloc   :    893.01s CPU   1028.47s WALL (     788 calls)
     h_psi:vnl    :    876.25s CPU    885.28s WALL (     788 calls)
     add_vuspsi   :    432.92s CPU    438.58s WALL (     788 calls)

     General routines
     calbec       :    629.29s CPU    634.19s WALL (     944 calls)
     fft          :      2.43s CPU      2.74s WALL (     350 calls)
     ffts         :      8.37s CPU      9.56s WALL (    2275 calls)
     fftw         :   1041.24s CPU   1169.42s WALL (  578640 calls)
 
     Parallel routines
     fft_scatter  :    672.58s CPU    725.22s WALL (  581265 calls)
 
     PWSCF        :     1h15m CPU        1h21m WALL

 
   This run was terminated on:  18:18:27   7Apr2017            

=------------------------------------------------------------------------------=
   JOB DONE.
=------------------------------------------------------------------------------=
