
     Program PWSCF v.5.4.0 starts on 21Mar2017 at  6:54:30 

     This program is part of the open-source Quantum ESPRESSO suite
     for quantum simulation of materials; please cite
         "P. Giannozzi et al., J. Phys.:Condens. Matter 21 395502 (2009);
          URL http://www.quantum-espresso.org", 
     in publications or presentations arising from this work. More details at
     http://www.quantum-espresso.org/quote

     Parallel version (MPI & OpenMP), running on      56 processor cores
     Number of MPI processes:                56
     Threads/MPI process:                     1
     R & G space division:  proc/nbgrp/npool/nimage =      56
     Waiting for input...
     Reading input from standard input

     Current dimensions of program PWSCF are:
     Max number of different atomic species (ntypx) = 10
     Max number of k-points (npk) =  40000
     Max angular momentum in pseudopotentials (lmaxx) =  3

     -------------------------------------
     Parameters for Dispersion Correction:
     -------------------------------------
       atom      VdW radius       C_6     

        Cu         2.952        374.666
        C          2.744         60.710

     Subspace diagonalization in iterative solution of the eigenvalue problem:
     one sub-group per band group will be used
     scalapack distributed-memory algorithm (size of sub-group:  5*  5 procs)

 
     Parallelization info
     --------------------
     sticks:   dense  smooth     PW     G-vecs:    dense   smooth      PW
     Min         204     204     54                36612    36612    4962
     Max         205     205     55                36617    36617    4968
     Sum       11433   11433   3039              2050409  2050409  278033
 


     bravais-lattice index     =            0
     lattice parameter (alat)  =      13.9425  a.u.
     unit-cell volume          =   21209.0878 (a.u.)^3
     number of atoms/cell      =          149
     number of atomic types    =            2
     number of electrons       =      1296.00
     number of Kohn-Sham states=          778
     kinetic-energy cutoff     =      80.0000  Ry
     charge density cutoff     =     320.0000  Ry
     convergence threshold     =      1.0E-08
     mixing beta               =       0.7000
     number of iterations used =            8  local-TF  mixing
     Exchange-correlation      =  SLA  PW   PBX  PBC ( 1  4  3  4 0 0)
     nstep                     =           50


     celldm(1)=  13.942539  celldm(2)=   0.000000  celldm(3)=   0.000000
     celldm(4)=   0.000000  celldm(5)=   0.000000  celldm(6)=   0.000000

     crystal axes: (cart. coord. in units of alat)
               a(1) = (   1.000000   0.000000   0.000000 )  
               a(2) = (   0.000000   2.309401   0.000000 )  
               a(3) = (   0.000000   0.000000   3.388418 )  

     reciprocal axes: (cart. coord. in units 2 pi/alat)
               b(1) = (  1.000000  0.000000  0.000000 )  
               b(2) = (  0.000000  0.433013  0.000000 )  
               b(3) = (  0.000000  0.000000  0.295123 )  


     PseudoPot. # 1 for Cu read from file:
     /home/549/hxw549/Short/pseudopotentials/Cu.pbe-n-van_ak.UPF
     MD5 check sum: 601f7c30f7467666bec936e0661ce3e1
     Pseudo is Ultrasoft + core correction, Zval = 11.0
     Generated by new atomic code, or converted to UPF format
     Using radial grid of  867 points,  6 beta functions with: 
                l(1) =   0
                l(2) =   0
                l(3) =   1
                l(4) =   1
                l(5) =   2
                l(6) =   2
     Q(r) pseudized with  8 coefficients,  rinner =    1.400   1.400   1.400
                                                       1.400   1.400

     PseudoPot. # 2 for C  read from file:
     /home/549/hxw549/Short/pseudopotentials/C.pbe-mt_gipaw.UPF
     MD5 check sum: 5ac2f21f2c440b14befe521540822c15
     Pseudo is Norm-conserving, Zval =  4.0
     Generated by new atomic code, or converted to UPF format
     Using radial grid of 1073 points,  1 beta functions with: 
                l(1) =   0

     atomic species   valence    mass     pseudopotential
        Cu            11.00    63.54600     Cu( 1.00)
        C              4.00    12.01070     C ( 1.00)

     No symmetry found



   Cartesian axes

     site n.     atom                  positions (alat units)
         1           Cu  tau(   1) = (   0.0002730  -0.0025987   0.9957964  )
         2           Cu  tau(   2) = (   0.2504861   0.2283680   0.9952326  )
         3           Cu  tau(   3) = (   0.5003175  -0.0027253   0.9958411  )
         4           Cu  tau(   4) = (   0.7503843   0.2287601   0.9959641  )
         5           Cu  tau(   5) = (   0.0006361   0.4599771   0.9958843  )
         6           Cu  tau(   6) = (   0.2507910   0.6920010   0.9967098  )
         7           Cu  tau(   7) = (   0.5006612   0.4603299   0.9957704  )
         8           Cu  tau(   8) = (   0.7508266   0.6918249   0.9958047  )
         9           Cu  tau(   9) = (   0.0009827   0.9238327   0.9964305  )
        10           Cu  tau(  10) = (   0.2508510   1.1554382   0.9964338  )
        11           Cu  tau(  11) = (   0.5007785   0.9238006   0.9962692  )
        12           Cu  tau(  12) = (   0.7508180   1.1557952   0.9956580  )
        13           Cu  tau(  13) = (   0.0007594   1.3869747   0.9960331  )
        14           Cu  tau(  14) = (   0.2505627   1.6175684   0.9961368  )
        15           Cu  tau(  15) = (   0.5006221   1.3865938   0.9961017  )
        16           Cu  tau(  16) = (   0.7504163   1.6165330   0.9972109  )
        17           Cu  tau(  17) = (   0.0000626   1.8463702   0.9970112  )
        18           Cu  tau(  18) = (   0.2501657   2.0758021   0.9964127  )
        19           Cu  tau(  19) = (   0.5006043   1.8466496   0.9970098  )
        20           Cu  tau(  20) = (   0.7503623   2.0765596   0.9962997  )
        21           Cu  tau(  21) = (   0.0005546   0.2281463   1.2436902  )
        22           Cu  tau(  22) = (   0.2506969  -0.0028429   1.2437829  )
        23           Cu  tau(  23) = (   0.5013626   0.2279800   1.2433116  )
        24           Cu  tau(  24) = (   0.7507292  -0.0028357   1.2446184  )
        25           Cu  tau(  25) = (   0.0012772   0.6917617   1.2434694  )
        26           Cu  tau(  26) = (   0.2511366   0.4587946   1.2425759  )
        27           Cu  tau(  27) = (   0.5018150   0.6917748   1.2437281  )
        28           Cu  tau(  28) = (   0.7513318   0.4602466   1.2438215  )
        29           Cu  tau(  29) = (   0.0014722   1.1554764   1.2440634  )
        30           Cu  tau(  30) = (   0.2517297   0.9238479   1.2444970  )
        31           Cu  tau(  31) = (   0.5017876   1.1553640   1.2442500  )
        32           Cu  tau(  32) = (   0.7516350   0.9239247   1.2433400  )
        33           Cu  tau(  33) = (   0.0007644   1.6158075   1.2466813  )
        34           Cu  tau(  34) = (   0.2512779   1.3869741   1.2440690  )
        35           Cu  tau(  35) = (   0.5014148   1.6161318   1.2462665  )
        36           Cu  tau(  36) = (   0.7514824   1.3854180   1.2457891  )
        37           Cu  tau(  37) = (   0.0007436   2.0761178   1.2452136  )
        38           Cu  tau(  38) = (   0.2507554   1.8457613   1.2469684  )
        39           Cu  tau(  39) = (   0.5005674   2.0762704   1.2454118  )
        40           Cu  tau(  40) = (   0.7508631   1.8462840   1.2464037  )
        41           Cu  tau(  41) = (   0.0013511  -0.0031944   1.4935394  )
        42           Cu  tau(  42) = (   0.2518469   0.2272019   1.4917108  )
        43           Cu  tau(  43) = (   0.5017510  -0.0029604   1.4940903  )
        44           Cu  tau(  44) = (   0.7518070   0.2282896   1.4934447  )
        45           Cu  tau(  45) = (   0.0013510   0.4597908   1.4925131  )
        46           Cu  tau(  46) = (   0.2526428   0.6887408   1.4894950  )
        47           Cu  tau(  47) = (   0.5031862   0.4584790   1.4909699  )
        48           Cu  tau(  48) = (   0.7536560   0.6920259   1.4929977  )
        49           Cu  tau(  49) = (   0.0022461   0.9233789   1.4922945  )
        50           Cu  tau(  50) = (   0.2529459   1.1569519   1.4917733  )
        51           Cu  tau(  51) = (   0.5049219   0.9234085   1.4924057  )
        52           Cu  tau(  52) = (   0.7540044   1.1531794   1.4955438  )
        53           Cu  tau(  53) = (   0.0020984   1.3833166   1.4974054  )
        54           Cu  tau(  54) = (   0.2521577   1.6135233   1.4975004  )
        55           Cu  tau(  55) = (   0.5036553   1.3845731   1.4953340  )
        56           Cu  tau(  56) = (   0.7523888   1.6148143   1.4971564  )
        57           Cu  tau(  57) = (   0.0021241   1.8458843   1.4963923  )
        58           Cu  tau(  58) = (   0.2514005   2.0769889   1.4958984  )
        59           Cu  tau(  59) = (   0.5013509   1.8460558   1.4964212  )
        60           Cu  tau(  60) = (   0.7515902   2.0759292   1.4957530  )
        61           Cu  tau(  61) = (   0.0021787   0.2272055   1.7404128  )
        62           Cu  tau(  62) = (   0.2529743  -0.0013091   1.7447575  )
        63           Cu  tau(  63) = (   0.5037057   0.2278938   1.7414504  )
        64           Cu  tau(  64) = (   0.7521510  -0.0027551   1.7438864  )
        65           Cu  tau(  65) = (   0.0069778   0.6921145   1.7430228  )
        66           Cu  tau(  66) = (   0.2536422   0.4575237   1.7381428  )
        67           Cu  tau(  67) = (   0.5055423   0.6890705   1.7370195  )
        68           Cu  tau(  68) = (   0.7549733   0.4605229   1.7422339  )
        69           Cu  tau(  69) = (   0.0084613   1.1483913   1.7498885  )
        70           Cu  tau(  70) = (   0.2557600   0.9217292   1.7278725  )
        71           Cu  tau(  71) = (   0.5064610   1.1522587   1.7429035  )
        72           Cu  tau(  72) = (   0.7594164   0.9210898   1.7474783  )
        73           Cu  tau(  73) = (   0.0041251   1.6138955   1.7458785  )
        74           Cu  tau(  74) = (   0.2549577   1.3794064   1.7493098  )
        75           Cu  tau(  75) = (   0.5038989   1.6137526   1.7446138  )
        76           Cu  tau(  76) = (   0.7565609   1.3807688   1.7474267  )
        77           Cu  tau(  77) = (   0.0027505   2.0770470   1.7461019  )
        78           Cu  tau(  78) = (   0.2527620   1.8456723   1.7458894  )
        79           Cu  tau(  79) = (   0.5023602   2.0768685   1.7460362  )
        80           Cu  tau(  80) = (   0.7532039   1.8457452   1.7461547  )
        81           Cu  tau(  81) = (   0.0051312   0.0006980   1.9905919  )
        82           Cu  tau(  82) = (   0.2557489   0.2327406   1.9889401  )
        83           Cu  tau(  83) = (   0.5017047  -0.0008858   1.9922326  )
        84           Cu  tau(  84) = (   0.7536204   0.2262048   1.9892747  )
        85           Cu  tau(  85) = (   0.0027229   0.4555267   1.9859610  )
        86           Cu  tau(  86) = (   0.2597276   0.6762838   1.9856981  )
        87           Cu  tau(  87) = (   0.5121832   0.4574195   1.9866033  )
        88           Cu  tau(  88) = (   0.7619300   0.6915606   1.9917970  )
        89           Cu  tau(  89) = (   0.0238160   0.9151142   2.0091388  )
        90           Cu  tau(  90) = (   0.2642372   1.1510055   2.0042795  )
        91           Cu  tau(  91) = (   0.5144693   0.9170302   1.9824016  )
        92           Cu  tau(  92) = (   0.7626467   1.1467930   1.9952464  )
        93           Cu  tau(  93) = (   0.0074853   1.3814079   1.9935025  )
        94           Cu  tau(  94) = (   0.2544769   1.6132452   1.9910540  )
        95           Cu  tau(  95) = (   0.5099004   1.3840165   1.9908899  )
        96           Cu  tau(  96) = (   0.7570710   1.6135788   1.9915349  )
        97           Cu  tau(  97) = (   0.0035776   1.8455768   1.9927781  )
        98           Cu  tau(  98) = (   0.2533605   2.0765775   1.9917459  )
        99           Cu  tau(  99) = (   0.5045489   1.8439599   1.9904292  )
       100           Cu  tau( 100) = (   0.7533412   2.0781571   1.9917171  )
       101           C   tau( 101) = (  -0.0032009   0.1004819   2.3901963  )
       102           C   tau( 102) = (  -0.0038335   0.2931571   2.3917834  )
       103           C   tau( 103) = (   0.1635904   0.0042000   2.3888917  )
       104           C   tau( 104) = (   0.1627548   0.3892745   2.3892905  )
       105           C   tau( 105) = (   0.3300371   0.1001453   2.3863598  )
       106           C   tau( 106) = (   0.3294223   0.2928923   2.3851312  )
       107           C   tau( 107) = (   0.4968826   0.0040518   2.3850454  )
       108           C   tau( 108) = (   0.4955800   0.3895040   2.3824287  )
       109           C   tau( 109) = (   0.6635457   0.1005674   2.3873596  )
       110           C   tau( 110) = (   0.6629071   0.2934129   2.3861420  )
       111           C   tau( 111) = (   0.8302021   0.0042901   2.3881498  )
       112           C   tau( 112) = (   0.8295159   0.3895225   2.3882993  )
       113           C   tau( 113) = (  -0.0050264   0.6785729   2.3928463  )
       114           C   tau( 114) = (  -0.0060341   0.8713741   2.4050790  )
       115           C   tau( 115) = (   0.1624456   0.5821419   2.3865129  )
       116           C   tau( 116) = (   0.1580116   0.9690349   2.4023655  )
       117           C   tau( 117) = (   0.3274075   0.6768190   2.3715067  )
       118           C   tau( 118) = (   0.3225249   0.8753522   2.3358089  )
       119           C   tau( 119) = (   0.4938479   0.5826968   2.3757759  )
       120           C   tau( 120) = (   0.4960503   0.9689828   2.3783488  )
       121           C   tau( 121) = (   0.2836818   0.9035777   2.1192775  )
       122           C   tau( 122) = (   0.6616125   0.6787200   2.3786601  )
       123           C   tau( 123) = (   0.6600543   0.8719675   2.3870985  )
       124           C   tau( 124) = (   0.8285931   0.5827702   2.3872627  )
       125           C   tau( 125) = (   0.8268965   0.9672638   2.4041749  )
       126           C   tau( 126) = (  -0.0050822   1.2559598   2.4068664  )
       127           C   tau( 127) = (  -0.0040245   1.4478625   2.3960994  )
       128           C   tau( 128) = (   0.1609069   1.1594095   2.4078004  )
       129           C   tau( 129) = (   0.1630810   1.5439261   2.3912553  )
       130           C   tau( 130) = (   0.3284923   1.2555244   2.3958463  )
       131           C   tau( 131) = (   0.3295368   1.4472818   2.3935899  )
       132           C   tau( 132) = (   0.4955078   1.1588612   2.3926043  )
       133           C   tau( 133) = (   0.4962318   1.5439890   2.3915350  )
       134           C   tau( 134) = (   0.6618352   1.2556895   2.3982127  )
       135           C   tau( 135) = (   0.6625975   1.4479749   2.3951880  )
       136           C   tau( 136) = (   0.8281674   1.1592939   2.4038528  )
       137           C   tau( 137) = (   0.8294129   1.5442612   2.3917115  )
       138           C   tau( 138) = (  -0.0028012   1.8327703   2.3824175  )
       139           C   tau( 139) = (  -0.0027173   2.0252105   2.3852215  )
       140           C   tau( 140) = (   0.1638499   1.7362619   2.3858032  )
       141           C   tau( 141) = (   0.1638822   2.1212254   2.3862218  )
       142           C   tau( 142) = (   0.3304188   1.8325112   2.3859819  )
       143           C   tau( 143) = (   0.3305651   2.0248633   2.3840161  )
       144           C   tau( 144) = (   0.4968085   1.7363107   2.3876560  )
       145           C   tau( 145) = (   0.4971194   2.1210552   2.3847981  )
       146           C   tau( 146) = (   0.6634985   1.8326503   2.3859919  )
       147           C   tau( 147) = (   0.6636414   2.0249890   2.3847852  )
       148           C   tau( 148) = (   0.8300514   1.7366847   2.3854543  )
       149           C   tau( 149) = (   0.8305294   2.1211887   2.3858000  )

     number of k points=     6  gaussian smearing, width (Ry)=  0.1000
                       cart. coord. in units 2pi/alat
        k(    1) = (   0.0000000   0.0000000   0.0000000), wk =   0.2500000
        k(    2) = (   0.0000000  -0.2165064   0.0000000), wk =   0.2500000
        k(    3) = (   0.2500000   0.0000000   0.0000000), wk =   0.5000000
        k(    4) = (   0.2500000  -0.2165064   0.0000000), wk =   0.5000000
        k(    5) = (  -0.5000000   0.0000000   0.0000000), wk =   0.2500000
        k(    6) = (  -0.5000000  -0.2165064   0.0000000), wk =   0.2500000

     Dense  grid:  2050409 G-vectors     FFT dimensions: (  80, 192, 270)

     Largest allocated arrays     est. size (Mb)     dimensions
        Kohn-Sham Wavefunctions        54.66 Mb     (    4604,  778)
        NL pseudopotentials           129.89 Mb     (    4604, 1849)
        Each V/rho on FFT grid          1.17 Mb     (   76800)
        Each G-vector array             0.28 Mb     (   36616)
        G-vector shells                 0.14 Mb     (   17932)
     Largest temporary arrays     est. size (Mb)     dimensions
        Auxiliary wavefunctions       218.62 Mb     (    4604, 3112)
        Each subspace H/S matrix        5.90 Mb     (     622,  622)
        Each <psi_i|beta_j> matrix     21.95 Mb     (    1849,  778)
        Arrays for rho mixing           9.38 Mb     (   76800,    8)

     Initial potential from superposition of free atoms
     Check: negative starting charge=   -0.001818

     starting charge 1270.31751, renormalised to 1296.00000

     negative rho (up, down):  1.855E-03 0.000E+00
     Starting wfc are 1292 randomized atomic wfcs

     total cpu time spent up to now is      108.2 secs

     Self-consistent Calculation

     iteration #  1     ecut=    80.00 Ry     beta=0.70
     Davidson diagonalization with overlap
     c_bands:  3 eigenvalues not converged
     ethr =  1.00E-04,  avg # of iterations = 21.2

     negative rho (up, down):  2.819E+01 0.000E+00

     total cpu time spent up to now is     1876.4 secs

     total energy              =   -9432.81239199 Ry
     Harris-Foulkes estimate   =  -17206.70899343 Ry
     estimated scf accuracy    <  178522.11782706 Ry

     iteration #  2     ecut=    80.00 Ry     beta=0.70
     Davidson diagonalization with overlap
     ethr =  1.00E-02,  avg # of iterations = 12.5

     negative rho (up, down):  3.173E+01 0.000E+00

     total cpu time spent up to now is     2787.9 secs

     total energy              =  -12282.88139041 Ry
     Harris-Foulkes estimate   =  -13645.49476590 Ry
     estimated scf accuracy    <   20475.42581140 Ry

     iteration #  3     ecut=    80.00 Ry     beta=0.70
     Davidson diagonalization with overlap
     ethr =  1.00E-02,  avg # of iterations =  6.8

     negative rho (up, down):  3.291E+01 0.000E+00

     total cpu time spent up to now is     3307.3 secs

     total energy              =  -12482.08627901 Ry
     Harris-Foulkes estimate   =  -13384.11758569 Ry
     estimated scf accuracy    <    6061.32678694 Ry

     iteration #  4     ecut=    80.00 Ry     beta=0.70
     Davidson diagonalization with overlap
     ethr =  1.00E-02,  avg # of iterations =  5.2

     negative rho (up, down):  2.776E+01 0.000E+00

     total cpu time spent up to now is     3771.4 secs

     total energy              =  -12827.55932375 Ry
     Harris-Foulkes estimate   =  -13134.99843851 Ry
     estimated scf accuracy    <    4405.40390044 Ry

     iteration #  5     ecut=    80.00 Ry     beta=0.70
     Davidson diagonalization with overlap
     ethr =  1.00E-02,  avg # of iterations =  4.8

     negative rho (up, down):  1.898E+01 0.000E+00

     total cpu time spent up to now is     4088.3 secs

     total energy              =  -12871.57061609 Ry
     Harris-Foulkes estimate   =  -13030.61442587 Ry
     estimated scf accuracy    <    1047.95298743 Ry

     iteration #  6     ecut=    80.00 Ry     beta=0.70
     Davidson diagonalization with overlap
     ethr =  1.00E-02,  avg # of iterations =  2.0

     negative rho (up, down):  1.268E+01 0.000E+00

     total cpu time spent up to now is     4305.9 secs

     total energy              =  -12844.66812067 Ry
     Harris-Foulkes estimate   =  -12909.87539606 Ry
     estimated scf accuracy    <     578.01824505 Ry

     iteration #  7     ecut=    80.00 Ry     beta=0.70
     Davidson diagonalization with overlap
     ethr =  1.00E-02,  avg # of iterations =  2.0

     negative rho (up, down):  8.945E+00 0.000E+00

     total cpu time spent up to now is     4482.4 secs

     total energy              =  -12817.56287597 Ry
     Harris-Foulkes estimate   =  -12863.82846777 Ry
     estimated scf accuracy    <     779.02409062 Ry

     iteration #  8     ecut=    80.00 Ry     beta=0.70
     Davidson diagonalization with overlap
     ethr =  1.00E-02,  avg # of iterations =  1.0

     negative rho (up, down):  8.474E+00 0.000E+00

     total cpu time spent up to now is     4647.2 secs

     total energy              =  -12819.05639656 Ry
     Harris-Foulkes estimate   =  -12829.96983247 Ry
     estimated scf accuracy    <     436.61156846 Ry

     iteration #  9     ecut=    80.00 Ry     beta=0.70
     Davidson diagonalization with overlap
     ethr =  1.00E-02,  avg # of iterations =  1.0

     negative rho (up, down):  7.144E+00 0.000E+00

     total cpu time spent up to now is     4811.9 secs

     total energy              =  -12806.89209689 Ry
     Harris-Foulkes estimate   =  -12822.95568272 Ry
     estimated scf accuracy    <     244.56270844 Ry

     iteration # 10     ecut=    80.00 Ry     beta=0.70
     Davidson diagonalization with overlap
     ethr =  1.00E-02,  avg # of iterations =  1.0

     negative rho (up, down):  2.392E+00 0.000E+00

     total cpu time spent up to now is     4976.5 secs

     total energy              =  -12757.72765361 Ry
     Harris-Foulkes estimate   =  -12809.39640914 Ry
     estimated scf accuracy    <     267.27601547 Ry

     iteration # 11     ecut=    80.00 Ry     beta=0.70
     Davidson diagonalization with overlap
     ethr =  1.00E-02,  avg # of iterations =  2.0

     negative rho (up, down):  1.689E+00 0.000E+00

     total cpu time spent up to now is     5153.4 secs

     total energy              =  -12745.25528803 Ry
     Harris-Foulkes estimate   =  -12767.92760541 Ry
     estimated scf accuracy    <     251.84773852 Ry

     iteration # 12     ecut=    80.00 Ry     beta=0.70
     Davidson diagonalization with overlap
     ethr =  1.00E-02,  avg # of iterations =  2.0

     negative rho (up, down):  9.624E-01 0.000E+00

     total cpu time spent up to now is     5330.4 secs

     total energy              =  -12734.20272979 Ry
     Harris-Foulkes estimate   =  -12758.23379488 Ry
     estimated scf accuracy    <     124.52811834 Ry

     iteration # 13     ecut=    80.00 Ry     beta=0.70
     Davidson diagonalization with overlap
     ethr =  9.61E-03,  avg # of iterations =  2.7

     negative rho (up, down):  3.228E+00 0.000E+00

     total cpu time spent up to now is     5515.2 secs

     total energy              =  -12724.04623502 Ry
     Harris-Foulkes estimate   =  -12744.25922298 Ry
     estimated scf accuracy    <     140.01977327 Ry

     iteration # 14     ecut=    80.00 Ry     beta=0.70
     Davidson diagonalization with overlap
     ethr =  9.61E-03,  avg # of iterations =  2.3

     negative rho (up, down):  7.051E+00 0.000E+00

     total cpu time spent up to now is     5695.6 secs

     total energy              =  -12723.31437498 Ry
     Harris-Foulkes estimate   =  -12730.81371663 Ry
     estimated scf accuracy    <      58.19392540 Ry

     iteration # 15     ecut=    80.00 Ry     beta=0.70
     Davidson diagonalization with overlap
     ethr =  4.49E-03,  avg # of iterations =  3.0

     negative rho (up, down):  5.316E+00 0.000E+00

     total cpu time spent up to now is     5883.9 secs

     total energy              =  -12721.46289120 Ry
     Harris-Foulkes estimate   =  -12725.07476974 Ry
     estimated scf accuracy    <      44.71351228 Ry

     iteration # 16     ecut=    80.00 Ry     beta=0.70
     Davidson diagonalization with overlap
     ethr =  3.45E-03,  avg # of iterations =  2.2

     negative rho (up, down):  4.119E+00 0.000E+00

     total cpu time spent up to now is     6061.5 secs

     total energy              =  -12719.24169507 Ry
     Harris-Foulkes estimate   =  -12722.61292746 Ry
     estimated scf accuracy    <      30.85056551 Ry

     iteration # 17     ecut=    80.00 Ry     beta=0.70
     Davidson diagonalization with overlap
     ethr =  2.38E-03,  avg # of iterations =  3.7

     negative rho (up, down):  3.882E+00 0.000E+00

     total cpu time spent up to now is     6256.3 secs

     total energy              =  -12717.73635292 Ry
     Harris-Foulkes estimate   =  -12720.17126835 Ry
     estimated scf accuracy    <      23.75609580 Ry

     iteration # 18     ecut=    80.00 Ry     beta=0.70
     Davidson diagonalization with overlap
     ethr =  1.83E-03,  avg # of iterations =  2.2

     negative rho (up, down):  2.344E+00 0.000E+00

     total cpu time spent up to now is     6435.9 secs

     total energy              =  -12716.54108242 Ry
     Harris-Foulkes estimate   =  -12718.64688401 Ry
     estimated scf accuracy    <      15.70470176 Ry

     iteration # 19     ecut=    80.00 Ry     beta=0.70
     Davidson diagonalization with overlap
     ethr =  1.21E-03,  avg # of iterations =  4.3

     negative rho (up, down):  2.380E+00 0.000E+00

     total cpu time spent up to now is     6641.2 secs

     total energy              =  -12715.18919079 Ry
     Harris-Foulkes estimate   =  -12717.29758617 Ry
     estimated scf accuracy    <      12.47454554 Ry

     iteration # 20     ecut=    80.00 Ry     beta=0.70
     Davidson diagonalization with overlap
     ethr =  9.63E-04,  avg # of iterations =  6.8

     negative rho (up, down):  3.371E+00 0.000E+00

     total cpu time spent up to now is     6884.7 secs

     total energy              =  -12714.99275947 Ry
     Harris-Foulkes estimate   =  -12715.68130840 Ry
     estimated scf accuracy    <      19.47317759 Ry

     iteration # 21     ecut=    80.00 Ry     beta=0.70
     Davidson diagonalization with overlap
     ethr =  9.63E-04,  avg # of iterations =  3.2

     negative rho (up, down):  2.414E+00 0.000E+00

     total cpu time spent up to now is     7074.5 secs

     total energy              =  -12714.92703930 Ry
     Harris-Foulkes estimate   =  -12715.43652777 Ry
     estimated scf accuracy    <       8.34957588 Ry

     iteration # 22     ecut=    80.00 Ry     beta=0.70
     Davidson diagonalization with overlap
     ethr =  6.44E-04,  avg # of iterations =  4.2

     negative rho (up, down):  2.226E+00 0.000E+00

     total cpu time spent up to now is     7275.8 secs

     total energy              =  -12713.61448006 Ry
     Harris-Foulkes estimate   =  -12715.15735294 Ry
     estimated scf accuracy    <       7.27849912 Ry

     iteration # 23     ecut=    80.00 Ry     beta=0.70
     Davidson diagonalization with overlap
     ethr =  5.62E-04,  avg # of iterations =  2.7

     negative rho (up, down):  1.703E+00 0.000E+00

     total cpu time spent up to now is     7460.1 secs

     total energy              =  -12712.83001824 Ry
     Harris-Foulkes estimate   =  -12713.96400337 Ry
     estimated scf accuracy    <      15.55401205 Ry

     iteration # 24     ecut=    80.00 Ry     beta=0.70
     Davidson diagonalization with overlap
     ethr =  5.62E-04,  avg # of iterations =  1.0

     negative rho (up, down):  9.009E-01 0.000E+00

     total cpu time spent up to now is     7625.2 secs

     total energy              =  -12711.82984481 Ry
     Harris-Foulkes estimate   =  -12713.09177986 Ry
     estimated scf accuracy    <       6.66296877 Ry

     iteration # 25     ecut=    80.00 Ry     beta=0.70
     Davidson diagonalization with overlap
     ethr =  5.14E-04,  avg # of iterations =  2.0

     negative rho (up, down):  4.653E-01 0.000E+00

     total cpu time spent up to now is     7801.9 secs

     total energy              =  -12710.85858435 Ry
     Harris-Foulkes estimate   =  -12712.32379145 Ry
     estimated scf accuracy    <      32.08937326 Ry

     iteration # 26     ecut=    80.00 Ry     beta=0.70
     Davidson diagonalization with overlap
     ethr =  5.14E-04,  avg # of iterations =  8.3

     negative rho (up, down):  4.407E-01 0.000E+00

     total cpu time spent up to now is     8052.9 secs

     total energy              =  -12710.23440632 Ry
     Harris-Foulkes estimate   =  -12711.68115521 Ry
     estimated scf accuracy    <       6.05017908 Ry

     iteration # 27     ecut=    80.00 Ry     beta=0.70
     Davidson diagonalization with overlap
     ethr =  4.67E-04,  avg # of iterations =  6.0

     negative rho (up, down):  1.009E+00 0.000E+00

     total cpu time spent up to now is     8280.1 secs

     total energy              =  -12710.02623144 Ry
     Harris-Foulkes estimate   =  -12710.56012897 Ry
     estimated scf accuracy    <       3.37723942 Ry

     iteration # 28     ecut=    80.00 Ry     beta=0.70
     Davidson diagonalization with overlap
     ethr =  2.61E-04,  avg # of iterations =  7.8

     negative rho (up, down):  8.122E-01 0.000E+00

     total cpu time spent up to now is     8555.1 secs

     total energy              =  -12710.17475337 Ry
     Harris-Foulkes estimate   =  -12710.28617323 Ry
     estimated scf accuracy    <       0.50839664 Ry

     iteration # 29     ecut=    80.00 Ry     beta=0.70
     Davidson diagonalization with overlap
     ethr =  3.92E-05,  avg # of iterations =  3.2

     negative rho (up, down):  7.831E-01 0.000E+00

     total cpu time spent up to now is     8748.2 secs

     total energy              =  -12710.17174450 Ry
     Harris-Foulkes estimate   =  -12710.22274856 Ry
     estimated scf accuracy    <       0.32185416 Ry

     iteration # 30     ecut=    80.00 Ry     beta=0.70
     Davidson diagonalization with overlap
     ethr =  2.48E-05,  avg # of iterations =  8.8

     negative rho (up, down):  6.593E-01 0.000E+00

     total cpu time spent up to now is     9030.4 secs

     total energy              =  -12710.16875759 Ry
     Harris-Foulkes estimate   =  -12710.19168383 Ry
     estimated scf accuracy    <       0.15274396 Ry

     iteration # 31     ecut=    80.00 Ry     beta=0.70
     Davidson diagonalization with overlap
     ethr =  1.18E-05,  avg # of iterations =  6.8

     negative rho (up, down):  5.376E-01 0.000E+00

     total cpu time spent up to now is     9265.7 secs

     total energy              =  -12710.16572131 Ry
     Harris-Foulkes estimate   =  -12710.17851614 Ry
     estimated scf accuracy    <       0.09488953 Ry

     iteration # 32     ecut=    80.00 Ry     beta=0.70
     Davidson diagonalization with overlap
     ethr =  7.32E-06,  avg # of iterations =  9.0

     negative rho (up, down):  1.882E-01 0.000E+00

     total cpu time spent up to now is     9547.3 secs

     total energy              =  -12710.14450921 Ry
     Harris-Foulkes estimate   =  -12710.17216434 Ry
     estimated scf accuracy    <       0.04900936 Ry

     iteration # 33     ecut=    80.00 Ry     beta=0.70
     Davidson diagonalization with overlap
     c_bands:  1 eigenvalues not converged
     c_bands:  1 eigenvalues not converged
     ethr =  3.78E-06,  avg # of iterations = 16.8

     negative rho (up, down):  8.980E-02 0.000E+00

     total cpu time spent up to now is     9965.4 secs

     total energy              =  -12710.14467004 Ry
     Harris-Foulkes estimate   =  -12710.15102564 Ry
     estimated scf accuracy    <       0.03044059 Ry

     iteration # 34     ecut=    80.00 Ry     beta=0.70
     Davidson diagonalization with overlap
     c_bands:  2 eigenvalues not converged
     c_bands:  1 eigenvalues not converged
     ethr =  2.35E-06,  avg # of iterations = 15.8

     negative rho (up, down):  6.886E-02 0.000E+00

     total cpu time spent up to now is    10343.9 secs

     total energy              =  -12710.14460658 Ry
     Harris-Foulkes estimate   =  -12710.14638168 Ry
     estimated scf accuracy    <       0.01404150 Ry

     iteration # 35     ecut=    80.00 Ry     beta=0.70
     Davidson diagonalization with overlap
     ethr =  1.08E-06,  avg # of iterations =  6.3

     negative rho (up, down):  3.403E-02 0.000E+00

     total cpu time spent up to now is    10589.3 secs

     total energy              =  -12710.14357623 Ry
     Harris-Foulkes estimate   =  -12710.14660571 Ry
     estimated scf accuracy    <       0.00985134 Ry

     iteration # 36     ecut=    80.00 Ry     beta=0.70
     Davidson diagonalization with overlap
     c_bands:  3 eigenvalues not converged
     ethr =  7.60E-07,  avg # of iterations = 14.8

     negative rho (up, down):  1.646E-02 0.000E+00

     total cpu time spent up to now is    10957.3 secs

     total energy              =  -12710.14441440 Ry
     Harris-Foulkes estimate   =  -12710.14474064 Ry
     estimated scf accuracy    <       0.00211264 Ry

     iteration # 37     ecut=    80.00 Ry     beta=0.70
     Davidson diagonalization with overlap
     ethr =  1.63E-07,  avg # of iterations =  9.5

     negative rho (up, down):  2.719E-03 0.000E+00

     total cpu time spent up to now is    11237.7 secs

     total energy              =  -12710.14439239 Ry
     Harris-Foulkes estimate   =  -12710.14457345 Ry
     estimated scf accuracy    <       0.00108884 Ry

     iteration # 38     ecut=    80.00 Ry     beta=0.70
     Davidson diagonalization with overlap
     c_bands:  1 eigenvalues not converged
     ethr =  8.40E-08,  avg # of iterations = 10.7

     negative rho (up, down):  1.933E-03 0.000E+00

     total cpu time spent up to now is    11551.6 secs

     total energy              =  -12710.14446838 Ry
     Harris-Foulkes estimate   =  -12710.14445311 Ry
     estimated scf accuracy    <       0.00005503 Ry

     iteration # 39     ecut=    80.00 Ry     beta=0.70
     Davidson diagonalization with overlap
     ethr =  4.25E-09,  avg # of iterations =  5.2

     negative rho (up, down):  2.876E-03 0.000E+00

     total cpu time spent up to now is    11788.7 secs

     total energy              =  -12710.14447702 Ry
     Harris-Foulkes estimate   =  -12710.14447445 Ry
     estimated scf accuracy    <       0.00003307 Ry

     iteration # 40     ecut=    80.00 Ry     beta=0.70
     Davidson diagonalization with overlap
     ethr =  2.55E-09,  avg # of iterations =  3.0

     negative rho (up, down):  2.659E-03 0.000E+00

     total cpu time spent up to now is    11983.6 secs

     total energy              =  -12710.14447775 Ry
     Harris-Foulkes estimate   =  -12710.14447980 Ry
     estimated scf accuracy    <       0.00001008 Ry

     iteration # 41     ecut=    80.00 Ry     beta=0.70
     Davidson diagonalization with overlap
     ethr =  7.78E-10,  avg # of iterations =  2.7

     negative rho (up, down):  1.897E-03 0.000E+00

     total cpu time spent up to now is    12179.8 secs

     total energy              =  -12710.14447818 Ry
     Harris-Foulkes estimate   =  -12710.14447902 Ry
     estimated scf accuracy    <       0.00000382 Ry

     iteration # 42     ecut=    80.00 Ry     beta=0.70
     Davidson diagonalization with overlap
     ethr =  2.95E-10,  avg # of iterations =  3.2

     negative rho (up, down):  1.916E-03 0.000E+00

     total cpu time spent up to now is    12387.6 secs

     total energy              =  -12710.14447904 Ry
     Harris-Foulkes estimate   =  -12710.14447862 Ry
     estimated scf accuracy    <       0.00000098 Ry

     iteration # 43     ecut=    80.00 Ry     beta=0.70
     Davidson diagonalization with overlap
     ethr =  7.53E-11,  avg # of iterations =  3.0

     negative rho (up, down):  1.884E-03 0.000E+00

     total cpu time spent up to now is    12585.4 secs

     total energy              =  -12710.14447914 Ry
     Harris-Foulkes estimate   =  -12710.14447912 Ry
     estimated scf accuracy    <       0.00000019 Ry

     iteration # 44     ecut=    80.00 Ry     beta=0.70
     Davidson diagonalization with overlap
     ethr =  1.44E-11,  avg # of iterations =  3.0

     negative rho (up, down):  1.905E-03 0.000E+00

     total cpu time spent up to now is    12824.1 secs

     total energy              =  -12710.14447917 Ry
     Harris-Foulkes estimate   =  -12710.14447917 Ry
     estimated scf accuracy    <       0.00000007 Ry

     iteration # 45     ecut=    80.00 Ry     beta=0.70
     Davidson diagonalization with overlap
     ethr =  5.48E-12,  avg # of iterations =  3.0

     negative rho (up, down):  1.920E-03 0.000E+00

     total cpu time spent up to now is    13029.5 secs

     total energy              =  -12710.14447918 Ry
     Harris-Foulkes estimate   =  -12710.14447917 Ry
     estimated scf accuracy    <       0.00000001 Ry

     iteration # 46     ecut=    80.00 Ry     beta=0.70
     Davidson diagonalization with overlap
     ethr =  1.07E-12,  avg # of iterations =  3.0

     negative rho (up, down):  1.893E-03 0.000E+00

     total cpu time spent up to now is    13222.2 secs

     End of self-consistent calculation

          k = 0.0000 0.0000 0.0000 (256287 PWs)   bands (ev):

   -16.0318 -15.6693 -15.6436 -14.5697 -14.5345 -14.0816 -14.0579 -13.7464
   -13.7003 -13.6940 -13.6745 -12.7857 -12.7382 -12.6656 -12.6351 -12.6195
   -12.6074 -11.0240 -10.9455 -10.9246 -10.9172 -10.7477  -9.7319  -9.2612
    -9.0555  -9.0414  -9.0314  -8.4230  -8.1682  -8.1570  -8.1444  -7.7440
    -7.1705  -7.1569  -7.1132  -7.0976  -7.0871  -7.0576  -7.0413  -6.9386
    -5.6857  -5.5701  -5.5514  -5.5341  -5.5082  -5.3889  -5.3835  -5.3619
    -5.3485  -5.1596  -5.1299  -4.6766  -4.3556  -4.2789  -4.2414  -4.2191
    -4.0283  -3.9622  -3.9004  -3.8306  -3.7829  -3.6680  -3.6260  -3.1807
    -3.1448  -3.1263  -3.0949  -3.0799  -3.0728  -3.0325  -2.9883  -2.9508
    -2.9302  -2.8328  -2.7734  -2.7492  -2.7306  -2.6879  -2.6809  -2.6584
    -2.6460  -2.5771  -2.5051  -2.4406  -2.4331  -2.3916  -2.2922  -2.2748
    -2.2678  -2.2629  -2.2501  -2.1761  -2.0674  -2.0421  -2.0289  -1.9809
    -1.9560  -1.8906  -1.8651  -1.8567  -1.8322  -1.8307  -1.8256  -1.8233
    -1.8127  -1.7213  -1.7031  -1.7018  -1.7004  -1.6882  -1.6862  -1.6016
    -1.5730  -1.5253  -1.5040  -1.4781  -1.4481  -1.4461  -1.4135  -1.4118
    -1.3787  -1.3632  -1.3445  -1.3315  -1.3235  -1.3127  -1.3054  -1.2631
    -1.2517  -1.2495  -1.2388  -1.2275  -1.2238  -1.2099  -1.1953  -1.1886
    -1.1844  -1.1689  -1.1561  -1.1389  -1.1121  -1.0847  -1.0399  -1.0254
    -1.0039  -0.9791  -0.9733  -0.9390  -0.9328  -0.9308  -0.9217  -0.8959
    -0.8855  -0.8851  -0.8668  -0.8615  -0.8400  -0.8335  -0.8237  -0.7912
    -0.7754  -0.7681  -0.7629  -0.7360  -0.7234  -0.7171  -0.7118  -0.7084
    -0.7055  -0.6991  -0.6925  -0.6912  -0.6879  -0.6758  -0.6721  -0.6600
    -0.6446  -0.6306  -0.6188  -0.6147  -0.6046  -0.5961  -0.5912  -0.5648
    -0.5552  -0.5501  -0.5453  -0.5382  -0.5349  -0.5325  -0.5305  -0.5282
    -0.5272  -0.5248  -0.5234  -0.5207  -0.5181  -0.5153  -0.5149  -0.5098
    -0.5065  -0.5027  -0.4716  -0.4487  -0.4350  -0.4081  -0.3797  -0.3689
    -0.3579  -0.3570  -0.3517  -0.3430  -0.3193  -0.3178  -0.3115  -0.3045
    -0.3024  -0.2988  -0.2812  -0.2808  -0.2687  -0.2577  -0.2543  -0.2483
    -0.2392  -0.2365  -0.2348  -0.2325  -0.2258  -0.2144  -0.1938  -0.1749
    -0.1722  -0.1678  -0.1343  -0.1201  -0.1159  -0.1083  -0.1034  -0.1004
    -0.0944  -0.0876  -0.0828  -0.0806  -0.0796  -0.0769  -0.0728  -0.0697
    -0.0677  -0.0630  -0.0602  -0.0593  -0.0447  -0.0332  -0.0272  -0.0255
    -0.0239   0.0174   0.0253   0.0282   0.0313   0.0374   0.0425   0.0569
     0.0597   0.0643   0.0651   0.0693   0.0714   0.0807   0.0838   0.0891
     0.0955   0.0974   0.1008   0.1058   0.1100   0.1134   0.1156   0.1223
     0.1246   0.1285   0.1346   0.1407   0.1459   0.1553   0.1678   0.1860
     0.1992   0.2010   0.2072   0.2256   0.2356   0.2462   0.2504   0.2580
     0.2595   0.2668   0.2684   0.2712   0.2746   0.2868   0.2948   0.3049
     0.3170   0.3203   0.3280   0.3348   0.3390   0.3410   0.3417   0.3448
     0.3476   0.3566   0.3584   0.3678   0.3725   0.3732   0.3764   0.3783
     0.3848   0.3882   0.3887   0.3925   0.4078   0.4123   0.4174   0.4235
     0.4299   0.4414   0.4505   0.4528   0.4597   0.4639   0.4711   0.4874
     0.5085   0.5093   0.5193   0.5376   0.5404   0.5483   0.5564   0.5623
     0.5683   0.5719   0.5741   0.5794   0.5838   0.5882   0.5923   0.5959
     0.6008   0.6242   0.6474   0.6506   0.6535   0.6643   0.6657   0.6716
     0.6741   0.6893   0.7038   0.7059   0.7078   0.7143   0.7191   0.7283
     0.7322   0.7388   0.7438   0.7447   0.7556   0.7590   0.7686   0.7871
     0.7898   0.7976   0.8056   0.8137   0.8194   0.8215   0.8271   0.8287
     0.8311   0.8378   0.8458   0.8498   0.8541   0.8577   0.8636   0.8640
     0.8657   0.8708   0.8764   0.8781   0.8809   0.8844   0.8876   0.9003
     0.9051   0.9170   0.9258   0.9282   0.9300   0.9355   0.9386   0.9551
     0.9599   0.9650   0.9697   0.9713   0.9723   0.9762   0.9788   0.9884
     0.9953   1.0003   1.0037   1.0094   1.0120   1.0125   1.0151   1.0233
     1.0272   1.0297   1.0350   1.0383   1.0450   1.0477   1.0532   1.0636
     1.0670   1.0687   1.0727   1.0732   1.0737   1.0758   1.0809   1.0819
     1.0952   1.1102   1.1249   1.1283   1.1350   1.1387   1.1431   1.1446
     1.1480   1.1526   1.1575   1.1579   1.1645   1.1749   1.1827   1.1958
     1.2047   1.2069   1.2088   1.2121   1.2157   1.2259   1.2287   1.2336
     1.2394   1.2437   1.2471   1.2563   1.2605   1.2647   1.2671   1.2709
     1.2747   1.2825   1.2901   1.2942   1.3011   1.3102   1.3122   1.3142
     1.3179   1.3210   1.3276   1.3312   1.3340   1.3361   1.3373   1.3432
     1.3498   1.3520   1.3529   1.3592   1.3604   1.3621   1.3675   1.3717
     1.3731   1.3866   1.3910   1.3934   1.3968   1.4067   1.4153   1.4227
     1.4270   1.4287   1.4343   1.4364   1.4375   1.4419   1.4428   1.4452
     1.4458   1.4557   1.4590   1.4629   1.4731   1.4848   1.4892   1.5041
     1.5057   1.5128   1.5161   1.5179   1.5196   1.5271   1.5290   1.5327
     1.5430   1.5446   1.5453   1.5484   1.5509   1.5550   1.5589   1.5615
     1.5665   1.5690   1.5797   1.5836   1.5864   1.5894   1.5923   1.5933
     1.5959   1.5996   1.6052   1.6125   1.6173   1.6212   1.6242   1.6242
     1.6283   1.6333   1.6342   1.6388   1.6411   1.6440   1.6465   1.6523
     1.6645   1.6717   1.6797   1.6822   1.6862   1.6891   1.6920   1.6958
     1.6984   1.7070   1.7112   1.7170   1.7206   1.7263   1.7295   1.7311
     1.7374   1.7398   1.7425   1.7442   1.7456   1.7509   1.7531   1.7563
     1.7566   1.7598   1.7620   1.7642   1.7663   1.7676   1.7755   1.7847
     1.7850   1.7858   1.7875   1.8001   1.8017   1.8153   1.8269   1.8383
     1.8429   1.8462   1.8493   1.8575   1.8614   1.8633   1.8786   1.8823
     1.8872   1.9073   1.9113   1.9296   1.9362   1.9375   1.9455   1.9512
     1.9536   1.9666   1.9693   1.9727   2.1802   2.1830   2.2820   2.3313
     2.4374   2.4492   2.4581   2.4870   2.5031   2.5094   2.5329   2.5334
     2.5430   2.5466   2.5631   2.6046   2.6772   2.6838   2.7342   2.7468
     2.7771   2.7828   2.7927   2.9017   3.0058   3.0285   3.0418   3.2606
     3.3663   3.3914   3.4477   3.4880   3.6251   3.7960   3.8939   3.9130
     4.1224   4.1499   4.1603   4.1645   4.1860   4.1962   4.2571   4.2836
     4.2941   4.3212   4.3237   4.3260   4.3349   4.3851   4.4143   4.5134
     4.5263   4.5573   4.6382   4.7027   4.8741   5.1370   5.1855   5.3272
     5.3356   5.4704   5.5470   5.6417   5.6865   5.7698   5.8848   6.0035
     6.0162   6.1556   6.2546   6.2648   6.2953   6.4932   6.6479   6.6999
     6.7417   6.7670   6.7749   6.8042   6.8464   6.9672   6.9772   7.0473
     7.0734   7.1072   7.1310   7.1626   7.1959   7.2434   7.3116   7.3670
     7.3888   7.4027   7.4229   7.5510   7.6711   7.6845   7.7341   7.8842
     7.9066   7.9140   7.9192   7.9783   7.9920   8.0093   8.0679   8.1419
     8.2511   8.3114   8.4531   8.5041   8.5116   8.5269   8.5675   8.5935
     8.6562   8.6637   8.6834   8.7054   8.7242   8.7954   8.8255   8.8423
     8.8742   8.9198   8.9325   8.9657   8.9768   9.0127   9.0634   9.1024
     9.1493   9.2725   9.3030   9.3146   9.3292   9.3402   9.3776   9.3954
     9.3979   9.4094   9.4221   9.4468   9.5466   9.6474   9.7717   9.8299
     9.8522   9.9087   9.9876  10.0728  10.0793  10.0864  10.1184  10.1765
    10.2770  10.2992

          k = 0.0000-0.2165 0.0000 (256176 PWs)   bands (ev):

   -15.9583 -15.9153 -15.2091 -15.1793 -13.9989 -13.9966 -13.9887 -13.9295
   -13.7510 -13.7144 -13.2980 -13.2533 -13.2418 -13.2257 -11.9183 -11.8610
   -11.8449 -11.8263 -11.6426 -11.6284 -10.0632  -9.9524  -9.9342  -9.9289
    -8.8971  -8.6753  -8.6365  -8.5494  -8.5264  -8.5044  -8.0136  -7.7097
    -7.6969  -7.6738  -7.4012  -6.5469  -6.5330  -6.4851  -6.4727  -6.3872
    -6.3588  -6.3383  -6.3205  -5.5838  -5.5623  -5.5346  -5.4973  -4.7565
    -4.7477  -4.7307  -4.6847  -4.6452  -4.5384  -4.5152  -4.3853  -4.2088
    -4.1739  -4.1641  -4.1439  -4.1355  -4.0873  -3.6901  -3.5050  -3.3854
    -3.2349  -3.0270  -2.9864  -2.9799  -2.9512  -2.9000  -2.8802  -2.8718
    -2.7597  -2.7351  -2.7038  -2.6676  -2.6231  -2.6165  -2.5962  -2.5000
    -2.4824  -2.4571  -2.4195  -2.4077  -2.3349  -2.3307  -2.2781  -2.2634
    -2.2622  -2.2584  -2.2499  -2.2461  -2.2298  -2.1480  -2.1351  -2.1131
    -1.9798  -1.9543  -1.9388  -1.9274  -1.9231  -1.8694  -1.8424  -1.8398
    -1.8254  -1.8128  -1.7639  -1.7441  -1.6637  -1.6596  -1.6414  -1.6380
    -1.6224  -1.5715  -1.5523  -1.5245  -1.4838  -1.4715  -1.4450  -1.4282
    -1.4233  -1.4175  -1.4166  -1.4140  -1.3988  -1.3831  -1.3547  -1.3211
    -1.3112  -1.2863  -1.2576  -1.2126  -1.2058  -1.1776  -1.1626  -1.1450
    -1.1317  -1.1247  -1.0994  -1.0456  -1.0329  -0.9958  -0.9844  -0.9680
    -0.9542  -0.9512  -0.9453  -0.9423  -0.9405  -0.9322  -0.9267  -0.9183
    -0.9124  -0.9050  -0.9009  -0.8992  -0.8901  -0.8801  -0.8704  -0.8579
    -0.8523  -0.8337  -0.8208  -0.8089  -0.7739  -0.7636  -0.7599  -0.7264
    -0.7226  -0.7213  -0.7200  -0.6927  -0.6747  -0.6655  -0.6621  -0.6544
    -0.6519  -0.6507  -0.6366  -0.6101  -0.6025  -0.6001  -0.5914  -0.5885
    -0.5879  -0.5793  -0.5759  -0.5746  -0.5656  -0.5467  -0.5271  -0.5133
    -0.5044  -0.4964  -0.4938  -0.4895  -0.4876  -0.4757  -0.4709  -0.4657
    -0.4438  -0.4315  -0.4293  -0.4284  -0.4247  -0.3561  -0.3362  -0.3298
    -0.3231  -0.3155  -0.3123  -0.3088  -0.3047  -0.2939  -0.2891  -0.2764
    -0.2758  -0.2732  -0.2686  -0.2679  -0.2551  -0.2394  -0.2306  -0.2276
    -0.2184  -0.2147  -0.2134  -0.2086  -0.2044  -0.1871  -0.1772  -0.1710
    -0.1684  -0.1589  -0.1586  -0.1419  -0.1362  -0.1259  -0.1201  -0.1147
    -0.1103  -0.1078  -0.1003  -0.0954  -0.0565  -0.0451  -0.0428  -0.0311
    -0.0278  -0.0174  -0.0075   0.0011   0.0138   0.0174   0.0213   0.0259
     0.0276   0.0308   0.0344   0.0397   0.0524   0.0557   0.0595   0.0600
     0.0652   0.0728   0.0739   0.0784   0.0813   0.0839   0.0874   0.0917
     0.0937   0.0947   0.1120   0.1143   0.1204   0.1229   0.1317   0.1391
     0.1454   0.1574   0.1758   0.1831   0.1877   0.1904   0.1944   0.1982
     0.2034   0.2054   0.2174   0.2259   0.2270   0.2290   0.2346   0.2429
     0.2468   0.2486   0.2488   0.2540   0.2608   0.2663   0.2765   0.2853
     0.2966   0.2972   0.3079   0.3153   0.3206   0.3276   0.3315   0.3322
     0.3356   0.3390   0.3468   0.3483   0.3538   0.3590   0.3685   0.3783
     0.3818   0.3880   0.3954   0.3979   0.4010   0.4031   0.4133   0.4193
     0.4204   0.4300   0.4375   0.4420   0.4447   0.4517   0.4537   0.4547
     0.4594   0.4685   0.4923   0.5064   0.5096   0.5139   0.5251   0.5288
     0.5300   0.5348   0.5430   0.5485   0.5755   0.5774   0.5898   0.5993
     0.6211   0.6318   0.6362   0.6469   0.6625   0.6768   0.6819   0.6943
     0.7047   0.7145   0.7167   0.7249   0.7250   0.7292   0.7353   0.7424
     0.7529   0.7591   0.7656   0.7716   0.7734   0.7780   0.7819   0.7847
     0.7879   0.7924   0.7951   0.7984   0.8023   0.8039   0.8219   0.8331
     0.8392   0.8427   0.8456   0.8475   0.8497   0.8563   0.8604   0.8611
     0.8668   0.8684   0.8730   0.8746   0.8774   0.8824   0.8876   0.8889
     0.8903   0.8979   0.9045   0.9073   0.9098   0.9116   0.9128   0.9159
     0.9187   0.9226   0.9371   0.9451   0.9543   0.9624   0.9656   0.9787
     0.9815   0.9827   0.9850   0.9927   0.9973   0.9981   0.9998   1.0019
     1.0068   1.0074   1.0148   1.0193   1.0274   1.0417   1.0457   1.0512
     1.0524   1.0572   1.0638   1.0655   1.0748   1.0763   1.0788   1.0829
     1.0960   1.0976   1.1000   1.1031   1.1091   1.1418   1.1502   1.1538
     1.1699   1.1725   1.1781   1.1905   1.1979   1.2068   1.2148   1.2150
     1.2205   1.2240   1.2287   1.2320   1.2388   1.2397   1.2408   1.2417
     1.2461   1.2535   1.2626   1.2640   1.2657   1.2706   1.2733   1.2790
     1.2828   1.2865   1.2899   1.2904   1.2914   1.2957   1.3023   1.3054
     1.3075   1.3092   1.3119   1.3133   1.3149   1.3157   1.3194   1.3272
     1.3293   1.3332   1.3409   1.3425   1.3459   1.3470   1.3514   1.3542
     1.3610   1.3623   1.3679   1.3765   1.3850   1.4012   1.4088   1.4113
     1.4193   1.4252   1.4308   1.4381   1.4482   1.4525   1.4533   1.4544
     1.4612   1.4690   1.4805   1.4838   1.4969   1.4992   1.5009   1.5039
     1.5094   1.5131   1.5189   1.5194   1.5205   1.5229   1.5249   1.5258
     1.5317   1.5325   1.5339   1.5370   1.5417   1.5489   1.5524   1.5528
     1.5536   1.5564   1.5650   1.5745   1.5865   1.5900   1.5907   1.5933
     1.5994   1.6010   1.6033   1.6104   1.6136   1.6173   1.6189   1.6209
     1.6231   1.6256   1.6313   1.6358   1.6417   1.6428   1.6456   1.6541
     1.6637   1.6678   1.6711   1.6773   1.6810   1.6911   1.6929   1.6937
     1.6968   1.6994   1.7047   1.7062   1.7102   1.7172   1.7201   1.7333
     1.7374   1.7462   1.7504   1.7523   1.7594   1.7639   1.7660   1.7695
     1.7714   1.7735   1.7767   1.7777   1.7786   1.7959   1.7994   1.8101
     1.8127   1.8175   1.8217   1.8249   1.8289   1.8360   1.8381   1.8407
     1.8506   1.8522   1.8595   1.8695   1.8708   1.8769   1.8883   1.9066
     1.9083   1.9600   1.9815   2.0234   2.0254   2.0291   2.0411   2.0531
     2.0655   2.0738   2.0860   2.1011   2.1106   2.1246   2.1322   2.1380
     2.1422   2.1739   2.1832   2.3952   2.4317   2.4704   2.5010   2.5842
     2.6626   2.7350   2.7363   2.7628   2.8233   2.8297   2.8682   2.8843
     2.8984   2.9061   2.9310   2.9943   3.0214   3.0247   3.0808   3.0885
     3.2379   3.2420   3.2444   3.4176   3.4862   3.4864   3.4906   3.5435
     3.6608   3.7156   3.7519   3.9594   4.1700   4.2172   4.3514   4.3852
     4.4195   4.4293   4.4795   4.5189   4.5577   4.6333   4.6399   4.7444
     4.8521   4.8811   4.9905   5.0145   5.0361   5.1102   5.2112   5.4179
     5.4296   5.5251   5.6159   5.6621   5.6833   5.6910   5.7259   5.7459
     5.9876   6.0228   6.0251   6.1756   6.2330   6.3032   6.4196   6.6695
     6.6812   6.7162   6.7256   6.7710   6.8771   6.8898   6.9815   7.0261
     7.0693   7.1229   7.1471   7.3470   7.3604   7.3771   7.3923   7.4085
     7.4249   7.4407   7.4528   7.5069   7.5171   7.5400   7.5687   7.5971
     7.6795   7.7308   7.7758   7.9439   8.0773   8.1006   8.1131   8.1339
     8.1960   8.2981   8.4170   8.4871   8.5254   8.5388   8.5593   8.6629
     8.6689   8.6871   8.7029   8.7383   8.8517   8.8635   8.8982   8.9347
     8.9633   9.0121   9.0247   9.0487   9.0662   9.1418   9.1641   9.1775
     9.2029   9.2449   9.2956   9.3122   9.3714   9.4954   9.5480   9.5591
     9.5772   9.6299   9.6679   9.6958   9.7129   9.7257   9.7386   9.7739
     9.8013   9.8805   9.9329   9.9392   9.9639  10.0919  10.1085  10.1679
    10.2033  10.2121

          k = 0.2500 0.0000 0.0000 (256240 PWs)   bands (ev):

   -15.9076 -15.5461 -15.5200 -14.9209 -14.5686 -14.5378 -14.4427 -14.4116
   -13.4836 -13.4492 -12.9941 -12.6831 -12.6301 -12.6216 -12.6136 -11.7442
   -11.7031 -11.6211 -11.5935 -10.6584 -10.3638 -10.3266 -10.2927  -9.8209
    -9.6223  -9.3760  -9.3007  -8.9483  -8.7429  -8.6574  -8.2179  -7.8106
    -7.1127  -7.1049  -7.0722  -7.0344  -6.9621  -6.8850  -6.5027  -6.2358
    -5.6837  -5.5186  -5.4859  -5.4777  -5.4553  -5.4369  -4.9879  -4.9668
    -4.7533  -4.7233  -4.5224  -4.2575  -4.1861  -4.1389  -4.1127  -3.9807
    -3.9672  -3.9327  -3.9079  -3.8678  -3.7108  -3.6770  -3.6448  -3.6362
    -3.5310  -3.5208  -3.4674  -3.3090  -3.2270  -3.1958  -3.1714  -3.1300
    -3.1080  -3.0869  -3.0272  -3.0084  -2.9823  -2.8984  -2.8661  -2.8200
    -2.7439  -2.6894  -2.6427  -2.5803  -2.5313  -2.4786  -2.4736  -2.4291
    -2.3704  -2.3180  -2.2215  -2.1283  -2.0647  -2.0410  -2.0386  -1.9778
    -1.8810  -1.8000  -1.7791  -1.7669  -1.7576  -1.7384  -1.7008  -1.6626
    -1.6403  -1.5824  -1.5653  -1.5271  -1.5062  -1.4867  -1.4795  -1.4709
    -1.4693  -1.4652  -1.4447  -1.4205  -1.4155  -1.3961  -1.3724  -1.3575
    -1.3344  -1.3143  -1.2926  -1.2765  -1.2695  -1.2571  -1.2541  -1.2517
    -1.2450  -1.2360  -1.2277  -1.2092  -1.1869  -1.1806  -1.1729  -1.1681
    -1.1662  -1.1238  -1.0522  -1.0426  -1.0149  -0.9981  -0.9851  -0.9633
    -0.9330  -0.9218  -0.9150  -0.9135  -0.9099  -0.8937  -0.8870  -0.8804
    -0.8718  -0.8585  -0.8557  -0.8455  -0.8387  -0.8369  -0.8302  -0.8116
    -0.8057  -0.7947  -0.7925  -0.7842  -0.7792  -0.7739  -0.7642  -0.7548
    -0.7364  -0.7222  -0.7190  -0.7154  -0.6979  -0.6956  -0.6899  -0.6871
    -0.6798  -0.6769  -0.6593  -0.6580  -0.6555  -0.6533  -0.6517  -0.6501
    -0.6443  -0.6389  -0.6303  -0.6202  -0.6172  -0.6110  -0.5982  -0.5900
    -0.5748  -0.5655  -0.5389  -0.5311  -0.5277  -0.5045  -0.4932  -0.4909
    -0.4859  -0.4760  -0.4703  -0.4617  -0.4475  -0.4446  -0.4352  -0.4279
    -0.4245  -0.4233  -0.4179  -0.4160  -0.3778  -0.3017  -0.2852  -0.2803
    -0.2713  -0.2693  -0.2538  -0.2455  -0.2430  -0.2379  -0.2306  -0.2260
    -0.2253  -0.2118  -0.2087  -0.2047  -0.2016  -0.1991  -0.1828  -0.1793
    -0.1762  -0.1650  -0.1599  -0.1550  -0.1391  -0.1356  -0.1342  -0.1259
    -0.1178  -0.0818  -0.0780  -0.0769  -0.0712  -0.0659  -0.0609  -0.0561
    -0.0525  -0.0470  -0.0431  -0.0348  -0.0324  -0.0201  -0.0080  -0.0048
     0.0127   0.0230   0.0242   0.0272   0.0307   0.0366   0.0397   0.0503
     0.0543   0.0574   0.0642   0.0743   0.0797   0.0854   0.0935   0.1120
     0.1145   0.1160   0.1220   0.1305   0.1334   0.1382   0.1418   0.1431
     0.1624   0.1687   0.1730   0.1812   0.1867   0.1902   0.1947   0.2052
     0.2143   0.2180   0.2355   0.2434   0.2477   0.2554   0.2570   0.2650
     0.2776   0.2786   0.2963   0.2979   0.3029   0.3065   0.3109   0.3170
     0.3207   0.3215   0.3262   0.3291   0.3328   0.3378   0.3455   0.3490
     0.3524   0.3561   0.3603   0.3673   0.3778   0.3810   0.3907   0.3949
     0.3989   0.4032   0.4163   0.4229   0.4264   0.4376   0.4406   0.4451
     0.4497   0.4515   0.4575   0.4652   0.4667   0.4749   0.4818   0.4864
     0.4945   0.5128   0.5315   0.5379   0.5543   0.5673   0.5747   0.5858
     0.5888   0.5958   0.6008   0.6022   0.6045   0.6067   0.6100   0.6120
     0.6157   0.6195   0.6208   0.6279   0.6310   0.6371   0.6393   0.6436
     0.6463   0.6514   0.6563   0.6607   0.6618   0.6693   0.6758   0.6955
     0.7029   0.7058   0.7183   0.7234   0.7337   0.7410   0.7465   0.7482
     0.7572   0.7594   0.7675   0.7784   0.7812   0.7909   0.7957   0.8012
     0.8048   0.8057   0.8130   0.8146   0.8209   0.8229   0.8302   0.8314
     0.8428   0.8484   0.8526   0.8585   0.8621   0.8699   0.8734   0.8758
     0.8778   0.8817   0.8854   0.8977   0.9038   0.9067   0.9175   0.9211
     0.9268   0.9286   0.9324   0.9391   0.9432   0.9472   0.9513   0.9573
     0.9667   0.9729   0.9810   0.9836   0.9852   0.9882   0.9936   0.9981
     1.0042   1.0125   1.0230   1.0259   1.0375   1.0467   1.0529   1.0626
     1.0660   1.0687   1.0711   1.0769   1.0799   1.0919   1.0938   1.0999
     1.1005   1.1024   1.1069   1.1078   1.1170   1.1306   1.1338   1.1415
     1.1455   1.1631   1.1736   1.1763   1.1798   1.1830   1.1933   1.2004
     1.2035   1.2048   1.2086   1.2096   1.2152   1.2180   1.2205   1.2297
     1.2326   1.2352   1.2432   1.2479   1.2493   1.2575   1.2671   1.2729
     1.2800   1.2855   1.2918   1.3007   1.3041   1.3058   1.3102   1.3141
     1.3161   1.3204   1.3231   1.3269   1.3313   1.3338   1.3373   1.3386
     1.3427   1.3455   1.3489   1.3502   1.3544   1.3589   1.3636   1.3684
     1.3745   1.3785   1.3839   1.3883   1.3908   1.3921   1.3943   1.3988
     1.4042   1.4078   1.4101   1.4192   1.4244   1.4273   1.4295   1.4385
     1.4450   1.4496   1.4515   1.4569   1.4614   1.4666   1.4728   1.4783
     1.4823   1.4853   1.4958   1.5059   1.5077   1.5089   1.5143   1.5198
     1.5317   1.5401   1.5519   1.5572   1.5588   1.5613   1.5673   1.5692
     1.5707   1.5754   1.5830   1.5866   1.5882   1.5902   1.5949   1.5994
     1.6000   1.6045   1.6083   1.6113   1.6150   1.6177   1.6230   1.6238
     1.6285   1.6318   1.6376   1.6396   1.6443   1.6467   1.6516   1.6549
     1.6614   1.6631   1.6724   1.6748   1.6769   1.6816   1.6836   1.6867
     1.6925   1.6934   1.7025   1.7045   1.7092   1.7131   1.7156   1.7336
     1.7381   1.7398   1.7423   1.7457   1.7463   1.7488   1.7513   1.7555
     1.7600   1.7627   1.7658   1.7668   1.7678   1.7760   1.7829   1.7865
     1.7884   1.7912   1.7920   1.8000   1.8057   1.8073   1.8084   1.8159
     1.8214   1.8293   1.8319   1.8327   1.8374   1.8468   1.8662   1.8737
     1.8814   1.8981   1.9025   1.9230   1.9391   1.9433   1.9498   1.9640
     1.9851   2.0021   2.0517   2.0648   2.0733   2.0774   2.1022   2.1192
     2.1624   2.1915   2.2943   2.3214   2.3502   2.3844   2.3905   2.4130
     2.4502   2.5267   2.5412   2.7537   2.7647   2.8477   2.8753   3.0679
     3.1817   3.2651   3.2964   3.3238   3.4123   3.4932   3.5189   3.5389
     3.5435   3.5585   3.6149   3.7493   3.7875   3.8718   3.9044   3.9310
     3.9755   3.9815   4.0248   4.0431   4.0539   4.1354   4.1951   4.2514
     4.3363   4.3976   4.4435   4.4830   4.5032   4.6029   4.7139   4.8105
     4.9140   4.9782   5.0839   5.1484   5.1882   5.3104   5.4117   5.4836
     5.5404   5.5577   5.6365   5.6988   5.7591   5.7728   5.8171   5.8558
     5.8839   5.9123   5.9572   5.9843   6.0411   6.0712   6.0853   6.1082
     6.2205   6.3037   6.3156   6.3643   6.4244   6.4885   6.6830   6.9860
     7.0039   7.0610   7.0737   7.1036   7.1219   7.1505   7.1669   7.2513
     7.2712   7.3470   7.3515   7.3901   7.4027   7.5495   7.5725   7.5813
     7.6404   7.7373   7.7473   7.8202   7.8353   7.8818   7.9663   8.0221
     8.0774   8.0822   8.1175   8.1601   8.1805   8.3072   8.3431   8.3615
     8.3872   8.4039   8.5290   8.5810   8.6118   8.6358   8.6686   8.6863
     8.6874   8.7342   8.8553   8.9020   8.9162   8.9798   9.0021   9.0812
     9.2081   9.2506   9.3657   9.4036   9.4525   9.4597   9.4688   9.4793
     9.4841   9.4950   9.5159   9.5239   9.5411   9.5585   9.5610   9.6188
     9.6537   9.7108   9.7809   9.8004   9.8300   9.9948  10.0225  10.0758
    10.0799  10.1239

          k = 0.2500-0.2165 0.0000 (256316 PWs)   bands (ev):

   -15.8342 -15.7916 -15.0875 -15.0568 -14.8479 -14.8048 -14.1119 -14.0813
   -13.6336 -13.5950 -12.9216 -12.8899 -12.6853 -12.6472 -12.2187 -12.1860
   -11.5428 -11.5177 -10.9410 -10.8939 -10.6648 -10.6396 -10.2813 -10.2638
    -9.2797  -9.1901  -8.8208  -8.6806  -8.6281  -8.5620  -8.2220  -8.0239
    -7.9771  -7.9389  -7.5225  -6.2383  -6.2060  -6.1840  -6.1634  -6.0997
    -6.0212  -5.8626  -5.8072  -5.5292  -5.4940  -5.3847  -5.3366  -4.7490
    -4.7174  -4.4860  -4.4103  -4.3902  -4.3750  -4.3467  -4.2643  -4.0740
    -4.0258  -3.9993  -3.9602  -3.7900  -3.7634  -3.7195  -3.7076  -3.5191
    -3.5022  -3.4073  -3.3960  -3.2827  -3.2430  -3.1628  -3.1464  -3.1359
    -3.1041  -3.0786  -3.0489  -2.9241  -2.8257  -2.7846  -2.7677  -2.6602
    -2.6422  -2.6259  -2.6159  -2.5934  -2.5740  -2.5240  -2.4609  -2.4155
    -2.3689  -2.2701  -2.1994  -2.1609  -2.0922  -2.0032  -1.9841  -1.9746
    -1.9299  -1.8699  -1.8546  -1.8433  -1.8188  -1.7928  -1.6990  -1.6883
    -1.6643  -1.6456  -1.6192  -1.5697  -1.5162  -1.5081  -1.4915  -1.4887
    -1.4697  -1.4502  -1.4387  -1.4063  -1.4000  -1.3883  -1.3770  -1.3740
    -1.3623  -1.3601  -1.3532  -1.3512  -1.3438  -1.3393  -1.3369  -1.3177
    -1.2897  -1.2634  -1.2522  -1.2002  -1.1792  -1.1394  -1.1089  -1.1033
    -1.0364  -1.0153  -1.0051  -0.9943  -0.9577  -0.9566  -0.9480  -0.9439
    -0.9379  -0.9311  -0.9252  -0.9243  -0.9197  -0.9050  -0.9041  -0.9026
    -0.8892  -0.8838  -0.8804  -0.8712  -0.8680  -0.8641  -0.8534  -0.8481
    -0.8083  -0.8054  -0.7975  -0.7932  -0.7900  -0.7864  -0.7833  -0.7775
    -0.7750  -0.7591  -0.7486  -0.7184  -0.7149  -0.7108  -0.7039  -0.7008
    -0.6955  -0.6716  -0.6698  -0.6659  -0.6540  -0.6408  -0.6365  -0.6324
    -0.6312  -0.6218  -0.6090  -0.5977  -0.5955  -0.5910  -0.5846  -0.5503
    -0.5402  -0.5374  -0.5337  -0.5137  -0.5107  -0.4814  -0.4624  -0.4533
    -0.4499  -0.4480  -0.4403  -0.4344  -0.4095  -0.3949  -0.3918  -0.3867
    -0.3803  -0.3777  -0.3729  -0.3625  -0.3535  -0.3355  -0.3311  -0.3165
    -0.3001  -0.2939  -0.2843  -0.2609  -0.2589  -0.2472  -0.2406  -0.2382
    -0.2355  -0.2303  -0.2126  -0.2074  -0.2021  -0.1924  -0.1793  -0.1664
    -0.1626  -0.1567  -0.1507  -0.1428  -0.1384  -0.1292  -0.1194  -0.1149
    -0.1031  -0.0946  -0.0903  -0.0785  -0.0733  -0.0694  -0.0608  -0.0588
    -0.0453  -0.0430  -0.0404  -0.0370  -0.0353  -0.0326  -0.0262  -0.0212
    -0.0174  -0.0112  -0.0061   0.0058   0.0154   0.0230   0.0369   0.0437
     0.0512   0.0573   0.0639   0.0680   0.0772   0.0796   0.0902   0.0952
     0.0998   0.1042   0.1104   0.1140   0.1274   0.1449   0.1617   0.1680
     0.1751   0.1871   0.2002   0.2050   0.2117   0.2144   0.2177   0.2286
     0.2292   0.2421   0.2434   0.2513   0.2547   0.2605   0.2654   0.2731
     0.2759   0.2792   0.2832   0.2908   0.2938   0.3055   0.3077   0.3117
     0.3189   0.3198   0.3218   0.3258   0.3292   0.3308   0.3351   0.3370
     0.3392   0.3511   0.3539   0.3575   0.3699   0.3731   0.3774   0.3814
     0.3888   0.4046   0.4127   0.4222   0.4350   0.4378   0.4440   0.4498
     0.4581   0.4602   0.4629   0.4657   0.4697   0.4741   0.4767   0.4826
     0.4882   0.4999   0.5027   0.5134   0.5155   0.5360   0.5569   0.5679
     0.5770   0.5876   0.5982   0.6040   0.6074   0.6108   0.6134   0.6157
     0.6189   0.6240   0.6288   0.6355   0.6411   0.6447   0.6452   0.6495
     0.6503   0.6565   0.6608   0.6658   0.6732   0.6794   0.6877   0.7069
     0.7098   0.7175   0.7204   0.7246   0.7327   0.7374   0.7433   0.7686
     0.7705   0.7750   0.7777   0.7798   0.7853   0.7935   0.7958   0.8001
     0.8019   0.8052   0.8085   0.8133   0.8187   0.8299   0.8336   0.8418
     0.8475   0.8523   0.8601   0.8694   0.8850   0.8906   0.8936   0.9005
     0.9038   0.9089   0.9190   0.9239   0.9262   0.9283   0.9344   0.9365
     0.9409   0.9457   0.9485   0.9514   0.9612   0.9674   0.9721   0.9747
     0.9789   0.9849   0.9874   0.9902   0.9937   0.9951   0.9978   1.0028
     1.0040   1.0102   1.0125   1.0150   1.0228   1.0252   1.0271   1.0297
     1.0326   1.0377   1.0417   1.0439   1.0539   1.0631   1.0774   1.0824
     1.0889   1.0900   1.0990   1.1094   1.1189   1.1245   1.1301   1.1412
     1.1429   1.1491   1.1513   1.1583   1.1669   1.1719   1.1726   1.1757
     1.1784   1.1788   1.1803   1.1868   1.1917   1.1949   1.2043   1.2091
     1.2116   1.2221   1.2286   1.2324   1.2420   1.2440   1.2478   1.2507
     1.2606   1.2673   1.2737   1.2798   1.2878   1.2909   1.2978   1.2996
     1.3040   1.3086   1.3113   1.3200   1.3284   1.3347   1.3412   1.3471
     1.3511   1.3547   1.3637   1.3740   1.3826   1.3863   1.3978   1.4000
     1.4039   1.4066   1.4099   1.4120   1.4142   1.4147   1.4183   1.4221
     1.4241   1.4268   1.4321   1.4352   1.4411   1.4492   1.4521   1.4591
     1.4715   1.4774   1.4823   1.4873   1.4915   1.4928   1.4972   1.5005
     1.5034   1.5047   1.5098   1.5108   1.5148   1.5165   1.5177   1.5201
     1.5218   1.5263   1.5294   1.5330   1.5349   1.5378   1.5404   1.5441
     1.5542   1.5581   1.5633   1.5660   1.5755   1.5861   1.5907   1.5976
     1.6008   1.6020   1.6065   1.6094   1.6144   1.6170   1.6255   1.6300
     1.6310   1.6336   1.6403   1.6429   1.6472   1.6501   1.6550   1.6564
     1.6647   1.6674   1.6706   1.6738   1.6769   1.6851   1.6911   1.6989
     1.7023   1.7041   1.7052   1.7081   1.7109   1.7121   1.7133   1.7179
     1.7207   1.7273   1.7317   1.7333   1.7393   1.7459   1.7501   1.7547
     1.7589   1.7603   1.7621   1.7629   1.7643   1.7654   1.7697   1.7725
     1.7769   1.7787   1.8011   1.8014   1.8112   1.8159   1.8176   1.8219
     1.8258   1.8306   1.8357   1.8410   1.8445   1.8649   1.8671   1.8749
     1.8786   1.8823   1.9010   1.9117   1.9315   1.9491   1.9648   1.9684
     2.0016   2.0528   2.0714   2.0752   2.0803   2.0840   2.0899   2.1053
     2.1089   2.1293   2.1355   2.1535   2.3689   2.4372   2.4520   2.4680
     2.4930   2.6030   2.7319   2.7562   2.8975   2.9048   3.0533   3.0998
     3.1039   3.1086   3.1118   3.1301   3.1471   3.2569   3.2930   3.3749
     3.3910   3.5664   3.6283   3.7211   3.8486   3.9197   3.9447   3.9724
     4.0499   4.1193   4.1597   4.1949   4.2713   4.2857   4.3874   4.3965
     4.4551   4.4837   4.5589   4.6400   4.7028   4.7319   4.7736   4.8647
     4.9181   4.9348   5.0165   5.0566   5.1167   5.1434   5.2450   5.2630
     5.2819   5.3084   5.4474   5.5300   5.5578   5.6667   5.6967   5.7491
     5.7674   5.7848   5.8266   5.9400   6.0765   6.0844   6.1789   6.2221
     6.2632   6.2886   6.3288   6.4746   6.7076   6.8640   6.8904   6.9317
     6.9822   7.0602   7.0757   7.1036   7.1955   7.2477   7.3081   7.3789
     7.3900   7.4235   7.4672   7.5065   7.5265   7.5625   7.6260   7.6472
     7.6543   7.6841   7.6945   7.7208   7.7318   7.7379   7.8357   7.9353
     7.9668   8.0206   8.1318   8.1680   8.2880   8.2907   8.3289   8.4283
     8.4864   8.5163   8.5228   8.5868   8.6369   8.6833   8.7091   8.7877
     8.8217   8.9028   8.9535   8.9699   9.0069   9.0246   9.0282   9.0580
     9.0988   9.1189   9.1677   9.2091   9.2367   9.2974   9.3366   9.3441
     9.3538   9.3799   9.4178   9.4942   9.5190   9.5367   9.5459   9.5719
     9.6402   9.6488   9.6810   9.6852   9.6987   9.7509   9.9447  10.0090
    10.0428  10.0910

          k =-0.5000 0.0000 0.0000 (256496 PWs)   bands (ev):

   -15.5457 -15.5275 -15.1985 -15.1588 -15.1523 -15.1415 -14.1081 -14.0618
   -14.0482 -14.0456 -12.3488 -12.2858 -12.2670 -12.2645 -11.7425 -11.7036
   -11.4584 -11.3769 -11.3699 -11.3535 -10.7746 -10.7294 -10.3667 -10.3022
    -9.7735  -9.7016  -9.3316  -9.3204  -8.6784  -8.4966  -8.4734  -8.4424
    -7.8163  -6.9800  -6.9657  -6.9256  -6.9094  -6.8672  -6.7886  -5.4641
    -5.4555  -4.9850  -4.9709  -4.7547  -4.7454  -4.4984  -4.4854  -4.4848
    -4.4751  -4.3631  -4.3389  -4.3222  -4.3187  -4.2881  -4.2543  -4.2414
    -4.2315  -4.0934  -4.0142  -3.9718  -3.9573  -3.9461  -3.9265  -3.7365
    -3.6707  -3.6449  -3.6326  -3.6106  -3.4064  -3.3274  -3.2206  -3.2134
    -3.2049  -3.1179  -3.1048  -3.0888  -3.0393  -2.9604  -2.9530  -2.9446
    -2.9301  -2.9186  -2.9001  -2.6258  -2.5038  -2.4890  -2.4132  -2.3600
    -2.3328  -2.3209  -2.3004  -2.2943  -2.2532  -2.1859  -2.0706  -2.0605
    -2.0459  -2.0030  -1.9975  -1.9862  -1.8266  -1.5802  -1.5624  -1.5547
    -1.5501  -1.5482  -1.5406  -1.4951  -1.4840  -1.4815  -1.4274  -1.3886
    -1.3524  -1.3261  -1.3248  -1.3062  -1.2942  -1.2788  -1.2711  -1.2694
    -1.2546  -1.2395  -1.1982  -1.1835  -1.1676  -1.1662  -1.1349  -1.1028
    -1.0995  -1.0964  -1.0843  -1.0816  -1.0780  -1.0642  -1.0461  -1.0376
    -1.0351  -1.0308  -1.0261  -1.0253  -1.0202  -1.0182  -1.0163  -1.0096
    -1.0065  -0.9746  -0.9735  -0.9719  -0.9674  -0.9476  -0.9454  -0.9423
    -0.9405  -0.8989  -0.8903  -0.8788  -0.8705  -0.8605  -0.8558  -0.8540
    -0.8524  -0.8499  -0.8346  -0.8240  -0.8193  -0.8175  -0.8003  -0.7845
    -0.7819  -0.7807  -0.7792  -0.7619  -0.7544  -0.7363  -0.7330  -0.7272
    -0.7073  -0.6910  -0.6652  -0.6639  -0.6571  -0.6550  -0.6491  -0.6469
    -0.6393  -0.6250  -0.6153  -0.6138  -0.6121  -0.6044  -0.6031  -0.6002
    -0.5971  -0.5951  -0.5891  -0.5780  -0.5652  -0.5410  -0.5389  -0.5339
    -0.5138  -0.4772  -0.4682  -0.4261  -0.3938  -0.3893  -0.3877  -0.3854
    -0.3773  -0.3607  -0.3569  -0.3508  -0.3490  -0.3452  -0.3404  -0.3285
    -0.3242  -0.3214  -0.3129  -0.3053  -0.3042  -0.2976  -0.2902  -0.2834
    -0.2721  -0.2664  -0.2560  -0.2428  -0.2055  -0.1895  -0.1761  -0.1693
    -0.1639  -0.1611  -0.1548  -0.1405  -0.1358  -0.1157  -0.0952  -0.0905
    -0.0819  -0.0803  -0.0776  -0.0761  -0.0709  -0.0543  -0.0488  -0.0460
    -0.0452  -0.0434  -0.0388  -0.0326  -0.0252  -0.0144  -0.0095  -0.0062
     0.0038   0.0223   0.0227   0.0337   0.0348   0.0402   0.0449   0.0702
     0.0724   0.0749   0.0774   0.0830   0.0936   0.1007   0.1069   0.1207
     0.1304   0.1441   0.1543   0.1641   0.1781   0.1828   0.1857   0.1919
     0.1963   0.1986   0.2058   0.2148   0.2170   0.2341   0.2425   0.2605
     0.2670   0.2701   0.2738   0.2882   0.2932   0.2962   0.2992   0.3003
     0.3031   0.3044   0.3096   0.3128   0.3150   0.3187   0.3237   0.3453
     0.3578   0.3653   0.3750   0.3802   0.3842   0.3878   0.3889   0.3932
     0.3970   0.4021   0.4042   0.4062   0.4136   0.4155   0.4199   0.4263
     0.4279   0.4342   0.4375   0.4405   0.4416   0.4431   0.4449   0.4462
     0.4476   0.4505   0.4528   0.4627   0.4663   0.4682   0.4698   0.4740
     0.4753   0.4803   0.4822   0.4932   0.4976   0.5086   0.5278   0.5373
     0.5775   0.5883   0.5949   0.6033   0.6222   0.6271   0.6359   0.6391
     0.6425   0.6446   0.6497   0.6538   0.6578   0.6615   0.6639   0.6682
     0.6697   0.6727   0.6757   0.6778   0.6799   0.6833   0.6844   0.6858
     0.6913   0.6956   0.6973   0.6991   0.7019   0.7040   0.7082   0.7175
     0.7222   0.7260   0.7322   0.7428   0.7606   0.7700   0.7769   0.7880
     0.8005   0.8065   0.8127   0.8227   0.8277   0.8351   0.8375   0.8438
     0.8442   0.8464   0.8479   0.8498   0.8522   0.8542   0.8569   0.8584
     0.8641   0.8647   0.8663   0.8701   0.8766   0.8841   0.8864   0.8935
     0.9023   0.9081   0.9094   0.9178   0.9248   0.9283   0.9373   0.9391
     0.9419   0.9489   0.9502   0.9535   0.9567   0.9592   0.9613   0.9665
     0.9694   0.9775   0.9802   0.9833   0.9869   0.9904   0.9934   1.0050
     1.0154   1.0234   1.0321   1.0358   1.0389   1.0395   1.0474   1.0510
     1.0516   1.0658   1.0694   1.0807   1.0859   1.0910   1.1117   1.1196
     1.1244   1.1343   1.1489   1.1554   1.1572   1.1615   1.1615   1.1642
     1.1658   1.1663   1.1705   1.1770   1.1820   1.1839   1.1851   1.1869
     1.1907   1.1988   1.2047   1.2071   1.2109   1.2130   1.2175   1.2280
     1.2323   1.2354   1.2401   1.2492   1.2536   1.2590   1.2685   1.2714
     1.2886   1.2920   1.3078   1.3268   1.3321   1.3342   1.3389   1.3485
     1.3524   1.3626   1.3653   1.3798   1.3857   1.3873   1.3914   1.3978
     1.4002   1.4057   1.4122   1.4139   1.4179   1.4244   1.4273   1.4317
     1.4388   1.4403   1.4447   1.4459   1.4486   1.4528   1.4533   1.4554
     1.4581   1.4590   1.4642   1.4664   1.4679   1.4787   1.4933   1.4986
     1.4994   1.5030   1.5038   1.5061   1.5176   1.5195   1.5290   1.5318
     1.5336   1.5457   1.5536   1.5582   1.5592   1.5595   1.5653   1.5682
     1.5691   1.5696   1.5719   1.5767   1.5826   1.5870   1.5901   1.5922
     1.6021   1.6058   1.6109   1.6252   1.6271   1.6284   1.6330   1.6362
     1.6381   1.6396   1.6412   1.6434   1.6445   1.6472   1.6487   1.6506
     1.6510   1.6526   1.6538   1.6559   1.6581   1.6591   1.6616   1.6630
     1.6702   1.6724   1.6742   1.6824   1.6841   1.6894   1.6933   1.6961
     1.7009   1.7021   1.7056   1.7078   1.7322   1.7386   1.7407   1.7439
     1.7459   1.7480   1.7515   1.7546   1.7569   1.7642   1.7665   1.7714
     1.7748   1.7788   1.7806   1.7839   1.7861   1.7877   1.7906   1.7931
     1.7971   1.7989   1.8024   1.8061   1.8129   1.8172   1.8361   1.8368
     1.8387   1.8394   1.8403   1.8461   1.8491   1.8594   1.8938   1.8967
     1.9204   1.9260   1.9292   1.9314   1.9360   1.9509   2.1507   2.2463
     2.3279   2.3485   2.4070   2.4828   2.5487   2.5551   2.5680   2.5929
     2.6078   2.6112   2.7470   2.8100   2.8300   2.9235   3.0007   3.0801
     3.1386   3.1471   3.1995   3.3792   3.4694   3.4820   3.5111   3.5246
     3.5852   3.6838   3.8485   3.9368   4.0637   4.0938   4.1352   4.1530
     4.2304   4.2373   4.3406   4.3765   4.3937   4.4366   4.4494   4.4804
     4.6293   4.7945   4.8041   4.9545   4.9924   5.0181   5.0525   5.0995
     5.1331   5.1535   5.1802   5.2082   5.2305   5.2442   5.3343   5.3418
     5.3589   5.3662   5.3764   5.3874   5.3927   5.4415   5.4967   5.5177
     5.6434   5.7276   5.7608   5.7707   5.8493   5.8855   5.9455   6.0463
     6.1186   6.1579   6.2724   6.3069   6.3138   6.3232   6.3313   6.3363
     6.4379   6.4987   6.6075   6.6925   6.7294   6.7877   6.7931   6.8440
     6.8663   6.9632   7.3288   7.3796   7.4033   7.4153   7.5085   7.5540
     7.8426   7.8837   7.8987   7.9039   7.9105   7.9199   8.0099   8.0322
     8.0600   8.0804   8.1054   8.1289   8.1436   8.1858   8.2060   8.2555
     8.2780   8.3427   8.3595   8.3769   8.3956   8.4096   8.5097   8.5766
     8.5814   8.5844   8.6691   8.6852   8.7438   8.8792   9.0386   9.0686
     9.1221   9.1353   9.1874   9.1917   9.2086   9.2143   9.2261   9.2541
     9.3450   9.3780   9.4785   9.4838   9.4869   9.5722   9.5787   9.6927
     9.7761   9.8058   9.8119   9.8287   9.8360   9.8547   9.9599   9.9618
     9.9654   9.9701

          k =-0.5000-0.2165 0.0000 (256328 PWs)   bands (ev):

   -15.4651 -15.4616 -15.4415 -15.3994 -14.7405 -14.7001 -14.6897 -14.6835
   -13.3069 -13.2533 -13.2370 -13.2322 -11.6879 -11.6503 -11.6490 -11.5797
   -11.2625 -11.1915 -11.1796 -11.1652 -11.0545 -11.0166 -10.9965 -10.9811
    -9.4275  -9.3246  -9.2968  -9.2379  -8.5453  -8.3480  -8.3186  -8.2916
    -7.9181  -7.5894  -7.5783  -7.5286  -7.2627  -5.5111  -5.5025  -5.4869
    -5.4673  -4.9094  -4.8945  -4.8669  -4.8641  -4.8499  -4.8435  -4.8287
    -4.8062  -4.6684  -4.6648  -4.6277  -4.6079  -4.0287  -4.0105  -4.0014
    -3.9492  -3.8889  -3.8808  -3.8678  -3.8577  -3.7762  -3.7710  -3.7580
    -3.7092  -3.5918  -3.5459  -3.5416  -3.5134  -3.3477  -3.2730  -3.2580
    -3.2531  -3.2484  -3.2263  -3.2053  -3.2016  -3.0893  -3.0473  -3.0251
    -2.9197  -2.8387  -2.7067  -2.6913  -2.6829  -2.2772  -2.2706  -2.2625
    -2.2497  -2.2264  -2.2159  -2.2100  -2.1493  -2.0061  -1.9747  -1.9308
    -1.8919  -1.8712  -1.8063  -1.7878  -1.7637  -1.7411  -1.7226  -1.7155
    -1.6948  -1.6542  -1.6341  -1.6070  -1.5882  -1.5191  -1.4871  -1.4796
    -1.4661  -1.4512  -1.4103  -1.3641  -1.3564  -1.2619  -1.2013  -1.1865
    -1.1736  -1.1671  -1.1654  -1.1622  -1.1468  -1.1415  -1.1358  -1.1347
    -1.1144  -1.1121  -1.1090  -1.1075  -1.0851  -1.0799  -1.0676  -1.0633
    -1.0594  -1.0557  -1.0527  -1.0450  -1.0396  -1.0351  -1.0336  -1.0300
    -1.0177  -0.9903  -0.9866  -0.9832  -0.9784  -0.9734  -0.9507  -0.9112
    -0.8840  -0.8740  -0.8710  -0.8677  -0.8607  -0.8584  -0.8451  -0.8379
    -0.8332  -0.8189  -0.8152  -0.8090  -0.7965  -0.7962  -0.7932  -0.7908
    -0.7879  -0.7739  -0.7688  -0.7651  -0.7631  -0.7394  -0.7320  -0.7258
    -0.7235  -0.7207  -0.7181  -0.7153  -0.7140  -0.7118  -0.7080  -0.7029
    -0.6996  -0.6737  -0.6466  -0.6210  -0.6007  -0.5759  -0.5707  -0.5560
    -0.5427  -0.5304  -0.5294  -0.5269  -0.5251  -0.4938  -0.4883  -0.4694
    -0.4588  -0.4533  -0.4449  -0.4433  -0.4427  -0.4378  -0.4360  -0.4311
    -0.4246  -0.3843  -0.3815  -0.3760  -0.3741  -0.3691  -0.3682  -0.3653
    -0.3618  -0.3542  -0.3494  -0.3442  -0.3386  -0.2932  -0.2570  -0.2564
    -0.2489  -0.2485  -0.2461  -0.2371  -0.2212  -0.1982  -0.1867  -0.1854
    -0.1761  -0.1649  -0.1573  -0.1376  -0.1300  -0.1256  -0.1237  -0.1227
    -0.1186  -0.1031  -0.1010  -0.0973  -0.0806  -0.0782  -0.0767  -0.0713
    -0.0642  -0.0568  -0.0528  -0.0380  -0.0214  -0.0017   0.0273   0.0329
     0.0408   0.0519   0.0536   0.0594   0.0637   0.0696   0.0731   0.0758
     0.0831   0.0865   0.0921   0.1329   0.1463   0.1505   0.1567   0.1590
     0.1608   0.1658   0.1709   0.1760   0.1779   0.1821   0.1869   0.1979
     0.2054   0.2112   0.2139   0.2150   0.2178   0.2211   0.2244   0.2274
     0.2309   0.2371   0.2394   0.2539   0.2811   0.2836   0.2953   0.2992
     0.3102   0.3164   0.3194   0.3284   0.3343   0.3457   0.3594   0.3777
     0.3827   0.3869   0.3919   0.3940   0.3991   0.4012   0.4020   0.4055
     0.4060   0.4093   0.4111   0.4136   0.4183   0.4198   0.4223   0.4258
     0.4279   0.4310   0.4336   0.4346   0.4420   0.4460   0.4491   0.4535
     0.4594   0.4622   0.4650   0.4670   0.4753   0.4771   0.4819   0.4848
     0.4889   0.4959   0.5004   0.5274   0.5309   0.5383   0.5428   0.5532
     0.5612   0.5692   0.5723   0.5798   0.6052   0.6279   0.6362   0.6369
     0.6447   0.6506   0.6554   0.6571   0.6603   0.6663   0.6670   0.6685
     0.6731   0.6798   0.6822   0.6865   0.6885   0.6909   0.6920   0.6961
     0.6991   0.7029   0.7032   0.7054   0.7110   0.7159   0.7201   0.7302
     0.7334   0.7372   0.7433   0.7515   0.7584   0.7671   0.7696   0.7719
     0.7860   0.7884   0.7900   0.7944   0.7981   0.8078   0.8098   0.8189
     0.8250   0.8275   0.8328   0.8401   0.8443   0.8472   0.8553   0.8643
     0.8698   0.8780   0.8788   0.8840   0.8901   0.8926   0.8932   0.8959
     0.8969   0.8974   0.9010   0.9029   0.9052   0.9095   0.9119   0.9145
     0.9194   0.9255   0.9260   0.9353   0.9585   0.9609   0.9769   0.9915
     0.9925   0.9973   1.0020   1.0071   1.0075   1.0099   1.0139   1.0155
     1.0171   1.0265   1.0321   1.0352   1.0382   1.0414   1.0452   1.0471
     1.0515   1.0531   1.0546   1.0565   1.0790   1.0913   1.0971   1.1015
     1.1072   1.1075   1.1219   1.1335   1.1358   1.1395   1.1427   1.1498
     1.1528   1.1580   1.1659   1.1712   1.1739   1.1817   1.1920   1.1972
     1.1994   1.2105   1.2155   1.2413   1.2478   1.2500   1.2526   1.2688
     1.2733   1.2824   1.2906   1.3019   1.3084   1.3208   1.3224   1.3350
     1.3374   1.3402   1.3411   1.3468   1.3493   1.3534   1.3562   1.3605
     1.3651   1.3661   1.3677   1.3704   1.3710   1.3735   1.3748   1.3776
     1.3827   1.3844   1.3854   1.3896   1.3910   1.3956   1.3995   1.4019
     1.4057   1.4124   1.4197   1.4226   1.4254   1.4386   1.4440   1.4448
     1.4476   1.4481   1.4487   1.4491   1.4565   1.4581   1.4603   1.4640
     1.4671   1.4753   1.4877   1.5062   1.5093   1.5116   1.5135   1.5171
     1.5195   1.5267   1.5274   1.5370   1.5439   1.5469   1.5583   1.5603
     1.5624   1.5679   1.5755   1.5767   1.5797   1.5816   1.5849   1.5919
     1.5945   1.5991   1.6030   1.6042   1.6062   1.6101   1.6144   1.6168
     1.6393   1.6457   1.6519   1.6536   1.6613   1.6657   1.6716   1.6740
     1.6799   1.6812   1.6826   1.6853   1.6867   1.6884   1.6893   1.6906
     1.6966   1.6989   1.7005   1.7005   1.7038   1.7073   1.7093   1.7110
     1.7122   1.7152   1.7159   1.7188   1.7210   1.7262   1.7278   1.7298
     1.7310   1.7313   1.7351   1.7386   1.7543   1.7570   1.7660   1.7670
     1.7719   1.7738   1.7767   1.7800   1.7832   1.7867   1.7970   1.7993
     1.8164   1.8211   1.8243   1.8260   1.8487   1.8583   1.8657   1.8666
     1.8716   1.8863   1.8938   1.8972   1.8996   1.9028   1.9111   1.9182
     1.9188   1.9245   1.9264   1.9316   1.9325   1.9350   1.9402   1.9414
     2.0933   2.1039   2.1508   2.1521   2.4394   2.4977   2.6310   2.6514
[...]

     Forces acting on atoms (Ry/au):

     atom    1 type  1   force =     0.00022434    0.00000741   -0.00045336
     atom    2 type  1   force =     0.00059739   -0.00062068   -0.00048319
     atom    3 type  1   force =     0.00073469   -0.00023454   -0.00018365
     atom    4 type  1   force =     0.00058049   -0.00061157    0.00032187
     atom    5 type  1   force =     0.00048273   -0.00051975   -0.00028364
     atom    6 type  1   force =     0.00044293   -0.00042543    0.00034245
     atom    7 type  1   force =     0.00035314   -0.00037929    0.00027295
     atom    8 type  1   force =     0.00061948   -0.00015506   -0.00023375
     atom    9 type  1   force =     0.00020806   -0.00033039    0.00031447
     atom   10 type  1   force =     0.00030898   -0.00019120    0.00010965
     atom   11 type  1   force =     0.00043040   -0.00039636   -0.00013985
     atom   12 type  1   force =     0.00062952   -0.00075169   -0.00034384
     atom   13 type  1   force =     0.00036886    0.00054958   -0.00076741
     atom   14 type  1   force =     0.00049649    0.00078841   -0.00040371
     atom   15 type  1   force =     0.00034107    0.00055972   -0.00011088
     atom   16 type  1   force =     0.00031198    0.00084049   -0.00023936
     atom   17 type  1   force =    -0.00011473    0.00015711   -0.00063030
     atom   18 type  1   force =     0.00088724    0.00000653   -0.00091337
     atom   19 type  1   force =     0.00080730    0.00064154   -0.00044033
     atom   20 type  1   force =    -0.00037641    0.00018825   -0.00073140
     atom   21 type  1   force =     0.00009004   -0.00039394    0.00034240
     atom   22 type  1   force =     0.00047523    0.00081845    0.00066625
     atom   23 type  1   force =     0.00002734    0.00003948    0.00035860
     atom   24 type  1   force =     0.00059312   -0.00051974    0.00035472
     atom   25 type  1   force =     0.00002532   -0.00010244    0.00055051
     atom   26 type  1   force =     0.00040688   -0.00090229   -0.00004508
     atom   27 type  1   force =     0.00024242   -0.00090939    0.00026354
     atom   28 type  1   force =     0.00016373    0.00050499    0.00082530
     atom   29 type  1   force =     0.00028069   -0.00058241    0.00005355
     atom   30 type  1   force =    -0.00022525    0.00001036   -0.00001584
     atom   31 type  1   force =    -0.00009215    0.00017787   -0.00068751
     atom   32 type  1   force =     0.00069354   -0.00019332   -0.00025585
     atom   33 type  1   force =    -0.00013909    0.00005936    0.00000920
     atom   34 type  1   force =     0.00037885    0.00035935   -0.00014281
     atom   35 type  1   force =     0.00026154   -0.00070708    0.00028552
     atom   36 type  1   force =     0.00009944   -0.00076161   -0.00026384
     atom   37 type  1   force =     0.00064397   -0.00026001   -0.00045816
     atom   38 type  1   force =     0.00006324    0.00009043   -0.00049034
     atom   39 type  1   force =     0.00066010   -0.00022197    0.00008373
     atom   40 type  1   force =     0.00041504   -0.00003911    0.00064828
     atom   41 type  1   force =    -0.00008726   -0.00035766   -0.00024374
     atom   42 type  1   force =     0.00007981   -0.00123146    0.00030637
     atom   43 type  1   force =    -0.00060638   -0.00011939    0.00040891
     atom   44 type  1   force =    -0.00031891    0.00028098    0.00064356
     atom   45 type  1   force =    -0.00005822    0.00046091    0.00071932
     atom   46 type  1   force =    -0.00063703   -0.00003551    0.00022358
     atom   47 type  1   force =     0.00057775   -0.00000179   -0.00033398
     atom   48 type  1   force =     0.00039437   -0.00014222   -0.00041885
     atom   49 type  1   force =     0.00135454    0.00058789   -0.00068233
     atom   50 type  1   force =    -0.00050018    0.00005465   -0.00047857
     atom   51 type  1   force =    -0.00004029    0.00042737    0.00017004
     atom   52 type  1   force =     0.00019275   -0.00103882    0.00041925
     atom   53 type  1   force =     0.00005382   -0.00028964    0.00031591
     atom   54 type  1   force =     0.00033675   -0.00012477    0.00012848
     atom   55 type  1   force =     0.00027604   -0.00055068   -0.00019740
     atom   56 type  1   force =    -0.00007477   -0.00100677    0.00015703
     atom   57 type  1   force =     0.00015792    0.00033887   -0.00023148
     atom   58 type  1   force =    -0.00010382   -0.00002963    0.00013136
     atom   59 type  1   force =     0.00020645    0.00004799   -0.00001171
     atom   60 type  1   force =     0.00077213   -0.00069379    0.00023695
     atom   61 type  1   force =    -0.00020953    0.00001356   -0.00022518
     atom   62 type  1   force =    -0.00047735   -0.00069000    0.00000485
     atom   63 type  1   force =     0.00113405   -0.00102802    0.00031911
     atom   64 type  1   force =    -0.00110556    0.00010776    0.00013836
     atom   65 type  1   force =     0.00006631   -0.00052397   -0.00020025
     atom   66 type  1   force =    -0.00026402   -0.00160359   -0.00265573
     atom   67 type  1   force =     0.00169019    0.00237502    0.00121895
     atom   68 type  1   force =     0.00102785   -0.00020026   -0.00039145
     atom   69 type  1   force =     0.00025053    0.00062153   -0.00007038
     atom   70 type  1   force =     0.00208112   -0.00056771   -0.00041576
     atom   71 type  1   force =     0.00167409   -0.00239319    0.00130081
     atom   72 type  1   force =    -0.00252415    0.00077345    0.00645524
     atom   73 type  1   force =     0.00026488   -0.00048035   -0.00056252
     atom   74 type  1   force =    -0.00052595    0.00109905   -0.00070514
     atom   75 type  1   force =     0.00111909    0.00023543   -0.00056484
     atom   76 type  1   force =     0.00071817   -0.00042214    0.00079784
     atom   77 type  1   force =    -0.00016947    0.00005991    0.00027422
     atom   78 type  1   force =     0.00004434    0.00002443    0.00006210
     atom   79 type  1   force =    -0.00119774   -0.00064309    0.00150113
     atom   80 type  1   force =     0.00058361    0.00014852    0.00025484
     atom   81 type  1   force =     0.00052133    0.00035212   -0.00041672
     atom   82 type  1   force =     0.00072557   -0.00028453   -0.00006637
     atom   83 type  1   force =    -0.00090745    0.00024723    0.00044747
     atom   84 type  1   force =     0.00088967   -0.00015858   -0.00083797
     atom   85 type  1   force =    -0.00002631   -0.00267300    0.00039094
     atom   86 type  1   force =    -0.00227303    0.00054526    0.00137779
     atom   87 type  1   force =     0.00174701   -0.00049744   -0.00012746
     atom   88 type  1   force =    -0.00021542    0.00144965    0.00206145
     atom   89 type  1   force =     0.00577364   -0.00083242    0.00123145
     atom   90 type  1   force =    -0.00136802    0.00414060   -0.00180231
     atom   91 type  1   force =     0.00148833   -0.00046721   -0.00327852
     atom   92 type  1   force =     0.00032454   -0.00176992    0.00114732
     atom   93 type  1   force =     0.00110721    0.00079208   -0.00034207
     atom   94 type  1   force =    -0.00054289   -0.00013941   -0.00150347
     atom   95 type  1   force =     0.00015354    0.00064805   -0.00031588
     atom   96 type  1   force =     0.00103022    0.00020579   -0.00014501
     atom   97 type  1   force =     0.00091741    0.00026150   -0.00027243
     atom   98 type  1   force =    -0.00120651   -0.00036099    0.00063829
     atom   99 type  1   force =    -0.00055044   -0.00109507    0.00025982
     atom  100 type  1   force =    -0.00027028    0.00005582    0.00031451
     atom  101 type  2   force =    -0.00115839    0.00108432    0.00172607
     atom  102 type  2   force =    -0.00041308    0.00187956    0.00398401
     atom  103 type  2   force =    -0.00104636    0.00197885   -0.00049167
     atom  104 type  2   force =    -0.00203822   -0.00158481    0.00135150
     atom  105 type  2   force =    -0.00071510    0.00088694   -0.00289301
     atom  106 type  2   force =    -0.00015758    0.00292088   -0.00032236
     atom  107 type  2   force =     0.00035157    0.00171897    0.00379926
     atom  108 type  2   force =     0.00143297   -0.00041535    0.00082139
     atom  109 type  2   force =    -0.00058516    0.00065230    0.00233908
     atom  110 type  2   force =     0.00013437    0.00317534   -0.00082868
     atom  111 type  2   force =     0.00034712    0.00211430   -0.00190972
     atom  112 type  2   force =    -0.00012416   -0.00029474    0.00008812
     atom  113 type  2   force =     0.00047204   -0.00103353    0.00162489
     atom  114 type  2   force =    -0.00065797    0.00072072   -0.00020253
     atom  115 type  2   force =    -0.00235932   -0.00078989   -0.00265466
     atom  116 type  2   force =    -0.00076996    0.00150403   -0.00034195
     atom  117 type  2   force =    -0.00205787   -0.00271256   -0.00099429
     atom  118 type  2   force =    -0.00065960   -0.00058028   -0.00119574
     atom  119 type  2   force =     0.00113903   -0.00052617   -0.00416523
     atom  120 type  2   force =    -0.00019235    0.00025975    0.00069806
     atom  121 type  2   force =    -0.01148184   -0.00506943    0.00012855
     atom  122 type  2   force =     0.00047022   -0.00015936   -0.00195670
     atom  123 type  2   force =     0.00058281   -0.00114982    0.00160592
     atom  124 type  2   force =    -0.00059793    0.00126801    0.00109283
     atom  125 type  2   force =    -0.00044214   -0.00020244    0.00135620
     atom  126 type  2   force =    -0.00041547    0.00169722    0.00278610
     atom  127 type  2   force =    -0.00145500    0.00017729    0.00163086
     atom  128 type  2   force =    -0.00176907    0.00234670   -0.00110187
     atom  129 type  2   force =    -0.00198054   -0.00115463   -0.00033673
     atom  130 type  2   force =    -0.00021728    0.00175182   -0.00149273
     atom  131 type  2   force =     0.00022874   -0.00085660    0.00028533
     atom  132 type  2   force =     0.00237160   -0.00069391   -0.00154272
     atom  133 type  2   force =     0.00045593   -0.00065329   -0.00309485
     atom  134 type  2   force =     0.00109194    0.00187580   -0.00181828
     atom  135 type  2   force =     0.00053124    0.00087193   -0.00255410
     atom  136 type  2   force =    -0.00135057   -0.00023983    0.00175156
     atom  137 type  2   force =     0.00073440    0.00050430    0.00208933
     atom  138 type  2   force =    -0.00012208   -0.00080926   -0.00185885
     atom  139 type  2   force =    -0.00040581    0.00032465   -0.00302675
     atom  140 type  2   force =    -0.00184250   -0.00001366    0.00150145
     atom  141 type  2   force =    -0.00152762    0.00081528   -0.00108472
     atom  142 type  2   force =    -0.00103701   -0.00243706    0.00185608
     atom  143 type  2   force =    -0.00110002    0.00006469   -0.00199684
     atom  144 type  2   force =     0.00092329   -0.00033910   -0.00260386
     atom  145 type  2   force =     0.00051987    0.00007759    0.00101957
     atom  146 type  2   force =     0.00015950   -0.00085780   -0.00038824
     atom  147 type  2   force =    -0.00013715   -0.00011027    0.00282881
     atom  148 type  2   force =     0.00035306    0.00060454    0.00200743
     atom  149 type  2   force =    -0.00035465    0.00191553   -0.00116054

     Total force =     0.027016     Total SCF correction =     0.000530

     number of scf cycles    =  17
     number of bfgs steps    =  16

     energy   old            =  -12710.1503516234 Ry
     energy   new            =  -12710.1512475829 Ry

     CASE: energy  _new < energy  _old

     new trust radius        =       0.0639149572 bohr
     new conv_thr            =       0.0000000100 Ry


ATOMIC_POSITIONS (angstrom)
Cu       0.054973638  -0.086844370   7.354030606
Cu       1.897978827   1.630499805   7.338683299
Cu       3.738599097  -0.092242419   7.347944358
Cu       5.585779356   1.630722463   7.326897240
Cu       0.055441425   3.356769727   7.327851349
Cu       1.900158975   5.085335955   7.329366600
Cu       3.741593567   3.357834954   7.323883399
Cu       5.587675850   5.077127865   7.333127451
Cu       0.052965770   6.793558131   7.340780905
Cu       1.900437021   8.485625001   7.350551802
Cu       3.747168130   6.794485320   7.343629453
Cu       5.587942657   8.496414493   7.354248891
Cu       0.056854447  10.176960995   7.359201952
Cu       1.898598545  11.863296018   7.361669073
Cu       3.741226594  10.175598886   7.355907261
Cu       5.587364709  11.860891724   7.358613408
Cu       0.056734577  13.547926166   7.372709502
Cu       1.891353286  15.242287414   7.371457696
Cu       3.739254715  13.552607774   7.363621925
Cu       5.592857895  15.244838877   7.364087384
Cu       0.066333476   1.639163375   9.153941096
Cu       1.907178479  -0.078803475   9.176307904
Cu       3.752068658   1.636265861   9.145917527
Cu       5.596211718  -0.072518738   9.169053700
Cu       0.065700135   5.068389079   9.147720223
Cu       1.909547677   3.356325038   9.138590996
Cu       3.757898591   5.069800859   9.150175799
Cu       5.599185940   3.348039244   9.138984047
Cu       0.065718457   8.487285546   9.188156189
Cu       1.912507370   6.781308045   9.176182991
Cu       3.758732053   8.485720705   9.194287657
Cu       5.599576817   6.781239626   9.168414518
Cu       0.067325125  11.861215533   9.214335674
Cu       1.910444553  10.178320835   9.197937770
Cu       3.751403452  11.867855470   9.203952358
Cu       5.599424212  10.183813792   9.204856091
Cu       0.060333904  15.253867010   9.203334105
Cu       1.907952713  13.550767379   9.217768881
Cu       3.751525304  15.252531050   9.194314349
Cu       5.596345064  13.552651766   9.202997984
Cu       0.083550888  -0.065193464  11.012703021
Cu       1.922850001   1.654731351  10.990371974
Cu       3.770999510  -0.061638961  11.001156322
Cu       5.618820447   1.642010287  10.986386297
Cu       0.080927351   3.351839705  10.983163834
Cu       1.928007194   5.042837134  10.972643515
Cu       3.772342468   3.343029393  10.973455013
Cu       5.617524531   5.052024670  10.984046848
Cu       0.069456091   6.768178675  10.998247861
Cu       1.927638178   8.493897985  11.020167462
Cu       3.786140950   6.766679494  11.001328509
Cu       5.617872479   8.482025566  11.030240984
Cu       0.081043749  10.168420188  11.065801044
Cu       1.919814403  11.852188614  11.075471995
Cu       3.771409939  10.181844770  11.052347574
Cu       5.616432042  11.869240582  11.062586494
Cu       0.080876472  13.556942913  11.060084816
Cu       1.926545670  15.263537427  11.040127527
Cu       3.765319579  13.555505843  11.055284117
Cu       5.611524090  15.264836474  11.030554933
Cu       0.101236633   1.652227367  12.826354951
Cu       1.942021177  -0.048116300  12.845859404
Cu       3.780617769   1.651111562  12.817703828
Cu       5.635717968  -0.052096112  12.841896682
Cu       0.110882200   5.073068953  12.831785404
Cu       1.943671311   3.358619420  12.831967908
Cu       3.788520767   5.046502618  12.803136924
Cu       5.632116252   3.351693765  12.816722607
Cu       0.113973528   8.434874575  12.899558489
Cu       1.938272233   6.760939005  12.743366168
Cu       3.786613753   8.460951668  12.859761075
Cu       5.657005242   6.751531054  12.838634484
Cu       0.100672366  11.860340131  12.922978865
Cu       1.942135697  10.132804818  12.941092912
Cu       3.775780481  11.854557894  12.914575561
Cu       5.635959286  10.158887787  12.897583350
Cu       0.097719849  15.271191080  12.873046229
Cu       1.940301481  13.562179287  12.905795737
Cu       3.790932177  15.283401097  12.860837400
Cu       5.626545552  13.562797555  12.895402209
Cu       0.106439007  -0.041417155  14.658178574
Cu       1.946044320   1.663697955  14.650797478
Cu       3.797199967  -0.031916981  14.659292560
Cu       5.647063621   1.660534867  14.640909050
Cu       0.116214050   3.363049218  14.628725189
Cu       2.006033632   5.007315686  14.646581732
Cu       3.811559689   3.331607324  14.635954343
Cu       5.669892848   5.040121776  14.630482955
Cu       0.198483091   6.721738816  14.794154079
Cu       2.004844017   8.456841839  14.780756653
Cu       3.865169962   6.735447188  14.674505700
Cu       5.679583667   8.427331425  14.688356035
Cu       0.107589562  10.139432153  14.736314810
Cu       1.958446353  11.853251664  14.748287071
Cu       3.826394496  10.143624951  14.728810308
Cu       5.638561550  11.861450918  14.732490867
Cu       0.100297490  13.578719979  14.723131582
Cu       1.957845137  15.295477835  14.677721402
Cu       3.799420437  13.585002869  14.701704169
Cu       5.639647967  15.296949334  14.677748262
C       -0.154963857   0.830094163  17.559389929
C       -0.157465475   2.253323626  17.546904231
C        1.075197774   0.119587930  17.569287066
C        1.071942409   2.962771011  17.560086161
C        2.304247932   0.828046475  17.540108908
C        2.301548560   2.251061059  17.544985407
C        3.535397356   0.118689643  17.520490801
C        3.529771506   2.962206285  17.548730108
C        4.765934716   0.829478219  17.525658780
C        4.762247389   2.253202749  17.536765316
C        5.995225944   0.119185601  17.563778654
C        5.990902721   2.963626619  17.547206390
C       -0.161171798   5.097495021  17.592692938
C       -0.165257848   6.522140325  17.682714408
C        1.074509925   4.387114078  17.579470214
C        1.044606325   7.238993957  17.694968860
C        2.297191838   5.083160645  17.541987409
C        2.281535534   6.544840553  17.277857562
C        3.522057677   4.388271735  17.563789253
C        3.540085066   7.241608918  17.640438000
C        2.152542569   6.691476605  15.659216252
C        4.756543160   5.099778890  17.568191802
C        4.750395505   6.525917663  17.646330876
C        5.987447482   4.391280031  17.563737611
C        5.982025215   7.230027911  17.715429918
C       -0.161547000   9.356608763  17.754633779
C       -0.157845399  10.774926283  17.717019333
C        1.061861748   8.642510310  17.766274323
C        1.073190989  11.484644376  17.717016025
C        2.296879846   9.355073426  17.754559693
C        2.300977597  10.770521173  17.761677557
C        3.530080603   8.641949087  17.751779858
C        3.529576216  11.484717237  17.765465314
C        4.756151953   9.355828137  17.768611699
C        4.757204004  10.774661351  17.758982533
C        5.985062555   8.647181730  17.740984534
C        5.988664592  11.482865562  17.699100090
C       -0.154811344  13.611730482  17.647663652
C       -0.152621788  15.030135653  17.626628082
C        1.076277162  12.903605495  17.674539185
C        1.075494552  15.739724870  17.606628883
C        2.304916831  13.613914525  17.667814712
C        2.306807198  15.031051675  17.617131745
C        3.531628379  12.902500043  17.702953146
C        3.536007755  15.739203272  17.574300304
C        4.761288058  13.611327566  17.652936534
C        4.763438883  15.028830490  17.590955737
C        5.990711187  12.902447259  17.663430141
C        5.995466390  15.738505202  17.586865054



     Writing output data file gc.save
     Check: negative starting charge=   -0.001803
     NEW-OLD atomic charge density approx. for the potential
     Check: negative starting charge=   -0.001797

     negative rho (up, down):  1.857E-03 0.000E+00

     total cpu time spent up to now is    57717.6 secs

     Self-consistent Calculation

     iteration #  1     ecut=    80.00 Ry     beta=0.70
     Davidson diagonalization with overlap
     ethr =  1.00E-06,  avg # of iterations =  7.3

     negative rho (up, down):  2.095E-03 0.000E+00

     total cpu time spent up to now is    58373.9 secs

     total energy              =  -12710.15105207 Ry
     Harris-Foulkes estimate   =  -12710.15562827 Ry
     estimated scf accuracy    <       0.04793458 Ry

     iteration #  2     ecut=    80.00 Ry     beta=0.70
     Davidson diagonalization with overlap
