
     Program PWSCF v.5.4.0 starts on 10Apr2017 at 10:46:46 

     This program is part of the open-source Quantum ESPRESSO suite
     for quantum simulation of materials; please cite
         "P. Giannozzi et al., J. Phys.:Condens. Matter 21 395502 (2009);
          URL http://www.quantum-espresso.org", 
     in publications or presentations arising from this work. More details at
     http://www.quantum-espresso.org/quote

     Parallel version (MPI & OpenMP), running on      56 processor cores
     Number of MPI processes:                56
     Threads/MPI process:                     1
     R & G space division:  proc/nbgrp/npool/nimage =      56
     Waiting for input...
     Reading input from standard input

     Current dimensions of program PWSCF are:
     Max number of different atomic species (ntypx) = 10
     Max number of k-points (npk) =  40000
     Max angular momentum in pseudopotentials (lmaxx) =  3

     -------------------------------------
     Parameters for Dispersion Correction:
     -------------------------------------
       atom      VdW radius       C_6     

        Cu         2.952        374.666
        C          2.744         60.710

     Subspace diagonalization in iterative solution of the eigenvalue problem:
     one sub-group per band group will be used
     scalapack distributed-memory algorithm (size of sub-group:  5*  5 procs)

 
     Parallelization info
     --------------------
     sticks:   dense  smooth     PW     G-vecs:    dense   smooth      PW
     Min         204     204     54                36612    36612    4962
     Max         205     205     55                36617    36617    4968
     Sum       11433   11433   3039              2050409  2050409  278033
 


     bravais-lattice index     =            0
     lattice parameter (alat)  =      13.9425  a.u.
     unit-cell volume          =   21209.0878 (a.u.)^3
     number of atoms/cell      =          149
     number of atomic types    =            2
     number of electrons       =      1296.00
     number of Kohn-Sham states=          778
     kinetic-energy cutoff     =      80.0000  Ry
     charge density cutoff     =     320.0000  Ry
     convergence threshold     =      1.0E-08
     mixing beta               =       0.7000
     number of iterations used =            8  local-TF  mixing
     Exchange-correlation      =  SLA  PW   PBX  PBC ( 1  4  3  4 0 0)
     nstep                     =           50


     celldm(1)=  13.942539  celldm(2)=   0.000000  celldm(3)=   0.000000
     celldm(4)=   0.000000  celldm(5)=   0.000000  celldm(6)=   0.000000

     crystal axes: (cart. coord. in units of alat)
               a(1) = (   1.000000   0.000000   0.000000 )  
               a(2) = (   0.000000   2.309401   0.000000 )  
               a(3) = (   0.000000   0.000000   3.388418 )  

     reciprocal axes: (cart. coord. in units 2 pi/alat)
               b(1) = (  1.000000  0.000000  0.000000 )  
               b(2) = (  0.000000  0.433013  0.000000 )  
               b(3) = (  0.000000  0.000000  0.295123 )  


     PseudoPot. # 1 for Cu read from file:
     /home/549/hxw549/Short/pseudopotentials/Cu.pbe-n-van_ak.UPF
     MD5 check sum: 601f7c30f7467666bec936e0661ce3e1
     Pseudo is Ultrasoft + core correction, Zval = 11.0
     Generated by new atomic code, or converted to UPF format
     Using radial grid of  867 points,  6 beta functions with: 
                l(1) =   0
                l(2) =   0
                l(3) =   1
                l(4) =   1
                l(5) =   2
                l(6) =   2
     Q(r) pseudized with  8 coefficients,  rinner =    1.400   1.400   1.400
                                                       1.400   1.400

     PseudoPot. # 2 for C  read from file:
     /home/549/hxw549/Short/pseudopotentials/C.pbe-mt_gipaw.UPF
     MD5 check sum: 5ac2f21f2c440b14befe521540822c15
     Pseudo is Norm-conserving, Zval =  4.0
     Generated by new atomic code, or converted to UPF format
     Using radial grid of 1073 points,  1 beta functions with: 
                l(1) =   0

     atomic species   valence    mass     pseudopotential
        Cu            11.00    63.54600     Cu( 1.00)
        C              4.00    12.01070     C ( 1.00)

     No symmetry found



   Cartesian axes

     site n.     atom                  positions (alat units)
         1           Cu  tau(   1) = (   0.0074509  -0.0117706   0.9967412  )
         2           Cu  tau(   2) = (   0.2572458   0.2209926   0.9946611  )
         3           Cu  tau(   3) = (   0.5067175  -0.0125022   0.9959163  )
         4           Cu  tau(   4) = (   0.7570783   0.2210228   0.9930637  )
         5           Cu  tau(   5) = (   0.0075143   0.4549656   0.9931930  )
         6           Cu  tau(   6) = (   0.2575413   0.6892498   0.9933984  )
         7           Cu  tau(   7) = (   0.5071233   0.4551100   0.9926552  )
         8           Cu  tau(   8) = (   0.7573353   0.6881373   0.9939081  )
         9           Cu  tau(   9) = (   0.0071788   0.9207766   0.9949454  )
        10           Cu  tau(  10) = (   0.2575790   1.1501138   0.9962697  )
        11           Cu  tau(  11) = (   0.5078789   0.9209023   0.9953315  )
        12           Cu  tau(  12) = (   0.7573715   1.1515762   0.9967708  )
        13           Cu  tau(  13) = (   0.0077059   1.3793520   0.9974421  )
        14           Cu  tau(  14) = (   0.2573298   1.6079123   0.9977765  )
        15           Cu  tau(  15) = (   0.5070736   1.3791674   0.9969956  )
        16           Cu  tau(  16) = (   0.7572931   1.6075864   0.9973624  )
        17           Cu  tau(  17) = (   0.0076896   1.8362416   0.9992729  )
        18           Cu  tau(  18) = (   0.2563478   2.0658897   0.9991033  )
        19           Cu  tau(  19) = (   0.5068063   1.8368761   0.9980412  )
        20           Cu  tau(  20) = (   0.7580377   2.0662356   0.9981043  )
        21           Cu  tau(  21) = (   0.0089906   0.2221668   1.2406952  )
        22           Cu  tau(  22) = (   0.2584927  -0.0106808   1.2437267  )
        23           Cu  tau(  23) = (   0.5085431   0.2217741   1.2396077  )
        24           Cu  tau(  24) = (   0.7584922  -0.0098290   1.2427435  )
        25           Cu  tau(  25) = (   0.0089048   0.6869529   1.2398521  )
        26           Cu  tau(  26) = (   0.2588138   0.4549053   1.2386147  )
        27           Cu  tau(  27) = (   0.5093333   0.6871442   1.2401849  )
        28           Cu  tau(  28) = (   0.7588953   0.4537823   1.2386680  )
        29           Cu  tau(  29) = (   0.0089073   1.1503389   1.2453326  )
        30           Cu  tau(  30) = (   0.2592150   0.9191163   1.2437098  )
        31           Cu  tau(  31) = (   0.5094462   1.1501268   1.2461637  )
        32           Cu  tau(  32) = (   0.7589483   0.9191070   1.2426569  )
        33           Cu  tau(  33) = (   0.0091250   1.6076303   1.2488809  )
        34           Cu  tau(  34) = (   0.2589354   1.3795363   1.2466584  )
        35           Cu  tau(  35) = (   0.5084529   1.6085303   1.2474736  )
        36           Cu  tau(  36) = (   0.7589276   1.3802808   1.2475961  )
        37           Cu  tau(  37) = (   0.0081775   2.0674592   1.2473898  )
        38           Cu  tau(  38) = (   0.2585977   1.8366267   1.2493462  )
        39           Cu  tau(  39) = (   0.5084695   2.0672781   1.2461673  )
        40           Cu  tau(  40) = (   0.7585103   1.8368821   1.2473442  )
        41           Cu  tau(  41) = (   0.0113242  -0.0088361   1.4926257  )
        42           Cu  tau(  42) = (   0.2606168   0.2242769   1.4895990  )
        43           Cu  tau(  43) = (   0.5111089  -0.0083543   1.4910607  )
        44           Cu  tau(  44) = (   0.7615565   0.2225527   1.4890588  )
        45           Cu  tau(  45) = (   0.0109686   0.4542974   1.4886221  )
        46           Cu  tau(  46) = (   0.2613158   0.6834896   1.4871962  )
        47           Cu  tau(  47) = (   0.5112910   0.4531033   1.4873062  )
        48           Cu  tau(  48) = (   0.7613809   0.6847349   1.4887418  )
        49           Cu  tau(  49) = (   0.0094139   0.9173368   1.4906665  )
        50           Cu  tau(  50) = (   0.2612658   1.1512351   1.4936374  )
        51           Cu  tau(  51) = (   0.5131612   0.9171336   1.4910841  )
        52           Cu  tau(  52) = (   0.7614280   1.1496260   1.4950028  )
        53           Cu  tau(  53) = (   0.0109844   1.3781944   1.4998225  )
        54           Cu  tau(  54) = (   0.2602054   1.6064069   1.5011332  )
        55           Cu  tau(  55) = (   0.5111646   1.3800139   1.4979990  )
        56           Cu  tau(  56) = (   0.7612328   1.6087180   1.4993868  )
        57           Cu  tau(  57) = (   0.0109617   1.8374637   1.4990477  )
        58           Cu  tau(  58) = (   0.2611177   2.0687699   1.4963428  )
        59           Cu  tau(  59) = (   0.5103391   1.8372689   1.4983970  )
        60           Cu  tau(  60) = (   0.7605676   2.0689460   1.4950453  )
        61           Cu  tau(  61) = (   0.0137213   0.2239375   1.7384422  )
        62           Cu  tau(  62) = (   0.2632152  -0.0065215   1.7410857  )
        63           Cu  tau(  63) = (   0.5124126   0.2237863   1.7372696  )
        64           Cu  tau(  64) = (   0.7638468  -0.0070609   1.7405486  )
        65           Cu  tau(  65) = (   0.0150286   0.6875872   1.7391782  )
        66           Cu  tau(  66) = (   0.2634388   0.4552163   1.7392029  )
        67           Cu  tau(  67) = (   0.5134837   0.6839864   1.7352953  )
        68           Cu  tau(  68) = (   0.7633586   0.4542776   1.7371366  )
        69           Cu  tau(  69) = (   0.0154476   1.1432353   1.7483639  )
        70           Cu  tau(  70) = (   0.2627071   0.9163555   1.7271941  )
        71           Cu  tau(  71) = (   0.5132252   1.1467697   1.7429699  )
        72           Cu  tau(  72) = (   0.7667320   0.9150804   1.7401065  )
        73           Cu  tau(  73) = (   0.0136448   1.6075117   1.7515383  )
        74           Cu  tau(  74) = (   0.2632307   1.3733672   1.7539934  )
        75           Cu  tau(  75) = (   0.5117569   1.6067280   1.7503993  )
        76           Cu  tau(  76) = (   0.7638795   1.3769024   1.7480962  )
        77           Cu  tau(  77) = (   0.0132446   2.0698073   1.7447706  )
        78           Cu  tau(  78) = (   0.2629821   1.8381734   1.7492093  )
        79           Cu  tau(  79) = (   0.5138105   2.0714622   1.7431158  )
        80           Cu  tau(  80) = (   0.7626036   1.8382572   1.7478006  )
        81           Cu  tau(  81) = (   0.0144264  -0.0056135   1.9867215  )
        82           Cu  tau(  82) = (   0.2637605   0.2254922   1.9857211  )
        83           Cu  tau(  83) = (   0.5146601  -0.0043259   1.9868725  )
        84           Cu  tau(  84) = (   0.7653845   0.2250635   1.9843809  )
        85           Cu  tau(  85) = (   0.0157513   0.4558167   1.9827295  )
        86           Cu  tau(  86) = (   0.2718912   0.6786752   1.9851498  )
        87           Cu  tau(  87) = (   0.5166063   0.4515552   1.9837093  )
        88           Cu  tau(  88) = (   0.7684787   0.6831216   1.9829678  )
        89           Cu  tau(  89) = (   0.0269017   0.9110425   2.0051512  )
        90           Cu  tau(  90) = (   0.2717300   1.1462127   2.0033354  )
        91           Cu  tau(  91) = (   0.5238725   0.9129005   1.9889345  )
        92           Cu  tau(  92) = (   0.7697922   1.1422129   1.9908117  )
        93           Cu  tau(  93) = (   0.0145823   1.3742654   1.9973119  )
        94           Cu  tau(  94) = (   0.2654414   1.6065509   1.9989346  )
        95           Cu  tau(  95) = (   0.5186170   1.3748337   1.9962947  )
        96           Cu  tau(  96) = (   0.7642322   1.6076622   1.9967936  )
        97           Cu  tau(  97) = (   0.0135940   1.8404153   1.9955251  )
        98           Cu  tau(  98) = (   0.2653599   2.0730990   1.9893703  )
        99           Cu  tau(  99) = (   0.5149610   1.8412668   1.9926209  )
       100           Cu  tau( 100) = (   0.7643794   2.0732984   1.9893740  )
       101           C   tau( 101) = (  -0.0210033   0.1125082   2.3799422  )
       102           C   tau( 102) = (  -0.0213424   0.3054081   2.3782500  )
       103           C   tau( 103) = (   0.1457288   0.0162086   2.3812837  )
       104           C   tau( 104) = (   0.1452876   0.4015643   2.3800366  )
       105           C   tau( 105) = (   0.3123102   0.1122307   2.3773290  )
       106           C   tau( 106) = (   0.3119444   0.3051014   2.3779899  )
       107           C   tau( 107) = (   0.4791762   0.0160868   2.3746700  )
       108           C   tau( 108) = (   0.4784137   0.4014877   2.3784974  )
       109           C   tau( 109) = (   0.6459592   0.1124248   2.3753704  )
       110           C   tau( 110) = (   0.6454594   0.3053917   2.3768758  )
       111           C   tau( 111) = (   0.8125733   0.0161540   2.3805371  )
       112           C   tau( 112) = (   0.8119873   0.4016803   2.3782909  )
       113           C   tau( 113) = (  -0.0218447   0.6908978   2.3844560  )
       114           C   tau( 114) = (  -0.0223985   0.8839896   2.3966572  )
       115           C   tau( 115) = (   0.1456356   0.5946151   2.3826639  )
       116           C   tau( 116) = (   0.1415825   0.9811495   2.3983182  )
       117           C   tau( 117) = (   0.3113539   0.6889550   2.3775836  )
       118           C   tau( 118) = (   0.3092319   0.8870663   2.3417843  )
       119           C   tau( 119) = (   0.4773682   0.5947720   2.3805385  )
       120           C   tau( 120) = (   0.4798115   0.9815040   2.3909272  )
       121           C   tau( 121) = (   0.2917486   0.9069408   2.1223989  )
       122           C   tau( 122) = (   0.6446863   0.6912073   2.3811352  )
       123           C   tau( 123) = (   0.6438531   0.8845015   2.3917259  )
       124           C   tau( 124) = (   0.8115190   0.5951797   2.3805315  )
       125           C   tau( 125) = (   0.8107841   0.9799343   2.4010914  )
       126           C   tau( 126) = (  -0.0218956   1.2681641   2.4064050  )
       127           C   tau( 127) = (  -0.0213938   1.4603982   2.4013068  )
       128           C   tau( 128) = (   0.1439213   1.1713776   2.4079827  )
       129           C   tau( 129) = (   0.1454568   1.5565911   2.4013064  )
       130           C   tau( 130) = (   0.3113116   1.2679560   2.4063949  )
       131           C   tau( 131) = (   0.3118670   1.4598012   2.4073596  )
       132           C   tau( 132) = (   0.4784556   1.1713015   2.4060181  )
       133           C   tau( 133) = (   0.4783872   1.5566010   2.4078730  )
       134           C   tau( 134) = (   0.6446333   1.2680583   2.4082995  )
       135           C   tau( 135) = (   0.6447759   1.4603623   2.4069944  )
       136           C   tau( 136) = (   0.8111958   1.1720107   2.4045550  )
       137           C   tau( 137) = (   0.8116840   1.5563500   2.3988781  )
       138           C   tau( 138) = (  -0.0209826   1.8448894   2.3919066  )
       139           C   tau( 139) = (  -0.0206859   2.0371354   2.3890555  )
       140           C   tau( 140) = (   0.1458751   1.7489125   2.3955492  )
       141           C   tau( 141) = (   0.1457690   2.1333108   2.3863449  )
       142           C   tau( 142) = (   0.3124009   1.8451854   2.3946378  )
       143           C   tau( 143) = (   0.3126571   2.0372595   2.3877684  )
       144           C   tau( 144) = (   0.4786654   1.7487626   2.3994003  )
       145           C   tau( 145) = (   0.4792589   2.1332401   2.3819631  )
       146           C   tau( 146) = (   0.6453294   1.8448348   2.3926212  )
       147           C   tau( 147) = (   0.6456209   2.0369585   2.3842206  )
       148           C   tau( 148) = (   0.8119614   1.7487555   2.3940435  )
       149           C   tau( 149) = (   0.8126059   2.1331455   2.3836661  )

     number of k points=     6  gaussian smearing, width (Ry)=  0.1000
                       cart. coord. in units 2pi/alat
        k(    1) = (   0.0000000   0.0000000   0.0000000), wk =   0.2500000
        k(    2) = (   0.0000000  -0.2165064   0.0000000), wk =   0.2500000
        k(    3) = (   0.2500000   0.0000000   0.0000000), wk =   0.5000000
        k(    4) = (   0.2500000  -0.2165064   0.0000000), wk =   0.5000000
        k(    5) = (  -0.5000000   0.0000000   0.0000000), wk =   0.2500000
        k(    6) = (  -0.5000000  -0.2165064   0.0000000), wk =   0.2500000

     Dense  grid:  2050409 G-vectors     FFT dimensions: (  80, 192, 270)

     Largest allocated arrays     est. size (Mb)     dimensions
        Kohn-Sham Wavefunctions        54.66 Mb     (    4604,  778)
        NL pseudopotentials           129.89 Mb     (    4604, 1849)
        Each V/rho on FFT grid          1.17 Mb     (   76800)
        Each G-vector array             0.28 Mb     (   36616)
        G-vector shells                 0.14 Mb     (   17932)
     Largest temporary arrays     est. size (Mb)     dimensions
        Auxiliary wavefunctions       218.62 Mb     (    4604, 3112)
        Each subspace H/S matrix        5.90 Mb     (     622,  622)
        Each <psi_i|beta_j> matrix     21.95 Mb     (    1849,  778)
        Arrays for rho mixing           9.38 Mb     (   76800,    8)

     Initial potential from superposition of free atoms
     Check: negative starting charge=   -0.001797

     starting charge 1270.31751, renormalised to 1296.00000

     negative rho (up, down):  1.834E-03 0.000E+00
     Starting wfc are 1292 randomized atomic wfcs

     total cpu time spent up to now is      107.3 secs

     Self-consistent Calculation

     iteration #  1     ecut=    80.00 Ry     beta=0.70
     Davidson diagonalization with overlap
     c_bands:  3 eigenvalues not converged
     c_bands:  1 eigenvalues not converged
     c_bands:  2 eigenvalues not converged
     ethr =  1.00E-04,  avg # of iterations = 23.8

     negative rho (up, down):  2.825E+01 0.000E+00

     total cpu time spent up to now is     1881.8 secs

     total energy              =   -9411.44128858 Ry
     Harris-Foulkes estimate   =  -17218.70404292 Ry
     estimated scf accuracy    <  179252.53139924 Ry

     iteration #  2     ecut=    80.00 Ry     beta=0.70
     Davidson diagonalization with overlap
     ethr =  1.00E-02,  avg # of iterations = 12.2

     negative rho (up, down):  3.180E+01 0.000E+00

     total cpu time spent up to now is     2793.4 secs

     total energy              =  -12283.38257747 Ry
     Harris-Foulkes estimate   =  -13650.44058199 Ry
     estimated scf accuracy    <   20603.35443795 Ry

     iteration #  3     ecut=    80.00 Ry     beta=0.70
     Davidson diagonalization with overlap
     ethr =  1.00E-02,  avg # of iterations =  7.2

     negative rho (up, down):  3.295E+01 0.000E+00

     total cpu time spent up to now is     3317.7 secs

     total energy              =  -12479.92950036 Ry
     Harris-Foulkes estimate   =  -13386.22751318 Ry
     estimated scf accuracy    <    6120.72215014 Ry

     iteration #  4     ecut=    80.00 Ry     beta=0.70
     Davidson diagonalization with overlap
     ethr =  1.00E-02,  avg # of iterations =  5.0

     negative rho (up, down):  2.773E+01 0.000E+00

     total cpu time spent up to now is     3777.8 secs

     total energy              =  -12827.80263569 Ry
     Harris-Foulkes estimate   =  -13138.96612325 Ry
     estimated scf accuracy    <    4371.54044033 Ry

     iteration #  5     ecut=    80.00 Ry     beta=0.70
     Davidson diagonalization with overlap
     ethr =  1.00E-02,  avg # of iterations =  4.5

     negative rho (up, down):  1.897E+01 0.000E+00

     total cpu time spent up to now is     4084.6 secs

     total energy              =  -12873.47568214 Ry
     Harris-Foulkes estimate   =  -13031.95983403 Ry
     estimated scf accuracy    <    1052.16665891 Ry

     iteration #  6     ecut=    80.00 Ry     beta=0.70
     Davidson diagonalization with overlap
     ethr =  1.00E-02,  avg # of iterations =  2.0

     negative rho (up, down):  1.417E+01 0.000E+00

     total cpu time spent up to now is     4300.0 secs

     total energy              =  -12855.61118326 Ry
     Harris-Foulkes estimate   =  -12911.29212439 Ry
     estimated scf accuracy    <     633.60894615 Ry

     iteration #  7     ecut=    80.00 Ry     beta=0.70
     Davidson diagonalization with overlap
     ethr =  1.00E-02,  avg # of iterations =  2.0

     negative rho (up, down):  9.011E+00 0.000E+00

     total cpu time spent up to now is     4476.8 secs

     total energy              =  -12821.10396942 Ry
     Harris-Foulkes estimate   =  -12873.53140103 Ry
     estimated scf accuracy    <     541.84432206 Ry

     iteration #  8     ecut=    80.00 Ry     beta=0.70
     Davidson diagonalization with overlap
     ethr =  1.00E-02,  avg # of iterations =  1.0

     negative rho (up, down):  8.335E+00 0.000E+00

     total cpu time spent up to now is     4641.4 secs

     total energy              =  -12817.14234509 Ry
     Harris-Foulkes estimate   =  -12830.58110539 Ry
     estimated scf accuracy    <     402.78502628 Ry

     iteration #  9     ecut=    80.00 Ry     beta=0.70
     Davidson diagonalization with overlap
     ethr =  1.00E-02,  avg # of iterations =  1.0

     negative rho (up, down):  6.803E+00 0.000E+00

     total cpu time spent up to now is     4805.6 secs

     total energy              =  -12803.98964205 Ry
     Harris-Foulkes estimate   =  -12822.19053580 Ry
     estimated scf accuracy    <     258.25102885 Ry

     iteration # 10     ecut=    80.00 Ry     beta=0.70
     Davidson diagonalization with overlap
     ethr =  1.00E-02,  avg # of iterations =  1.3

     negative rho (up, down):  3.361E+00 0.000E+00

     total cpu time spent up to now is     4973.4 secs

     total energy              =  -12767.23739505 Ry
     Harris-Foulkes estimate   =  -12806.00740344 Ry
     estimated scf accuracy    <     231.14319942 Ry

     iteration # 11     ecut=    80.00 Ry     beta=0.70
     Davidson diagonalization with overlap
     ethr =  1.00E-02,  avg # of iterations =  2.0

     negative rho (up, down):  1.162E+00 0.000E+00

     total cpu time spent up to now is     5151.0 secs

     total energy              =  -12746.82757274 Ry
     Harris-Foulkes estimate   =  -12776.22916117 Ry
     estimated scf accuracy    <     168.24679910 Ry

     iteration # 12     ecut=    80.00 Ry     beta=0.70
     Davidson diagonalization with overlap
     ethr =  1.00E-02,  avg # of iterations =  1.3

     negative rho (up, down):  1.313E+00 0.000E+00

     total cpu time spent up to now is     5319.1 secs

     total energy              =  -12730.39677852 Ry
     Harris-Foulkes estimate   =  -12752.52153339 Ry
     estimated scf accuracy    <     109.46982255 Ry

     iteration # 13     ecut=    80.00 Ry     beta=0.70
     Davidson diagonalization with overlap
     ethr =  8.45E-03,  avg # of iterations =  3.8

     negative rho (up, down):  3.722E+00 0.000E+00

     total cpu time spent up to now is     5518.7 secs

     total energy              =  -12724.81048736 Ry
     Harris-Foulkes estimate   =  -12739.22537973 Ry
     estimated scf accuracy    <      73.49414976 Ry

     iteration # 14     ecut=    80.00 Ry     beta=0.70
     Davidson diagonalization with overlap
     ethr =  5.67E-03,  avg # of iterations =  2.0

     negative rho (up, down):  4.522E+00 0.000E+00

     total cpu time spent up to now is     5695.7 secs

     total energy              =  -12725.80491060 Ry
     Harris-Foulkes estimate   =  -12729.54435496 Ry
     estimated scf accuracy    <      59.78135003 Ry

     iteration # 15     ecut=    80.00 Ry     beta=0.70
     Davidson diagonalization with overlap
     ethr =  4.61E-03,  avg # of iterations =  1.0

     negative rho (up, down):  6.730E+00 0.000E+00

     total cpu time spent up to now is     5860.0 secs

     total energy              =  -12720.21078408 Ry
     Harris-Foulkes estimate   =  -12726.29452575 Ry
     estimated scf accuracy    <      45.63493896 Ry

     iteration # 16     ecut=    80.00 Ry     beta=0.70
     Davidson diagonalization with overlap
     ethr =  3.52E-03,  avg # of iterations =  2.0

     negative rho (up, down):  6.408E+00 0.000E+00

     total cpu time spent up to now is     6036.5 secs

     total energy              =  -12719.26350432 Ry
     Harris-Foulkes estimate   =  -12721.74172402 Ry
     estimated scf accuracy    <      27.16645682 Ry

     iteration # 17     ecut=    80.00 Ry     beta=0.70
     Davidson diagonalization with overlap
     ethr =  2.10E-03,  avg # of iterations =  4.0

     negative rho (up, down):  3.774E+00 0.000E+00

     total cpu time spent up to now is     6237.1 secs

     total energy              =  -12717.20667982 Ry
     Harris-Foulkes estimate   =  -12720.37985920 Ry
     estimated scf accuracy    <      19.21386629 Ry

     iteration # 18     ecut=    80.00 Ry     beta=0.70
     Davidson diagonalization with overlap
     ethr =  1.48E-03,  avg # of iterations =  4.0

     negative rho (up, down):  3.487E+00 0.000E+00

     total cpu time spent up to now is     6437.2 secs

     total energy              =  -12716.72289592 Ry
     Harris-Foulkes estimate   =  -12718.13312439 Ry
     estimated scf accuracy    <      14.51504796 Ry

     iteration # 19     ecut=    80.00 Ry     beta=0.70
     Davidson diagonalization with overlap
     ethr =  1.12E-03,  avg # of iterations =  6.3

     negative rho (up, down):  2.989E+00 0.000E+00

     total cpu time spent up to now is     6664.6 secs

     total energy              =  -12716.10190529 Ry
     Harris-Foulkes estimate   =  -12717.08355249 Ry
     estimated scf accuracy    <      10.04725690 Ry

     iteration # 20     ecut=    80.00 Ry     beta=0.70
     Davidson diagonalization with overlap
     ethr =  7.75E-04,  avg # of iterations =  3.2

     negative rho (up, down):  1.213E+00 0.000E+00

     total cpu time spent up to now is     6854.8 secs

     total energy              =  -12714.55346310 Ry
     Harris-Foulkes estimate   =  -12716.31824345 Ry
     estimated scf accuracy    <       8.78421498 Ry

     iteration # 21     ecut=    80.00 Ry     beta=0.70
     Davidson diagonalization with overlap
     ethr =  6.78E-04,  avg # of iterations =  5.2

     negative rho (up, down):  1.315E+00 0.000E+00

     total cpu time spent up to now is     7070.1 secs

     total energy              =  -12714.79121357 Ry
     Harris-Foulkes estimate   =  -12714.92036829 Ry
     estimated scf accuracy    <      12.05128730 Ry

     iteration # 22     ecut=    80.00 Ry     beta=0.70
     Davidson diagonalization with overlap
     ethr =  6.78E-04,  avg # of iterations =  1.0

     negative rho (up, down):  1.079E-01 0.000E+00

     total cpu time spent up to now is     7234.4 secs

     total energy              =  -12713.11131148 Ry
     Harris-Foulkes estimate   =  -12715.15526416 Ry
     estimated scf accuracy    <       7.41374888 Ry

     iteration # 23     ecut=    80.00 Ry     beta=0.70
     Davidson diagonalization with overlap
     ethr =  5.72E-04,  avg # of iterations =  6.5

     negative rho (up, down):  1.201E-02 0.000E+00

     total cpu time spent up to now is     7462.6 secs

     total energy              =  -12712.99138462 Ry
     Harris-Foulkes estimate   =  -12713.37176748 Ry
     estimated scf accuracy    <      14.88998639 Ry

     iteration # 24     ecut=    80.00 Ry     beta=0.70
     Davidson diagonalization with overlap
     ethr =  5.72E-04,  avg # of iterations =  1.0

     total cpu time spent up to now is     7625.5 secs

     total energy              =  -12712.01042335 Ry
     Harris-Foulkes estimate   =  -12713.02891741 Ry
     estimated scf accuracy    <      11.42508707 Ry

     iteration # 25     ecut=    80.00 Ry     beta=0.70
     Davidson diagonalization with overlap
     ethr =  5.72E-04,  avg # of iterations =  1.0

     negative rho (up, down):  1.872E-04 0.000E+00

     total cpu time spent up to now is     7791.5 secs

     total energy              =  -12711.68027462 Ry
     Harris-Foulkes estimate   =  -12712.29838034 Ry
     estimated scf accuracy    <      17.83467780 Ry

     iteration # 26     ecut=    80.00 Ry     beta=0.70
     Davidson diagonalization with overlap
     ethr =  5.72E-04,  avg # of iterations =  2.0

     negative rho (up, down):  3.053E-01 0.000E+00

     total cpu time spent up to now is     7968.5 secs

     total energy              =  -12710.73532874 Ry
     Harris-Foulkes estimate   =  -12712.55172023 Ry
     estimated scf accuracy    <       5.77855245 Ry

     iteration # 27     ecut=    80.00 Ry     beta=0.70
     Davidson diagonalization with overlap
     ethr =  4.46E-04,  avg # of iterations =  3.3

     negative rho (up, down):  5.745E-01 0.000E+00

     total cpu time spent up to now is     8160.9 secs

     total energy              =  -12710.46722427 Ry
     Harris-Foulkes estimate   =  -12710.85230442 Ry
     estimated scf accuracy    <       2.26128257 Ry

     iteration # 28     ecut=    80.00 Ry     beta=0.70
     Davidson diagonalization with overlap
     ethr =  1.74E-04,  avg # of iterations =  7.7

     negative rho (up, down):  2.758E-01 0.000E+00

     total cpu time spent up to now is     8408.3 secs

     total energy              =  -12710.18326240 Ry
     Harris-Foulkes estimate   =  -12710.53016536 Ry
     estimated scf accuracy    <       1.40639992 Ry

     iteration # 29     ecut=    80.00 Ry     beta=0.70
     Davidson diagonalization with overlap
     ethr =  1.09E-04,  avg # of iterations =  8.2

     negative rho (up, down):  1.588E-01 0.000E+00

     total cpu time spent up to now is     8682.3 secs

     total energy              =  -12710.13116333 Ry
     Harris-Foulkes estimate   =  -12710.26055312 Ry
     estimated scf accuracy    <       0.97459118 Ry

     iteration # 30     ecut=    80.00 Ry     beta=0.70
     Davidson diagonalization with overlap
     ethr =  7.52E-05,  avg # of iterations =  7.5

     negative rho (up, down):  1.156E-02 0.000E+00

     total cpu time spent up to now is     8945.6 secs

     total energy              =  -12710.15156775 Ry
     Harris-Foulkes estimate   =  -12710.18647791 Ry
     estimated scf accuracy    <       0.68849519 Ry

     iteration # 31     ecut=    80.00 Ry     beta=0.70
     Davidson diagonalization with overlap
     ethr =  5.31E-05,  avg # of iterations =  7.8

     negative rho (up, down):  1.667E-01 0.000E+00

     total cpu time spent up to now is     9194.8 secs

     total energy              =  -12710.14828074 Ry
     Harris-Foulkes estimate   =  -12710.16914705 Ry
     estimated scf accuracy    <       0.29814917 Ry

     iteration # 32     ecut=    80.00 Ry     beta=0.70
     Davidson diagonalization with overlap
     ethr =  2.30E-05,  avg # of iterations =  9.2

     negative rho (up, down):  6.520E-02 0.000E+00

     total cpu time spent up to now is     9466.1 secs

     total energy              =  -12710.14745328 Ry
     Harris-Foulkes estimate   =  -12710.15955820 Ry
     estimated scf accuracy    <       0.08891952 Ry

     iteration # 33     ecut=    80.00 Ry     beta=0.70
     Davidson diagonalization with overlap
     ethr =  6.86E-06,  avg # of iterations =  9.2

     negative rho (up, down):  2.642E-02 0.000E+00

     total cpu time spent up to now is     9750.4 secs

     total energy              =  -12710.15140304 Ry
     Harris-Foulkes estimate   =  -12710.15340043 Ry
     estimated scf accuracy    <       0.00806676 Ry

     iteration # 34     ecut=    80.00 Ry     beta=0.70
     Davidson diagonalization with overlap
     c_bands:  3 eigenvalues not converged
     ethr =  6.22E-07,  avg # of iterations = 15.2

     negative rho (up, down):  2.218E-02 0.000E+00

     total cpu time spent up to now is    10119.9 secs

     total energy              =  -12710.15221982 Ry
     Harris-Foulkes estimate   =  -12710.15230074 Ry
     estimated scf accuracy    <       0.00472960 Ry

     iteration # 35     ecut=    80.00 Ry     beta=0.70
     Davidson diagonalization with overlap
     c_bands:  2 eigenvalues not converged
     ethr =  3.65E-07,  avg # of iterations = 12.7

     negative rho (up, down):  1.595E-02 0.000E+00

     total cpu time spent up to now is    10449.5 secs

     total energy              =  -12710.15231134 Ry
     Harris-Foulkes estimate   =  -12710.15254842 Ry
     estimated scf accuracy    <       0.00072508 Ry

     iteration # 36     ecut=    80.00 Ry     beta=0.70
     Davidson diagonalization with overlap
     c_bands:  1 eigenvalues not converged
     c_bands:  1 eigenvalues not converged
     ethr =  5.59E-08,  avg # of iterations = 11.5

     negative rho (up, down):  6.351E-03 0.000E+00

     total cpu time spent up to now is    10750.8 secs

     total energy              =  -12710.15217990 Ry
     Harris-Foulkes estimate   =  -12710.15238796 Ry
     estimated scf accuracy    <       0.00017134 Ry

     iteration # 37     ecut=    80.00 Ry     beta=0.70
     Davidson diagonalization with overlap
     ethr =  1.32E-08,  avg # of iterations = 11.0

     negative rho (up, down):  3.970E-03 0.000E+00

     total cpu time spent up to now is    11055.0 secs

     total energy              =  -12710.15216007 Ry
     Harris-Foulkes estimate   =  -12710.15219468 Ry
     estimated scf accuracy    <       0.00004678 Ry

     iteration # 38     ecut=    80.00 Ry     beta=0.70
     Davidson diagonalization with overlap
     ethr =  3.61E-09,  avg # of iterations =  6.7

     negative rho (up, down):  2.500E-03 0.000E+00

     total cpu time spent up to now is    11303.5 secs

     total energy              =  -12710.15214742 Ry
     Harris-Foulkes estimate   =  -12710.15216514 Ry
     estimated scf accuracy    <       0.00001589 Ry

     iteration # 39     ecut=    80.00 Ry     beta=0.70
     Davidson diagonalization with overlap
     ethr =  1.23E-09,  avg # of iterations = 11.8

     negative rho (up, down):  2.273E-03 0.000E+00

     total cpu time spent up to now is    11615.7 secs

     total energy              =  -12710.15214685 Ry
     Harris-Foulkes estimate   =  -12710.15214915 Ry
     estimated scf accuracy    <       0.00000677 Ry

     iteration # 40     ecut=    80.00 Ry     beta=0.70
     Davidson diagonalization with overlap
     ethr =  5.22E-10,  avg # of iterations =  3.0

     negative rho (up, down):  1.974E-03 0.000E+00

     total cpu time spent up to now is    11814.4 secs

     total energy              =  -12710.15214726 Ry
     Harris-Foulkes estimate   =  -12710.15214756 Ry
     estimated scf accuracy    <       0.00000224 Ry

     iteration # 41     ecut=    80.00 Ry     beta=0.70
     Davidson diagonalization with overlap
     ethr =  1.73E-10,  avg # of iterations =  2.0

     negative rho (up, down):  2.025E-03 0.000E+00

     total cpu time spent up to now is    11998.6 secs

     total energy              =  -12710.15214728 Ry
     Harris-Foulkes estimate   =  -12710.15214745 Ry
     estimated scf accuracy    <       0.00000100 Ry

     iteration # 42     ecut=    80.00 Ry     beta=0.70
     Davidson diagonalization with overlap
     ethr =  7.74E-11,  avg # of iterations =  2.0

     negative rho (up, down):  1.964E-03 0.000E+00

     total cpu time spent up to now is    12184.9 secs

     total energy              =  -12710.15214741 Ry
     Harris-Foulkes estimate   =  -12710.15214738 Ry
     estimated scf accuracy    <       0.00000055 Ry

     iteration # 43     ecut=    80.00 Ry     beta=0.70
     Davidson diagonalization with overlap
     ethr =  4.27E-11,  avg # of iterations =  2.0

     negative rho (up, down):  1.925E-03 0.000E+00

     total cpu time spent up to now is    12368.9 secs

     total energy              =  -12710.15214748 Ry
     Harris-Foulkes estimate   =  -12710.15214746 Ry
     estimated scf accuracy    <       0.00000028 Ry

     iteration # 44     ecut=    80.00 Ry     beta=0.70
     Davidson diagonalization with overlap
     ethr =  2.16E-11,  avg # of iterations =  2.0

     negative rho (up, down):  1.896E-03 0.000E+00

     total cpu time spent up to now is    12553.4 secs

     total energy              =  -12710.15214754 Ry
     Harris-Foulkes estimate   =  -12710.15214752 Ry
     estimated scf accuracy    <       0.00000005 Ry

     iteration # 45     ecut=    80.00 Ry     beta=0.70
     Davidson diagonalization with overlap
     ethr =  3.97E-12,  avg # of iterations =  3.0

     negative rho (up, down):  1.891E-03 0.000E+00

     total cpu time spent up to now is    12789.4 secs

     total energy              =  -12710.15214757 Ry
     Harris-Foulkes estimate   =  -12710.15214755 Ry
     estimated scf accuracy    <       0.00000003 Ry

     iteration # 46     ecut=    80.00 Ry     beta=0.70
     Davidson diagonalization with overlap
     ethr =  2.34E-12,  avg # of iterations =  2.0

     negative rho (up, down):  1.879E-03 0.000E+00

     total cpu time spent up to now is    12975.0 secs

     total energy              =  -12710.15214759 Ry
     Harris-Foulkes estimate   =  -12710.15214757 Ry
     estimated scf accuracy    <       0.00000001 Ry

     iteration # 47     ecut=    80.00 Ry     beta=0.70
     Davidson diagonalization with overlap
     ethr =  8.08E-13,  avg # of iterations =  2.5

     negative rho (up, down):  1.860E-03 0.000E+00

     total cpu time spent up to now is    13159.9 secs

     End of self-consistent calculation

          k = 0.0000 0.0000 0.0000 (256287 PWs)   bands (ev):

   -16.0290 -15.6676 -15.6407 -14.5666 -14.5339 -14.0747 -14.0573 -13.7371
   -13.7028 -13.6886 -13.6735 -12.7806 -12.7397 -12.6605 -12.6345 -12.6145
   -12.6084 -11.0184 -10.9422 -10.9217 -10.9196 -10.7485  -9.7315  -9.2485
    -9.0538  -9.0353  -9.0299  -8.4072  -8.1631  -8.1542  -8.1352  -7.7313
    -7.1658  -7.1532  -7.1059  -7.0932  -7.0833  -7.0552  -7.0400  -6.9344
    -5.6886  -5.5615  -5.5438  -5.5333  -5.5041  -5.3870  -5.3839  -5.3664
    -5.3471  -5.1655  -5.1347  -4.6728  -4.3553  -4.2808  -4.2368  -4.2157
    -4.0222  -3.9620  -3.9056  -3.8269  -3.7769  -3.6716  -3.6303  -3.1636
    -3.1431  -3.1333  -3.0949  -3.0801  -3.0774  -3.0377  -2.9701  -2.9496
    -2.9278  -2.8329  -2.7678  -2.7346  -2.7256  -2.6950  -2.6844  -2.6586
    -2.6476  -2.5733  -2.5114  -2.4484  -2.4323  -2.3871  -2.2894  -2.2724
    -2.2633  -2.2562  -2.2517  -2.1611  -2.0730  -2.0399  -2.0303  -1.9788
    -1.9620  -1.8876  -1.8705  -1.8601  -1.8379  -1.8371  -1.8281  -1.8256
    -1.8106  -1.7191  -1.7021  -1.7011  -1.6978  -1.6922  -1.6898  -1.6024
    -1.5625  -1.5227  -1.5015  -1.4730  -1.4497  -1.4416  -1.4163  -1.4122
    -1.3856  -1.3677  -1.3458  -1.3348  -1.3293  -1.3090  -1.3012  -1.2639
    -1.2567  -1.2451  -1.2424  -1.2316  -1.2280  -1.2156  -1.1994  -1.1933
    -1.1803  -1.1693  -1.1651  -1.1405  -1.1167  -1.0867  -1.0376  -1.0281
    -1.0038  -0.9803  -0.9761  -0.9416  -0.9366  -0.9342  -0.9254  -0.8968
    -0.8926  -0.8868  -0.8694  -0.8655  -0.8457  -0.8357  -0.8286  -0.7871
    -0.7749  -0.7672  -0.7635  -0.7351  -0.7264  -0.7175  -0.7154  -0.7135
    -0.7071  -0.6992  -0.6970  -0.6942  -0.6916  -0.6779  -0.6769  -0.6597
    -0.6467  -0.6334  -0.6211  -0.6184  -0.6037  -0.5997  -0.5937  -0.5683
    -0.5567  -0.5513  -0.5478  -0.5418  -0.5380  -0.5354  -0.5336  -0.5313
    -0.5292  -0.5271  -0.5257  -0.5237  -0.5207  -0.5178  -0.5152  -0.5106
    -0.5058  -0.5012  -0.4765  -0.4489  -0.4227  -0.4070  -0.3861  -0.3685
    -0.3642  -0.3585  -0.3515  -0.3455  -0.3256  -0.3198  -0.3149  -0.3065
    -0.3060  -0.2962  -0.2828  -0.2779  -0.2740  -0.2613  -0.2543  -0.2494
    -0.2426  -0.2380  -0.2361  -0.2321  -0.2288  -0.2160  -0.1938  -0.1782
    -0.1720  -0.1672  -0.1307  -0.1218  -0.1183  -0.1066  -0.1043  -0.1029
    -0.1005  -0.0863  -0.0854  -0.0838  -0.0822  -0.0813  -0.0757  -0.0723
    -0.0682  -0.0655  -0.0636  -0.0614  -0.0443  -0.0385  -0.0317  -0.0266
    -0.0201   0.0162   0.0213   0.0267   0.0286   0.0313   0.0404   0.0484
     0.0563   0.0589   0.0639   0.0669   0.0710   0.0786   0.0811   0.0860
     0.0901   0.0965   0.1003   0.1059   0.1085   0.1128   0.1196   0.1204
     0.1240   0.1274   0.1318   0.1372   0.1468   0.1529   0.1669   0.1868
     0.1947   0.1998   0.2073   0.2166   0.2327   0.2467   0.2470   0.2568
     0.2595   0.2641   0.2669   0.2712   0.2734   0.2834   0.2987   0.3030
     0.3116   0.3193   0.3239   0.3269   0.3327   0.3403   0.3427   0.3448
     0.3485   0.3538   0.3616   0.3670   0.3693   0.3719   0.3739   0.3755
     0.3809   0.3857   0.3897   0.3947   0.4101   0.4131   0.4173   0.4197
     0.4289   0.4368   0.4513   0.4535   0.4567   0.4648   0.4695   0.4889
     0.5072   0.5127   0.5178   0.5373   0.5422   0.5460   0.5513   0.5576
     0.5616   0.5701   0.5747   0.5798   0.5826   0.5849   0.5887   0.5919
     0.5994   0.6188   0.6441   0.6515   0.6561   0.6626   0.6640   0.6716
     0.6733   0.6868   0.7028   0.7044   0.7085   0.7104   0.7178   0.7290
     0.7307   0.7340   0.7395   0.7457   0.7518   0.7569   0.7638   0.7812
     0.7865   0.7963   0.8032   0.8110   0.8167   0.8213   0.8269   0.8290
     0.8301   0.8352   0.8407   0.8449   0.8492   0.8555   0.8580   0.8622
     0.8634   0.8679   0.8697   0.8755   0.8790   0.8817   0.8868   0.9000
     0.9018   0.9133   0.9220   0.9259   0.9269   0.9365   0.9454   0.9524
     0.9542   0.9562   0.9657   0.9675   0.9714   0.9730   0.9809   0.9872
     0.9933   0.9993   1.0010   1.0061   1.0077   1.0110   1.0132   1.0247
     1.0267   1.0305   1.0318   1.0341   1.0438   1.0457   1.0537   1.0606
     1.0646   1.0697   1.0704   1.0718   1.0742   1.0763   1.0772   1.0829
     1.0941   1.1131   1.1245   1.1277   1.1341   1.1385   1.1425   1.1467
     1.1482   1.1535   1.1572   1.1614   1.1639   1.1731   1.1821   1.1924
     1.2025   1.2043   1.2080   1.2112   1.2149   1.2213   1.2225   1.2317
     1.2388   1.2435   1.2487   1.2540   1.2581   1.2635   1.2647   1.2667
     1.2688   1.2819   1.2897   1.2918   1.2995   1.3062   1.3084   1.3138
     1.3160   1.3180   1.3261   1.3293   1.3324   1.3336   1.3359   1.3428
     1.3445   1.3496   1.3517   1.3566   1.3580   1.3621   1.3655   1.3686
     1.3702   1.3789   1.3857   1.3931   1.3938   1.4051   1.4142   1.4207
     1.4252   1.4276   1.4329   1.4364   1.4375   1.4404   1.4413   1.4421
     1.4447   1.4542   1.4569   1.4585   1.4695   1.4861   1.4873   1.5018
     1.5039   1.5103   1.5135   1.5159   1.5179   1.5214   1.5304   1.5323
     1.5415   1.5418   1.5461   1.5471   1.5501   1.5530   1.5601   1.5629
     1.5672   1.5697   1.5781   1.5818   1.5867   1.5871   1.5903   1.5911
     1.5945   1.5985   1.6059   1.6117   1.6153   1.6187   1.6210   1.6224
     1.6281   1.6330   1.6335   1.6368   1.6415   1.6435   1.6454   1.6517
     1.6629   1.6711   1.6762   1.6811   1.6833   1.6884   1.6914   1.6930
     1.6942   1.7058   1.7107   1.7137   1.7146   1.7254   1.7269   1.7315
     1.7360   1.7387   1.7436   1.7459   1.7479   1.7502   1.7517   1.7555
     1.7569   1.7586   1.7595   1.7623   1.7650   1.7678   1.7760   1.7810
     1.7822   1.7841   1.7849   1.7983   1.7990   1.8172   1.8262   1.8328
     1.8398   1.8439   1.8529   1.8549   1.8580   1.8596   1.8781   1.8800
     1.8869   1.9033   1.9089   1.9310   1.9352   1.9362   1.9441   1.9507
     1.9523   1.9643   1.9666   1.9705   2.1767   2.1864   2.2794   2.3261
     2.4329   2.4455   2.4513   2.4964   2.5011   2.5104   2.5284   2.5322
     2.5414   2.5436   2.5606   2.6009   2.6776   2.6862   2.7329   2.7478
     2.7758   2.7832   2.7922   2.8979   3.0019   3.0304   3.0328   3.2527
     3.3748   3.3826   3.4468   3.5092   3.6268   3.7836   3.8945   3.9043
     4.1300   4.1462   4.1574   4.1613   4.1816   4.1883   4.2549   4.2816
     4.3012   4.3163   4.3193   4.3228   4.3344   4.3880   4.4217   4.5112
     4.5285   4.5553   4.6350   4.7049   4.8519   5.1365   5.1720   5.3290
     5.3559   5.5196   5.5295   5.6314   5.6814   5.7654   5.8792   5.9885
     6.0233   6.1758   6.2479   6.2665   6.2949   6.4881   6.6437   6.7036
     6.7447   6.7722   6.7806   6.7945   6.8464   6.9557   6.9658   7.0603
     7.0884   7.1119   7.1312   7.1856   7.1973   7.2413   7.3075   7.3568
     7.3869   7.3998   7.4071   7.5713   7.6661   7.6862   7.7207   7.8767
     7.9020   7.9046   7.9146   7.9803   7.9958   8.0070   8.0878   8.1323
     8.2367   8.3241   8.4510   8.5019   8.5113   8.5253   8.5647   8.5919
     8.6514   8.6613   8.6839   8.7167   8.7404   8.7925   8.8282   8.8647
     8.9001   8.9176   8.9399   8.9471   8.9627   9.0096   9.0571   9.1067
     9.1539   9.2824   9.3099   9.3151   9.3280   9.3467   9.3665   9.3937
     9.3986   9.4088   9.4253   9.4532   9.5558   9.6431   9.7883   9.8396
     9.8583   9.9108   9.9841  10.0750  10.0802  10.0862  10.1149  10.1736
    10.2916  10.3268

          k = 0.0000-0.2165 0.0000 (256176 PWs)   bands (ev):

   -15.9546 -15.9140 -15.2074 -15.1766 -13.9966 -13.9934 -13.9776 -13.9318
   -13.7487 -13.7136 -13.2914 -13.2542 -13.2354 -13.2256 -11.9113 -11.8584
   -11.8408 -11.8293 -11.6452 -11.6258 -10.0573  -9.9505  -9.9328  -9.9271
    -8.8854  -8.6757  -8.6267  -8.5469  -8.5276  -8.4959  -7.9952  -7.7022
    -7.6915  -7.6659  -7.3927  -6.5466  -6.5296  -6.4833  -6.4746  -6.3789
    -6.3557  -6.3286  -6.3212  -5.5845  -5.5614  -5.5348  -5.5047  -4.7523
    -4.7433  -4.7284  -4.6739  -4.6430  -4.5392  -4.5192  -4.3939  -4.2118
    -4.1695  -4.1666  -4.1471  -4.1271  -4.0840  -3.6844  -3.5031  -3.3899
    -3.2371  -3.0163  -2.9836  -2.9790  -2.9631  -2.8858  -2.8802  -2.8718
    -2.7543  -2.7345  -2.7092  -2.6600  -2.6205  -2.6164  -2.5922  -2.4969
    -2.4870  -2.4520  -2.4198  -2.4072  -2.3315  -2.3286  -2.2742  -2.2681
    -2.2648  -2.2557  -2.2493  -2.2443  -2.2265  -2.1435  -2.1339  -2.1150
    -1.9834  -1.9548  -1.9386  -1.9260  -1.9215  -1.8625  -1.8435  -1.8399
    -1.8223  -1.8170  -1.7684  -1.7409  -1.6677  -1.6645  -1.6440  -1.6419
    -1.6218  -1.5632  -1.5511  -1.5285  -1.4850  -1.4683  -1.4402  -1.4297
    -1.4285  -1.4211  -1.4192  -1.4152  -1.3998  -1.3923  -1.3601  -1.3223
    -1.3168  -1.2925  -1.2568  -1.2113  -1.1995  -1.1735  -1.1610  -1.1418
    -1.1337  -1.1287  -1.0987  -1.0447  -1.0400  -0.9959  -0.9908  -0.9701
    -0.9569  -0.9544  -0.9513  -0.9441  -0.9439  -0.9358  -0.9266  -0.9181
    -0.9122  -0.9111  -0.9021  -0.8985  -0.8948  -0.8839  -0.8656  -0.8603
    -0.8519  -0.8382  -0.8257  -0.8115  -0.7686  -0.7665  -0.7629  -0.7316
    -0.7290  -0.7230  -0.7222  -0.6931  -0.6802  -0.6664  -0.6636  -0.6579
    -0.6534  -0.6530  -0.6365  -0.6167  -0.6024  -0.6007  -0.5964  -0.5934
    -0.5885  -0.5871  -0.5781  -0.5726  -0.5674  -0.5518  -0.5354  -0.5181
    -0.5044  -0.4992  -0.4977  -0.4936  -0.4888  -0.4812  -0.4714  -0.4649
    -0.4433  -0.4335  -0.4306  -0.4293  -0.4270  -0.3643  -0.3374  -0.3335
    -0.3256  -0.3209  -0.3133  -0.3114  -0.3083  -0.2978  -0.2929  -0.2810
    -0.2785  -0.2762  -0.2708  -0.2681  -0.2604  -0.2399  -0.2273  -0.2223
    -0.2181  -0.2155  -0.2137  -0.2113  -0.2061  -0.1894  -0.1773  -0.1758
    -0.1672  -0.1651  -0.1645  -0.1463  -0.1383  -0.1298  -0.1213  -0.1159
    -0.1145  -0.1083  -0.1024  -0.0942  -0.0586  -0.0448  -0.0355  -0.0340
    -0.0304  -0.0183  -0.0115  -0.0006   0.0056   0.0123   0.0205   0.0232
     0.0263   0.0278   0.0294   0.0349   0.0476   0.0539   0.0582   0.0588
     0.0604   0.0724   0.0762   0.0779   0.0854   0.0859   0.0875   0.0911
     0.0943   0.0964   0.1104   0.1147   0.1188   0.1201   0.1306   0.1392
     0.1427   0.1561   0.1761   0.1831   0.1838   0.1883   0.1914   0.1972
     0.1985   0.2036   0.2164   0.2196   0.2252   0.2299   0.2380   0.2423
     0.2442   0.2487   0.2506   0.2559   0.2616   0.2654   0.2742   0.2815
     0.2926   0.2950   0.3053   0.3090   0.3226   0.3254   0.3335   0.3377
     0.3392   0.3393   0.3445   0.3538   0.3560   0.3568   0.3679   0.3774
     0.3789   0.3887   0.3937   0.3948   0.3987   0.4000   0.4103   0.4130
     0.4150   0.4294   0.4388   0.4425   0.4432   0.4523   0.4542   0.4556
     0.4559   0.4680   0.4930   0.5053   0.5084   0.5129   0.5202   0.5254
     0.5306   0.5311   0.5382   0.5410   0.5716   0.5802   0.5907   0.5967
     0.6119   0.6203   0.6337   0.6526   0.6696   0.6752   0.6831   0.6923
     0.7004   0.7131   0.7157   0.7222   0.7247   0.7300   0.7328   0.7380
     0.7533   0.7549   0.7598   0.7673   0.7692   0.7714   0.7811   0.7828
     0.7870   0.7919   0.7935   0.7964   0.8022   0.8044   0.8203   0.8290
     0.8343   0.8424   0.8447   0.8459   0.8504   0.8536   0.8572   0.8584
     0.8621   0.8648   0.8702   0.8733   0.8754   0.8790   0.8838   0.8842
     0.8890   0.8944   0.8984   0.9027   0.9064   0.9076   0.9113   0.9132
     0.9160   0.9221   0.9384   0.9417   0.9498   0.9582   0.9625   0.9762
     0.9807   0.9817   0.9827   0.9883   0.9924   0.9963   0.9990   1.0025
     1.0058   1.0064   1.0135   1.0151   1.0235   1.0384   1.0462   1.0487
     1.0511   1.0579   1.0627   1.0653   1.0755   1.0776   1.0808   1.0827
     1.0940   1.0950   1.1009   1.1019   1.1119   1.1471   1.1505   1.1566
     1.1648   1.1707   1.1741   1.1886   1.1945   1.2013   1.2132   1.2155
     1.2182   1.2213   1.2250   1.2299   1.2326   1.2384   1.2394   1.2413
     1.2440   1.2513   1.2593   1.2614   1.2634   1.2676   1.2754   1.2767
     1.2809   1.2830   1.2841   1.2872   1.2890   1.2940   1.2965   1.3016
     1.3051   1.3081   1.3096   1.3129   1.3136   1.3159   1.3190   1.3254
     1.3301   1.3327   1.3403   1.3418   1.3428   1.3485   1.3498   1.3514
     1.3584   1.3595   1.3666   1.3727   1.3819   1.3994   1.4058   1.4087
     1.4151   1.4189   1.4316   1.4340   1.4435   1.4509   1.4520   1.4557
     1.4635   1.4671   1.4788   1.4816   1.4923   1.4960   1.5015   1.5034
     1.5085   1.5098   1.5153   1.5191   1.5211   1.5225   1.5242   1.5257
     1.5279   1.5306   1.5339   1.5360   1.5397   1.5482   1.5501   1.5510
     1.5525   1.5553   1.5633   1.5760   1.5844   1.5878   1.5907   1.5909
     1.5974   1.6002   1.6021   1.6090   1.6118   1.6157   1.6169   1.6217
     1.6224   1.6227   1.6310   1.6361   1.6407   1.6417   1.6446   1.6532
     1.6632   1.6637   1.6690   1.6753   1.6819   1.6905   1.6923   1.6943
     1.6969   1.6988   1.7013   1.7051   1.7071   1.7154   1.7188   1.7318
     1.7354   1.7473   1.7496   1.7518   1.7599   1.7633   1.7657   1.7661
     1.7683   1.7739   1.7759   1.7764   1.7798   1.7964   1.7991   1.8093
     1.8104   1.8128   1.8195   1.8234   1.8290   1.8351   1.8363   1.8388
     1.8475   1.8516   1.8584   1.8643   1.8679   1.8783   1.8892   1.9066
     1.9081   1.9587   1.9810   2.0153   2.0296   2.0337   2.0442   2.0522
     2.0679   2.0722   2.0761   2.1016   2.1069   2.1243   2.1307   2.1338
     2.1362   2.1660   2.1857   2.3885   2.4325   2.4694   2.5034   2.5794
     2.6596   2.7317   2.7372   2.7622   2.8199   2.8336   2.8680   2.8747
     2.8951   2.9008   2.9302   2.9958   3.0204   3.0263   3.0756   3.0865
     3.2373   3.2387   3.2515   3.4059   3.4829   3.4832   3.4836   3.5522
     3.6783   3.7086   3.7480   3.9542   4.1635   4.2096   4.3392   4.3958
     4.4180   4.4387   4.4797   4.5200   4.5554   4.6322   4.6428   4.7523
     4.8376   4.8770   4.9937   5.0089   5.0424   5.1199   5.2203   5.4150
     5.4256   5.5076   5.6105   5.6598   5.6820   5.6861   5.7065   5.7438
     5.9713   6.0322   6.0521   6.1993   6.2463   6.3215   6.4024   6.6575
     6.6751   6.7124   6.7350   6.7883   6.8708   6.8805   6.9852   7.0235
     7.0801   7.1306   7.1465   7.3407   7.3528   7.3596   7.3839   7.4082
     7.4256   7.4335   7.4486   7.5052   7.5186   7.5390   7.5624   7.6072
     7.6791   7.7347   7.7547   7.9757   8.0703   8.1053   8.1137   8.1269
     8.2140   8.3203   8.4194   8.4836   8.5218   8.5288   8.5555   8.6550
     8.6632   8.6765   8.7191   8.7420   8.8455   8.8644   8.9079   8.9360
     8.9656   9.0175   9.0229   9.0488   9.0743   9.1421   9.1633   9.1812
     9.2037   9.2614   9.2941   9.3038   9.3810   9.4916   9.5366   9.5649
     9.5860   9.6395   9.6720   9.6962   9.7095   9.7162   9.7550   9.7757
     9.7971   9.8912   9.9342   9.9373   9.9827  10.0916  10.1045  10.1765
    10.2048  10.2134

          k = 0.2500 0.0000 0.0000 (256240 PWs)   bands (ev):

   -15.9048 -15.5443 -15.5172 -14.9177 -14.5658 -14.5347 -14.4403 -14.4103
   -13.4800 -13.4478 -12.9900 -12.6783 -12.6291 -12.6179 -12.6128 -11.7395
   -11.7030 -11.6180 -11.5906 -10.6582 -10.3562 -10.3291 -10.2792  -9.8206
    -9.6204  -9.3704  -9.3020  -8.9451  -8.7301  -8.6554  -8.2111  -7.8028
    -7.1085  -7.1037  -7.0704  -7.0296  -6.9572  -6.8749  -6.4997  -6.2311
    -5.6822  -5.5168  -5.4821  -5.4751  -5.4531  -5.4304  -4.9936  -4.9713
    -4.7537  -4.7214  -4.5176  -4.2510  -4.1915  -4.1405  -4.1139  -3.9689
    -3.9528  -3.9281  -3.9066  -3.8699  -3.7091  -3.6826  -3.6429  -3.6373
    -3.5255  -3.5239  -3.4634  -3.3105  -3.2197  -3.1926  -3.1644  -3.1229
    -3.1017  -3.0831  -3.0232  -3.0102  -2.9832  -2.8887  -2.8711  -2.8130
    -2.7468  -2.6848  -2.6452  -2.5809  -2.5309  -2.4823  -2.4761  -2.4292
    -2.3730  -2.3228  -2.2217  -2.1117  -2.0663  -2.0406  -2.0351  -1.9741
    -1.8731  -1.8014  -1.7831  -1.7726  -1.7629  -1.7427  -1.7039  -1.6598
    -1.6399  -1.5862  -1.5647  -1.5212  -1.5048  -1.4910  -1.4846  -1.4768
    -1.4711  -1.4667  -1.4484  -1.4232  -1.4173  -1.3972  -1.3733  -1.3563
    -1.3380  -1.3161  -1.2918  -1.2799  -1.2681  -1.2626  -1.2573  -1.2531
    -1.2493  -1.2343  -1.2276  -1.2055  -1.1880  -1.1849  -1.1730  -1.1717
    -1.1639  -1.1269  -1.0498  -1.0445  -1.0189  -0.9987  -0.9884  -0.9669
    -0.9314  -0.9237  -0.9196  -0.9165  -0.9122  -0.8931  -0.8874  -0.8843
    -0.8749  -0.8640  -0.8589  -0.8506  -0.8392  -0.8331  -0.8313  -0.8135
    -0.8096  -0.8014  -0.7911  -0.7888  -0.7796  -0.7773  -0.7672  -0.7561
    -0.7393  -0.7249  -0.7214  -0.7179  -0.7010  -0.6970  -0.6914  -0.6884
    -0.6824  -0.6800  -0.6633  -0.6619  -0.6590  -0.6572  -0.6563  -0.6507
    -0.6464  -0.6416  -0.6360  -0.6249  -0.6159  -0.6138  -0.6009  -0.5912
    -0.5779  -0.5621  -0.5363  -0.5335  -0.5298  -0.4991  -0.4951  -0.4916
    -0.4826  -0.4772  -0.4754  -0.4668  -0.4502  -0.4480  -0.4360  -0.4313
    -0.4276  -0.4239  -0.4210  -0.4167  -0.3768  -0.3068  -0.2866  -0.2811
    -0.2745  -0.2682  -0.2554  -0.2499  -0.2441  -0.2391  -0.2308  -0.2294
    -0.2271  -0.2141  -0.2111  -0.2081  -0.2057  -0.2022  -0.1821  -0.1786
    -0.1739  -0.1678  -0.1627  -0.1591  -0.1402  -0.1392  -0.1367  -0.1253
    -0.1138  -0.0832  -0.0802  -0.0775  -0.0756  -0.0650  -0.0640  -0.0606
    -0.0507  -0.0487  -0.0454  -0.0359  -0.0310  -0.0227  -0.0107  -0.0061
     0.0110   0.0199   0.0227   0.0239   0.0253   0.0322   0.0354   0.0465
     0.0524   0.0536   0.0632   0.0680   0.0782   0.0839   0.0927   0.1098
     0.1120   0.1156   0.1208   0.1262   0.1337   0.1382   0.1397   0.1410
     0.1611   0.1648   0.1704   0.1808   0.1847   0.1874   0.1915   0.2038
     0.2151   0.2203   0.2334   0.2420   0.2444   0.2548   0.2577   0.2634
     0.2709   0.2769   0.2933   0.3000   0.3023   0.3074   0.3109   0.3141
     0.3174   0.3224   0.3238   0.3266   0.3339   0.3383   0.3435   0.3494
     0.3512   0.3558   0.3611   0.3664   0.3727   0.3806   0.3889   0.3962
     0.3996   0.4008   0.4162   0.4223   0.4249   0.4353   0.4367   0.4434
     0.4450   0.4477   0.4600   0.4622   0.4660   0.4724   0.4798   0.4885
     0.4907   0.5153   0.5304   0.5410   0.5535   0.5629   0.5743   0.5846
     0.5892   0.5925   0.5958   0.5976   0.6016   0.6042   0.6069   0.6101
     0.6132   0.6171   0.6222   0.6234   0.6275   0.6350   0.6369   0.6426
     0.6462   0.6501   0.6533   0.6586   0.6602   0.6666   0.6750   0.6955
     0.7018   0.7057   0.7157   0.7251   0.7345   0.7396   0.7428   0.7480
     0.7516   0.7607   0.7653   0.7772   0.7782   0.7909   0.7961   0.7986
     0.8015   0.8029   0.8092   0.8132   0.8155   0.8196   0.8243   0.8305
     0.8432   0.8478   0.8526   0.8565   0.8599   0.8663   0.8690   0.8734
     0.8763   0.8768   0.8831   0.8974   0.9023   0.9038   0.9144   0.9199
     0.9231   0.9256   0.9318   0.9383   0.9415   0.9429   0.9477   0.9553
     0.9648   0.9686   0.9778   0.9801   0.9837   0.9888   0.9924   1.0000
     1.0030   1.0147   1.0194   1.0245   1.0368   1.0491   1.0530   1.0573
     1.0619   1.0646   1.0705   1.0770   1.0809   1.0886   1.0933   1.0971
     1.0985   1.1025   1.1047   1.1070   1.1168   1.1305   1.1341   1.1419
     1.1434   1.1606   1.1691   1.1759   1.1767   1.1829   1.1917   1.1981
     1.2022   1.2028   1.2074   1.2103   1.2135   1.2157   1.2206   1.2251
     1.2287   1.2328   1.2374   1.2442   1.2499   1.2571   1.2613   1.2704
     1.2788   1.2867   1.2901   1.2984   1.3009   1.3037   1.3069   1.3112
     1.3136   1.3163   1.3212   1.3256   1.3317   1.3319   1.3351   1.3378
     1.3410   1.3432   1.3475   1.3495   1.3535   1.3570   1.3604   1.3666
     1.3723   1.3754   1.3825   1.3858   1.3899   1.3914   1.3938   1.3970
     1.4017   1.4068   1.4101   1.4158   1.4229   1.4253   1.4269   1.4354
     1.4414   1.4472   1.4487   1.4561   1.4590   1.4654   1.4701   1.4750
     1.4797   1.4837   1.4927   1.5042   1.5057   1.5082   1.5125   1.5188
     1.5312   1.5376   1.5504   1.5561   1.5574   1.5606   1.5663   1.5688
     1.5699   1.5758   1.5809   1.5839   1.5849   1.5875   1.5923   1.5974
     1.6004   1.6027   1.6066   1.6098   1.6143   1.6160   1.6203   1.6218
     1.6279   1.6300   1.6359   1.6387   1.6423   1.6469   1.6498   1.6531
     1.6602   1.6629   1.6684   1.6740   1.6758   1.6803   1.6823   1.6850
     1.6908   1.6913   1.7014   1.7031   1.7087   1.7126   1.7159   1.7336
     1.7359   1.7388   1.7402   1.7432   1.7458   1.7471   1.7498   1.7541
     1.7592   1.7623   1.7646   1.7664   1.7675   1.7749   1.7819   1.7840
     1.7865   1.7899   1.7908   1.7973   1.8051   1.8058   1.8082   1.8149
     1.8185   1.8288   1.8296   1.8300   1.8346   1.8451   1.8651   1.8749
     1.8792   1.8990   1.9022   1.9178   1.9376   1.9425   1.9474   1.9646
     1.9853   1.9948   2.0508   2.0616   2.0722   2.0734   2.1048   2.1174
     2.1599   2.1949   2.2912   2.3164   2.3499   2.3825   2.3917   2.4073
     2.4439   2.5292   2.5345   2.7597   2.7665   2.8411   2.8724   3.0673
     3.1806   3.2679   3.2943   3.3197   3.4163   3.4885   3.5105   3.5351
     3.5415   3.5576   3.6137   3.7507   3.7836   3.8746   3.9120   3.9269
     3.9715   3.9796   4.0200   4.0389   4.0480   4.1353   4.1998   4.2429
     4.3332   4.3871   4.4551   4.4839   4.4897   4.6120   4.7195   4.8004
     4.9432   4.9657   5.0792   5.1461   5.1757   5.2992   5.4240   5.4867
     5.5371   5.5578   5.6297   5.6984   5.7580   5.7861   5.8150   5.8613
     5.8701   5.9195   5.9406   5.9811   6.0279   6.0764   6.0964   6.1257
     6.2245   6.3080   6.3188   6.3691   6.4236   6.4922   6.6797   6.9815
     6.9968   7.0600   7.0665   7.1107   7.1251   7.1447   7.1684   7.2458
     7.2778   7.3511   7.3565   7.3851   7.4042   7.5362   7.5577   7.5707
     7.6471   7.7355   7.7453   7.8204   7.8431   7.8778   7.9714   8.0152
     8.0767   8.0824   8.1247   8.1602   8.1755   8.3075   8.3412   8.3624
     8.3815   8.4284   8.5288   8.5785   8.6161   8.6365   8.6733   8.6866
     8.6890   8.7278   8.8470   8.9093   8.9202   8.9832   9.0051   9.0793
     9.2042   9.2539   9.3612   9.4050   9.4526   9.4599   9.4673   9.4783
     9.4810   9.4927   9.5180   9.5294   9.5354   9.5583   9.5621   9.6201
     9.6531   9.7201   9.7831   9.8005   9.8293  10.0019  10.0182  10.0763
    10.0787  10.1224

          k = 0.2500-0.2165 0.0000 (256316 PWs)   bands (ev):

   -15.8305 -15.7902 -15.0856 -15.0543 -14.8442 -14.8022 -14.1096 -14.0781
   -13.6311 -13.5944 -12.9179 -12.8850 -12.6830 -12.6457 -12.2151 -12.1815
   -11.5435 -11.5165 -10.9375 -10.8888 -10.6642 -10.6379 -10.2817 -10.2495
    -9.2716  -9.1879  -8.8158  -8.6795  -8.6283  -8.5609  -8.2168  -8.0243
    -7.9650  -7.9364  -7.5056  -6.2385  -6.1989  -6.1743  -6.1621  -6.0969
    -6.0127  -5.8613  -5.8059  -5.5274  -5.4934  -5.3828  -5.3477  -4.7378
    -4.7109  -4.4823  -4.4111  -4.3889  -4.3754  -4.3505  -4.2682  -4.0773
    -4.0245  -3.9971  -3.9614  -3.7825  -3.7580  -3.7187  -3.7089  -3.5157
    -3.4824  -3.4050  -3.3907  -3.2781  -3.2388  -3.1647  -3.1467  -3.1406
    -3.0991  -3.0809  -3.0460  -2.9307  -2.8252  -2.7754  -2.7668  -2.6496
    -2.6349  -2.6311  -2.6099  -2.5951  -2.5766  -2.5249  -2.4590  -2.4110
    -2.3654  -2.2694  -2.2007  -2.1574  -2.0798  -1.9997  -1.9892  -1.9754
    -1.9373  -1.8752  -1.8555  -1.8479  -1.8195  -1.7954  -1.7020  -1.6940
    -1.6684  -1.6456  -1.6223  -1.5633  -1.5205  -1.5095  -1.4940  -1.4929
    -1.4602  -1.4489  -1.4351  -1.4132  -1.3960  -1.3887  -1.3832  -1.3766
    -1.3664  -1.3592  -1.3523  -1.3511  -1.3468  -1.3446  -1.3371  -1.3148
    -1.2922  -1.2646  -1.2562  -1.1973  -1.1812  -1.1399  -1.1138  -1.1012
    -1.0409  -1.0188  -1.0045  -1.0008  -0.9590  -0.9558  -0.9528  -0.9427
    -0.9415  -0.9342  -0.9292  -0.9244  -0.9209  -0.9095  -0.9079  -0.9043
    -0.8919  -0.8872  -0.8838  -0.8769  -0.8709  -0.8652  -0.8567  -0.8541
    -0.8089  -0.8055  -0.8000  -0.7968  -0.7939  -0.7898  -0.7874  -0.7799
    -0.7745  -0.7583  -0.7473  -0.7216  -0.7168  -0.7155  -0.7076  -0.7018
    -0.6958  -0.6759  -0.6741  -0.6676  -0.6562  -0.6427  -0.6400  -0.6363
    -0.6307  -0.6257  -0.6087  -0.5997  -0.5983  -0.5909  -0.5890  -0.5533
    -0.5430  -0.5401  -0.5383  -0.5187  -0.5132  -0.4798  -0.4675  -0.4569
    -0.4529  -0.4487  -0.4402  -0.4323  -0.4071  -0.3984  -0.3920  -0.3885
    -0.3838  -0.3812  -0.3754  -0.3656  -0.3486  -0.3324  -0.3289  -0.3155
    -0.3036  -0.2943  -0.2845  -0.2720  -0.2532  -0.2476  -0.2431  -0.2414
    -0.2360  -0.2309  -0.2173  -0.2084  -0.2032  -0.1926  -0.1849  -0.1692
    -0.1648  -0.1563  -0.1524  -0.1472  -0.1403  -0.1300  -0.1209  -0.1158
    -0.1050  -0.0967  -0.0888  -0.0784  -0.0744  -0.0671  -0.0622  -0.0599
    -0.0483  -0.0450  -0.0412  -0.0402  -0.0366  -0.0348  -0.0324  -0.0240
    -0.0211  -0.0152  -0.0077   0.0041   0.0120   0.0237   0.0351   0.0391
     0.0478   0.0508   0.0565   0.0678   0.0774   0.0830   0.0890   0.0944
     0.0985   0.1038   0.1111   0.1133   0.1229   0.1415   0.1583   0.1641
     0.1739   0.1856   0.2017   0.2037   0.2099   0.2146   0.2159   0.2263
     0.2306   0.2388   0.2442   0.2497   0.2527   0.2580   0.2611   0.2701
     0.2740   0.2796   0.2819   0.2876   0.2939   0.3028   0.3082   0.3114
     0.3142   0.3167   0.3230   0.3240   0.3270   0.3282   0.3312   0.3332
     0.3384   0.3502   0.3547   0.3592   0.3687   0.3754   0.3782   0.3831
     0.3874   0.4012   0.4104   0.4191   0.4334   0.4363   0.4443   0.4480
     0.4535   0.4582   0.4618   0.4637   0.4703   0.4719   0.4795   0.4812
     0.4874   0.4971   0.5002   0.5101   0.5137   0.5352   0.5535   0.5702
     0.5750   0.5857   0.5955   0.6001   0.6008   0.6054   0.6099   0.6140
     0.6184   0.6204   0.6277   0.6338   0.6367   0.6412   0.6428   0.6474
     0.6496   0.6557   0.6624   0.6652   0.6734   0.6794   0.6876   0.7056
     0.7075   0.7176   0.7194   0.7239   0.7316   0.7374   0.7460   0.7670
     0.7692   0.7724   0.7748   0.7795   0.7830   0.7898   0.7954   0.7972
     0.8001   0.8022   0.8057   0.8080   0.8159   0.8221   0.8286   0.8419
     0.8480   0.8521   0.8570   0.8694   0.8823   0.8875   0.8919   0.8969
     0.8991   0.9062   0.9182   0.9211   0.9254   0.9268   0.9314   0.9340
     0.9418   0.9453   0.9482   0.9524   0.9580   0.9629   0.9698   0.9735
     0.9774   0.9823   0.9845   0.9881   0.9893   0.9924   0.9947   0.9982
     1.0050   1.0094   1.0129   1.0142   1.0209   1.0228   1.0261   1.0270
     1.0311   1.0354   1.0401   1.0448   1.0522   1.0627   1.0761   1.0800
     1.0842   1.0895   1.1011   1.1077   1.1165   1.1250   1.1302   1.1394
     1.1418   1.1478   1.1491   1.1536   1.1653   1.1677   1.1696   1.1715
     1.1748   1.1764   1.1787   1.1851   1.1902   1.1952   1.2024   1.2063
     1.2092   1.2217   1.2279   1.2345   1.2362   1.2414   1.2462   1.2477
     1.2592   1.2655   1.2741   1.2774   1.2828   1.2915   1.2935   1.2959
     1.3023   1.3063   1.3089   1.3179   1.3240   1.3355   1.3410   1.3451
     1.3495   1.3556   1.3622   1.3751   1.3819   1.3852   1.3952   1.3976
     1.4030   1.4040   1.4074   1.4102   1.4112   1.4138   1.4157   1.4198
     1.4225   1.4234   1.4299   1.4339   1.4399   1.4467   1.4504   1.4582
     1.4679   1.4752   1.4791   1.4852   1.4899   1.4914   1.4945   1.4985
     1.5004   1.5037   1.5071   1.5105   1.5120   1.5147   1.5165   1.5182
     1.5210   1.5237   1.5279   1.5313   1.5328   1.5374   1.5394   1.5420
     1.5528   1.5554   1.5621   1.5637   1.5758   1.5844   1.5896   1.5967
     1.5989   1.6014   1.6044   1.6071   1.6122   1.6164   1.6230   1.6268
     1.6297   1.6329   1.6398   1.6431   1.6455   1.6500   1.6528   1.6549
     1.6654   1.6677   1.6696   1.6719   1.6744   1.6839   1.6916   1.6954
     1.7011   1.7028   1.7037   1.7073   1.7095   1.7119   1.7132   1.7175
     1.7193   1.7272   1.7307   1.7326   1.7384   1.7455   1.7497   1.7517
     1.7565   1.7590   1.7595   1.7619   1.7629   1.7655   1.7684   1.7698
     1.7764   1.7774   1.8002   1.8004   1.8075   1.8149   1.8163   1.8218
     1.8256   1.8306   1.8351   1.8387   1.8426   1.8637   1.8648   1.8722
     1.8789   1.8821   1.9006   1.9103   1.9295   1.9509   1.9604   1.9656
     1.9977   2.0511   2.0678   2.0738   2.0762   2.0816   2.0876   2.0992
     2.1094   2.1212   2.1370   2.1568   2.3652   2.4358   2.4509   2.4675
     2.4922   2.6048   2.7345   2.7537   2.8942   2.9020   3.0512   3.0905
     3.1019   3.1051   3.1104   3.1272   3.1438   3.2602   3.2901   3.3755
     3.3915   3.5645   3.6235   3.7195   3.8512   3.9129   3.9488   3.9747
     4.0492   4.1143   4.1544   4.2016   4.2636   4.2794   4.3858   4.3937
     4.4518   4.4809   4.5571   4.6330   4.6989   4.7371   4.7764   4.8674
     4.9205   4.9317   5.0022   5.0592   5.1100   5.1634   5.2463   5.2620
     5.2761   5.3300   5.4486   5.5019   5.5657   5.6526   5.6978   5.7572
     5.7685   5.7831   5.8402   5.9408   6.0720   6.0798   6.1758   6.2236
     6.2548   6.2815   6.3502   6.4937   6.7153   6.8520   6.8827   6.9212
     6.9856   7.0590   7.0690   7.1180   7.1951   7.2343   7.3173   7.3760
     7.3831   7.4336   7.4791   7.5012   7.5325   7.5625   7.6128   7.6231
     7.6624   7.6822   7.6966   7.7184   7.7304   7.7390   7.8333   7.9319
     7.9675   8.0210   8.1277   8.1651   8.2884   8.2892   8.3210   8.4288
     8.4838   8.5193   8.5298   8.5970   8.6504   8.6840   8.7094   8.7885
     8.8240   8.8947   8.9392   8.9813   9.0086   9.0243   9.0368   9.0568
     9.0991   9.1199   9.1597   9.2147   9.2256   9.3000   9.3309   9.3465
     9.3543   9.3883   9.4254   9.4935   9.5219   9.5381   9.5520   9.5637
     9.6430   9.6594   9.6820   9.6871   9.6981   9.7552   9.9448  10.0224
    10.0424  10.0943

          k =-0.5000 0.0000 0.0000 (256496 PWs)   bands (ev):

   -15.5428 -15.5245 -15.1955 -15.1592 -15.1483 -15.1380 -14.1034 -14.0605
   -14.0475 -14.0439 -12.3434 -12.2837 -12.2688 -12.2653 -11.7358 -11.6995
   -11.4488 -11.3708 -11.3674 -11.3497 -10.7702 -10.7222 -10.3654 -10.3046
    -9.7679  -9.7029  -9.3335  -9.3152  -8.6609  -8.4924  -8.4739  -8.4458
    -7.8055  -6.9806  -6.9668  -6.9226  -6.9055  -6.8666  -6.7799  -5.4608
    -5.4509  -4.9889  -4.9739  -4.7459  -4.7365  -4.4971  -4.4913  -4.4861
    -4.4806  -4.3382  -4.3317  -4.3193  -4.3158  -4.2831  -4.2440  -4.2381
    -4.2302  -4.0934  -4.0086  -3.9682  -3.9530  -3.9422  -3.9280  -3.7327
    -3.6661  -3.6403  -3.6350  -3.6045  -3.4064  -3.3232  -3.2219  -3.2169
    -3.2069  -3.1205  -3.1069  -3.0937  -3.0433  -2.9536  -2.9437  -2.9389
    -2.9304  -2.9197  -2.8960  -2.6186  -2.5054  -2.4778  -2.4130  -2.3502
    -2.3281  -2.3185  -2.3027  -2.2948  -2.2531  -2.1808  -2.0668  -2.0631
    -2.0512  -2.0037  -1.9983  -1.9887  -1.8300  -1.5769  -1.5636  -1.5602
    -1.5546  -1.5539  -1.5437  -1.4907  -1.4879  -1.4758  -1.4350  -1.3851
    -1.3494  -1.3307  -1.3299  -1.3106  -1.2908  -1.2806  -1.2782  -1.2750
    -1.2551  -1.2385  -1.1988  -1.1808  -1.1735  -1.1704  -1.1318  -1.1049
    -1.1044  -1.0969  -1.0847  -1.0826  -1.0775  -1.0657  -1.0470  -1.0367
    -1.0362  -1.0322  -1.0296  -1.0287  -1.0233  -1.0182  -1.0151  -1.0128
    -1.0110  -0.9791  -0.9775  -0.9753  -0.9685  -0.9525  -0.9487  -0.9455
    -0.9415  -0.8976  -0.8952  -0.8814  -0.8759  -0.8629  -0.8596  -0.8564
    -0.8550  -0.8538  -0.8340  -0.8254  -0.8216  -0.8188  -0.8080  -0.7875
    -0.7865  -0.7835  -0.7791  -0.7640  -0.7587  -0.7379  -0.7340  -0.7300
    -0.7114  -0.6964  -0.6688  -0.6661  -0.6622  -0.6559  -0.6548  -0.6487
    -0.6418  -0.6282  -0.6237  -0.6186  -0.6162  -0.6105  -0.6049  -0.6010
    -0.6004  -0.5938  -0.5894  -0.5769  -0.5674  -0.5446  -0.5378  -0.5331
    -0.5152  -0.4817  -0.4692  -0.4267  -0.3976  -0.3928  -0.3916  -0.3891
    -0.3804  -0.3602  -0.3591  -0.3535  -0.3509  -0.3450  -0.3425  -0.3299
    -0.3276  -0.3232  -0.3164  -0.3134  -0.3005  -0.2947  -0.2883  -0.2851
    -0.2736  -0.2707  -0.2586  -0.2454  -0.1972  -0.1926  -0.1760  -0.1690
    -0.1631  -0.1593  -0.1518  -0.1393  -0.1326  -0.1205  -0.0987  -0.0901
    -0.0839  -0.0805  -0.0798  -0.0775  -0.0717  -0.0591  -0.0514  -0.0492
    -0.0473  -0.0469  -0.0424  -0.0337  -0.0195  -0.0173  -0.0117  -0.0074
     0.0009   0.0192   0.0214   0.0281   0.0332   0.0384   0.0414   0.0685
     0.0697   0.0708   0.0731   0.0823   0.0871   0.0986   0.1088   0.1191
     0.1267   0.1422   0.1503   0.1592   0.1760   0.1814   0.1852   0.1901
     0.1925   0.1961   0.2079   0.2121   0.2208   0.2256   0.2456   0.2626
     0.2640   0.2666   0.2703   0.2869   0.2887   0.2904   0.2931   0.2996
     0.3003   0.3046   0.3065   0.3121   0.3169   0.3185   0.3230   0.3441
     0.3587   0.3687   0.3734   0.3770   0.3821   0.3873   0.3902   0.3920
     0.3952   0.4008   0.4025   0.4055   0.4085   0.4134   0.4165   0.4191
     0.4226   0.4269   0.4312   0.4354   0.4410   0.4435   0.4469   0.4479
     0.4510   0.4526   0.4545   0.4637   0.4659   0.4686   0.4727   0.4750
     0.4758   0.4789   0.4844   0.4899   0.4904   0.5054   0.5238   0.5365
     0.5846   0.5875   0.5953   0.6058   0.6204   0.6270   0.6331   0.6387
     0.6391   0.6441   0.6474   0.6540   0.6553   0.6579   0.6592   0.6655
     0.6676   0.6688   0.6737   0.6759   0.6793   0.6831   0.6869   0.6889
     0.6908   0.6927   0.6984   0.6992   0.7004   0.7025   0.7090   0.7159
     0.7179   0.7254   0.7320   0.7466   0.7601   0.7750   0.7819   0.7858
     0.7987   0.8088   0.8116   0.8210   0.8227   0.8314   0.8347   0.8407
     0.8420   0.8459   0.8485   0.8497   0.8508   0.8536   0.8549   0.8579
     0.8591   0.8632   0.8655   0.8657   0.8751   0.8759   0.8869   0.8920
     0.9017   0.9031   0.9103   0.9133   0.9251   0.9278   0.9343   0.9381
     0.9426   0.9432   0.9495   0.9510   0.9541   0.9553   0.9585   0.9657
     0.9705   0.9755   0.9787   0.9816   0.9842   0.9875   0.9923   1.0085
     1.0134   1.0231   1.0326   1.0327   1.0367   1.0391   1.0420   1.0473
     1.0511   1.0604   1.0688   1.0823   1.0851   1.0886   1.1077   1.1217
     1.1229   1.1348   1.1462   1.1500   1.1533   1.1566   1.1599   1.1608
     1.1626   1.1646   1.1690   1.1733   1.1791   1.1808   1.1835   1.1885
     1.1890   1.1966   1.2029   1.2078   1.2082   1.2102   1.2136   1.2284
     1.2302   1.2328   1.2346   1.2431   1.2486   1.2555   1.2662   1.2715
     1.2820   1.2892   1.2977   1.3228   1.3300   1.3337   1.3369   1.3439
     1.3498   1.3578   1.3639   1.3775   1.3825   1.3875   1.3918   1.3952
     1.3975   1.4034   1.4109   1.4120   1.4175   1.4224   1.4265   1.4297
     1.4348   1.4411   1.4431   1.4465   1.4466   1.4493   1.4528   1.4539
     1.4571   1.4587   1.4631   1.4638   1.4654   1.4772   1.4910   1.4936
     1.4973   1.4997   1.5042   1.5061   1.5124   1.5176   1.5229   1.5302
     1.5331   1.5436   1.5484   1.5552   1.5570   1.5583   1.5646   1.5667
     1.5674   1.5687   1.5696   1.5723   1.5792   1.5847   1.5874   1.5903
     1.6005   1.6051   1.6091   1.6223   1.6253   1.6288   1.6314   1.6348
     1.6352   1.6383   1.6396   1.6417   1.6427   1.6456   1.6483   1.6495
     1.6507   1.6518   1.6540   1.6561   1.6571   1.6579   1.6591   1.6627
     1.6680   1.6706   1.6711   1.6804   1.6814   1.6851   1.6895   1.6945
     1.6997   1.7023   1.7050   1.7129   1.7308   1.7361   1.7399   1.7404
     1.7455   1.7463   1.7501   1.7528   1.7577   1.7635   1.7664   1.7693
     1.7706   1.7763   1.7797   1.7822   1.7833   1.7860   1.7892   1.7953
     1.7983   1.7998   1.8012   1.8054   1.8112   1.8142   1.8348   1.8363
     1.8379   1.8387   1.8391   1.8429   1.8456   1.8584   1.8930   1.8950
     1.9175   1.9242   1.9281   1.9322   1.9329   1.9471   2.1485   2.2422
     2.3244   2.3477   2.4054   2.4725   2.5465   2.5525   2.5720   2.5907
     2.6036   2.6089   2.7503   2.8075   2.8277   2.9207   3.0000   3.0735
     3.1377   3.1510   3.2017   3.3924   3.4695   3.4789   3.5071   3.5200
     3.5802   3.6794   3.8492   3.9345   4.0548   4.0995   4.1318   4.1485
     4.2321   4.2371   4.3421   4.3786   4.3894   4.4351   4.4404   4.4699
     4.6258   4.7904   4.8043   4.9608   4.9904   5.0227   5.0494   5.1002
     5.1239   5.1523   5.1850   5.2097   5.2297   5.2554   5.3376   5.3462
     5.3561   5.3588   5.3693   5.3812   5.3970   5.4459   5.4855   5.5284
     5.6548   5.7240   5.7554   5.7788   5.8474   5.8730   5.9317   6.0528
     6.1251   6.1488   6.2866   6.2999   6.3116   6.3208   6.3247   6.3326
     6.4312   6.5071   6.6037   6.6921   6.7097   6.8002   6.8057   6.8556
     6.8686   6.9786   7.3328   7.3747   7.3990   7.4147   7.5059   7.5570
     7.8339   7.8849   7.8994   7.9028   7.9094   7.9119   8.0008   8.0308
     8.0537   8.0793   8.1040   8.1305   8.1428   8.1852   8.2055   8.2645
     8.2735   8.3219   8.3573   8.3756   8.3787   8.4137   8.5001   8.5785
     8.5833   8.5837   8.6704   8.6868   8.7651   8.8931   9.0266   9.0721
     9.1100   9.1362   9.1821   9.1870   9.2087   9.2134   9.2248   9.2583
     9.3520   9.3787   9.4723   9.4824   9.4931   9.5769   9.5802   9.7133
     9.7970   9.8110   9.8137   9.8281   9.8422   9.8519   9.9596   9.9625
     9.9652   9.9686

          k =-0.5000-0.2165 0.0000 (256328 PWs)   bands (ev):

   -15.4635 -15.4571 -15.4373 -15.3988 -14.7375 -14.6994 -14.6868 -14.6804
   -13.3025 -13.2513 -13.2361 -13.2328 -11.6786 -11.6464 -11.6448 -11.5739
   -11.2611 -11.1942 -11.1788 -11.1617 -11.0517 -11.0054 -10.9954 -10.9770
    -9.4232  -9.3206  -9.2877  -9.2411  -8.5453  -8.3484  -8.3117  -8.2955
    -7.8960  -7.5906  -7.5769  -7.5287  -7.2564  -5.5060  -5.4969  -5.4832
    -5.4652  -4.9061  -4.8944  -4.8648  -4.8622  -4.8569  -4.8411  -4.8337
    -4.8068  -4.6652  -4.6641  -4.6104  -4.5937  -4.0251  -4.0073  -3.9918
    -3.9411  -3.8944  -3.8831  -3.8725  -3.8574  -3.7675  -3.7672  -3.7465
    -3.7199  -3.5931  -3.5432  -3.5391  -3.5100  -3.3343  -3.2665  -3.2543
    -3.2437  -3.2408  -3.2269  -3.2062  -3.2014  -3.0850  -3.0291  -3.0257
    -2.9330  -2.8401  -2.7042  -2.6905  -2.6850  -2.2749  -2.2736  -2.2683
    -2.2545  -2.2370  -2.2145  -2.2035  -2.1499  -1.9977  -1.9665  -1.9281
    -1.8902  -1.8615  -1.8014  -1.7924  -1.7673  -1.7444  -1.7266  -1.7188
    -1.7022  -1.6470  -1.6408  -1.5974  -1.5873  -1.5132  -1.4833  -1.4799
    -1.4777  -1.4594  -1.4142  -1.3651  -1.3533  -1.2682  -1.2081  -1.1888
    -1.1760  -1.1733  -1.1685  -1.1647  -1.1512  -1.1424  -1.1395  -1.1373
    -1.1237  -1.1159  -1.1048  -1.1025  -1.0875  -1.0791  -1.0688  -1.0645
    -1.0608  -1.0568  -1.0558  -1.0517  -1.0438  -1.0396  -1.0383  -1.0372
    -1.0190  -0.9897  -0.9886  -0.9829  -0.9810  -0.9684  -0.9511  -0.9147
    -0.8819  -0.8753  -0.8735  -0.8670  -0.8648  -0.8635  -0.8465  -0.8420
    -0.8403  -0.8233  -0.8187  -0.8166  -0.8013  -0.8001  -0.7973  -0.7937
    -0.7925  -0.7756  -0.7721  -0.7675  -0.7641  -0.7404  -0.7356  -0.7289
    -0.7277  -0.7246  -0.7191  -0.7174  -0.7131  -0.7128  -0.7105  -0.7086
    -0.7066  -0.6605  -0.6477  -0.6190  -0.5885  -0.5782  -0.5720  -0.5555
    -0.5439  -0.5343  -0.5320  -0.5313  -0.5291  -0.4918  -0.4858  -0.4719
    -0.4664  -0.4563  -0.4490  -0.4461  -0.4428  -0.4389  -0.4378  -0.4370
    -0.4270  -0.3864  -0.3806  -0.3788  -0.3779  -0.3736  -0.3730  -0.3682
    -0.3616  -0.3561  -0.3533  -0.3475  -0.3384  -0.2866  -0.2632  -0.2583
    -0.2542  -0.2500  -0.2473  -0.2359  -0.2110  -0.1984  -0.1914  -0.1907
    -0.1776  -0.1716  -0.1633  -0.1345  -0.1301  -0.1272  -0.1252  -0.1211
    -0.1198  -0.1055  -0.1024  -0.0980  -0.0824  -0.0795  -0.0769  -0.0746
    -0.0697  -0.0584  -0.0471  -0.0384  -0.0273  -0.0069   0.0292   0.0314
     0.0351   0.0461   0.0495   0.0559   0.0610   0.0674   0.0689   0.0707
     0.0806   0.0832   0.0862   0.1263   0.1454   0.1461   0.1504   0.1553
     0.1588   0.1665   0.1698   0.1722   0.1773   0.1813   0.1819   0.1955
     0.2023   0.2045   0.2081   0.2111   0.2193   0.2226   0.2243   0.2253
     0.2305   0.2349   0.2372   0.2583   0.2742   0.2843   0.2872   0.2933
     0.3107   0.3173   0.3206   0.3250   0.3338   0.3422   0.3548   0.3783
     0.3831   0.3849   0.3904   0.3928   0.3932   0.3974   0.3996   0.4048
     0.4077   0.4080   0.4107   0.4154   0.4158   0.4180   0.4201   0.4212
     0.4257   0.4263   0.4344   0.4362   0.4400   0.4454   0.4476   0.4510
     0.4595   0.4600   0.4635   0.4668   0.4704   0.4755   0.4836   0.4898
     0.4935   0.4971   0.5061   0.5252   0.5293   0.5349   0.5416   0.5549
     0.5612   0.5667   0.5690   0.5774   0.6135   0.6319   0.6332   0.6410
     0.6446   0.6463   0.6479   0.6549   0.6579   0.6602   0.6639   0.6704
     0.6728   0.6745   0.6817   0.6821   0.6893   0.6902   0.6914   0.6950
     0.6961   0.7021   0.7053   0.7090   0.7122   0.7167   0.7210   0.7262
     0.7374   0.7391   0.7487   0.7517   0.7595   0.7681   0.7714   0.7752
     0.7849   0.7872   0.7888   0.7908   0.7953   0.8079   0.8098   0.8199
     0.8204   0.8282   0.8326   0.8370   0.8381   0.8485   0.8538   0.8645
     0.8699   0.8726   0.8777   0.8822   0.8870   0.8906   0.8930   0.8936
     0.8971   0.8985   0.8992   0.9010   0.9034   0.9058   0.9102   0.9108
     0.9123   0.9211   0.9285   0.9333   0.9572   0.9611   0.9714   0.9876
     0.9936   0.9969   1.0013   1.0037   1.0063   1.0088   1.0113   1.0130
     1.0173   1.0228   1.0315   1.0348   1.0379   1.0388   1.0417   1.0436
     1.0494   1.0518   1.0542   1.0547   1.0700   1.0868   1.0944   1.1009
     1.1033   1.1063   1.1164   1.1306   1.1332   1.1386   1.1457   1.1496
     1.1527   1.1574   1.1634   1.1678   1.1720   1.1797   1.1904   1.1946
     1.1987   1.2020   1.2144   1.2417   1.2448   1.2475   1.2514   1.2631
     1.2654   1.2827   1.2853   1.2965   1.3145   1.3171   1.3259   1.3310
     1.3328   1.3375   1.3403   1.3424   1.3479   1.3504   1.3532   1.3598
     1.3632   1.3643   1.3662   1.3667   1.3701   1.3717   1.3722   1.3739
     1.3803   1.3814   1.3846   1.3857   1.3889   1.3921   1.3954   1.4027
     1.4053   1.4085   1.4160   1.4229   1.4250   1.4301   1.4389   1.4415
     1.4437   1.4467   1.4493   1.4510   1.4534   1.4551   1.4576   1.4628
     1.4654   1.4715   1.4886   1.5031   1.5059   1.5080   1.5128   1.5165
     1.5187   1.5245   1.5277   1.5352   1.5410   1.5427   1.5574   1.5586
     1.5602   1.5648   1.5724   1.5741   1.5784   1.5794   1.5838   1.5904
     1.5938   1.5982   1.6000   1.6036   1.6057   1.6070   1.6130   1.6150
     1.6361   1.6448   1.6507   1.6514   1.6603   1.6658   1.6737   1.6771
     1.6776   1.6797   1.6817   1.6829   1.6839   1.6858   1.6879   1.6908
     1.6943   1.6969   1.6979   1.6993   1.7019   1.7035   1.7079   1.7100
     1.7107   1.7119   1.7135   1.7187   1.7195   1.7234   1.7253   1.7285
     1.7303   1.7307   1.7325   1.7350   1.7519   1.7580   1.7628   1.7661
[...]
     atom   45 type  1   force =     0.00061537   -0.00061711    0.00054945
     atom   46 type  1   force =     0.00007592    0.00029843    0.00028796
     atom   47 type  1   force =    -0.00017637   -0.00048760    0.00052160
     atom   48 type  1   force =     0.00003563    0.00080402    0.00064577
     atom   49 type  1   force =    -0.00027711   -0.00024163    0.00049959
     atom   50 type  1   force =     0.00001439   -0.00009154    0.00006703
     atom   51 type  1   force =     0.00038948   -0.00055768   -0.00042267
     atom   52 type  1   force =     0.00001292   -0.00013393    0.00033384
     atom   53 type  1   force =    -0.00011247    0.00019342    0.00006785
     atom   54 type  1   force =     0.00010698    0.00001582   -0.00002732
     atom   55 type  1   force =     0.00008560   -0.00009869   -0.00014001
     atom   56 type  1   force =     0.00003798    0.00000064   -0.00051533
     atom   57 type  1   force =     0.00026743   -0.00003433    0.00024232
     atom   58 type  1   force =     0.00030465   -0.00023577    0.00001406
     atom   59 type  1   force =     0.00072308   -0.00003841   -0.00009551
     atom   60 type  1   force =     0.00008887   -0.00001624    0.00008853
     atom   61 type  1   force =     0.00062891    0.00046165    0.00056222
     atom   62 type  1   force =    -0.00012509   -0.00014206    0.00001495
     atom   63 type  1   force =    -0.00014765    0.00018343    0.00044263
     atom   64 type  1   force =    -0.00012992   -0.00009718    0.00002600
     atom   65 type  1   force =    -0.00078322    0.00087956    0.00033257
     atom   66 type  1   force =     0.00035714   -0.00117592   -0.00046477
     atom   67 type  1   force =     0.00087238    0.00049191    0.00052939
     atom   68 type  1   force =     0.00008579    0.00021821   -0.00018795
     atom   69 type  1   force =    -0.00010607   -0.00044287   -0.00033635
     atom   70 type  1   force =     0.00013303   -0.00003494   -0.00043776
     atom   71 type  1   force =     0.00002199    0.00025760    0.00027196
     atom   72 type  1   force =    -0.00035219   -0.00053974   -0.00053025
     atom   73 type  1   force =    -0.00000712    0.00002428    0.00014998
     atom   74 type  1   force =     0.00019594   -0.00041783    0.00009296
     atom   75 type  1   force =     0.00016995    0.00020054   -0.00002714
     atom   76 type  1   force =    -0.00012650    0.00007834   -0.00071816
     atom   77 type  1   force =    -0.00013389   -0.00019950   -0.00034340
     atom   78 type  1   force =     0.00014565    0.00012974   -0.00011770
     atom   79 type  1   force =     0.00025446   -0.00022255   -0.00026138
     atom   80 type  1   force =     0.00030629   -0.00009154   -0.00025528
     atom   81 type  1   force =    -0.00022546   -0.00043086    0.00027475
     atom   82 type  1   force =     0.00019956   -0.00066634    0.00052636
     atom   83 type  1   force =     0.00032867   -0.00031872    0.00004564
     atom   84 type  1   force =     0.00064335    0.00080737    0.00020131
     atom   85 type  1   force =     0.00037583    0.00051873    0.00044644
     atom   86 type  1   force =    -0.00041024    0.00021951   -0.00001786
     atom   87 type  1   force =     0.00025624   -0.00056710   -0.00018767
     atom   88 type  1   force =     0.00029609    0.00022231   -0.00089998
     atom   89 type  1   force =     0.00008757   -0.00019068   -0.00048159
     atom   90 type  1   force =     0.00004220    0.00198896   -0.00092025
     atom   91 type  1   force =     0.00026897    0.00020301   -0.00011723
     atom   92 type  1   force =     0.00035251   -0.00004093   -0.00097446
     atom   93 type  1   force =     0.00059595   -0.00043592    0.00005615
     atom   94 type  1   force =     0.00019309    0.00030477    0.00033368
     atom   95 type  1   force =    -0.00031492   -0.00033597   -0.00051282
     atom   96 type  1   force =     0.00015574   -0.00030719   -0.00002888
     atom   97 type  1   force =    -0.00001994   -0.00034194    0.00022081
     atom   98 type  1   force =    -0.00009536   -0.00021607    0.00010894
     atom   99 type  1   force =     0.00008711    0.00009045   -0.00023923
     atom  100 type  1   force =    -0.00013787   -0.00001067   -0.00057612
     atom  101 type  2   force =    -0.00105314    0.00118822    0.00105428
     atom  102 type  2   force =    -0.00075069    0.00063215    0.00040256
     atom  103 type  2   force =    -0.00014051    0.00161966   -0.00074724
     atom  104 type  2   force =    -0.00120247   -0.00048338    0.00032811
     atom  105 type  2   force =    -0.00044529    0.00110056   -0.00051167
     atom  106 type  2   force =    -0.00059403    0.00068843    0.00182855
     atom  107 type  2   force =    -0.00042808    0.00148210    0.00040415
     atom  108 type  2   force =     0.00066720    0.00063325    0.00050838
     atom  109 type  2   force =     0.00048365    0.00132087   -0.00051823
     atom  110 type  2   force =    -0.00012423   -0.00031175   -0.00125031
     atom  111 type  2   force =    -0.00031548    0.00053877    0.00090655
     atom  112 type  2   force =    -0.00031072    0.00012514    0.00056625
     atom  113 type  2   force =    -0.00017024   -0.00073333   -0.00072805
     atom  114 type  2   force =    -0.00028273    0.00026463   -0.00115326
     atom  115 type  2   force =    -0.00148161   -0.00148299   -0.00161753
     atom  116 type  2   force =    -0.00024015    0.00044069    0.00076967
     atom  117 type  2   force =    -0.00014754   -0.00149428    0.00179897
     atom  118 type  2   force =     0.00005679    0.00041032    0.00086569
     atom  119 type  2   force =    -0.00006838   -0.00144194   -0.00125404
     atom  120 type  2   force =     0.00042323    0.00022163    0.00309391
     atom  121 type  2   force =    -0.00124707   -0.00262965   -0.00074270
     atom  122 type  2   force =     0.00008516   -0.00078366   -0.00025839
     atom  123 type  2   force =     0.00034219    0.00024884    0.00147886
     atom  124 type  2   force =    -0.00054025   -0.00087735    0.00094421
     atom  125 type  2   force =    -0.00008570    0.00014168   -0.00139214
     atom  126 type  2   force =    -0.00128626    0.00054595    0.00043921
     atom  127 type  2   force =    -0.00054024    0.00029033   -0.00068734
     atom  128 type  2   force =    -0.00095726    0.00203016   -0.00110311
     atom  129 type  2   force =    -0.00077517   -0.00028718   -0.00015291
     atom  130 type  2   force =     0.00016628    0.00089271   -0.00206532
     atom  131 type  2   force =    -0.00076247    0.00064957    0.00094442
     atom  132 type  2   force =    -0.00022137    0.00197534    0.00181048
     atom  133 type  2   force =     0.00013045   -0.00035820    0.00078156
     atom  134 type  2   force =     0.00047323    0.00149703   -0.00014536
     atom  135 type  2   force =     0.00010134    0.00123329   -0.00166628
     atom  136 type  2   force =    -0.00021718    0.00109641   -0.00068085
     atom  137 type  2   force =    -0.00003799   -0.00040353   -0.00166441
     atom  138 type  2   force =    -0.00036705   -0.00110005    0.00087413
     atom  139 type  2   force =    -0.00097694   -0.00007791   -0.00208965
     atom  140 type  2   force =    -0.00100571   -0.00130921    0.00010339
     atom  141 type  2   force =    -0.00055976    0.00037375   -0.00097793
     atom  142 type  2   force =    -0.00092113   -0.00066366    0.00027838
     atom  143 type  2   force =    -0.00026180    0.00010730    0.00117233
     atom  144 type  2   force =     0.00002962   -0.00093001   -0.00073253
     atom  145 type  2   force =    -0.00041962   -0.00029498    0.00137754
     atom  146 type  2   force =     0.00028085   -0.00171057   -0.00085040
     atom  147 type  2   force =     0.00065674   -0.00046856    0.00021625
     atom  148 type  2   force =    -0.00030147   -0.00094382    0.00176978
     atom  149 type  2   force =    -0.00023379    0.00057789   -0.00087676

     Total force =     0.013075     Total SCF correction =     0.000374

     number of scf cycles    =  18
     number of bfgs steps    =  17

     energy   old            =  -12710.1571503536 Ry
     energy   new            =  -12710.1573949893 Ry

     CASE: energy  _new < energy  _old

     new trust radius        =       0.0202532488 bohr
     new conv_thr            =       0.0000000100 Ry


ATOMIC_POSITIONS (angstrom)
Cu       0.081482137  -0.084415630   7.346132898
Cu       1.928813315   1.623262570   7.344819353
Cu       3.774173188  -0.083570345   7.347246148
Cu       5.617585352   1.628830394   7.351613274
Cu       0.084067745   3.338142529   7.348161498
Cu       1.930295125   5.053684305   7.346070418
Cu       3.774794424   3.336854804   7.348613249
Cu       5.618748458   5.055757454   7.343052975
Cu       0.086992601   6.771757860   7.339857605
Cu       1.929212578   8.479478163   7.344020063
Cu       3.771042081   6.771526175   7.340534785
Cu       5.616754190   8.482285592   7.341332783
Cu       0.084297774  10.177713254   7.350560769
Cu       1.927040041  11.871893757   7.348552799
Cu       3.771015986  10.179390471   7.350221067
Cu       5.617518136  11.864479596   7.359863270
Cu       0.081545877  13.556101887   7.352639064
Cu       1.926431663  15.249111291   7.346422258
Cu       3.774145384  13.556625372   7.355271110
Cu       5.616649660  15.252820461   7.352423614
Cu       0.085486065   1.625338785   9.173158779
Cu       1.929415600  -0.083865011   9.175970597
Cu       3.778424560   1.623562785   9.173157425
Cu       5.618950111  -0.083139240   9.181465609
Cu       0.089185606   5.059993381   9.164019066
Cu       1.934556550   3.335737688   9.159751285
Cu       3.782163019   5.062261697   9.166280070
Cu       5.624392230   3.343306146   9.170412937
Cu       0.089238318   8.473853025   9.179298381
Cu       1.936694101   6.769666607   9.172388307
Cu       3.781644695   8.473218160   9.179722302
Cu       5.624527732   6.771466661   9.167978972
Cu       0.085584873  11.864281274   9.202169125
Cu       1.934050154  10.177552335   9.182691919
Cu       3.778399802  11.865119854   9.201321195
Cu       5.624923097  10.168507576   9.198831689
Cu       0.086180193  15.251563705   9.186099654
Cu       1.928870640  13.555365886   9.200356875
Cu       3.771613773  15.253349847   9.186268512
Cu       5.618243574  13.556657079   9.197942327
Cu       0.094665814  -0.083698374  11.013944002
Cu       1.938598021   1.630679368  11.000135135
Cu       3.779756111  -0.081584777  11.016625552
Cu       5.630789918   1.628807891  11.008474727
Cu       0.091996359   3.346207942  10.996013137
Cu       1.944721816   5.036958692  10.979950695
Cu       3.792488762   3.339998664  10.990014654
Cu       5.637080769   5.057925935  11.005168109
Cu       0.093052488   6.764727560  11.008109183
Cu       1.946499899   8.486353682  11.009265336
Cu       3.805053505   6.766631034  11.010557169
Cu       5.639960647   8.460322040  11.036970175
Cu       0.096553520  10.157871935  11.048509312
Cu       1.938968230  11.850857695  11.054838006
Cu       3.794193740  10.163773937  11.042590556
Cu       5.632226878  11.861914257  11.057958127
Cu       0.095483330  13.560188064  11.047543143
Cu       1.936722657  15.258904996  11.037850039
Cu       3.777210203  13.558879208  11.047602872
Cu       5.625195867  15.255267379  11.033450713
Cu       0.099198431   1.630076600  12.822869070
Cu       1.948241873  -0.061610860  12.858257440
Cu       3.794304640   1.635963050  12.828565941
Cu       5.633541298  -0.077116845  12.853895578
Cu       0.117898479   5.056860959  12.845285867
Cu       1.949790671   3.345973326  12.824107483
Cu       3.801769266   5.043816930  12.818018179
Cu       5.641897376   3.346352444  12.837942463
Cu       0.123396099   8.437739508  12.898469975
Cu       1.955950476   6.755054268  12.746156644
Cu       3.806588805   8.451864232  12.868660303
Cu       5.668973653   6.749555083  12.901083061
Cu       0.105240152  11.855654399  12.894066867
Cu       1.954145214  10.135869926  12.907819915
Cu       3.796144855  11.851358640  12.890599632
Cu       5.649476155  10.146075682  12.901358193
Cu       0.105814964  15.267660387  12.883518638
Cu       1.946892385  13.553758931  12.893355262
Cu       3.786740900  15.266986186  12.882913952
Cu       5.635829607  13.567842417  12.896296803
Cu       0.124658270  -0.039169003  14.667531064
Cu       1.960610272   1.670360583  14.652271705
Cu       3.776416453  -0.047275161  14.675863767
Cu       5.633651929   1.623001967  14.650355900
Cu       0.096633895   3.313573938  14.638467100
Cu       1.975396308   4.975046966  14.655394836
Cu       3.826738523   3.332354970  14.643098308
Cu       5.676151516   5.040405580  14.679568989
Cu       0.202329788   6.725744227  14.788165098
Cu       1.995210160   8.476396581  14.761987718
Cu       3.823780196   6.722120447  14.672906639
Cu       5.674260963   8.422814226  14.723608336
Cu       0.103688947  10.150711106  14.723978549
Cu       1.953007108  11.839032515  14.713119335
Cu       3.834380906  10.158099978  14.716366976
Cu       5.652286654  11.865002052  14.718483342
Cu       0.109932727  13.566544614  14.710703896
Cu       1.951725860  15.272896428  14.691817257
Cu       3.796664893  13.557342347  14.701742187
Cu       5.642706910  15.291069977  14.700572153
C       -0.185833231   0.849217930  17.594835049
C       -0.187207191   2.269949197  17.595630174
C        1.044116015   0.137997053  17.586610724
C        1.042403520   2.978308235  17.585650197
C        2.272756786   0.846577719  17.556908581
C        2.271590132   2.268063286  17.550605609
C        3.504602496   0.138395763  17.549138224
C        3.501151347   2.979163861  17.549491673
C        4.735598949   0.849634966  17.571077627
C        4.733579976   2.270444953  17.571902978
C        5.963917149   0.139505662  17.594319768
C        5.961990179   2.979734483  17.585349444
C       -0.190972710   5.111477965  17.617000263
C       -0.195734574   6.535612091  17.708809053
C        1.044148700   4.400629334  17.588790378
C        1.014278993   7.253370775  17.692748527
C        2.265979753   5.095665557  17.513705607
C        2.243610951   6.558671298  17.239013632
C        3.492086768   4.402893438  17.541195354
C        3.510694338   7.254835304  17.588523760
C        2.087104030   6.694776665  15.631522276
C        4.728031064   5.113190979  17.558514956
C        4.720145649   6.539281505  17.632046455
C        5.958775208   4.405035971  17.581284924
C        5.950823663   7.242689618  17.738667948
C       -0.191372811   9.371872368  17.771242514
C       -0.187201404  10.790575526  17.730184465
C        1.032767513   8.657570510  17.761152319
C        1.043899491  11.499194913  17.698275043
C        2.268700034   9.368731204  17.713889099
C        2.272109537  10.784338774  17.708572398
C        3.501889057   8.656106745  17.698267183
C        3.501827862  11.497856716  17.696956134
C        4.728484031   9.370197659  17.742217371
C        4.729860638  10.789392209  17.727997885
C        5.956408284   8.660817131  17.755953798
C        5.960454881  11.499085595  17.702787893
C       -0.184981171  13.627776052  17.627943510
C       -0.184818208  15.047683694  17.620678644
C        1.046215510  12.917670724  17.649326806
C        1.043667617  15.756665925  17.599524993
C        2.274684151  13.627836310  17.627655919
C        2.275025122  15.047086492  17.584082899
C        3.503019848  12.916728249  17.652434999
C        3.504840283  15.756997082  17.570267579
C        4.733108259  13.627674158  17.632340892
C        4.733701936  15.047693545  17.595303655
C        5.961625059  12.918183909  17.649739290
C        5.964263988  15.758259958  17.601147776



     Writing output data file gc.save
     Check: negative starting charge=   -0.001817
     NEW-OLD atomic charge density approx. for the potential
     Check: negative starting charge=   -0.001820

     negative rho (up, down):  1.895E-03 0.000E+00

     total cpu time spent up to now is    56266.8 secs

     Self-consistent Calculation

     iteration #  1     ecut=    80.00 Ry     beta=0.70
     Davidson diagonalization with overlap
     ethr =  1.00E-06,  avg # of iterations =  4.3

     negative rho (up, down):  1.798E-03 0.000E+00

     total cpu time spent up to now is    56782.7 secs

     total energy              =  -12710.15747485 Ry
     Harris-Foulkes estimate   =  -12710.15845218 Ry
     estimated scf accuracy    <       0.00885888 Ry

     iteration #  2     ecut=    80.00 Ry     beta=0.70
     Davidson diagonalization with overlap
     ethr =  6.84E-07,  avg # of iterations =  2.0

     negative rho (up, down):  1.753E-03 0.000E+00

     total cpu time spent up to now is    56974.0 secs

     total energy              =  -12710.15750532 Ry
     Harris-Foulkes estimate   =  -12710.15791811 Ry
     estimated scf accuracy    <       0.00138612 Ry

     iteration #  3     ecut=    80.00 Ry     beta=0.70
     Davidson diagonalization with overlap
     ethr =  1.07E-07,  avg # of iterations =  2.7

     negative rho (up, down):  1.711E-03 0.000E+00

     total cpu time spent up to now is    57192.3 secs

     total energy              =  -12710.15757504 Ry
     Harris-Foulkes estimate   =  -12710.15780217 Ry
     estimated scf accuracy    <       0.00225581 Ry

     iteration #  4     ecut=    80.00 Ry     beta=0.70
     Davidson diagonalization with overlap
     ethr =  1.07E-07,  avg # of iterations =  2.0

     negative rho (up, down):  1.704E-03 0.000E+00

     total cpu time spent up to now is    57376.9 secs

     total energy              =  -12710.15767513 Ry
     Harris-Foulkes estimate   =  -12710.15767906 Ry
     estimated scf accuracy    <       0.00003433 Ry

     iteration #  5     ecut=    80.00 Ry     beta=0.70
     Davidson diagonalization with overlap
     ethr =  2.65E-09,  avg # of iterations =  3.0

     negative rho (up, down):  1.708E-03 0.000E+00

     total cpu time spent up to now is    57686.9 secs

     total energy              =  -12710.15768105 Ry
     Harris-Foulkes estimate   =  -12710.15768413 Ry
     estimated scf accuracy    <       0.00002417 Ry

     iteration #  6     ecut=    80.00 Ry     beta=0.70
     Davidson diagonalization with overlap
     ethr =  1.86E-09,  avg # of iterations =  1.2

     negative rho (up, down):  1.727E-03 0.000E+00

     total cpu time spent up to now is    57865.5 secs

     total energy              =  -12710.15768126 Ry
     Harris-Foulkes estimate   =  -12710.15768212 Ry
     estimated scf accuracy    <       0.00000686 Ry

     iteration #  7     ecut=    80.00 Ry     beta=0.70
     Davidson diagonalization with overlap
     ethr =  5.29E-10,  avg # of iterations =  2.0

     negative rho (up, down):  1.760E-03 0.000E+00

     total cpu time spent up to now is    58054.0 secs

     total energy              =  -12710.15768128 Ry
     Harris-Foulkes estimate   =  -12710.15768170 Ry
     estimated scf accuracy    <       0.00000321 Ry

     iteration #  8     ecut=    80.00 Ry     beta=0.70
     Davidson diagonalization with overlap
     ethr =  2.48E-10,  avg # of iterations =  2.0

     negative rho (up, down):  1.791E-03 0.000E+00

     total cpu time spent up to now is    58238.1 secs

     total energy              =  -12710.15768140 Ry
     Harris-Foulkes estimate   =  -12710.15768161 Ry
     estimated scf accuracy    <       0.00000145 Ry

     iteration #  9     ecut=    80.00 Ry     beta=0.70
     Davidson diagonalization with overlap
     ethr =  1.12E-10,  avg # of iterations =  1.5

     negative rho (up, down):  1.821E-03 0.000E+00

     total cpu time spent up to now is    58417.3 secs

     total energy              =  -12710.15768141 Ry
     Harris-Foulkes estimate   =  -12710.15768151 Ry
     estimated scf accuracy    <       0.00000019 Ry

     iteration # 10     ecut=    80.00 Ry     beta=0.70
     Davidson diagonalization with overlap
