
     Program PWSCF v.5.4.0 starts on 14Mar2017 at 21:40:40 

     This program is part of the open-source Quantum ESPRESSO suite
     for quantum simulation of materials; please cite
         "P. Giannozzi et al., J. Phys.:Condens. Matter 21 395502 (2009);
          URL http://www.quantum-espresso.org", 
     in publications or presentations arising from this work. More details at
     http://www.quantum-espresso.org/quote

     Parallel version (MPI & OpenMP), running on      56 processor cores
     Number of MPI processes:                56
     Threads/MPI process:                     1
     R & G space division:  proc/nbgrp/npool/nimage =      56
     Waiting for input...
     Reading input from standard input

     Current dimensions of program PWSCF are:
     Max number of different atomic species (ntypx) = 10
     Max number of k-points (npk) =  40000
     Max angular momentum in pseudopotentials (lmaxx) =  3

     -------------------------------------
     Parameters for Dispersion Correction:
     -------------------------------------
       atom      VdW radius       C_6     

        Cu         2.952        374.666
        C          2.744         60.710

     Subspace diagonalization in iterative solution of the eigenvalue problem:
     one sub-group per band group will be used
     scalapack distributed-memory algorithm (size of sub-group:  5*  5 procs)

 
     Parallelization info
     --------------------
     sticks:   dense  smooth     PW     G-vecs:    dense   smooth      PW
     Min         204     204     54                36612    36612    4962
     Max         205     205     55                36617    36617    4968
     Sum       11433   11433   3039              2050409  2050409  278033
 


     bravais-lattice index     =            0
     lattice parameter (alat)  =      13.9425  a.u.
     unit-cell volume          =   21209.0878 (a.u.)^3
     number of atoms/cell      =          149
     number of atomic types    =            2
     number of electrons       =      1296.00
     number of Kohn-Sham states=          778
     kinetic-energy cutoff     =      80.0000  Ry
     charge density cutoff     =     320.0000  Ry
     convergence threshold     =      1.0E-08
     mixing beta               =       0.7000
     number of iterations used =            8  local-TF  mixing
     Exchange-correlation      =  SLA  PW   PBX  PBC ( 1  4  3  4 0 0)
     nstep                     =           50


     celldm(1)=  13.942539  celldm(2)=   0.000000  celldm(3)=   0.000000
     celldm(4)=   0.000000  celldm(5)=   0.000000  celldm(6)=   0.000000

     crystal axes: (cart. coord. in units of alat)
               a(1) = (   1.000000   0.000000   0.000000 )  
               a(2) = (   0.000000   2.309401   0.000000 )  
               a(3) = (   0.000000   0.000000   3.388418 )  

     reciprocal axes: (cart. coord. in units 2 pi/alat)
               b(1) = (  1.000000  0.000000  0.000000 )  
               b(2) = (  0.000000  0.433013  0.000000 )  
               b(3) = (  0.000000  0.000000  0.295123 )  


     PseudoPot. # 1 for Cu read from file:
     /home/549/hxw549/Short/pseudopotentials/Cu.pbe-n-van_ak.UPF
     MD5 check sum: 601f7c30f7467666bec936e0661ce3e1
     Pseudo is Ultrasoft + core correction, Zval = 11.0
     Generated by new atomic code, or converted to UPF format
     Using radial grid of  867 points,  6 beta functions with: 
                l(1) =   0
                l(2) =   0
                l(3) =   1
                l(4) =   1
                l(5) =   2
                l(6) =   2
     Q(r) pseudized with  8 coefficients,  rinner =    1.400   1.400   1.400
                                                       1.400   1.400

     PseudoPot. # 2 for C  read from file:
     /home/549/hxw549/Short/pseudopotentials/C.pbe-mt_gipaw.UPF
     MD5 check sum: 5ac2f21f2c440b14befe521540822c15
     Pseudo is Norm-conserving, Zval =  4.0
     Generated by new atomic code, or converted to UPF format
     Using radial grid of 1073 points,  1 beta functions with: 
                l(1) =   0

     atomic species   valence    mass     pseudopotential
        Cu            11.00    63.54600     Cu( 1.00)
        C              4.00    12.01070     C ( 1.00)

     No symmetry found



   Cartesian axes

     site n.     atom                  positions (alat units)
         1           Cu  tau(   1) = (  -0.0000061   0.0000859   0.9974453  )
         2           Cu  tau(   2) = (   0.2499834   0.2309435   0.9974857  )
         3           Cu  tau(   3) = (   0.4999820   0.0000292   0.9973921  )
         4           Cu  tau(   4) = (   0.7499943   0.2309608   0.9975192  )
         5           Cu  tau(   5) = (  -0.0000148   0.4618129   0.9975194  )
         6           Cu  tau(   6) = (   0.2499854   0.6927730   0.9973716  )
         7           Cu  tau(   7) = (   0.4999975   0.4618632   0.9975075  )
         8           Cu  tau(   8) = (   0.7500019   0.6927697   0.9973799  )
         9           Cu  tau(   9) = (  -0.0000106   0.9237787   0.9972545  )
        10           Cu  tau(  10) = (   0.2500158   1.1547493   0.9973328  )
        11           Cu  tau(  11) = (   0.4999952   0.9237374   0.9972820  )
        12           Cu  tau(  12) = (   0.7499663   1.1547437   0.9973571  )
        13           Cu  tau(  13) = (  -0.0000104   1.3856717   0.9974709  )
        14           Cu  tau(  14) = (   0.2499853   1.6165564   0.9975482  )
        15           Cu  tau(  15) = (   0.4999900   1.3856800   0.9975628  )
        16           Cu  tau(  16) = (   0.7499916   1.6165628   0.9975545  )
        17           Cu  tau(  17) = (  -0.0000073   1.8474464   0.9974902  )
        18           Cu  tau(  18) = (   0.2499750   2.0784722   0.9974066  )
        19           Cu  tau(  19) = (   0.4999832   1.8474812   0.9974253  )
        20           Cu  tau(  20) = (   0.7500006   2.0784589   0.9973454  )
        21           Cu  tau(  21) = (   0.0000109   0.2310340   1.2461899  )
        22           Cu  tau(  22) = (   0.2499611   0.0001434   1.2460132  )
        23           Cu  tau(  23) = (   0.4999655   0.2309886   1.2459791  )
        24           Cu  tau(  24) = (   0.7500092   0.0000164   1.2458673  )
        25           Cu  tau(  25) = (   0.0000112   0.6929613   1.2458008  )
        26           Cu  tau(  26) = (   0.2499727   0.4619415   1.2459274  )
        27           Cu  tau(  27) = (   0.5000148   0.6929143   1.2458515  )
        28           Cu  tau(  28) = (   0.7500244   0.4619772   1.2460084  )
        29           Cu  tau(  29) = (   0.0000256   1.1545435   1.2458302  )
        30           Cu  tau(  30) = (   0.2500054   0.9237705   1.2457457  )
        31           Cu  tau(  31) = (   0.4999823   1.1544964   1.2459093  )
        32           Cu  tau(  32) = (   0.7500144   0.9237499   1.2457813  )
        33           Cu  tau(  33) = (   0.0000043   1.6164167   1.2460943  )
        34           Cu  tau(  34) = (   0.2499800   1.3854236   1.2460378  )
        35           Cu  tau(  35) = (   0.4999700   1.6165683   1.2460311  )
        36           Cu  tau(  36) = (   0.7500068   1.3854772   1.2459916  )
        37           Cu  tau(  37) = (   0.0000062   2.0785055   1.2457744  )
        38           Cu  tau(  38) = (   0.2499628   1.8474789   1.2459507  )
        39           Cu  tau(  39) = (   0.4999638   2.0784842   1.2457312  )
        40           Cu  tau(  40) = (   0.7500076   1.8475446   1.2458854  )
        41           Cu  tau(  41) = (   0.0000421  -0.0000984   1.4956486  )
        42           Cu  tau(  42) = (   0.2499623   0.2315383   1.4961046  )
        43           Cu  tau(  43) = (   0.4999233  -0.0000235   1.4954027  )
        44           Cu  tau(  44) = (   0.7500237   0.2310909   1.4955939  )
        45           Cu  tau(  45) = (   0.0001374   0.4625534   1.4958692  )
        46           Cu  tau(  46) = (   0.2500592   0.6931357   1.4956891  )
        47           Cu  tau(  47) = (   0.4999375   0.4622726   1.4956622  )
        48           Cu  tau(  48) = (   0.7501621   0.6931585   1.4957151  )
        49           Cu  tau(  49) = (   0.0001828   0.9236847   1.4959747  )
        50           Cu  tau(  50) = (   0.2499626   1.1539495   1.4960842  )
        51           Cu  tau(  51) = (   0.5000381   0.9235334   1.4959102  )
        52           Cu  tau(  52) = (   0.7502011   1.1541901   1.4957430  )
        53           Cu  tau(  53) = (   0.0000953   1.3849016   1.4959015  )
        54           Cu  tau(  54) = (   0.2498984   1.6162198   1.4957240  )
        55           Cu  tau(  55) = (   0.4999417   1.3851159   1.4955146  )
        56           Cu  tau(  56) = (   0.7500739   1.6163865   1.4955053  )
        57           Cu  tau(  57) = (   0.0000045   1.8475864   1.4954591  )
        58           Cu  tau(  58) = (   0.2499675   2.0785101   1.4955159  )
        59           Cu  tau(  59) = (   0.4999572   1.8477277   1.4954640  )
        60           Cu  tau(  60) = (   0.7499945   2.0785278   1.4955203  )
        61           Cu  tau(  61) = (   0.0002526   0.2313820   1.7443139  )
        62           Cu  tau(  62) = (   0.2500737  -0.0001503   1.7450533  )
        63           Cu  tau(  63) = (   0.4998469   0.2308748   1.7445869  )
        64           Cu  tau(  64) = (   0.7499076  -0.0000485   1.7449958  )
        65           Cu  tau(  65) = (   0.0007880   0.6933814   1.7462931  )
        66           Cu  tau(  66) = (   0.2505091   0.4637436   1.7464953  )
        67           Cu  tau(  67) = (   0.5001093   0.6932142   1.7459778  )
        68           Cu  tau(  68) = (   0.7499111   0.4624311   1.7447734  )
        69           Cu  tau(  69) = (   0.0006026   1.1535406   1.7467850  )
        70           Cu  tau(  70) = (   0.2504681   0.9227611   1.7472317  )
        71           Cu  tau(  71) = (   0.5001426   1.1538995   1.7452058  )
        72           Cu  tau(  72) = (   0.7505891   0.9235710   1.7460410  )
        73           Cu  tau(  73) = (   0.0000939   1.6164061   1.7446895  )
        74           Cu  tau(  74) = (   0.2497645   1.3844234   1.7455021  )
        75           Cu  tau(  75) = (   0.4999242   1.6163742   1.7438986  )
        76           Cu  tau(  76) = (   0.7504900   1.3848341   1.7447937  )
        77           Cu  tau(  77) = (  -0.0000473   2.0782602   1.7454104  )
        78           Cu  tau(  78) = (   0.2498110   1.8476558   1.7448167  )
        79           Cu  tau(  79) = (   0.5000051   2.0786793   1.7453087  )
        80           Cu  tau(  80) = (   0.7501459   1.8475994   1.7447935  )
        81           Cu  tau(  81) = (   0.0000976   0.0007723   1.9906318  )
        82           Cu  tau(  82) = (   0.2501989   0.2313265   1.9903681  )
        83           Cu  tau(  83) = (   0.4999932   0.0000684   1.9922485  )
        84           Cu  tau(  84) = (   0.7502428   0.2309055   1.9904384  )
        85           Cu  tau(  85) = (   0.0001321   0.4622343   1.9898579  )
        86           Cu  tau(  86) = (   0.2538981   0.6929866   1.9986273  )
        87           Cu  tau(  87) = (   0.5010490   0.4602715   1.9915572  )
        88           Cu  tau(  88) = (   0.7488732   0.6926230   1.9918521  )
        89           Cu  tau(  89) = (   0.0018147   0.9218361   1.9937327  )
        90           Cu  tau(  90) = (   0.2511742   1.1538759   1.9943600  )
        91           Cu  tau(  91) = (   0.5011685   0.9247265   1.9937814  )
        92           Cu  tau(  92) = (   0.7507104   1.1545977   1.9924256  )
        93           Cu  tau(  93) = (   0.0005167   1.3857501   1.9918262  )
        94           Cu  tau(  94) = (   0.2497976   1.6164030   1.9902238  )
        95           Cu  tau(  95) = (   0.5002128   1.3859419   1.9895526  )
        96           Cu  tau(  96) = (   0.7503957   1.6162378   1.9900106  )
        97           Cu  tau(  97) = (  -0.0000512   1.8469837   1.9922161  )
        98           Cu  tau(  98) = (   0.2497710   2.0782644   1.9915109  )
        99           Cu  tau(  99) = (   0.5000489   1.8467959   1.9902846  )
       100           Cu  tau( 100) = (   0.7502177   2.0783528   1.9915112  )
       101           C   tau( 101) = (  -0.0003414   0.0959260   2.3891635  )
       102           C   tau( 102) = (  -0.0005311   0.2880372   2.3873265  )
       103           C   tau( 103) = (   0.1664900   0.0000150   2.3880789  )
       104           C   tau( 104) = (   0.1658950   0.3836141   2.3825874  )
       105           C   tau( 105) = (   0.3329823   0.0959316   2.3848192  )
       106           C   tau( 106) = (   0.3328908   0.2882354   2.3817515  )
       107           C   tau( 107) = (   0.4998429  -0.0001390   2.3848829  )
       108           C   tau( 108) = (   0.4998623   0.3845275   2.3796837  )
       109           C   tau( 109) = (   0.6666737   0.0961327   2.3861504  )
       110           C   tau( 110) = (   0.6667355   0.2883844   2.3828119  )
       111           C   tau( 111) = (   0.8331060  -0.0000590   2.3889444  )
       112           C   tau( 112) = (   0.8332675   0.3844924   2.3841002  )
       113           C   tau( 113) = (  -0.0008062   0.6731012   2.3809860  )
       114           C   tau( 114) = (  -0.0004346   0.8662185   2.3749002  )
       115           C   tau( 115) = (   0.1659344   0.5759929   2.3802930  )
       116           C   tau( 116) = (   0.1629216   0.9639019   2.3836376  )
       117           C   tau( 117) = (   0.3320481   0.6697401   2.3818828  )
       118           C   tau( 118) = (   0.3296302   0.8640589   2.3783193  )
       119           C   tau( 119) = (   0.4992644   0.5768075   2.3815121  )
       120           C   tau( 120) = (   0.5027458   0.9640845   2.3809727  )
       121           C   tau( 121) = (   0.4148802   0.9105182   2.2061533  )
       122           C   tau( 122) = (   0.6668673   0.6738861   2.3814228  )
       123           C   tau( 123) = (   0.6694731   0.8650813   2.3841404  )
       124           C   tau( 124) = (   0.8334719   0.5771319   2.3811733  )
       125           C   tau( 125) = (   0.8326020   0.9624951   2.3760151  )
       126           C   tau( 126) = (  -0.0005408   1.2515536   2.3783785  )
       127           C   tau( 127) = (  -0.0002025   1.4441657   2.3791885  )
       128           C   tau( 128) = (   0.1659611   1.1548761   2.3827122  )
       129           C   tau( 129) = (   0.1666509   1.5402873   2.3829992  )
       130           C   tau( 130) = (   0.3337850   1.2519397   2.3879034  )
       131           C   tau( 131) = (   0.3332515   1.4442312   2.3858299  )
       132           C   tau( 132) = (   0.5005739   1.1593011   2.3911037  )
       133           C   tau( 133) = (   0.4998278   1.5404340   2.3872195  )
       134           C   tau( 134) = (   0.6662401   1.2526435   2.3826683  )
       135           C   tau( 135) = (   0.6665454   1.4450373   2.3835040  )
       136           C   tau( 136) = (   0.8333031   1.1555540   2.3784932  )
       137           C   tau( 137) = (   0.8331891   1.5406696   2.3825269  )
       138           C   tau( 138) = (  -0.0000297   1.8288667   2.3851051  )
       139           C   tau( 139) = (  -0.0000613   2.0211271   2.3876375  )
       140           C   tau( 140) = (   0.1667729   1.7325293   2.3857606  )
       141           C   tau( 141) = (   0.1665083   2.1171200   2.3876392  )
       142           C   tau( 142) = (   0.3332856   1.8286704   2.3882715  )
       143           C   tau( 143) = (   0.3333299   2.0209605   2.3877559  )
       144           C   tau( 144) = (   0.4998642   1.7326998   2.3881539  )
       145           C   tau( 145) = (   0.4998585   2.1169691   2.3878980  )
       146           C   tau( 146) = (   0.6664680   1.8286764   2.3882226  )
       147           C   tau( 147) = (   0.6664575   2.0209616   2.3879923  )
       148           C   tau( 148) = (   0.8331465   1.7328249   2.3858388  )
       149           C   tau( 149) = (   0.8332060   2.1170919   2.3878550  )

     number of k points=     6  gaussian smearing, width (Ry)=  0.1000
                       cart. coord. in units 2pi/alat
        k(    1) = (   0.0000000   0.0000000   0.0000000), wk =   0.2500000
        k(    2) = (   0.0000000  -0.2165064   0.0000000), wk =   0.2500000
        k(    3) = (   0.2500000   0.0000000   0.0000000), wk =   0.5000000
        k(    4) = (   0.2500000  -0.2165064   0.0000000), wk =   0.5000000
        k(    5) = (  -0.5000000   0.0000000   0.0000000), wk =   0.2500000
        k(    6) = (  -0.5000000  -0.2165064   0.0000000), wk =   0.2500000

     Dense  grid:  2050409 G-vectors     FFT dimensions: (  80, 192, 270)

     Largest allocated arrays     est. size (Mb)     dimensions
        Kohn-Sham Wavefunctions        54.66 Mb     (    4604,  778)
        NL pseudopotentials           129.89 Mb     (    4604, 1849)
        Each V/rho on FFT grid          1.17 Mb     (   76800)
        Each G-vector array             0.28 Mb     (   36616)
        G-vector shells                 0.14 Mb     (   17932)
     Largest temporary arrays     est. size (Mb)     dimensions
        Auxiliary wavefunctions       218.62 Mb     (    4604, 3112)
        Each subspace H/S matrix        5.90 Mb     (     622,  622)
        Each <psi_i|beta_j> matrix     21.95 Mb     (    1849,  778)
        Arrays for rho mixing           9.38 Mb     (   76800,    8)

     Initial potential from superposition of free atoms
     Check: negative starting charge=   -0.001854

     starting charge 1270.31751, renormalised to 1296.00000

     negative rho (up, down):  1.892E-03 0.000E+00
     Starting wfc are 1292 randomized atomic wfcs

     total cpu time spent up to now is      107.5 secs

     Self-consistent Calculation

     iteration #  1     ecut=    80.00 Ry     beta=0.70
     Davidson diagonalization with overlap
     c_bands:  2 eigenvalues not converged
     ethr =  1.00E-04,  avg # of iterations = 21.0

     negative rho (up, down):  2.827E+01 0.000E+00

     total cpu time spent up to now is     1877.1 secs

     total energy              =   -9431.87656441 Ry
     Harris-Foulkes estimate   =  -17191.80041149 Ry
     estimated scf accuracy    <  177410.92139405 Ry

     iteration #  2     ecut=    80.00 Ry     beta=0.70
     Davidson diagonalization with overlap
     ethr =  1.00E-02,  avg # of iterations = 12.5

     negative rho (up, down):  3.190E+01 0.000E+00

     total cpu time spent up to now is     2790.3 secs

     total energy              =  -12322.41255203 Ry
     Harris-Foulkes estimate   =  -13638.69832693 Ry
     estimated scf accuracy    <   20026.76498299 Ry

     iteration #  3     ecut=    80.00 Ry     beta=0.70
     Davidson diagonalization with overlap
     ethr =  1.00E-02,  avg # of iterations =  6.8

     negative rho (up, down):  3.301E+01 0.000E+00

     total cpu time spent up to now is     3320.6 secs

     total energy              =  -12484.90268568 Ry
     Harris-Foulkes estimate   =  -13375.73894335 Ry
     estimated scf accuracy    <    6066.59500529 Ry

     iteration #  4     ecut=    80.00 Ry     beta=0.70
     Davidson diagonalization with overlap
     ethr =  1.00E-02,  avg # of iterations =  5.0

     negative rho (up, down):  2.799E+01 0.000E+00

     total cpu time spent up to now is     3797.1 secs

     total energy              =  -12828.31195717 Ry
     Harris-Foulkes estimate   =  -13136.71618308 Ry
     estimated scf accuracy    <    4556.18593252 Ry

     iteration #  5     ecut=    80.00 Ry     beta=0.70
     Davidson diagonalization with overlap
     ethr =  1.00E-02,  avg # of iterations =  5.0

     negative rho (up, down):  1.940E+01 0.000E+00

     total cpu time spent up to now is     4130.6 secs

     total energy              =  -12872.81972980 Ry
     Harris-Foulkes estimate   =  -13036.57727427 Ry
     estimated scf accuracy    <    1082.27055940 Ry

     iteration #  6     ecut=    80.00 Ry     beta=0.70
     Davidson diagonalization with overlap
     ethr =  1.00E-02,  avg # of iterations =  2.0

     negative rho (up, down):  1.175E+01 0.000E+00

     total cpu time spent up to now is     4354.5 secs

     total energy              =  -12837.91676371 Ry
     Harris-Foulkes estimate   =  -12914.62653916 Ry
     estimated scf accuracy    <     562.62793603 Ry

     iteration #  7     ecut=    80.00 Ry     beta=0.70
     Davidson diagonalization with overlap
     ethr =  1.00E-02,  avg # of iterations =  2.0

     negative rho (up, down):  9.234E+00 0.000E+00

     total cpu time spent up to now is     4539.1 secs

     total energy              =  -12820.63086980 Ry
     Harris-Foulkes estimate   =  -12859.76786759 Ry
     estimated scf accuracy    <    1053.49578908 Ry

     iteration #  8     ecut=    80.00 Ry     beta=0.70
     Davidson diagonalization with overlap
     ethr =  1.00E-02,  avg # of iterations =  1.3

     negative rho (up, down):  8.544E+00 0.000E+00

     total cpu time spent up to now is     4707.5 secs

     total energy              =  -12820.57649063 Ry
     Harris-Foulkes estimate   =  -12833.76634854 Ry
     estimated scf accuracy    <     532.02520863 Ry

     iteration #  9     ecut=    80.00 Ry     beta=0.70
     Davidson diagonalization with overlap
     ethr =  1.00E-02,  avg # of iterations =  1.0

     negative rho (up, down):  7.768E+00 0.000E+00

     total cpu time spent up to now is     4873.0 secs

     total energy              =  -12813.95319708 Ry
     Harris-Foulkes estimate   =  -12824.31425597 Ry
     estimated scf accuracy    <     272.78083188 Ry

     iteration # 10     ecut=    80.00 Ry     beta=0.70
     Davidson diagonalization with overlap
     ethr =  1.00E-02,  avg # of iterations =  1.0

     negative rho (up, down):  3.221E+00 0.000E+00

     total cpu time spent up to now is     5038.4 secs

     total energy              =  -12765.37337464 Ry
     Harris-Foulkes estimate   =  -12816.58012661 Ry
     estimated scf accuracy    <     308.38705504 Ry

     iteration # 11     ecut=    80.00 Ry     beta=0.70
     Davidson diagonalization with overlap
     ethr =  1.00E-02,  avg # of iterations =  2.0

     negative rho (up, down):  1.897E+00 0.000E+00

     total cpu time spent up to now is     5217.5 secs

     total energy              =  -12748.07131862 Ry
     Harris-Foulkes estimate   =  -12780.91733262 Ry
     estimated scf accuracy    <     303.60530210 Ry

     iteration # 12     ecut=    80.00 Ry     beta=0.70
     Davidson diagonalization with overlap
     ethr =  1.00E-02,  avg # of iterations =  2.2

     negative rho (up, down):  1.028E+00 0.000E+00

     total cpu time spent up to now is     5399.3 secs

     total energy              =  -12735.37136829 Ry
     Harris-Foulkes estimate   =  -12760.16739023 Ry
     estimated scf accuracy    <     123.33374318 Ry

     iteration # 13     ecut=    80.00 Ry     beta=0.70
     Davidson diagonalization with overlap
     ethr =  9.52E-03,  avg # of iterations =  2.2

     negative rho (up, down):  2.749E+00 0.000E+00

     total cpu time spent up to now is     5579.4 secs

     total energy              =  -12725.53498999 Ry
     Harris-Foulkes estimate   =  -12743.26350351 Ry
     estimated scf accuracy    <     110.33769592 Ry

     iteration # 14     ecut=    80.00 Ry     beta=0.70
     Davidson diagonalization with overlap
     ethr =  8.51E-03,  avg # of iterations =  2.3

     negative rho (up, down):  4.854E+00 0.000E+00

     total cpu time spent up to now is     5760.8 secs

     total energy              =  -12722.97251746 Ry
     Harris-Foulkes estimate   =  -12733.96556459 Ry
     estimated scf accuracy    <     121.69176400 Ry

     iteration # 15     ecut=    80.00 Ry     beta=0.70
     Davidson diagonalization with overlap
     ethr =  8.51E-03,  avg # of iterations =  2.0

     negative rho (up, down):  6.143E+00 0.000E+00

     total cpu time spent up to now is     5938.5 secs

     total energy              =  -12723.36981349 Ry
     Harris-Foulkes estimate   =  -12728.27556106 Ry
     estimated scf accuracy    <      60.19469193 Ry

     iteration # 16     ecut=    80.00 Ry     beta=0.70
     Davidson diagonalization with overlap
     ethr =  4.64E-03,  avg # of iterations =  2.2

     negative rho (up, down):  5.694E+00 0.000E+00

     total cpu time spent up to now is     6117.6 secs

     total energy              =  -12719.82747421 Ry
     Harris-Foulkes estimate   =  -12724.40692033 Ry
     estimated scf accuracy    <      42.04499748 Ry

     iteration # 17     ecut=    80.00 Ry     beta=0.70
     Davidson diagonalization with overlap
     ethr =  3.24E-03,  avg # of iterations =  2.8

     negative rho (up, down):  3.897E+00 0.000E+00

     total cpu time spent up to now is     6304.4 secs

     total energy              =  -12718.04305575 Ry
     Harris-Foulkes estimate   =  -12720.87004891 Ry
     estimated scf accuracy    <      25.89821750 Ry

     iteration # 18     ecut=    80.00 Ry     beta=0.70
     Davidson diagonalization with overlap
     ethr =  2.00E-03,  avg # of iterations =  4.2

     negative rho (up, down):  2.567E+00 0.000E+00

     total cpu time spent up to now is     6509.9 secs

     total energy              =  -12716.51106984 Ry
     Harris-Foulkes estimate   =  -12718.77474785 Ry
     estimated scf accuracy    <      15.93160449 Ry

     iteration # 19     ecut=    80.00 Ry     beta=0.70
     Davidson diagonalization with overlap
     ethr =  1.23E-03,  avg # of iterations =  3.5

     negative rho (up, down):  3.397E+00 0.000E+00

     total cpu time spent up to now is     6704.7 secs

     total energy              =  -12716.05840762 Ry
     Harris-Foulkes estimate   =  -12717.28658733 Ry
     estimated scf accuracy    <      15.22767443 Ry

     iteration # 20     ecut=    80.00 Ry     beta=0.70
     Davidson diagonalization with overlap
     ethr =  1.17E-03,  avg # of iterations =  5.8

     negative rho (up, down):  2.614E+00 0.000E+00

     total cpu time spent up to now is     6929.9 secs

     total energy              =  -12714.74204227 Ry
     Harris-Foulkes estimate   =  -12716.36519059 Ry
     estimated scf accuracy    <       9.80035399 Ry

     iteration # 21     ecut=    80.00 Ry     beta=0.70
     Davidson diagonalization with overlap
     ethr =  7.56E-04,  avg # of iterations =  2.3

     negative rho (up, down):  2.071E+00 0.000E+00

     total cpu time spent up to now is     7111.4 secs

     total energy              =  -12714.53246359 Ry
     Harris-Foulkes estimate   =  -12715.13337905 Ry
     estimated scf accuracy    <      10.24472428 Ry

     iteration # 22     ecut=    80.00 Ry     beta=0.70
     Davidson diagonalization with overlap
     ethr =  7.56E-04,  avg # of iterations =  2.0

     negative rho (up, down):  1.851E+00 0.000E+00

     total cpu time spent up to now is     7288.3 secs

     total energy              =  -12713.12136667 Ry
     Harris-Foulkes estimate   =  -12714.73093109 Ry
     estimated scf accuracy    <       7.38862064 Ry

     iteration # 23     ecut=    80.00 Ry     beta=0.70
     Davidson diagonalization with overlap
     ethr =  5.70E-04,  avg # of iterations =  3.2

     negative rho (up, down):  1.825E+00 0.000E+00

     total cpu time spent up to now is     7480.7 secs

     total energy              =  -12712.66474079 Ry
     Harris-Foulkes estimate   =  -12713.93898382 Ry
     estimated scf accuracy    <      59.56108532 Ry

     iteration # 24     ecut=    80.00 Ry     beta=0.70
     Davidson diagonalization with overlap
     ethr =  5.70E-04,  avg # of iterations =  2.3

     negative rho (up, down):  1.165E+00 0.000E+00

     total cpu time spent up to now is     7662.3 secs

     total energy              =  -12712.40317512 Ry
     Harris-Foulkes estimate   =  -12713.91953348 Ry
     estimated scf accuracy    <       6.65555402 Ry

     iteration # 25     ecut=    80.00 Ry     beta=0.70
     Davidson diagonalization with overlap
     ethr =  5.14E-04,  avg # of iterations =  1.5

     negative rho (up, down):  1.545E-02 0.000E+00

     total cpu time spent up to now is     7834.1 secs

     total energy              =  -12711.41153039 Ry
     Harris-Foulkes estimate   =  -12712.50186455 Ry
     estimated scf accuracy    <       6.94444578 Ry

     iteration # 26     ecut=    80.00 Ry     beta=0.70
     Davidson diagonalization with overlap
     ethr =  5.14E-04,  avg # of iterations =  8.0

     negative rho (up, down):  1.838E-01 0.000E+00

     total cpu time spent up to now is     8082.4 secs

     total energy              =  -12710.22464240 Ry
     Harris-Foulkes estimate   =  -12711.87528944 Ry
     estimated scf accuracy    <      37.31769464 Ry

     iteration # 27     ecut=    80.00 Ry     beta=0.70
     Davidson diagonalization with overlap
     ethr =  5.14E-04,  avg # of iterations =  3.0

     negative rho (up, down):  3.132E-01 0.000E+00

     total cpu time spent up to now is     8273.5 secs

     total energy              =  -12710.15726929 Ry
     Harris-Foulkes estimate   =  -12711.04362875 Ry
     estimated scf accuracy    <      24.03726588 Ry

     iteration # 28     ecut=    80.00 Ry     beta=0.70
     Davidson diagonalization with overlap
     ethr =  5.14E-04,  avg # of iterations =  3.0

     negative rho (up, down):  5.224E-01 0.000E+00

     total cpu time spent up to now is     8462.5 secs

     total energy              =  -12709.98349112 Ry
     Harris-Foulkes estimate   =  -12710.48162637 Ry
     estimated scf accuracy    <       3.61573136 Ry

     iteration # 29     ecut=    80.00 Ry     beta=0.70
     Davidson diagonalization with overlap
     ethr =  2.79E-04,  avg # of iterations =  6.2

     negative rho (up, down):  3.695E-01 0.000E+00

     total cpu time spent up to now is     8694.8 secs

     total energy              =  -12709.94927133 Ry
     Harris-Foulkes estimate   =  -12710.22052332 Ry
     estimated scf accuracy    <       1.20730365 Ry

     iteration # 30     ecut=    80.00 Ry     beta=0.70
     Davidson diagonalization with overlap
     ethr =  9.32E-05,  avg # of iterations =  9.2

     negative rho (up, down):  2.303E-01 0.000E+00

     total cpu time spent up to now is     8976.1 secs

     total energy              =  -12709.94168361 Ry
     Harris-Foulkes estimate   =  -12710.02635269 Ry
     estimated scf accuracy    <       0.43695872 Ry

     iteration # 31     ecut=    80.00 Ry     beta=0.70
     Davidson diagonalization with overlap
     ethr =  3.37E-05,  avg # of iterations =  8.3

     negative rho (up, down):  1.688E-01 0.000E+00

     total cpu time spent up to now is     9248.8 secs

     total energy              =  -12709.95421664 Ry
     Harris-Foulkes estimate   =  -12709.97848413 Ry
     estimated scf accuracy    <       0.21268378 Ry

     iteration # 32     ecut=    80.00 Ry     beta=0.70
     Davidson diagonalization with overlap
     ethr =  1.64E-05,  avg # of iterations =  7.8

     negative rho (up, down):  3.893E-02 0.000E+00

     total cpu time spent up to now is     9522.4 secs

     total energy              =  -12709.95903086 Ry
     Harris-Foulkes estimate   =  -12709.97486200 Ry
     estimated scf accuracy    <       0.11314093 Ry

     iteration # 33     ecut=    80.00 Ry     beta=0.70
     Davidson diagonalization with overlap
     ethr =  8.73E-06,  avg # of iterations = 10.7

     negative rho (up, down):  2.092E-02 0.000E+00

     total cpu time spent up to now is     9821.6 secs

     total energy              =  -12709.96625059 Ry
     Harris-Foulkes estimate   =  -12709.96799537 Ry
     estimated scf accuracy    <       0.01796059 Ry

     iteration # 34     ecut=    80.00 Ry     beta=0.70
     Davidson diagonalization with overlap
     ethr =  1.39E-06,  avg # of iterations = 13.5

     negative rho (up, down):  1.821E-02 0.000E+00

     total cpu time spent up to now is    10159.8 secs

     total energy              =  -12709.96607767 Ry
     Harris-Foulkes estimate   =  -12709.96726954 Ry
     estimated scf accuracy    <       0.00892952 Ry

     iteration # 35     ecut=    80.00 Ry     beta=0.70
     Davidson diagonalization with overlap
     c_bands:  2 eigenvalues not converged
     ethr =  6.89E-07,  avg # of iterations = 10.3

     negative rho (up, down):  2.303E-02 0.000E+00

     total cpu time spent up to now is    10449.2 secs

     total energy              =  -12709.96582878 Ry
     Harris-Foulkes estimate   =  -12709.96670409 Ry
     estimated scf accuracy    <       0.00551052 Ry

     iteration # 36     ecut=    80.00 Ry     beta=0.70
     Davidson diagonalization with overlap
     c_bands:  1 eigenvalues not converged
     ethr =  4.25E-07,  avg # of iterations = 10.3

     negative rho (up, down):  2.051E-02 0.000E+00

     total cpu time spent up to now is    10754.7 secs

     total energy              =  -12709.96617400 Ry
     Harris-Foulkes estimate   =  -12709.96665735 Ry
     estimated scf accuracy    <       0.00235395 Ry

     iteration # 37     ecut=    80.00 Ry     beta=0.70
     Davidson diagonalization with overlap
     ethr =  1.82E-07,  avg # of iterations =  4.5

     negative rho (up, down):  1.613E-02 0.000E+00

     total cpu time spent up to now is    10972.6 secs

     total energy              =  -12709.96635266 Ry
     Harris-Foulkes estimate   =  -12709.96641192 Ry
     estimated scf accuracy    <       0.00026699 Ry

     iteration # 38     ecut=    80.00 Ry     beta=0.70
     Davidson diagonalization with overlap
     ethr =  2.06E-08,  avg # of iterations =  6.8

     negative rho (up, down):  1.105E-02 0.000E+00

     total cpu time spent up to now is    11224.4 secs

     total energy              =  -12709.96627128 Ry
     Harris-Foulkes estimate   =  -12709.96636998 Ry
     estimated scf accuracy    <       0.00004390 Ry

     iteration # 39     ecut=    80.00 Ry     beta=0.70
     Davidson diagonalization with overlap
     c_bands:  1 eigenvalues not converged
     ethr =  3.39E-09,  avg # of iterations =  8.5

     negative rho (up, down):  5.512E-03 0.000E+00

     total cpu time spent up to now is    11497.1 secs

     total energy              =  -12709.96617431 Ry
     Harris-Foulkes estimate   =  -12709.96627517 Ry
     estimated scf accuracy    <       0.00002579 Ry

     iteration # 40     ecut=    80.00 Ry     beta=0.70
     Davidson diagonalization with overlap
     ethr =  1.99E-09,  avg # of iterations =  7.7

     negative rho (up, down):  3.067E-03 0.000E+00

     total cpu time spent up to now is    11759.0 secs

     total energy              =  -12709.96614635 Ry
     Harris-Foulkes estimate   =  -12709.96617721 Ry
     estimated scf accuracy    <       0.00001007 Ry

     iteration # 41     ecut=    80.00 Ry     beta=0.70
     Davidson diagonalization with overlap
     ethr =  7.77E-10,  avg # of iterations =  7.8

     negative rho (up, down):  2.277E-03 0.000E+00

     total cpu time spent up to now is    12015.0 secs

     total energy              =  -12709.96614590 Ry
     Harris-Foulkes estimate   =  -12709.96614736 Ry
     estimated scf accuracy    <       0.00000427 Ry

     iteration # 42     ecut=    80.00 Ry     beta=0.70
     Davidson diagonalization with overlap
     ethr =  3.29E-10,  avg # of iterations =  2.7

     negative rho (up, down):  2.039E-03 0.000E+00

     total cpu time spent up to now is    12206.5 secs

     total energy              =  -12709.96614662 Ry
     Harris-Foulkes estimate   =  -12709.96614621 Ry
     estimated scf accuracy    <       0.00000136 Ry

     iteration # 43     ecut=    80.00 Ry     beta=0.70
     Davidson diagonalization with overlap
     ethr =  1.05E-10,  avg # of iterations =  3.0

     negative rho (up, down):  1.846E-03 0.000E+00

     total cpu time spent up to now is    12409.8 secs

     total energy              =  -12709.96614747 Ry
     Harris-Foulkes estimate   =  -12709.96614671 Ry
     estimated scf accuracy    <       0.00000065 Ry

     iteration # 44     ecut=    80.00 Ry     beta=0.70
     Davidson diagonalization with overlap
     ethr =  5.03E-11,  avg # of iterations =  3.2

     negative rho (up, down):  1.902E-03 0.000E+00

     total cpu time spent up to now is    12617.0 secs

     total energy              =  -12709.96614762 Ry
     Harris-Foulkes estimate   =  -12709.96614753 Ry
     estimated scf accuracy    <       0.00000019 Ry

     iteration # 45     ecut=    80.00 Ry     beta=0.70
     Davidson diagonalization with overlap
     ethr =  1.46E-11,  avg # of iterations =  3.0

     negative rho (up, down):  1.902E-03 0.000E+00

     total cpu time spent up to now is    12825.9 secs

     total energy              =  -12709.96614773 Ry
     Harris-Foulkes estimate   =  -12709.96614764 Ry
     estimated scf accuracy    <       0.00000007 Ry

     iteration # 46     ecut=    80.00 Ry     beta=0.70
     Davidson diagonalization with overlap
     ethr =  5.65E-12,  avg # of iterations =  2.3

     negative rho (up, down):  1.937E-03 0.000E+00

     total cpu time spent up to now is    13015.4 secs

     total energy              =  -12709.96614773 Ry
     Harris-Foulkes estimate   =  -12709.96614774 Ry
     estimated scf accuracy    <       0.00000002 Ry

     iteration # 47     ecut=    80.00 Ry     beta=0.70
     Davidson diagonalization with overlap
     ethr =  1.89E-12,  avg # of iterations =  2.0

     negative rho (up, down):  1.924E-03 0.000E+00

     total cpu time spent up to now is    13194.4 secs

     End of self-consistent calculation

          k = 0.0000 0.0000 0.0000 (256287 PWs)   bands (ev):

   -16.9731 -15.9287 -15.7118 -15.1308 -14.6336 -14.4213 -14.1990 -13.9487
   -13.8397 -13.7608 -13.7500 -13.1553 -12.8496 -12.7736 -12.7615 -12.7141
   -12.6908 -11.4150 -11.0701 -11.0413 -11.0078 -10.8476  -9.8594  -9.6025
    -9.1975  -9.1502  -9.1425  -8.5764  -8.3556  -8.2406  -8.2373  -7.6766
    -7.3637  -7.3080  -7.2704  -7.2189  -7.1753  -7.1552  -7.1537  -6.6925
    -5.7717  -5.7475  -5.6684  -5.6263  -5.6199  -5.5430  -5.5032  -5.4769
    -5.4369  -5.1316  -5.1107  -4.6757  -4.4420  -4.3844  -4.3051  -4.2713
    -4.1002  -4.0352  -3.9920  -3.8033  -3.7828  -3.6376  -3.5910  -3.3925
    -3.3161  -3.2138  -3.1656  -3.1403  -3.1179  -3.0482  -3.0456  -3.0071
    -2.9765  -2.9102  -2.8512  -2.8041  -2.7616  -2.6548  -2.6536  -2.6465
    -2.6390  -2.6314  -2.5784  -2.5140  -2.4431  -2.3907  -2.3872  -2.3801
    -2.3456  -2.3383  -2.2645  -2.2238  -2.1020  -2.0470  -2.0342  -2.0027
    -1.9696  -1.8660  -1.8602  -1.8377  -1.8291  -1.8025  -1.7974  -1.7944
    -1.7927  -1.7619  -1.7328  -1.6731  -1.6702  -1.6678  -1.6666  -1.6550
    -1.6402  -1.5998  -1.4973  -1.4278  -1.4189  -1.3908  -1.3859  -1.3844
    -1.3577  -1.3391  -1.3248  -1.3135  -1.3000  -1.2943  -1.2797  -1.2512
    -1.2390  -1.2182  -1.2112  -1.2063  -1.1992  -1.1921  -1.1812  -1.1658
    -1.1607  -1.1561  -1.1293  -1.1009  -1.0850  -1.0819  -1.0593  -1.0485
    -1.0078  -0.9962  -0.9825  -0.9451  -0.9413  -0.9132  -0.9081  -0.8995
    -0.8901  -0.8707  -0.8518  -0.8489  -0.8357  -0.8322  -0.8097  -0.8082
    -0.7875  -0.7770  -0.7604  -0.7457  -0.7062  -0.7015  -0.6911  -0.6867
    -0.6733  -0.6692  -0.6649  -0.6635  -0.6616  -0.6579  -0.6507  -0.6453
    -0.6442  -0.6206  -0.5995  -0.5913  -0.5849  -0.5786  -0.5781  -0.5711
    -0.5610  -0.5558  -0.5345  -0.5176  -0.5106  -0.5078  -0.5036  -0.5007
    -0.4989  -0.4972  -0.4946  -0.4937  -0.4933  -0.4914  -0.4891  -0.4874
    -0.4848  -0.4833  -0.4820  -0.4784  -0.4745  -0.4467  -0.3742  -0.3588
    -0.3445  -0.3363  -0.3326  -0.3236  -0.3178  -0.3117  -0.3004  -0.2965
    -0.2835  -0.2743  -0.2731  -0.2575  -0.2530  -0.2495  -0.2378  -0.2161
    -0.2124  -0.2074  -0.2044  -0.2019  -0.2006  -0.1950  -0.1861  -0.1525
    -0.1476  -0.1337  -0.1302  -0.0830  -0.0763  -0.0744  -0.0695  -0.0662
    -0.0610  -0.0515  -0.0506  -0.0480  -0.0469  -0.0464  -0.0445  -0.0398
    -0.0312  -0.0307  -0.0272  -0.0224  -0.0138  -0.0022   0.0010   0.0019
     0.0319   0.0548   0.0597   0.0607   0.0614   0.0692   0.0814   0.0943
     0.0944   0.0947   0.0986   0.1028   0.1097   0.1151   0.1163   0.1277
     0.1296   0.1377   0.1386   0.1394   0.1400   0.1438   0.1456   0.1490
     0.1539   0.1613   0.1647   0.1688   0.1742   0.1786   0.2147   0.2233
     0.2373   0.2386   0.2464   0.2492   0.2556   0.2870   0.2891   0.2924
     0.2951   0.2963   0.2971   0.2974   0.3053   0.3175   0.3242   0.3327
     0.3473   0.3502   0.3547   0.3593   0.3643   0.3739   0.3762   0.3764
     0.3788   0.3792   0.3815   0.3921   0.3983   0.4011   0.4032   0.4054
     0.4061   0.4120   0.4162   0.4175   0.4207   0.4233   0.4239   0.4306
     0.4524   0.4583   0.4643   0.4704   0.4850   0.4920   0.4962   0.5089
     0.5422   0.5448   0.5540   0.5640   0.5791   0.5843   0.5869   0.5923
     0.5984   0.6023   0.6047   0.6056   0.6226   0.6271   0.6300   0.6348
     0.6396   0.6523   0.6587   0.6823   0.6925   0.6958   0.6980   0.7002
     0.7178   0.7220   0.7273   0.7286   0.7356   0.7404   0.7511   0.7544
     0.7656   0.7706   0.7733   0.7794   0.7902   0.7929   0.8105   0.8237
     0.8292   0.8379   0.8426   0.8472   0.8531   0.8554   0.8565   0.8584
     0.8691   0.8716   0.8752   0.8859   0.8883   0.8920   0.8942   0.8952
     0.8980   0.9034   0.9065   0.9085   0.9104   0.9121   0.9155   0.9229
     0.9296   0.9485   0.9510   0.9548   0.9597   0.9623   0.9804   0.9854
     0.9939   0.9970   1.0029   1.0052   1.0069   1.0104   1.0121   1.0136
     1.0264   1.0298   1.0337   1.0361   1.0414   1.0439   1.0450   1.0496
     1.0547   1.0580   1.0638   1.0673   1.0742   1.0774   1.0780   1.0856
     1.0892   1.0952   1.1011   1.1017   1.1042   1.1043   1.1083   1.1116
     1.1146   1.1189   1.1234   1.1334   1.1620   1.1646   1.1711   1.1772
     1.1782   1.1789   1.1821   1.1985   1.2012   1.2105   1.2244   1.2317
     1.2340   1.2368   1.2420   1.2472   1.2531   1.2542   1.2599   1.2628
     1.2764   1.2783   1.2908   1.2912   1.2945   1.3000   1.3029   1.3086
     1.3142   1.3161   1.3223   1.3298   1.3363   1.3456   1.3476   1.3519
     1.3560   1.3596   1.3644   1.3664   1.3680   1.3688   1.3711   1.3752
     1.3760   1.3837   1.3846   1.3851   1.3965   1.3988   1.4009   1.4095
     1.4142   1.4218   1.4242   1.4300   1.4409   1.4446   1.4485   1.4610
     1.4629   1.4652   1.4658   1.4680   1.4723   1.4730   1.4740   1.4742
     1.4762   1.4889   1.4921   1.4938   1.5170   1.5265   1.5297   1.5349
     1.5390   1.5471   1.5549   1.5585   1.5597   1.5606   1.5655   1.5701
     1.5763   1.5814   1.5845   1.5873   1.5906   1.5932   1.5947   1.5975
     1.5983   1.6095   1.6118   1.6215   1.6224   1.6234   1.6281   1.6321
     1.6348   1.6353   1.6404   1.6420   1.6519   1.6529   1.6564   1.6610
     1.6650   1.6663   1.6679   1.6683   1.6741   1.6756   1.6800   1.6881
     1.6935   1.6970   1.7068   1.7095   1.7117   1.7151   1.7192   1.7215
     1.7344   1.7417   1.7428   1.7446   1.7463   1.7563   1.7621   1.7648
     1.7712   1.7767   1.7777   1.7806   1.7826   1.7852   1.7875   1.7896
     1.7915   1.7925   1.7943   1.7967   1.7993   1.8071   1.8106   1.8171
     1.8178   1.8210   1.8225   1.8276   1.8358   1.8486   1.8512   1.8630
     1.8677   1.8769   1.8890   1.9035   1.9073   1.9150   1.9158   1.9187
     1.9312   1.9402   1.9413   1.9659   1.9679   1.9819   1.9826   1.9861
     1.9872   1.9990   2.0008   2.0036   2.1665   2.2289   2.3133   2.4285
     2.4605   2.4735   2.5008   2.5431   2.5555   2.5601   2.5647   2.5660
     2.5727   2.5751   2.5866   2.6308   2.7424   2.7759   2.7810   2.8077
     2.8216   2.8247   2.8281   2.9546   3.0041   3.0378   3.0667   3.0710
     3.2424   3.3251   3.3651   3.5960   3.6533   3.9005   3.9366   3.9832
     4.1737   4.1859   4.1947   4.2028   4.2208   4.2634   4.3037   4.3187
     4.3431   4.3528   4.3586   4.3604   4.3619   4.3778   4.4822   4.4907
     4.5922   4.6032   4.6651   4.6662   4.9098   5.0957   5.1947   5.2522
     5.2606   5.4701   5.6521   5.7434   5.7584   5.8496   5.9279   6.0465
     6.0642   6.2064   6.2454   6.2869   6.3444   6.6586   6.6718   6.7128
     6.7620   6.7896   6.8099   6.8319   6.8407   6.9063   6.9489   7.0476
     7.0674   7.1190   7.1254   7.1369   7.1613   7.2886   7.3355   7.3727
     7.4038   7.4137   7.4338   7.5343   7.6701   7.7076   7.7359   7.8266
     7.8582   7.8847   7.9670   7.9890   8.0088   8.0327   8.0561   8.1009
     8.2453   8.4663   8.4899   8.5160   8.5292   8.5409   8.5618   8.6090
     8.6678   8.6894   8.6944   8.7163   8.7522   8.7973   8.8150   8.8636
     8.9054   8.9175   8.9422   8.9659   8.9952   9.0324   9.1078   9.1683
     9.1758   9.2147   9.2867   9.2924   9.3041   9.3582   9.3666   9.3806
     9.4292   9.4393   9.4486   9.4972   9.5063   9.6457   9.6914   9.6988
     9.8955   9.9269  10.0280  10.0321  10.0649  10.0745  10.0926  10.1828
    10.2543  10.2943

          k = 0.0000-0.2165 0.0000 (256176 PWs)   bands (ev):

   -16.9727 -15.9719 -15.5860 -15.2641 -14.7499 -14.1664 -14.0129 -14.0090
   -13.8986 -13.8199 -13.5043 -13.3900 -13.3297 -13.3060 -12.3271 -11.9798
   -11.9589 -11.9235 -11.7794 -11.6994 -10.4120 -10.0828 -10.0488 -10.0139
    -9.1619  -8.8634  -8.7538  -8.7078  -8.6129  -8.6049  -8.0563  -7.8783
    -7.7942  -7.7770  -7.1937  -6.7837  -6.6196  -6.6102  -6.5532  -6.5349
    -6.4603  -6.4478  -6.3363  -5.6870  -5.6747  -5.5300  -5.4946  -5.0086
    -4.9338  -4.7854  -4.7696  -4.6374  -4.5139  -4.4870  -4.4386  -4.3406
    -4.3012  -4.2533  -4.2158  -4.1395  -4.0872  -3.7509  -3.4790  -3.4041
    -3.2700  -3.1357  -3.0604  -2.9492  -2.9485  -2.9222  -2.9019  -2.8962
    -2.8621  -2.8330  -2.7457  -2.7168  -2.6838  -2.6783  -2.6680  -2.6496
    -2.5386  -2.5157  -2.4804  -2.4750  -2.4363  -2.3778  -2.3450  -2.2609
    -2.2534  -2.2290  -2.2256  -2.2254  -2.2243  -2.2204  -2.1698  -2.1024
    -2.0689  -2.0262  -1.9756  -1.9203  -1.9142  -1.8931  -1.8653  -1.8133
    -1.8013  -1.7942  -1.7557  -1.7424  -1.7360  -1.6369  -1.6333  -1.6266
    -1.6043  -1.6012  -1.5504  -1.5119  -1.4900  -1.4827  -1.4454  -1.4248
    -1.4112  -1.3957  -1.3934  -1.3887  -1.3820  -1.3647  -1.3536  -1.2901
    -1.2885  -1.2873  -1.2770  -1.2467  -1.2153  -1.1203  -1.1121  -1.1115
    -1.1081  -1.0692  -1.0429  -1.0268  -1.0129  -0.9918  -0.9901  -0.9674
    -0.9578  -0.9537  -0.9284  -0.9211  -0.9202  -0.9172  -0.9140  -0.9043
    -0.8961  -0.8823  -0.8808  -0.8714  -0.8706  -0.8610  -0.8549  -0.8286
    -0.8218  -0.8100  -0.7966  -0.7867  -0.7727  -0.7507  -0.7373  -0.7211
    -0.6992  -0.6921  -0.6898  -0.6880  -0.6697  -0.6480  -0.6439  -0.6256
    -0.6251  -0.6246  -0.6201  -0.6171  -0.5893  -0.5694  -0.5671  -0.5602
    -0.5557  -0.5477  -0.5467  -0.5412  -0.5407  -0.5320  -0.5112  -0.4899
    -0.4802  -0.4735  -0.4649  -0.4629  -0.4603  -0.4575  -0.4548  -0.4398
    -0.4297  -0.4208  -0.3994  -0.3961  -0.3946  -0.3912  -0.3502  -0.3001
    -0.2977  -0.2964  -0.2918  -0.2887  -0.2737  -0.2729  -0.2675  -0.2469
    -0.2458  -0.2435  -0.2424  -0.2413  -0.2406  -0.2173  -0.2023  -0.1974
    -0.1959  -0.1903  -0.1841  -0.1793  -0.1769  -0.1750  -0.1565  -0.1486
    -0.1431  -0.1261  -0.1258  -0.1258  -0.1049  -0.0957  -0.0906  -0.0894
    -0.0877  -0.0818  -0.0800  -0.0790  -0.0416  -0.0199  -0.0129  -0.0046
    -0.0014   0.0026   0.0099   0.0254   0.0296   0.0447   0.0468   0.0530
     0.0544   0.0603   0.0614   0.0671   0.0688   0.0720   0.0810   0.0847
     0.0888   0.0936   0.0969   0.1038   0.1060   0.1074   0.1116   0.1137
     0.1170   0.1244   0.1270   0.1370   0.1477   0.1512   0.1541   0.1588
     0.1647   0.1812   0.1852   0.2038   0.2121   0.2148   0.2167   0.2191
     0.2213   0.2244   0.2276   0.2317   0.2366   0.2378   0.2497   0.2545
     0.2666   0.2710   0.2738   0.2802   0.2835   0.2837   0.2868   0.2999
     0.3113   0.3153   0.3216   0.3412   0.3413   0.3473   0.3550   0.3612
     0.3664   0.3677   0.3702   0.3723   0.3827   0.3856   0.3862   0.3948
     0.3981   0.4059   0.4097   0.4263   0.4324   0.4331   0.4335   0.4442
     0.4506   0.4544   0.4659   0.4684   0.4704   0.4777   0.4818   0.4865
     0.4960   0.5183   0.5298   0.5327   0.5393   0.5439   0.5504   0.5602
     0.5620   0.5665   0.5764   0.5840   0.6068   0.6156   0.6199   0.6409
     0.6552   0.6555   0.6628   0.6704   0.6916   0.7100   0.7243   0.7411
     0.7437   0.7474   0.7516   0.7574   0.7668   0.7683   0.7768   0.7905
     0.7939   0.7968   0.7994   0.8071   0.8091   0.8115   0.8133   0.8166
     0.8207   0.8262   0.8307   0.8329   0.8352   0.8363   0.8391   0.8655
     0.8670   0.8726   0.8773   0.8799   0.8808   0.8907   0.8922   0.8922
     0.8944   0.8956   0.9074   0.9104   0.9116   0.9132   0.9144   0.9147
     0.9156   0.9271   0.9329   0.9358   0.9385   0.9391   0.9400   0.9415
     0.9432   0.9553   0.9606   0.9788   0.9872   1.0042   1.0063   1.0115
     1.0147   1.0167   1.0205   1.0260   1.0295   1.0332   1.0338   1.0349
     1.0382   1.0387   1.0470   1.0575   1.0644   1.0728   1.0827   1.0832
     1.0839   1.0886   1.0935   1.0990   1.1003   1.1110   1.1140   1.1194
     1.1290   1.1322   1.1337   1.1341   1.1446   1.1814   1.1867   1.1948
     1.2070   1.2163   1.2333   1.2416   1.2447   1.2510   1.2576   1.2580
     1.2635   1.2654   1.2684   1.2722   1.2731   1.2737   1.2780   1.2835
     1.2886   1.2895   1.2942   1.2947   1.2964   1.3065   1.3114   1.3118
     1.3131   1.3222   1.3224   1.3225   1.3261   1.3277   1.3340   1.3351
     1.3379   1.3434   1.3446   1.3449   1.3478   1.3488   1.3547   1.3621
     1.3661   1.3666   1.3714   1.3733   1.3781   1.3805   1.3837   1.3912
     1.3927   1.3933   1.3957   1.3978   1.4003   1.4255   1.4418   1.4465
     1.4543   1.4614   1.4824   1.4849   1.4859   1.4874   1.4878   1.4991
     1.5118   1.5147   1.5221   1.5275   1.5302   1.5392   1.5438   1.5452
     1.5467   1.5500   1.5539   1.5541   1.5547   1.5560   1.5585   1.5591
     1.5630   1.5640   1.5686   1.5740   1.5789   1.5828   1.5838   1.5860
     1.5881   1.5904   1.6103   1.6118   1.6179   1.6232   1.6249   1.6264
     1.6325   1.6348   1.6380   1.6434   1.6482   1.6502   1.6514   1.6573
     1.6606   1.6677   1.6701   1.6717   1.6722   1.6768   1.6855   1.6875
     1.6897   1.7014   1.7028   1.7055   1.7091   1.7260   1.7274   1.7303
     1.7340   1.7381   1.7392   1.7458   1.7465   1.7474   1.7516   1.7645
     1.7687   1.7797   1.7836   1.7837   1.7956   1.7965   1.7981   1.8036
     1.8053   1.8070   1.8082   1.8082   1.8140   1.8303   1.8341   1.8388
     1.8445   1.8480   1.8551   1.8572   1.8606   1.8695   1.8720   1.8753
     1.8828   1.8863   1.8906   1.8967   1.8995   1.9020   1.9335   1.9414
     1.9424   1.9664   2.0279   2.0391   2.0535   2.0620   2.0676   2.0695
     2.1045   2.1262   2.1311   2.1346   2.1506   2.1568   2.1619   2.1684
     2.1816   2.2094   2.2105   2.2321   2.3883   2.4399   2.4613   2.7332
     2.7674   2.7723   2.8012   2.8204   2.8558   2.8821   2.9023   2.9150
     2.9303   2.9327   2.9830   3.0547   3.0571   3.0766   3.1216   3.1228
     3.2450   3.2746   3.2776   3.3338   3.4193   3.5181   3.5181   3.5624
     3.7195   3.8359   3.9112   3.9821   4.1016   4.1780   4.2949   4.3397
     4.4149   4.4493   4.4776   4.5370   4.6396   4.6757   4.7079   4.7454
     4.8776   4.8846   5.0131   5.0316   5.0723   5.1116   5.4027   5.4465
     5.4560   5.5933   5.6617   5.7040   5.7102   5.7204   5.7286   5.8179
     5.9486   5.9786   6.0217   6.1148   6.1463   6.3403   6.6295   6.7299
     6.7559   6.7641   6.7794   6.8437   6.8869   6.9577   6.9679   7.0197
     7.0797   7.1826   7.2168   7.3699   7.3903   7.3984   7.4192   7.4281
     7.4423   7.4532   7.4678   7.4771   7.5090   7.5114   7.5549   7.6387
     7.6873   7.6990   7.7526   7.8293   7.9390   8.0609   8.1017   8.1186
     8.1233   8.3469   8.4554   8.4952   8.5003   8.5096   8.5187   8.6880
     8.7070   8.7365   8.7412   8.7970   8.8111   8.9203   8.9349   8.9736
     9.0404   9.0491   9.0636   9.0780   9.1070   9.1151   9.1649   9.1715
     9.1918   9.2339   9.2797   9.3296   9.3594   9.4065   9.4871   9.5605
     9.5727   9.6479   9.7254   9.7322   9.7324   9.7350   9.7583   9.8052
     9.8096   9.9121   9.9173   9.9458   9.9884  10.0524  10.1278  10.1608
    10.1946  10.2089

          k = 0.2500 0.0000 0.0000 (256240 PWs)   bands (ev):

   -16.9313 -15.8179 -15.5884 -15.2747 -14.8315 -14.6097 -14.5802 -14.5051
   -13.7995 -13.5473 -13.3201 -12.9217 -12.7374 -12.7236 -12.6789 -12.0375
   -11.8017 -11.7600 -11.6837 -10.9169 -10.6173 -10.4197 -10.3402  -9.9944
    -9.7519  -9.5619  -9.4545  -9.0482  -8.9096  -8.7601  -8.3485  -7.6885
    -7.2837  -7.2381  -7.1775  -7.1440  -7.0733  -6.7364  -6.6399  -6.3410
    -5.8129  -5.7173  -5.5920  -5.5656  -5.5481  -5.4616  -4.9597  -4.9546
    -4.8937  -4.8618  -4.5263  -4.3830  -4.2572  -4.1703  -4.1234  -4.0918
    -4.0830  -4.0361  -3.9828  -3.9454  -3.7231  -3.6808  -3.6540  -3.6462
    -3.6070  -3.4964  -3.4891  -3.4160  -3.3414  -3.2835  -3.2445  -3.2231
    -3.1883  -3.1601  -3.0912  -3.0508  -3.0320  -2.9478  -2.9244  -2.8549
    -2.8301  -2.7370  -2.6336  -2.5787  -2.5562  -2.4753  -2.4454  -2.4333
    -2.4164  -2.2699  -2.2575  -2.1917  -2.1232  -2.0796  -2.0276  -1.9808
    -1.9200  -1.8516  -1.7537  -1.7445  -1.7418  -1.7266  -1.7175  -1.6928
    -1.6440  -1.6240  -1.5875  -1.5431  -1.5252  -1.4843  -1.4537  -1.4447
    -1.4379  -1.4350  -1.4314  -1.4156  -1.3958  -1.3911  -1.3657  -1.3635
    -1.3508  -1.3149  -1.2960  -1.2873  -1.2724  -1.2452  -1.2373  -1.2298
    -1.2281  -1.2244  -1.2240  -1.2132  -1.1802  -1.1725  -1.1489  -1.1461
    -1.1380  -1.1343  -1.0399  -1.0168  -0.9809  -0.9705  -0.9568  -0.9439
    -0.9169  -0.9142  -0.8942  -0.8924  -0.8833  -0.8777  -0.8748  -0.8647
    -0.8592  -0.8406  -0.8384  -0.8269  -0.8221  -0.8082  -0.7957  -0.7909
    -0.7773  -0.7757  -0.7743  -0.7717  -0.7546  -0.7515  -0.7479  -0.7382
    -0.7267  -0.7072  -0.7038  -0.6957  -0.6924  -0.6835  -0.6685  -0.6639
    -0.6617  -0.6545  -0.6517  -0.6454  -0.6421  -0.6399  -0.6280  -0.6246
    -0.6234  -0.6204  -0.6194  -0.6161  -0.6094  -0.6054  -0.5992  -0.5924
    -0.5870  -0.5849  -0.5698  -0.5582  -0.5428  -0.5087  -0.4981  -0.4729
    -0.4619  -0.4584  -0.4477  -0.4383  -0.4351  -0.4165  -0.4117  -0.4012
    -0.3998  -0.3939  -0.3920  -0.3873  -0.3680  -0.3461  -0.2976  -0.2707
    -0.2519  -0.2448  -0.2410  -0.2291  -0.2138  -0.2081  -0.2041  -0.1943
    -0.1910  -0.1893  -0.1850  -0.1766  -0.1721  -0.1689  -0.1532  -0.1512
    -0.1422  -0.1342  -0.1300  -0.1258  -0.1244  -0.1054  -0.1048  -0.1027
    -0.0850  -0.0684  -0.0475  -0.0448  -0.0392  -0.0374  -0.0364  -0.0309
    -0.0267  -0.0220  -0.0137  -0.0049  -0.0001   0.0094   0.0241   0.0279
     0.0382   0.0457   0.0551   0.0580   0.0617   0.0661   0.0692   0.0759
     0.0827   0.0855   0.0911   0.0944   0.1044   0.1161   0.1189   0.1255
     0.1357   0.1413   0.1490   0.1550   0.1581   0.1641   0.1706   0.1748
     0.1770   0.1801   0.1925   0.2029   0.2052   0.2151   0.2169   0.2215
     0.2241   0.2432   0.2526   0.2688   0.2713   0.2873   0.2951   0.2976
     0.3040   0.3077   0.3129   0.3336   0.3376   0.3426   0.3462   0.3477
     0.3497   0.3527   0.3564   0.3586   0.3638   0.3648   0.3672   0.3714
     0.3814   0.3844   0.3869   0.3926   0.3948   0.4009   0.4078   0.4124
     0.4216   0.4308   0.4437   0.4478   0.4537   0.4552   0.4708   0.4758
     0.4776   0.4853   0.4859   0.4925   0.4972   0.4986   0.5021   0.5209
     0.5320   0.5363   0.5570   0.5673   0.5865   0.6065   0.6095   0.6183
     0.6219   0.6268   0.6304   0.6331   0.6356   0.6393   0.6407   0.6426
     0.6443   0.6478   0.6486   0.6589   0.6625   0.6649   0.6694   0.6734
     0.6786   0.6837   0.6882   0.6925   0.6936   0.6995   0.7097   0.7154
     0.7245   0.7400   0.7480   0.7569   0.7636   0.7656   0.7718   0.7777
     0.7937   0.7982   0.8037   0.8073   0.8140   0.8261   0.8272   0.8342
     0.8388   0.8430   0.8442   0.8505   0.8522   0.8549   0.8571   0.8736
     0.8770   0.8812   0.8830   0.8937   0.8969   0.9013   0.9043   0.9091
     0.9101   0.9222   0.9259   0.9300   0.9367   0.9399   0.9414   0.9490
     0.9560   0.9593   0.9627   0.9635   0.9695   0.9721   0.9784   0.9895
     0.9964   1.0058   1.0081   1.0153   1.0192   1.0205   1.0230   1.0301
     1.0362   1.0426   1.0543   1.0642   1.0687   1.0738   1.0872   1.0924
     1.0979   1.1013   1.1034   1.1115   1.1185   1.1233   1.1296   1.1312
     1.1337   1.1355   1.1360   1.1463   1.1545   1.1582   1.1684   1.1701
     1.1805   1.1908   1.2014   1.2088   1.2118   1.2138   1.2241   1.2278
     1.2370   1.2380   1.2434   1.2460   1.2501   1.2513   1.2569   1.2610
     1.2623   1.2700   1.2781   1.2837   1.2979   1.3014   1.3061   1.3098
     1.3198   1.3220   1.3283   1.3346   1.3384   1.3463   1.3494   1.3514
     1.3549   1.3560   1.3612   1.3653   1.3708   1.3737   1.3743   1.3757
     1.3773   1.3807   1.3820   1.3834   1.3869   1.3898   1.3945   1.4020
     1.4036   1.4102   1.4143   1.4230   1.4242   1.4244   1.4293   1.4344
     1.4367   1.4426   1.4457   1.4552   1.4604   1.4618   1.4649   1.4736
     1.4794   1.4882   1.4896   1.4910   1.4951   1.5027   1.5055   1.5093
     1.5132   1.5143   1.5198   1.5358   1.5389   1.5418   1.5446   1.5501
     1.5766   1.5807   1.5872   1.5932   1.5967   1.5998   1.6010   1.6049
     1.6064   1.6115   1.6153   1.6197   1.6212   1.6229   1.6264   1.6343
     1.6376   1.6420   1.6432   1.6476   1.6528   1.6564   1.6617   1.6636
     1.6646   1.6668   1.6693   1.6726   1.6765   1.6788   1.6807   1.6877
     1.6911   1.6980   1.7035   1.7047   1.7073   1.7095   1.7136   1.7153
     1.7165   1.7273   1.7311   1.7374   1.7458   1.7495   1.7503   1.7678
     1.7708   1.7749   1.7758   1.7786   1.7796   1.7809   1.7855   1.7874
     1.7909   1.7923   1.7969   1.7978   1.8026   1.8119   1.8145   1.8188
     1.8205   1.8236   1.8240   1.8290   1.8373   1.8397   1.8412   1.8482
     1.8560   1.8603   1.8622   1.8641   1.8692   1.8737   1.8974   1.9029
     1.9087   1.9125   1.9324   1.9359   1.9744   1.9778   1.9795   1.9839
     2.0061   2.0486   2.0760   2.1033   2.1101   2.1138   2.1229   2.1400
     2.1937   2.2528   2.2978   2.3785   2.3961   2.4173   2.4245   2.4358
     2.4959   2.5515   2.5960   2.8212   2.8630   2.9098   2.9148   3.0079
     3.1170   3.3196   3.3295   3.3776   3.4298   3.5378   3.5502   3.5737
     3.5747   3.6355   3.6856   3.8061   3.8505   3.9314   3.9592   4.0020
     4.0132   4.0468   4.0661   4.0931   4.1015   4.1383   4.2112   4.2430
     4.3172   4.3285   4.4096   4.4463   4.5117   4.6312   4.7179   4.7437
     4.8131   5.0444   5.1694   5.1787   5.2600   5.3769   5.4987   5.5418
     5.5709   5.5870   5.6159   5.7180   5.7867   5.8164   5.8507   5.8764
     5.9163   5.9273   6.0042   6.0295   6.0412   6.1054   6.1278   6.1407
     6.2737   6.3393   6.3555   6.3872   6.4077   6.5183   6.6862   6.9661
     7.0316   7.0532   7.0720   7.1027   7.1330   7.1994   7.2282   7.2802
     7.3546   7.3785   7.3843   7.3985   7.4382   7.5342   7.5632   7.6164
     7.6345   7.7404   7.7691   7.8310   7.8848   7.9122   7.9187   8.0088
     8.0522   8.0878   8.1260   8.1349   8.1667   8.2758   8.3595   8.3992
     8.4087   8.4569   8.5525   8.5969   8.6368   8.6672   8.6815   8.6907
     8.6924   8.7472   8.7944   8.8773   8.9544   8.9657   8.9990   9.1041
     9.2281   9.2531   9.2725   9.4213   9.4414   9.4597   9.4657   9.4965
     9.5098   9.5198   9.5305   9.5375   9.5598   9.5623   9.5666   9.5814
     9.6240   9.6933   9.7491   9.8253   9.8352  10.0200  10.0658  10.0804
    10.0858  10.1589

          k = 0.2500-0.2165 0.0000 (256316 PWs)   bands (ev):

   -16.9311 -15.8478 -15.5367 -15.1431 -15.0534 -14.8615 -14.3996 -14.1659
   -13.8973 -13.6997 -13.2932 -12.9357 -12.8863 -12.7469 -12.4223 -12.2663
   -11.8103 -11.5957 -11.1698 -11.0042 -10.8879 -10.7120 -10.5023 -10.2975
    -9.5407  -9.3137  -9.0253  -8.7821  -8.7334  -8.6970  -8.2947  -8.1855
    -8.0849  -8.0370  -7.2163  -6.4545  -6.3121  -6.2861  -6.2377  -6.1983
    -6.1240  -6.0198  -5.9187  -5.6396  -5.6260  -5.3519  -5.3255  -4.9362
    -4.8159  -4.5840  -4.5142  -4.4727  -4.3610  -4.3228  -4.2919  -4.0766
    -4.0007  -3.9921  -3.9672  -3.9289  -3.9228  -3.8124  -3.7783  -3.6971
    -3.6075  -3.5345  -3.4185  -3.3630  -3.2407  -3.1913  -3.1614  -3.1520
    -3.1160  -3.1034  -3.0552  -2.9534  -2.8851  -2.8524  -2.8076  -2.7562
    -2.7225  -2.6389  -2.6144  -2.5736  -2.5720  -2.5554  -2.5455  -2.4816
    -2.4287  -2.3096  -2.2691  -2.2442  -2.1775  -2.0313  -1.9648  -1.9589
    -1.9487  -1.8435  -1.8267  -1.8147  -1.8108  -1.7773  -1.7042  -1.6582
    -1.6556  -1.6396  -1.6173  -1.6106  -1.5766  -1.5409  -1.4975  -1.4684
    -1.4588  -1.4570  -1.4557  -1.4085  -1.3999  -1.3977  -1.3790  -1.3624
    -1.3522  -1.3517  -1.3422  -1.3312  -1.3250  -1.3218  -1.3210  -1.3095
    -1.3045  -1.2873  -1.2250  -1.2241  -1.1370  -1.1160  -1.0957  -1.0757
    -1.0148  -1.0048  -0.9794  -0.9724  -0.9571  -0.9399  -0.9194  -0.9187
    -0.9160  -0.9106  -0.9042  -0.8939  -0.8859  -0.8779  -0.8706  -0.8687
    -0.8652  -0.8568  -0.8547  -0.8526  -0.8491  -0.8359  -0.8303  -0.8257
    -0.8167  -0.7939  -0.7854  -0.7752  -0.7729  -0.7676  -0.7652  -0.7569
    -0.7538  -0.7345  -0.7301  -0.6977  -0.6908  -0.6871  -0.6840  -0.6800
    -0.6697  -0.6677  -0.6464  -0.6378  -0.6298  -0.6210  -0.6163  -0.6078
    -0.6056  -0.6016  -0.5942  -0.5899  -0.5802  -0.5666  -0.5641  -0.5509
    -0.5481  -0.5246  -0.5107  -0.5089  -0.5031  -0.4943  -0.4734  -0.4621
    -0.4459  -0.4355  -0.4190  -0.4182  -0.4169  -0.4154  -0.3898  -0.3860
    -0.3663  -0.3620  -0.3557  -0.3498  -0.3485  -0.3418  -0.3378  -0.3087
    -0.2983  -0.2749  -0.2658  -0.2427  -0.2329  -0.2253  -0.2159  -0.2082
    -0.2049  -0.2023  -0.1959  -0.1877  -0.1760  -0.1677  -0.1508  -0.1449
    -0.1369  -0.1329  -0.1300  -0.1146  -0.1063  -0.0963  -0.0909  -0.0890
    -0.0798  -0.0757  -0.0628  -0.0574  -0.0539  -0.0490  -0.0417  -0.0325
    -0.0313  -0.0186  -0.0132  -0.0123  -0.0083  -0.0060  -0.0046   0.0031
     0.0043   0.0083   0.0211   0.0253   0.0336   0.0391   0.0554   0.0661
     0.0731   0.0801   0.0845   0.0947   0.1099   0.1172   0.1188   0.1217
     0.1336   0.1392   0.1406   0.1463   0.1484   0.1665   0.1759   0.1834
     0.2039   0.2069   0.2337   0.2407   0.2451   0.2474   0.2485   0.2567
     0.2599   0.2670   0.2713   0.2797   0.2865   0.2888   0.2937   0.2998
     0.3086   0.3108   0.3168   0.3227   0.3260   0.3336   0.3413   0.3474
     0.3506   0.3525   0.3543   0.3555   0.3562   0.3588   0.3616   0.3670
     0.3737   0.3820   0.3864   0.3877   0.3919   0.3975   0.4081   0.4195
     0.4261   0.4283   0.4326   0.4454   0.4499   0.4549   0.4695   0.4776
     0.4854   0.4896   0.4946   0.4994   0.5013   0.5108   0.5136   0.5169
     0.5282   0.5297   0.5325   0.5449   0.5519   0.5661   0.5852   0.6053
     0.6130   0.6261   0.6293   0.6364   0.6398   0.6416   0.6431   0.6453
     0.6493   0.6514   0.6559   0.6675   0.6721   0.6744   0.6757   0.6782
     0.6816   0.6888   0.6918   0.6972   0.7045   0.7153   0.7216   0.7310
     0.7345   0.7423   0.7499   0.7610   0.7670   0.7733   0.7787   0.7920
     0.8051   0.8063   0.8110   0.8146   0.8183   0.8226   0.8247   0.8294
     0.8309   0.8337   0.8372   0.8398   0.8449   0.8545   0.8631   0.8694
     0.8753   0.8808   0.8840   0.8993   0.9041   0.9173   0.9226   0.9246
     0.9332   0.9414   0.9521   0.9550   0.9567   0.9635   0.9676   0.9698
     0.9728   0.9763   0.9794   0.9813   0.9843   1.0022   1.0034   1.0077
     1.0102   1.0163   1.0213   1.0224   1.0242   1.0275   1.0354   1.0362
     1.0382   1.0440   1.0448   1.0499   1.0556   1.0583   1.0628   1.0645
     1.0666   1.0713   1.0737   1.0745   1.0781   1.0946   1.1056   1.1126
     1.1204   1.1225   1.1255   1.1345   1.1537   1.1582   1.1688   1.1731
     1.1798   1.1825   1.1836   1.1853   1.1981   1.2013   1.2053   1.2094
     1.2096   1.2107   1.2124   1.2192   1.2217   1.2280   1.2387   1.2422
     1.2472   1.2540   1.2606   1.2686   1.2764   1.2800   1.2865   1.2954
     1.2973   1.3113   1.3143   1.3221   1.3227   1.3235   1.3289   1.3302
     1.3319   1.3380   1.3495   1.3559   1.3583   1.3729   1.3745   1.3752
     1.3834   1.3901   1.3945   1.4073   1.4156   1.4213   1.4294   1.4355
     1.4399   1.4412   1.4433   1.4448   1.4460   1.4466   1.4486   1.4551
     1.4596   1.4623   1.4685   1.4740   1.4746   1.4841   1.4883   1.4999
     1.5135   1.5165   1.5177   1.5215   1.5244   1.5300   1.5319   1.5338
     1.5375   1.5402   1.5429   1.5464   1.5478   1.5489   1.5518   1.5543
     1.5570   1.5594   1.5611   1.5637   1.5710   1.5723   1.5770   1.5783
     1.5854   1.5882   1.5961   1.5998   1.6138   1.6212   1.6231   1.6283
     1.6311   1.6374   1.6387   1.6482   1.6506   1.6512   1.6588   1.6638
     1.6667   1.6705   1.6770   1.6793   1.6808   1.6868   1.6903   1.6961
     1.6982   1.7020   1.7048   1.7061   1.7097   1.7169   1.7203   1.7285
     1.7360   1.7367   1.7377   1.7405   1.7411   1.7445   1.7473   1.7523
     1.7531   1.7592   1.7624   1.7659   1.7695   1.7719   1.7788   1.7870
     1.7904   1.7911   1.7934   1.7944   1.7957   1.7970   1.7989   1.8035
     1.8086   1.8098   1.8328   1.8332   1.8348   1.8444   1.8461   1.8489
     1.8527   1.8615   1.8644   1.8746   1.8768   1.8831   1.9012   1.9070
     1.9125   1.9157   1.9218   1.9348   1.9413   1.9626   1.9741   2.0136
     2.0379   2.0657   2.0996   2.1116   2.1132   2.1175   2.1292   2.1338
     2.1381   2.1406   2.1664   2.1885   2.4632   2.4719   2.4910   2.5010
     2.5488   2.6381   2.7159   2.9314   2.9363   2.9976   3.0796   3.1379
     3.1394   3.1445   3.1491   3.1716   3.2411   3.2809   3.3222   3.3464
     3.4221   3.5587   3.6510   3.8825   3.8910   3.9579   3.9767   3.9933
     4.1470   4.1625   4.1891   4.2196   4.2558   4.3093   4.3725   4.4167
     4.4373   4.4889   4.5275   4.5717   4.7285   4.7320   4.7866   4.8821
     4.9330   4.9643   5.0221   5.0332   5.0505   5.1115   5.2529   5.2819
     5.3402   5.4460   5.4641   5.5941   5.6236   5.7287   5.7455   5.7872
     5.7927   5.8017   5.8389   6.0389   6.1020   6.1116   6.1518   6.2344
     6.2997   6.3086   6.4358   6.4879   6.7189   6.9308   6.9406   6.9601
     6.9882   7.0782   7.1063   7.2044   7.2481   7.2989   7.3525   7.3726
     7.4234   7.4294   7.4537   7.5035   7.5354   7.5663   7.6067   7.6545
     7.6718   7.6778   7.6798   7.6912   7.7633   7.7675   7.8047   7.9257
     7.9981   8.0466   8.1371   8.1785   8.2656   8.2932   8.2985   8.3135
     8.5017   8.5404   8.5596   8.5942   8.6490   8.6790   8.7247   8.7598
     8.9072   8.9410   8.9560   8.9828   9.0102   9.0175   9.0288   9.0729
     9.0944   9.0999   9.1502   9.2271   9.2556   9.2968   9.3420   9.3477
     9.4164   9.4680   9.4719   9.5211   9.5320   9.5561   9.5961   9.6076
     9.6317   9.6721   9.6864   9.6954   9.7015   9.7369   9.7896   9.9053
    10.0194  10.0681

          k =-0.5000 0.0000 0.0000 (256496 PWs)   bands (ev):

   -16.8838 -15.6138 -15.4316 -15.2582 -15.2268 -15.2070 -14.4992 -14.1731
   -14.1518 -14.1180 -12.9552 -12.4076 -12.3784 -12.3405 -12.0585 -11.8678
   -11.5975 -11.5261 -11.4337 -11.4324 -10.9142 -10.8336 -10.6015 -10.3837
    -9.9291  -9.8563  -9.5077  -9.3932  -8.9082  -8.6583  -8.5728  -8.5529
    -7.6104  -7.1359  -7.1011  -7.0514  -6.9927  -6.9897  -6.5737  -5.6248
    -5.5753  -5.1308  -4.9625  -4.9227  -4.8739  -4.6226  -4.5413  -4.4605
    -4.4494  -4.4430  -4.4394  -4.4295  -4.4075  -4.3880  -4.3612  -4.3263
    -4.3046  -4.1637  -4.1424  -4.1199  -4.0091  -3.9940  -3.9862  -3.7840
    -3.7001  -3.6895  -3.6705  -3.6349  -3.4129  -3.3007  -3.2695  -3.2386
    -3.2104  -3.1195  -3.0920  -3.0711  -3.0646  -3.0622  -3.0452  -3.0288
    -3.0039  -2.9962  -2.9601  -2.6764  -2.6058  -2.4847  -2.4436  -2.4371
    -2.4182  -2.3896  -2.3441  -2.2549  -2.2412  -2.1965  -2.1544  -2.1356
    -2.0955  -1.9510  -1.9502  -1.9487  -1.9013  -1.5946  -1.5276  -1.5266
    -1.5223  -1.5204  -1.5191  -1.4935  -1.4663  -1.4116  -1.4036  -1.3917
    -1.3822  -1.3097  -1.3015  -1.2976  -1.2876  -1.2812  -1.2495  -1.2467
    -1.2430  -1.2339  -1.1969  -1.1878  -1.1503  -1.1345  -1.1316  -1.1255
    -1.0972  -1.0927  -1.0807  -1.0739  -1.0686  -1.0620  -1.0496  -1.0472
    -1.0181  -1.0140  -1.0035  -1.0003  -0.9986  -0.9983  -0.9895  -0.9878
    -0.9832  -0.9728  -0.9431  -0.9388  -0.9358  -0.9340  -0.9232  -0.9147
    -0.9099  -0.9087  -0.8712  -0.8575  -0.8457  -0.8392  -0.8326  -0.8270
    -0.8219  -0.8203  -0.8154  -0.8029  -0.7989  -0.7969  -0.7862  -0.7745
    -0.7653  -0.7555  -0.7506  -0.7451  -0.7397  -0.7258  -0.7105  -0.7021
    -0.6981  -0.6959  -0.6634  -0.6566  -0.6359  -0.6305  -0.6235  -0.6225
    -0.6190  -0.6160  -0.6075  -0.6018  -0.5958  -0.5941  -0.5919  -0.5878
    -0.5764  -0.5750  -0.5718  -0.5702  -0.5609  -0.5462  -0.5412  -0.5221
    -0.4976  -0.4833  -0.4757  -0.4562  -0.4414  -0.4367  -0.3626  -0.3591
    -0.3552  -0.3497  -0.3474  -0.3364  -0.3355  -0.3284  -0.3247  -0.3178
    -0.3152  -0.3065  -0.2949  -0.2842  -0.2749  -0.2736  -0.2726  -0.2606
    -0.2533  -0.2449  -0.2381  -0.2253  -0.2171  -0.1908  -0.1774  -0.1735
    -0.1627  -0.1381  -0.1236  -0.1131  -0.1056  -0.0999  -0.0769  -0.0686
    -0.0640  -0.0542  -0.0501  -0.0492  -0.0484  -0.0468  -0.0286  -0.0245
    -0.0130  -0.0118  -0.0114  -0.0113   0.0117   0.0158   0.0212   0.0320
     0.0419   0.0476   0.0592   0.0620   0.0645   0.0650   0.0725   0.0915
     0.0996   0.1052   0.1070   0.1078   0.1124   0.1145   0.1231   0.1365
     0.1501   0.1549   0.1724   0.1772   0.2022   0.2041   0.2198   0.2235
     0.2251   0.2281   0.2351   0.2378   0.2461   0.2534   0.2676   0.2694
     0.2912   0.2976   0.3060   0.3256   0.3261   0.3313   0.3327   0.3346
     0.3352   0.3358   0.3373   0.3379   0.3419   0.3460   0.3749   0.3840
     0.3981   0.4007   0.4119   0.4157   0.4204   0.4219   0.4268   0.4283
     0.4312   0.4334   0.4347   0.4374   0.4398   0.4421   0.4502   0.4586
     0.4593   0.4596   0.4607   0.4682   0.4723   0.4724   0.4728   0.4732
     0.4741   0.4811   0.4843   0.4849   0.4863   0.4907   0.4972   0.4983
     0.5070   0.5078   0.5092   0.5133   0.5238   0.5283   0.5398   0.5648
     0.5865   0.6030   0.6081   0.6221   0.6451   0.6478   0.6546   0.6728
     0.6752   0.6775   0.6839   0.6856   0.6911   0.6932   0.6961   0.7000
     0.7007   0.7021   0.7046   0.7074   0.7091   0.7103   0.7123   0.7144
     0.7183   0.7208   0.7250   0.7274   0.7307   0.7390   0.7429   0.7464
     0.7502   0.7527   0.7592   0.7678   0.7737   0.7810   0.8005   0.8159
     0.8458   0.8481   0.8517   0.8572   0.8616   0.8679   0.8690   0.8726
     0.8804   0.8823   0.8838   0.8865   0.8870   0.8880   0.8886   0.8903
     0.8908   0.8933   0.8956   0.8984   0.9020   0.9111   0.9152   0.9285
     0.9318   0.9392   0.9431   0.9511   0.9534   0.9606   0.9631   0.9646
     0.9721   0.9788   0.9827   0.9853   0.9858   0.9876   0.9893   0.9994
     1.0024   1.0040   1.0082   1.0161   1.0182   1.0199   1.0225   1.0394
     1.0538   1.0555   1.0632   1.0644   1.0650   1.0766   1.0779   1.0866
     1.0918   1.0992   1.1050   1.1093   1.1174   1.1213   1.1220   1.1347
     1.1546   1.1604   1.1806   1.1881   1.1921   1.1941   1.1957   1.1960
     1.1979   1.2016   1.2042   1.2079   1.2103   1.2133   1.2199   1.2223
     1.2330   1.2383   1.2413   1.2436   1.2447   1.2517   1.2587   1.2622
     1.2631   1.2638   1.2640   1.2863   1.2967   1.2993   1.3002   1.3045
     1.3253   1.3410   1.3609   1.3695   1.3702   1.3752   1.3770   1.3831
     1.3951   1.3989   1.4046   1.4094   1.4129   1.4226   1.4237   1.4282
     1.4329   1.4396   1.4410   1.4465   1.4527   1.4580   1.4690   1.4711
     1.4716   1.4726   1.4766   1.4783   1.4797   1.4814   1.4889   1.4897
     1.4903   1.4907   1.4932   1.4947   1.4967   1.5197   1.5293   1.5325
     1.5331   1.5362   1.5460   1.5548   1.5612   1.5616   1.5647   1.5671
     1.5728   1.5809   1.5846   1.5863   1.5952   1.5956   1.5978   1.5991
     1.6018   1.6042   1.6047   1.6070   1.6096   1.6128   1.6152   1.6255
     1.6305   1.6507   1.6528   1.6593   1.6648   1.6678   1.6702   1.6720
     1.6729   1.6743   1.6747   1.6753   1.6784   1.6815   1.6827   1.6837
     1.6846   1.6871   1.6886   1.6892   1.6901   1.6910   1.6918   1.6971
     1.7029   1.7046   1.7053   1.7152   1.7204   1.7274   1.7338   1.7361
     1.7376   1.7394   1.7443   1.7449   1.7591   1.7677   1.7704   1.7727
     1.7771   1.7806   1.7842   1.7884   1.7921   1.7957   1.8006   1.8029
     1.8042   1.8088   1.8155   1.8166   1.8220   1.8241   1.8258   1.8296
     1.8314   1.8320   1.8358   1.8366   1.8500   1.8523   1.8671   1.8687
     1.8697   1.8698   1.8707   1.8723   1.8787   1.8817   1.9255   1.9302
     1.9384   1.9580   1.9619   1.9645   1.9664   1.9798   2.1243   2.3524
     2.3765   2.3841   2.4642   2.5769   2.5813   2.5932   2.6231   2.6343
     2.6384   2.6435   2.7330   2.9183   2.9350   2.9674   3.0704   3.1216
     3.1716   3.1823   3.2199   3.3539   3.4674   3.5346   3.5382   3.5588
     3.6088   3.8222   3.8388   4.0908   4.1022   4.1187   4.1854   4.2308
     4.2718   4.2802   4.3117   4.3852   4.4152   4.4311   4.4477   4.4917
     4.5196   4.7094   4.7636   5.0279   5.0556   5.0750   5.1027   5.1301
     5.1696   5.1729   5.2369   5.2575   5.2884   5.3049   5.3718   5.3745
     5.3875   5.3969   5.4003   5.4031   5.4149   5.4415   5.4740   5.4904
     5.6120   5.6996   5.8179   5.8624   5.8846   5.9005   5.9462   6.0673
     6.1045   6.1321   6.3097   6.3302   6.3431   6.3554   6.3564   6.3748
     6.3919   6.5478   6.6373   6.7108   6.7491   6.7573   6.7970   6.8170
     7.0096   7.1646   7.4100   7.4377   7.4454   7.4606   7.5201   7.6280
     7.8550   7.9314   7.9345   7.9367   7.9375   7.9586   7.9733   8.0308
     8.0386   8.0780   8.1017   8.1651   8.1701   8.2215   8.2291   8.2657
     8.2981   8.3993   8.4018   8.4201   8.4328   8.4536   8.4933   8.5071
     8.5209   8.5528   8.5552   8.5676   8.6865   8.6899   9.0620   9.1529
     9.1614   9.1798   9.1929   9.2126   9.2151   9.2152   9.2595   9.3962
     9.4007   9.4210   9.4394   9.4653   9.5811   9.6068   9.6125   9.6174
     9.7848   9.7953   9.8214   9.8563   9.8683   9.8712   9.9380   9.9486
     9.9505   9.9523

          k =-0.5000-0.2165 0.0000 (256328 PWs)   bands (ev):

   -16.8837 -15.5560 -15.4780 -15.4743 -15.0676 -14.7976 -14.7904 -14.7512
   -13.7659 -13.3731 -13.3397 -13.3122 -12.3705 -11.8567 -11.6646 -11.6639
   -11.5356 -11.2964 -11.2896 -11.2316 -11.1733 -11.1448 -11.0597 -11.0539
    -9.7400  -9.4878  -9.3765  -9.3642  -8.6205  -8.5669  -8.4128  -8.4032
    -7.9985  -7.7629  -7.6380  -7.6203  -6.8599  -5.7035  -5.6488  -5.5797
    -5.5781  -5.1212  -5.0860  -4.9847  -4.9513  -4.9149  -4.8415  -4.8277
    -4.8268  -4.7870  -4.7817  -4.6915  -4.6809  -4.1846  -4.1147  -4.0096
    -3.9955  -3.8954  -3.8831  -3.8694  -3.8497  -3.8441  -3.8432  -3.8349
    -3.7404  -3.6173  -3.5453  -3.5309  -3.5260  -3.4577  -3.4284  -3.3775
    -3.3393  -3.3202  -3.3148  -3.2439  -3.2434  -3.1747  -3.1560  -3.1246
    -2.8481  -2.7850  -2.7753  -2.7387  -2.7126  -2.2629  -2.2315  -2.2268
    -2.2234  -2.1803  -2.1745  -2.1726  -2.1719  -2.1320  -2.0484  -2.0121
    -2.0039  -1.9734  -1.8040  -1.7594  -1.7474  -1.7370  -1.7085  -1.6878
    -1.6707  -1.6654  -1.6607  -1.6531  -1.6465  -1.6093  -1.4909  -1.4516
    -1.4472  -1.4457  -1.4446  -1.4267  -1.3983  -1.2835  -1.2212  -1.2100
    -1.1719  -1.1546  -1.1394  -1.1353  -1.1343  -1.1321  -1.1048  -1.1017
    -1.0978  -1.0794  -1.0772  -1.0769  -1.0759  -1.0568  -1.0467  -1.0352
    -1.0249  -1.0245  -1.0244  -1.0233  -1.0217  -1.0029  -1.0019  -1.0003
    -0.9999  -0.9882  -0.9639  -0.9518  -0.9505  -0.9238  -0.9126  -0.8812
    -0.8769  -0.8702  -0.8381  -0.8328  -0.8324  -0.8320  -0.8232  -0.8201
    -0.8173  -0.7968  -0.7846  -0.7799  -0.7701  -0.7664  -0.7642  -0.7598
    -0.7588  -0.7582  -0.7517  -0.7476  -0.7462  -0.7393  -0.7249  -0.7150
    -0.7011  -0.6987  -0.6959  -0.6946  -0.6884  -0.6857  -0.6821  -0.6797
    -0.6796  -0.6787  -0.6776  -0.6735  -0.6652  -0.6429  -0.5939  -0.5694
    -0.5371  -0.5254  -0.5122  -0.4983  -0.4958  -0.4934  -0.4878  -0.4518
    -0.4385  -0.4230  -0.4147  -0.4135  -0.4120  -0.4119  -0.4093  -0.4047
    -0.4026  -0.3961  -0.3818  -0.3496  -0.3442  -0.3418  -0.3400  -0.3347
    -0.3323  -0.3273  -0.3243  -0.3216  -0.3085  -0.3055  -0.2991  -0.2531
    -0.2205  -0.2169  -0.2161  -0.2133  -0.2120  -0.1762  -0.1694  -0.1533
    -0.1468  -0.1422  -0.1318  -0.1200  -0.1063  -0.0980  -0.0894  -0.0800
    -0.0755  -0.0749  -0.0718  -0.0708  -0.0593  -0.0463  -0.0418  -0.0398
    -0.0326  -0.0299  -0.0252  -0.0143   0.0014   0.0077   0.0373   0.0602
     0.0686   0.0836   0.0847   0.0899   0.0920   0.0991   0.0993   0.1080
     0.1135   0.1165   0.1199   0.1311   0.1541   0.1712   0.1878   0.1993
     0.2002   0.2022   0.2025   0.2052   0.2065   0.2093   0.2179   0.2276
     0.2402   0.2439   0.2447   0.2453   0.2459   0.2509   0.2574   0.2581
     0.2587   0.2591   0.2614   0.2665   0.2867   0.2965   0.3319   0.3342
     0.3383   0.3485   0.3571   0.3577   0.3845   0.3896   0.3991   0.4009
     0.4128   0.4157   0.4173   0.4233   0.4287   0.4303   0.4368   0.4375
     0.4383   0.4400   0.4441   0.4451   0.4493   0.4494   0.4529   0.4555
     0.4572   0.4611   0.4626   0.4629   0.4631   0.4643   0.4701   0.4774
     0.4804   0.4822   0.4972   0.5017   0.5050   0.5064   0.5081   0.5104
     0.5155   0.5178   0.5273   0.5475   0.5628   0.5649   0.5682   0.5698
     0.5814   0.5916   0.6025   0.6031   0.6138   0.6351   0.6482   0.6583
     0.6663   0.6793   0.6825   0.6843   0.6866   0.6904   0.6919   0.6981
     0.7022   0.7032   0.7055   0.7064   0.7135   0.7177   0.7182   0.7204
     0.7213   0.7226   0.7243   0.7258   0.7283   0.7302   0.7328   0.7370
     0.7434   0.7545   0.7668   0.7801   0.7844   0.8025   0.8106   0.8123
     0.8138   0.8172   0.8205   0.8218   0.8242   0.8410   0.8450   0.8464
     0.8625   0.8639   0.8643   0.8663   0.8675   0.8778   0.8844   0.8993
     0.9053   0.9069   0.9101   0.9109   0.9160   0.9174   0.9191   0.9241
     0.9257   0.9280   0.9290   0.9315   0.9329   0.9381   0.9412   0.9429
     0.9445   0.9504   0.9570   0.9589   0.9644   0.9949   1.0042   1.0168
     1.0216   1.0328   1.0350   1.0373   1.0397   1.0409   1.0412   1.0437
     1.0443   1.0469   1.0507   1.0553   1.0625   1.0682   1.0740   1.0808
     1.0833   1.0839   1.0847   1.0850   1.0874   1.1203   1.1296   1.1354
     1.1397   1.1410   1.1581   1.1601   1.1641   1.1681   1.1709   1.1723
     1.1819   1.1844   1.2017   1.2027   1.2029   1.2222   1.2248   1.2294
     1.2298   1.2666   1.2690   1.2743   1.2817   1.2847   1.2932   1.2961
     1.3103   1.3190   1.3417   1.3549   1.3580   1.3647   1.3683   1.3700
     1.3748   1.3824   1.3843   1.3870   1.3905   1.3951   1.3990   1.3995
     1.4001   1.4006   1.4023   1.4036   1.4050   1.4059   1.4087   1.4147
     1.4155   1.4171   1.4249   1.4271   1.4306   1.4311   1.4326   1.4345
     1.4369   1.4435   1.4472   1.4509   1.4627   1.4657   1.4756   1.4779
     1.4785   1.4790   1.4802   1.4818   1.4864   1.4941   1.4965   1.4980
     1.5063   1.5164   1.5209   1.5412   1.5423   1.5455   1.5462   1.5491
     1.5537   1.5632   1.5693   1.5713   1.5765   1.5815   1.5908   1.5937
     1.5962   1.5969   1.6091   1.6112   1.6120   1.6136   1.6231   1.6253
     1.6308   1.6324   1.6334   1.6367   1.6419   1.6422   1.6430   1.6453
     1.6611   1.6795   1.6838   1.6987   1.7046   1.7071   1.7087   1.7112
     1.7118   1.7120   1.7133   1.7172   1.7183   1.7231   1.7258   1.7296
     1.7299   1.7311   1.7358   1.7370   1.7387   1.7399   1.7414   1.7419
     1.7445   1.7465   1.7486   1.7492   1.7532   1.7596   1.7600   1.7625
     1.7633   1.7654   1.7666   1.7718   1.7875   1.8003   1.8016   1.8028
     1.8040   1.8056   1.8149   1.8165   1.8186   1.8247   1.8299   1.8346
[...]

     one-electron contribution = -109763.38262225 Ry
     hartree contribution      =   56261.04040989 Ry
     xc contribution           =   -4450.58959058 Ry
     ewald contribution        =   45249.19873951 Ry
     Dispersion Correction     =      -3.01513212 Ry
     smearing contrib. (-TS)   =      -3.35240716 Ry

     convergence has been achieved in  14 iterations

     negative rho (up, down):  1.884E-03 0.000E+00

     Forces acting on atoms (Ry/au):

     atom    1 type  1   force =     0.00000756   -0.00029616   -0.00020276
     atom    2 type  1   force =    -0.00011720   -0.00064116   -0.00091187
     atom    3 type  1   force =    -0.00000168   -0.00095121   -0.00091268
     atom    4 type  1   force =     0.00013398   -0.00063884   -0.00090781
     atom    5 type  1   force =     0.00005505   -0.00045060   -0.00089767
     atom    6 type  1   force =     0.00003078   -0.00019922   -0.00058296
     atom    7 type  1   force =     0.00000854   -0.00025677   -0.00059230
     atom    8 type  1   force =     0.00002046   -0.00010472   -0.00054437
     atom    9 type  1   force =    -0.00001465   -0.00005296   -0.00047401
     atom   10 type  1   force =     0.00003444    0.00014788   -0.00065161
     atom   11 type  1   force =     0.00011609   -0.00005266   -0.00045743
     atom   12 type  1   force =     0.00002248    0.00008768   -0.00060707
     atom   13 type  1   force =     0.00002139    0.00051662   -0.00099187
     atom   14 type  1   force =    -0.00011416    0.00066675   -0.00092827
     atom   15 type  1   force =     0.00004556    0.00029618   -0.00067349
     atom   16 type  1   force =     0.00013633    0.00055621   -0.00078130
     atom   17 type  1   force =     0.00002531    0.00010994   -0.00006776
     atom   18 type  1   force =    -0.00009559   -0.00017922    0.00007459
     atom   19 type  1   force =    -0.00001779    0.00075570   -0.00076402
     atom   20 type  1   force =     0.00010031   -0.00008625   -0.00011836
     atom   21 type  1   force =     0.00007156   -0.00102508   -0.00097285
     atom   22 type  1   force =    -0.00026927   -0.00058872   -0.00026489
     atom   23 type  1   force =     0.00002870   -0.00191449   -0.00220134
     atom   24 type  1   force =     0.00029240   -0.00078833   -0.00039867
     atom   25 type  1   force =     0.00018584   -0.00079708   -0.00111807
     atom   26 type  1   force =     0.00005569   -0.00091346   -0.00112912
     atom   27 type  1   force =    -0.00013653   -0.00040892   -0.00044923
     atom   28 type  1   force =     0.00012435   -0.00142786   -0.00177607
     atom   29 type  1   force =     0.00012381    0.00097159   -0.00127011
     atom   30 type  1   force =     0.00082608    0.00002100   -0.00080306
     atom   31 type  1   force =    -0.00004570    0.00051019   -0.00069309
     atom   32 type  1   force =     0.00023687    0.00008262   -0.00033651
     atom   33 type  1   force =     0.00014804    0.00066683   -0.00049767
     atom   34 type  1   force =     0.00002996    0.00117168   -0.00146209
     atom   35 type  1   force =    -0.00000348    0.00168622   -0.00187830
     atom   36 type  1   force =     0.00019190    0.00138175   -0.00157613
     atom   37 type  1   force =     0.00007638   -0.00016380    0.00004128
     atom   38 type  1   force =    -0.00026126    0.00005273    0.00030943
     atom   39 type  1   force =    -0.00006162   -0.00015152   -0.00009060
     atom   40 type  1   force =     0.00029799    0.00052709   -0.00024336
     atom   41 type  1   force =     0.00011420   -0.00075456   -0.00010020
     atom   42 type  1   force =    -0.00018254   -0.00085599   -0.00014410
     atom   43 type  1   force =     0.00003923   -0.00012959   -0.00004948
     atom   44 type  1   force =     0.00049937   -0.00147824   -0.00083526
     atom   45 type  1   force =     0.00055317   -0.00144856   -0.00145756
     atom   46 type  1   force =     0.00294175   -0.00026303    0.00219103
     atom   47 type  1   force =    -0.00013527    0.00441661    0.00464663
     atom   48 type  1   force =    -0.00109365    0.00104126    0.00175376
     atom   49 type  1   force =     0.00011735    0.00007523    0.00244327
     atom   50 type  1   force =     0.00320302    0.00083654    0.00200365
     atom   51 type  1   force =     0.00159969    0.00003924   -0.00152939
     atom   52 type  1   force =    -0.00126827   -0.00086372    0.00189109
     atom   53 type  1   force =     0.00053085    0.00085420   -0.00071682
     atom   54 type  1   force =    -0.00016906    0.00023442    0.00049636
     atom   55 type  1   force =     0.00021382   -0.00531412    0.00537863
     atom   56 type  1   force =     0.00064653    0.00100058   -0.00044610
     atom   57 type  1   force =     0.00033709    0.00024930    0.00015564
     atom   58 type  1   force =     0.00005675   -0.00003815   -0.00015494
     atom   59 type  1   force =    -0.00010497   -0.00025102    0.00015585
     atom   60 type  1   force =     0.00005231   -0.00024808    0.00007348
     atom   61 type  1   force =     0.00068133   -0.00078720    0.00068477
     atom   62 type  1   force =     0.00038377   -0.00034312   -0.00006115
     atom   63 type  1   force =     0.00025282    0.00116149    0.00050785
     atom   64 type  1   force =     0.00003883    0.00003821    0.00021637
     atom   65 type  1   force =     0.00035564    0.00352626   -0.00263108
     atom   66 type  1   force =     0.00418086    0.00046946   -0.00172617
     atom   67 type  1   force =     0.00228943    0.00640779    0.00697010
     atom   68 type  1   force =    -0.00149654    0.00078952   -0.00127496
     atom   69 type  1   force =    -0.00165681   -0.00416745   -0.00186919
     atom   70 type  1   force =     0.00265190    0.00021477   -0.00380634
     atom   71 type  1   force =     0.00264896   -0.00727197    0.00844101
     atom   72 type  1   force =    -0.00649205   -0.00117444    0.01023880
     atom   73 type  1   force =     0.00101669   -0.00016396    0.00146661
     atom   74 type  1   force =     0.00467249    0.00020897   -0.00251130
     atom   75 type  1   force =     0.00053468   -0.00172017    0.00100192
     atom   76 type  1   force =    -0.00146529   -0.00124872   -0.00036919
     atom   77 type  1   force =     0.00000774   -0.00012743   -0.00005765
     atom   78 type  1   force =     0.00045094    0.00047068   -0.00010389
     atom   79 type  1   force =     0.00033950   -0.00003586    0.00002615
     atom   80 type  1   force =     0.00023472   -0.00061571    0.00035886
     atom   81 type  1   force =     0.00019486   -0.00046319    0.00036492
     atom   82 type  1   force =     0.00164069   -0.00130230    0.00062190
     atom   83 type  1   force =     0.00060480    0.00036761    0.00022958
     atom   84 type  1   force =     0.00013274    0.00182025    0.00068173
     atom   85 type  1   force =     0.00119911   -0.00079710    0.00097406
     atom   86 type  1   force =    -0.01645202   -0.04201615   -0.02791953
     atom   87 type  1   force =     0.00001617    0.00092600   -0.00218920
     atom   88 type  1   force =     0.00387822   -0.00208441   -0.00264242
     atom   89 type  1   force =     0.01044226   -0.00070481    0.00597303
     atom   90 type  1   force =    -0.00454027    0.01560941   -0.01609012
     atom   91 type  1   force =    -0.01283942    0.00469032    0.00910773
     atom   92 type  1   force =     0.00109841    0.00058011   -0.00372362
     atom   93 type  1   force =    -0.00079242   -0.00152449    0.00320970
     atom   94 type  1   force =     0.00148571    0.00168695    0.00093880
     atom   95 type  1   force =     0.00034173   -0.00159299    0.00025164
     atom   96 type  1   force =     0.00056640   -0.00205197    0.00014844
     atom   97 type  1   force =     0.00001411    0.00026873    0.00041776
     atom   98 type  1   force =     0.00060799   -0.00012920    0.00022015
     atom   99 type  1   force =     0.00120012   -0.00029585    0.00000242
     atom  100 type  1   force =     0.00005037   -0.00005771    0.00007646
     atom  101 type  2   force =    -0.00714168   -0.00547855    0.00236336
     atom  102 type  2   force =    -0.00170496   -0.00522602    0.00298251
     atom  103 type  2   force =     0.00209918   -0.00157494   -0.00084724
     atom  104 type  2   force =    -0.00079408    0.00232655   -0.00851507
     atom  105 type  2   force =     0.00027348   -0.00164164    0.00565904
     atom  106 type  2   force =     0.00008206   -0.00346007    0.00582739
     atom  107 type  2   force =    -0.00099982   -0.00206099   -0.00096904
     atom  108 type  2   force =    -0.00252710   -0.00103829   -0.01049540
     atom  109 type  2   force =    -0.00066953   -0.00189942    0.00067111
     atom  110 type  2   force =     0.00318444    0.00269814    0.00551647
     atom  111 type  2   force =     0.00217078   -0.00462594   -0.00066636
     atom  112 type  2   force =    -0.00448391   -0.00227856    0.01107621
     atom  113 type  2   force =     0.00859994    0.00075557   -0.01011063
     atom  114 type  2   force =    -0.00547032    0.00619885   -0.00753787
     atom  115 type  2   force =     0.00577671   -0.00571990    0.00167692
     atom  116 type  2   force =     0.02813866   -0.01016125    0.00734148
     atom  117 type  2   force =     0.00052979    0.01591871    0.01464508
     atom  118 type  2   force =    -0.00237831   -0.00210335    0.00551982
     atom  119 type  2   force =     0.00194160   -0.00309579   -0.01582344
     atom  120 type  2   force =    -0.02121217   -0.00855753   -0.00435752
     atom  121 type  2   force =    -0.00855928    0.01299937   -0.00610377
     atom  122 type  2   force =     0.00076071    0.00151072   -0.00650184
     atom  123 type  2   force =    -0.01303194    0.00174611    0.02799580
     atom  124 type  2   force =    -0.00564933    0.00107366   -0.00167563
     atom  125 type  2   force =     0.00476405   -0.00695705    0.00182335
     atom  126 type  2   force =     0.01174121   -0.00103205    0.00296420
     atom  127 type  2   force =    -0.00055137    0.00807455    0.01249586
     atom  128 type  2   force =     0.00243605    0.00555234   -0.00101663
     atom  129 type  2   force =    -0.00087058   -0.00165095    0.00464677
     atom  130 type  2   force =    -0.00030600   -0.00484927   -0.01106777
     atom  131 type  2   force =     0.00825920    0.00344324   -0.00793251
     atom  132 type  2   force =     0.00467028   -0.00465031    0.01928343
     atom  133 type  2   force =    -0.00368469    0.00286427    0.00162777
     atom  134 type  2   force =    -0.00611629   -0.00466275    0.00501991
     atom  135 type  2   force =     0.00023062   -0.00137876   -0.00604717
     atom  136 type  2   force =    -0.00663595    0.00871732   -0.00531573
     atom  137 type  2   force =     0.00214682    0.00739509    0.00020350
     atom  138 type  2   force =    -0.00155884    0.00495213    0.00030018
     atom  139 type  2   force =     0.00309785   -0.00352210   -0.00148564
     atom  140 type  2   force =     0.00169293    0.00460810   -0.00043526
     atom  141 type  2   force =    -0.00237987    0.00751436   -0.00283805
     atom  142 type  2   force =    -0.00210540    0.00208008   -0.00054046
     atom  143 type  2   force =     0.00036032   -0.00395918   -0.00039393
     atom  144 type  2   force =     0.00068996    0.00403513    0.00329083
     atom  145 type  2   force =    -0.00047017    0.00845605   -0.00112907
     atom  146 type  2   force =    -0.00217370    0.00476056   -0.00027585
     atom  147 type  2   force =    -0.00026118   -0.00463548   -0.00200299
     atom  148 type  2   force =     0.00231837    0.00695902    0.00033286
     atom  149 type  2   force =    -0.00296798    0.00779794   -0.00228601

     Total force =     0.105743     Total SCF correction =     0.000382

     number of scf cycles    =  11
     number of bfgs steps    =  10

     energy   old            =  -12710.0871450143 Ry
     energy   new            =  -12710.1006027148 Ry

     CASE: energy  _new < energy  _old

     new trust radius        =       0.1673739985 bohr
     new conv_thr            =       0.0000000100 Ry


ATOMIC_POSITIONS (angstrom)
Cu      -0.000035574   0.000943943   7.362745890
Cu       1.844268561   1.701602447   7.357808282
Cu       3.688949829  -0.002023163   7.359594131
Cu       5.533778437   1.702376642   7.359035063
Cu       0.000131147   3.405791093   7.356962602
Cu       1.845719001   5.112118427   7.359562307
Cu       3.689093800   3.407704415   7.360095756
Cu       5.533080923   5.111475300   7.358972906
Cu       0.000439792   6.815300024   7.357413442
Cu       1.845973697   8.518243254   7.359839335
Cu       3.688674755   6.815136784   7.361241118
Cu       5.532802807   8.518823111   7.359207760
Cu       0.000078992  10.224367670   7.357254231
Cu       1.844323048  11.928631541   7.358963588
Cu       3.689176522  10.222758092   7.361202278
Cu       5.533706038  11.928191697   7.360045950
Cu       0.000194312  13.629738531   7.363505262
Cu       1.843856016  15.334888306   7.363499867
Cu       3.688687270  13.632273593   7.360657116
Cu       5.534040120  15.334796125   7.361539045
Cu       0.000324141   1.702489082   9.194211077
Cu       1.843135098   0.000962366   9.195489585
Cu       3.689057530   1.690542769   9.179041377
Cu       5.534892678  -0.001511382   9.192879563
Cu       0.001502192   5.106352156   9.180581342
Cu       1.842009427   3.398506234   9.180260869
Cu       3.690057440   5.109858023   9.189719131
Cu       5.537475011   3.399675245   9.180981635
Cu       0.001396277   8.524794205   9.179928161
Cu       1.846735087   6.815235913   9.188814145
Cu       3.690255129   8.520418073   9.189665367
Cu       5.533649712   6.815272240   9.186732165
Cu       0.000888058  11.926345565   9.195925498
Cu       1.842203384  10.231767762   9.180545754
Cu       3.688540137  11.938560102   9.182318251
Cu       5.537449321  10.230294019   9.182225103
Cu       0.000557318  15.334752017   9.193801020
Cu       1.843243505  13.628186749   9.197712470
Cu       3.688309653  15.334568846   9.192185213
Cu       5.534713761  13.631793478   9.193518211
Cu       0.001377643  -0.002910134  11.035424648
Cu       1.839359997   1.703219875  11.039372145
Cu       3.688345171  -0.003129455  11.030921036
Cu       5.540877467   1.694388201  11.030188828
Cu       0.003027160   3.399979811  11.030810683
Cu       1.841549206   5.089913018  11.009236208
Cu       3.691159504   3.371208090  10.992756102
Cu       5.546679949   5.089669087  11.004787414
Cu       0.013142434   6.817874680  11.002780975
Cu       1.842202905   8.544503537  11.007822945
Cu       3.699152559   6.816354424  11.022761652
Cu       5.547358196   8.542163004  11.006016428
Cu       0.006039778  10.225930805  11.038480165
Cu       1.839381122  11.917079869  11.049259570
Cu       3.690255926  10.253394834  10.998628919
Cu       5.541150652  11.932926331  11.031788989
Cu       0.001887290  13.630884346  11.035060882
Cu       1.844427744  15.334906340  11.034681159
Cu       3.687773152  13.632355172  11.032771351
Cu       5.533863025  15.334487267  11.034636451
Cu       0.007590483   1.700128153  12.872838810
Cu       1.846469867  -0.003656015  12.874933896
Cu       3.689706007   1.698430284  12.864207285
Cu       5.534870990  -0.002221060  12.874307718
Cu       0.032193233   5.103633624  12.872437893
Cu       1.847711870   3.419555715  12.894823589
Cu       3.707334704   5.090708562  12.807814335
Cu       5.550984701   3.391414807  12.859003651
Cu       0.038562491   8.520436709  12.894523989
Cu       1.859685398   6.825442280  12.787844877
Cu       3.708501244   8.524021801  12.827308457
Cu       5.580295325   6.818371348  12.825576663
Cu       0.012799258  11.924300380  12.877825670
Cu       1.850661081  10.182713229  12.930235302
Cu       3.687588225  11.922366384  12.862680434
Cu       5.557838865  10.231161524  12.865071555
Cu       0.000848158  15.332679843  12.876374482
Cu       1.844962829  13.633366881  12.872456439
Cu       3.690267857  15.335538046  12.877044822
Cu       5.536927677  13.628895524  12.873948444
Cu       0.003577501  -0.000404240  14.686585507
Cu       1.849894453   1.696681264  14.689482370
Cu       3.693915302   0.003299840  14.697865033
Cu       5.551347223   1.708362510  14.685347781
Cu       0.056114458   3.421639209  14.692786266
Cu       1.926043991   5.122657512  14.676252666
Cu       3.694901791   3.384397524  14.677148454
Cu       5.563934019   5.048656809  14.671432381
Cu      -0.011339218   6.792258606  14.713025001
Cu       1.944318887   8.421768563  14.822334583
Cu       3.923397592   6.804606966  14.560806805
Cu       5.570961830   8.558376074  14.673832606
Cu       0.074156859  10.202932537  14.719712904
Cu       1.853193243  11.940107702  14.687928961
Cu       3.689334195  10.223044259  14.674686108
Cu       5.555338106  11.913018075  14.684070923
Cu       0.001826290  13.630810577  14.697488603
Cu       1.848560153  15.331779034  14.692443393
Cu       3.697690279  13.621146297  14.683426282
Cu       5.535072601  15.333751692  14.691371555
C       -0.001878863   0.725264338  17.609971865
C       -0.007489089   2.141459441  17.622829034
C        1.225865679   0.011528117  17.607963804
C        1.219056616   2.842714462  17.638757269
C        2.455475568   0.724141877  17.594113424
C        2.453789047   2.143949458  17.626040164
C        3.688221843   0.010534861  17.589680887
C        3.686434344   2.847617975  17.633758147
C        4.919320028   0.724392626  17.589201047
C        4.916736981   2.142624819  17.594863323
C        6.147083141   0.012655293  17.605396198
C        6.146525754   2.850238235  17.603095982
C       -0.011288159   4.977501700  17.662358984
C       -0.010017159   6.403360303  17.674281590
C        1.217368162   4.262727725  17.612191981
C        1.191381265   7.131392159  17.699309495
C        2.446190205   4.948596264  17.571978160
C        2.438770626   6.419913023  17.351947920
C        3.677718943   4.265902081  17.578214872
C        3.714858600   7.129685195  17.647055965
C        2.390105370   6.642695358  15.788600656
C        4.915507288   4.979312666  17.569546163
C        4.923494363   6.406161620  17.624484542
C        6.143717939   4.271597442  17.641159778
C        6.140881565   7.118089486  17.640353678
C       -0.018708781   9.246976502  17.675691259
C       -0.013842451  10.654226992  17.580446715
C        1.207332457   8.538158122  17.692214447
C        1.218558299  11.356894402  17.595139345
C        2.452768324   9.238817720  17.651443154
C        2.447114055  10.650096375  17.660291041
C        3.693682513   8.540429427  17.667855779
C        3.678990201  11.358165165  17.647918988
C        4.916143954   9.250062690  17.617612177
C        4.912079805  10.664050890  17.620811161
C        6.140502646   8.534232943  17.638043640
C        6.139121236  11.363112030  17.575769295
C       -0.007133203  13.487563242  17.579767193
C       -0.004758779  14.911370727  17.612149105
C        1.221156505  12.772616841  17.588305951
C        1.224841333  15.624897210  17.614212442
C        2.450987808  13.484154569  17.619358249
C        2.454821671  14.908785791  17.620578303
C        3.680860399  12.773134632  17.624553424
C        3.686612876  15.622617473  17.621046771
C        4.912770729  13.484803963  17.613558687
C        4.915744767  14.909055777  17.618446686
C        6.140380835  12.776370393  17.584415452
C        6.146011688  15.625414361  17.612856224



     Writing output data file gc.save
     Check: negative starting charge=   -0.001815
     NEW-OLD atomic charge density approx. for the potential
     Check: negative starting charge=   -0.001818

     negative rho (up, down):  1.875E-03 0.000E+00

     total cpu time spent up to now is    46329.6 secs

     Self-consistent Calculation

     iteration #  1     ecut=    80.00 Ry     beta=0.70
     Davidson diagonalization with overlap
