
     Program PWSCF v.5.4.0 starts on 17Mar2017 at  1:43:34 

     This program is part of the open-source Quantum ESPRESSO suite
     for quantum simulation of materials; please cite
         "P. Giannozzi et al., J. Phys.:Condens. Matter 21 395502 (2009);
          URL http://www.quantum-espresso.org", 
     in publications or presentations arising from this work. More details at
     http://www.quantum-espresso.org/quote

     Parallel version (MPI & OpenMP), running on      56 processor cores
     Number of MPI processes:                56
     Threads/MPI process:                     1
     R & G space division:  proc/nbgrp/npool/nimage =      56
     Waiting for input...
     Reading input from standard input

     Current dimensions of program PWSCF are:
     Max number of different atomic species (ntypx) = 10
     Max number of k-points (npk) =  40000
     Max angular momentum in pseudopotentials (lmaxx) =  3

     -------------------------------------
     Parameters for Dispersion Correction:
     -------------------------------------
       atom      VdW radius       C_6     

        Cu         2.952        374.666
        C          2.744         60.710

     Subspace diagonalization in iterative solution of the eigenvalue problem:
     one sub-group per band group will be used
     scalapack distributed-memory algorithm (size of sub-group:  5*  5 procs)

 
     Parallelization info
     --------------------
     sticks:   dense  smooth     PW     G-vecs:    dense   smooth      PW
     Min         204     204     54                36612    36612    4962
     Max         205     205     55                36617    36617    4968
     Sum       11433   11433   3039              2050409  2050409  278033
 


     bravais-lattice index     =            0
     lattice parameter (alat)  =      13.9425  a.u.
     unit-cell volume          =   21209.0878 (a.u.)^3
     number of atoms/cell      =          149
     number of atomic types    =            2
     number of electrons       =      1296.00
     number of Kohn-Sham states=          778
     kinetic-energy cutoff     =      80.0000  Ry
     charge density cutoff     =     320.0000  Ry
     convergence threshold     =      1.0E-08
     mixing beta               =       0.7000
     number of iterations used =            8  local-TF  mixing
     Exchange-correlation      =  SLA  PW   PBX  PBC ( 1  4  3  4 0 0)
     nstep                     =           50


     celldm(1)=  13.942539  celldm(2)=   0.000000  celldm(3)=   0.000000
     celldm(4)=   0.000000  celldm(5)=   0.000000  celldm(6)=   0.000000

     crystal axes: (cart. coord. in units of alat)
               a(1) = (   1.000000   0.000000   0.000000 )  
               a(2) = (   0.000000   2.309401   0.000000 )  
               a(3) = (   0.000000   0.000000   3.388418 )  

     reciprocal axes: (cart. coord. in units 2 pi/alat)
               b(1) = (  1.000000  0.000000  0.000000 )  
               b(2) = (  0.000000  0.433013  0.000000 )  
               b(3) = (  0.000000  0.000000  0.295123 )  


     PseudoPot. # 1 for Cu read from file:
     /home/549/hxw549/Short/pseudopotentials/Cu.pbe-n-van_ak.UPF
     MD5 check sum: 601f7c30f7467666bec936e0661ce3e1
     Pseudo is Ultrasoft + core correction, Zval = 11.0
     Generated by new atomic code, or converted to UPF format
     Using radial grid of  867 points,  6 beta functions with: 
                l(1) =   0
                l(2) =   0
                l(3) =   1
                l(4) =   1
                l(5) =   2
                l(6) =   2
     Q(r) pseudized with  8 coefficients,  rinner =    1.400   1.400   1.400
                                                       1.400   1.400

     PseudoPot. # 2 for C  read from file:
     /home/549/hxw549/Short/pseudopotentials/C.pbe-mt_gipaw.UPF
     MD5 check sum: 5ac2f21f2c440b14befe521540822c15
     Pseudo is Norm-conserving, Zval =  4.0
     Generated by new atomic code, or converted to UPF format
     Using radial grid of 1073 points,  1 beta functions with: 
                l(1) =   0

     atomic species   valence    mass     pseudopotential
        Cu            11.00    63.54600     Cu( 1.00)
        C              4.00    12.01070     C ( 1.00)

     No symmetry found



   Cartesian axes

     site n.     atom                  positions (alat units)
         1           Cu  tau(   1) = (  -0.0000035   0.0001130   0.9979521  )
         2           Cu  tau(   2) = (   0.2499601   0.2305708   0.9971909  )
         3           Cu  tau(   3) = (   0.4999879  -0.0003506   0.9974550  )
         4           Cu  tau(   4) = (   0.7500393   0.2306782   0.9973648  )
         5           Cu  tau(   5) = (   0.0000251   0.4615672   0.9970615  )
         6           Cu  tau(   6) = (   0.2501822   0.6928805   0.9974761  )
         7           Cu  tau(   7) = (   0.5000079   0.4618596   0.9975451  )
         8           Cu  tau(   8) = (   0.7499276   0.6927913   0.9973921  )
         9           Cu  tau(   9) = (   0.0000684   0.9237165   0.9971826  )
        10           Cu  tau(  10) = (   0.2502167   1.1545208   0.9975187  )
        11           Cu  tau(  11) = (   0.4999536   0.9236949   0.9977335  )
        12           Cu  tau(  12) = (   0.7498905   1.1546033   0.9974260  )
        13           Cu  tau(  13) = (   0.0000155   1.3858122   0.9971053  )
        14           Cu  tau(  14) = (   0.2499675   1.6168179   0.9973542  )
        15           Cu  tau(  15) = (   0.5000225   1.3855589   0.9977005  )
        16           Cu  tau(  16) = (   0.7500295   1.6167524   0.9975157  )
        17           Cu  tau(  17) = (   0.0000309   1.8473280   0.9980656  )
        18           Cu  tau(  18) = (   0.2498965   2.0784293   0.9980830  )
        19           Cu  tau(  19) = (   0.4999489   1.8477311   0.9976144  )
        20           Cu  tau(  20) = (   0.7500796   2.0784209   0.9977858  )
        21           Cu  tau(  21) = (   0.0000545   0.2306849   1.2461135  )
        22           Cu  tau(  22) = (   0.2497910   0.0001079   1.2463469  )
        23           Cu  tau(  23) = (   0.5000057   0.2290069   1.2439669  )
        24           Cu  tau(  24) = (   0.7502072  -0.0002591   1.2459669  )
        25           Cu  tau(  25) = (   0.0002365   0.6920244   1.2441919  )
        26           Cu  tau(  26) = (   0.2496667   0.4604956   1.2441375  )
        27           Cu  tau(  27) = (   0.5001556   0.6925185   1.2455323  )
        28           Cu  tau(  28) = (   0.7505448   0.4606512   1.2442156  )
        29           Cu  tau(  29) = (   0.0002184   1.1554952   1.2440928  )
        30           Cu  tau(  30) = (   0.2503306   0.9237098   1.2454448  )
        31           Cu  tau(  31) = (   0.5001902   1.1548800   1.2455179  )
        32           Cu  tau(  32) = (   0.7500442   0.9237179   1.2451145  )
        33           Cu  tau(  33) = (   0.0001372   1.6164859   1.2463914  )
        34           Cu  tau(  34) = (   0.2496968   1.3869141   1.2441599  )
        35           Cu  tau(  35) = (   0.4999314   1.6181967   1.2444577  )
        36           Cu  tau(  36) = (   0.7505443   1.3867007   1.2444035  )
        37           Cu  tau(  37) = (   0.0000860   2.0784077   1.2461271  )
        38           Cu  tau(  38) = (   0.2498064   1.8470924   1.2466974  )
        39           Cu  tau(  39) = (   0.4998930   2.0783836   1.2458935  )
        40           Cu  tau(  40) = (   0.7501823   1.8476353   1.2460659  )
        41           Cu  tau(  41) = (   0.0002071  -0.0004522   1.4957063  )
        42           Cu  tau(  42) = (   0.2492920   0.2308154   1.4962665  )
        43           Cu  tau(  43) = (   0.4999072  -0.0004432   1.4950792  )
        44           Cu  tau(  44) = (   0.7510424   0.2295428   1.4949308  )
        45           Cu  tau(  45) = (   0.0004516   0.4606922   1.4950289  )
        46           Cu  tau(  46) = (   0.2496621   0.6895324   1.4918436  )
        47           Cu  tau(  47) = (   0.5003299   0.4566862   1.4897023  )
        48           Cu  tau(  48) = (   0.7519638   0.6897138   1.4913536  )
        49           Cu  tau(  49) = (   0.0016548   0.9241073   1.4911239  )
        50           Cu  tau(  50) = (   0.2497793   1.1584943   1.4916295  )
        51           Cu  tau(  51) = (   0.5015659   0.9239005   1.4936224  )
        52           Cu  tau(  52) = (   0.7520516   1.1579077   1.4915406  )
        53           Cu  tau(  53) = (   0.0008846   1.3860403   1.4961606  )
        54           Cu  tau(  54) = (   0.2493037   1.6150921   1.4977438  )
        55           Cu  tau(  55) = (   0.5002141   1.3898310   1.4906250  )
        56           Cu  tau(  56) = (   0.7510821   1.6173954   1.4951904  )
        57           Cu  tau(  57) = (   0.0002893   1.8474899   1.4956822  )
        58           Cu  tau(  58) = (   0.2499990   2.0784368   1.4956111  )
        59           Cu  tau(  59) = (   0.4998191   1.8476500   1.4953545  )
        60           Cu  tau(  60) = (   0.7500435   2.0783628   1.4956146  )
        61           Cu  tau(  61) = (   0.0011261   0.2303843   1.7448027  )
        62           Cu  tau(  62) = (   0.2503134  -0.0005276   1.7450328  )
        63           Cu  tau(  63) = (   0.5001293   0.2301206   1.7434496  )
        64           Cu  tau(  64) = (   0.7501942  -0.0003067   1.7449588  )
        65           Cu  tau(  65) = (   0.0045308   0.6918233   1.7443747  )
        66           Cu  tau(  66) = (   0.2506096   0.4632389   1.7474623  )
        67           Cu  tau(  67) = (   0.5027364   0.6888834   1.7342685  )
        68           Cu  tau(  68) = (   0.7525207   0.4594821   1.7426440  )
        69           Cu  tau(  69) = (   0.0056293   1.1547273   1.7477444  )
        70           Cu  tau(  70) = (   0.2517806   0.9253342   1.7314006  )
        71           Cu  tau(  71) = (   0.5028131   1.1564403   1.7371766  )
        72           Cu  tau(  72) = (   0.7578047   0.9240954   1.7368793  )
        73           Cu  tau(  73) = (   0.0018972   1.6160945   1.7455503  )
        74           Cu  tau(  74) = (   0.2510935   1.3796604   1.7530262  )
        75           Cu  tau(  75) = (   0.4998376   1.6158646   1.7433274  )
        76           Cu  tau(  76) = (   0.7534560   1.3867947   1.7435470  )
        77           Cu  tau(  77) = (   0.0001281   2.0781265   1.7452095  )
        78           Cu  tau(  78) = (   0.2501153   1.8478410   1.7446843  )
        79           Cu  tau(  79) = (   0.5002017   2.0785118   1.7453166  )
        80           Cu  tau(  80) = (   0.7504863   1.8471561   1.7449220  )
        81           Cu  tau(  81) = (   0.0005274  -0.0001316   1.9905758  )
        82           Cu  tau(  82) = (   0.2508122   0.2298163   1.9910124  )
        83           Cu  tau(  83) = (   0.5007594   0.0004863   1.9921058  )
        84           Cu  tau(  84) = (   0.7526399   0.2316833   1.9903878  )
        85           Cu  tau(  85) = (   0.0081204   0.4637208   1.9914906  )
        86           Cu  tau(  86) = (   0.2616929   0.6945338   1.9883167  )
        87           Cu  tau(  87) = (   0.5009614   0.4583696   1.9890156  )
        88           Cu  tau(  88) = (   0.7548985   0.6832360   1.9883276  )
        89           Cu  tau(  89) = (  -0.0014334   0.9204374   1.9944206  )
        90           Cu  tau(  90) = (   0.2650940   1.1391462   2.0111637  )
        91           Cu  tau(  91) = (   0.5325355   0.9217145   1.9732748  )
        92           Cu  tau(  92) = (   0.7560810   1.1609243   1.9886111  )
        93           Cu  tau(  93) = (   0.0108156   1.3826194   1.9952805  )
        94           Cu  tau(  94) = (   0.2513210   1.6184773   1.9908144  )
        95           Cu  tau(  95) = (   0.5001722   1.3857594   1.9888933  )
        96           Cu  tau(  96) = (   0.7532120   1.6144235   1.9902289  )
        97           Cu  tau(  97) = (   0.0002711   1.8475212   1.9920489  )
        98           Cu  tau(  98) = (   0.2506497   2.0779934   1.9913758  )
        99           Cu  tau(  99) = (   0.5013346   1.8460978   1.9901334  )
       100           Cu  tau( 100) = (   0.7502052   2.0782817   1.9912034  )
       101           C   tau( 101) = (  -0.0005674   0.0977180   2.3865944  )
       102           C   tau( 102) = (  -0.0008661   0.2900502   2.3885605  )
       103           C   tau( 103) = (   0.1663342   0.0011304   2.3864719  )
       104           C   tau( 104) = (   0.1656129   0.3856748   2.3912515  )
       105           C   tau( 105) = (   0.3328477   0.0976766   2.3849572  )
       106           C   tau( 106) = (   0.3326630   0.2903240   2.3894415  )
       107           C   tau( 107) = (   0.4997549   0.0009312   2.3839785  )
       108           C   tau( 108) = (   0.4992661   0.3858393   2.3900386  )
       109           C   tau( 109) = (   0.6665572   0.0976878   2.3839475  )
       110           C   tau( 110) = (   0.6664894   0.2904725   2.3850312  )
       111           C   tau( 111) = (   0.8332284   0.0011587   2.3859765  )
       112           C   tau( 112) = (   0.8327492   0.3862155   2.3863166  )
       113           C   tau( 113) = (  -0.0013529   0.6748732   2.3945535  )
       114           C   tau( 114) = (  -0.0015601   0.8685366   2.3983467  )
       115           C   tau( 115) = (   0.1659034   0.5783505   2.3893105  )
       116           C   tau( 116) = (   0.1619965   0.9662014   2.4002274  )
       117           C   tau( 117) = (   0.3317152   0.6719545   2.3818781  )
       118           C   tau( 118) = (   0.3312086   0.8714700   2.3477062  )
       119           C   tau( 119) = (   0.4980881   0.5788071   2.3838995  )
       120           C   tau( 120) = (   0.5023705   0.9663483   2.3913394  )
       121           C   tau( 121) = (   0.3156410   0.9007573   2.1311999  )
       122           C   tau( 122) = (   0.6661535   0.6752307   2.3824597  )
       123           C   tau( 123) = (   0.6657557   0.8686813   2.3889267  )
       124           C   tau( 124) = (   0.8322296   0.5794178   2.3908061  )
       125           C   tau( 125) = (   0.8323969   0.9644456   2.3935271  )
       126           C   tau( 126) = (  -0.0018912   1.2529210   2.3962098  )
       127           C   tau( 127) = (  -0.0018767   1.4444741   2.3834120  )
       128           C   tau( 128) = (   0.1637084   1.1570377   2.4003990  )
       129           C   tau( 129) = (   0.1651576   1.5394542   2.3851715  )
       130           C   tau( 130) = (   0.3319594   1.2522379   2.3938681  )
       131           C   tau( 131) = (   0.3320620   1.4434378   2.3936641  )
       132           C   tau( 132) = (   0.5003531   1.1563766   2.3949464  )
       133           C   tau( 133) = (   0.4983192   1.5397671   2.3922962  )
       134           C   tau( 134) = (   0.6657909   1.2532526   2.3893327  )
       135           C   tau( 135) = (   0.6654119   1.4449469   2.3887439  )
       136           C   tau( 136) = (   0.8316954   1.1568487   2.3917579  )
       137           C   tau( 137) = (   0.8318194   1.5404574   2.3821181  )
       138           C   tau( 138) = (  -0.0010712   1.8285812   2.3824716  )
       139           C   tau( 139) = (  -0.0004933   2.0208921   2.3869834  )
       140           C   tau( 140) = (   0.1656981   1.7318199   2.3837947  )
       141           C   tau( 141) = (   0.1659405   2.1180155   2.3872669  )
       142           C   tau( 142) = (   0.3321231   1.8280664   2.3880209  )
       143           C   tau( 143) = (   0.3327650   2.0205672   2.3881997  )
       144           C   tau( 144) = (   0.4988388   1.7318215   2.3889770  )
       145           C   tau( 145) = (   0.4995710   2.1177969   2.3882232  )
       146           C   tau( 146) = (   0.6655957   1.8282671   2.3872296  )
       147           C   tau( 147) = (   0.6660801   2.0205746   2.3878799  )
       148           C   tau( 148) = (   0.8321921   1.7323890   2.3830066  )
       149           C   tau( 149) = (   0.8328232   2.1181141   2.3870548  )

     number of k points=     6  gaussian smearing, width (Ry)=  0.1000
                       cart. coord. in units 2pi/alat
        k(    1) = (   0.0000000   0.0000000   0.0000000), wk =   0.2500000
        k(    2) = (   0.0000000  -0.2165064   0.0000000), wk =   0.2500000
        k(    3) = (   0.2500000   0.0000000   0.0000000), wk =   0.5000000
        k(    4) = (   0.2500000  -0.2165064   0.0000000), wk =   0.5000000
        k(    5) = (  -0.5000000   0.0000000   0.0000000), wk =   0.2500000
        k(    6) = (  -0.5000000  -0.2165064   0.0000000), wk =   0.2500000

     Dense  grid:  2050409 G-vectors     FFT dimensions: (  80, 192, 270)

     Largest allocated arrays     est. size (Mb)     dimensions
        Kohn-Sham Wavefunctions        54.66 Mb     (    4604,  778)
        NL pseudopotentials           129.89 Mb     (    4604, 1849)
        Each V/rho on FFT grid          1.17 Mb     (   76800)
        Each G-vector array             0.28 Mb     (   36616)
        G-vector shells                 0.14 Mb     (   17932)
     Largest temporary arrays     est. size (Mb)     dimensions
        Auxiliary wavefunctions       218.62 Mb     (    4604, 3112)
        Each subspace H/S matrix        5.90 Mb     (     622,  622)
        Each <psi_i|beta_j> matrix     21.95 Mb     (    1849,  778)
        Arrays for rho mixing           9.38 Mb     (   76800,    8)

     Initial potential from superposition of free atoms
     Check: negative starting charge=   -0.001816

     starting charge 1270.31751, renormalised to 1296.00000

     negative rho (up, down):  1.852E-03 0.000E+00
     Starting wfc are 1292 randomized atomic wfcs

     total cpu time spent up to now is      107.6 secs

     Self-consistent Calculation

     iteration #  1     ecut=    80.00 Ry     beta=0.70
     Davidson diagonalization with overlap
     c_bands:  2 eigenvalues not converged
     ethr =  1.00E-04,  avg # of iterations = 21.2

     negative rho (up, down):  2.837E+01 0.000E+00

     total cpu time spent up to now is     1903.3 secs

     total energy              =   -9398.34211411 Ry
     Harris-Foulkes estimate   =  -17210.85646893 Ry
     estimated scf accuracy    <  179023.88307179 Ry

     iteration #  2     ecut=    80.00 Ry     beta=0.70
     Davidson diagonalization with overlap
     ethr =  1.00E-02,  avg # of iterations = 12.5

     negative rho (up, down):  3.188E+01 0.000E+00

     total cpu time spent up to now is     2828.9 secs

     total energy              =  -12301.94372546 Ry
     Harris-Foulkes estimate   =  -13650.28205773 Ry
     estimated scf accuracy    <   20414.45637408 Ry

     iteration #  3     ecut=    80.00 Ry     beta=0.70
     Davidson diagonalization with overlap
     ethr =  1.00E-02,  avg # of iterations =  7.0

     negative rho (up, down):  3.302E+01 0.000E+00

     total cpu time spent up to now is     3362.7 secs

     total energy              =  -12479.35096453 Ry
     Harris-Foulkes estimate   =  -13383.19774616 Ry
     estimated scf accuracy    <    6126.54491843 Ry

     iteration #  4     ecut=    80.00 Ry     beta=0.70
     Davidson diagonalization with overlap
     ethr =  1.00E-02,  avg # of iterations =  5.0

     negative rho (up, down):  2.779E+01 0.000E+00

     total cpu time spent up to now is     3833.3 secs

     total energy              =  -12828.94137113 Ry
     Harris-Foulkes estimate   =  -13137.44470722 Ry
     estimated scf accuracy    <    4373.51774950 Ry

     iteration #  5     ecut=    80.00 Ry     beta=0.70
     Davidson diagonalization with overlap
     ethr =  1.00E-02,  avg # of iterations =  5.0

     negative rho (up, down):  1.916E+01 0.000E+00

     total cpu time spent up to now is     4169.7 secs

     total energy              =  -12873.98774647 Ry
     Harris-Foulkes estimate   =  -13034.78398789 Ry
     estimated scf accuracy    <    1074.80012949 Ry

     iteration #  6     ecut=    80.00 Ry     beta=0.70
     Davidson diagonalization with overlap
     ethr =  1.00E-02,  avg # of iterations =  2.0

     negative rho (up, down):  1.239E+01 0.000E+00

     total cpu time spent up to now is     4394.6 secs

     total energy              =  -12843.40858950 Ry
     Harris-Foulkes estimate   =  -12913.31920650 Ry
     estimated scf accuracy    <     577.02067752 Ry

     iteration #  7     ecut=    80.00 Ry     beta=0.70
     Davidson diagonalization with overlap
     ethr =  1.00E-02,  avg # of iterations =  2.0

     negative rho (up, down):  8.936E+00 0.000E+00

     total cpu time spent up to now is     4574.0 secs

     total energy              =  -12817.92794112 Ry
     Harris-Foulkes estimate   =  -12863.47191116 Ry
     estimated scf accuracy    <     841.08599953 Ry

     iteration #  8     ecut=    80.00 Ry     beta=0.70
     Davidson diagonalization with overlap
     ethr =  1.00E-02,  avg # of iterations =  1.2

     negative rho (up, down):  8.446E+00 0.000E+00

     total cpu time spent up to now is     4743.1 secs

     total energy              =  -12819.99081487 Ry
     Harris-Foulkes estimate   =  -12830.42431649 Ry
     estimated scf accuracy    <     414.89296548 Ry

     iteration #  9     ecut=    80.00 Ry     beta=0.70
     Davidson diagonalization with overlap
     ethr =  1.00E-02,  avg # of iterations =  1.0

     negative rho (up, down):  7.339E+00 0.000E+00

     total cpu time spent up to now is     4909.3 secs

     total energy              =  -12809.67567771 Ry
     Harris-Foulkes estimate   =  -12823.43686276 Ry
     estimated scf accuracy    <     248.65631588 Ry

     iteration # 10     ecut=    80.00 Ry     beta=0.70
     Davidson diagonalization with overlap
     ethr =  1.00E-02,  avg # of iterations =  1.0

     negative rho (up, down):  2.352E+00 0.000E+00

     total cpu time spent up to now is     5076.1 secs

     total energy              =  -12756.52935199 Ry
     Harris-Foulkes estimate   =  -12812.16296230 Ry
     estimated scf accuracy    <     282.58389539 Ry

     iteration # 11     ecut=    80.00 Ry     beta=0.70
     Davidson diagonalization with overlap
     ethr =  1.00E-02,  avg # of iterations =  2.0

     negative rho (up, down):  1.322E+00 0.000E+00

     total cpu time spent up to now is     5255.2 secs

     total energy              =  -12741.93312912 Ry
     Harris-Foulkes estimate   =  -12766.02270655 Ry
     estimated scf accuracy    <     192.88295907 Ry

     iteration # 12     ecut=    80.00 Ry     beta=0.70
     Davidson diagonalization with overlap
     ethr =  1.00E-02,  avg # of iterations =  2.3

     negative rho (up, down):  2.297E+00 0.000E+00

     total cpu time spent up to now is     5439.4 secs

     total energy              =  -12728.46757151 Ry
     Harris-Foulkes estimate   =  -12754.60164960 Ry
     estimated scf accuracy    <     103.85155470 Ry

     iteration # 13     ecut=    80.00 Ry     beta=0.70
     Davidson diagonalization with overlap
     ethr =  8.01E-03,  avg # of iterations =  3.5

     negative rho (up, down):  3.756E+00 0.000E+00

     total cpu time spent up to now is     5637.3 secs

     total energy              =  -12723.58789380 Ry
     Harris-Foulkes estimate   =  -12734.95720277 Ry
     estimated scf accuracy    <      75.98419400 Ry

     iteration # 14     ecut=    80.00 Ry     beta=0.70
     Davidson diagonalization with overlap
     ethr =  5.86E-03,  avg # of iterations =  2.0

     negative rho (up, down):  6.551E+00 0.000E+00

     total cpu time spent up to now is     5816.5 secs

     total energy              =  -12723.20972045 Ry
     Harris-Foulkes estimate   =  -12730.28056910 Ry
     estimated scf accuracy    <      61.60078602 Ry

     iteration # 15     ecut=    80.00 Ry     beta=0.70
     Davidson diagonalization with overlap
     ethr =  4.75E-03,  avg # of iterations =  1.2

     negative rho (up, down):  4.850E+00 0.000E+00

     total cpu time spent up to now is     5984.5 secs

     total energy              =  -12721.91071324 Ry
     Harris-Foulkes estimate   =  -12725.00230318 Ry
     estimated scf accuracy    <      44.68418619 Ry

     iteration # 16     ecut=    80.00 Ry     beta=0.70
     Davidson diagonalization with overlap
     ethr =  3.45E-03,  avg # of iterations =  1.7

     negative rho (up, down):  4.720E+00 0.000E+00

     total cpu time spent up to now is     6158.0 secs

     total energy              =  -12718.39740347 Ry
     Harris-Foulkes estimate   =  -12722.71080961 Ry
     estimated scf accuracy    <      29.02488954 Ry

     iteration # 17     ecut=    80.00 Ry     beta=0.70
     Davidson diagonalization with overlap
     ethr =  2.24E-03,  avg # of iterations =  4.2

     negative rho (up, down):  4.505E+00 0.000E+00

     total cpu time spent up to now is     6363.2 secs

     total energy              =  -12715.35505988 Ry
     Harris-Foulkes estimate   =  -12719.72240589 Ry
     estimated scf accuracy    <      48.46252509 Ry

     iteration # 18     ecut=    80.00 Ry     beta=0.70
     Davidson diagonalization with overlap
     ethr =  2.24E-03,  avg # of iterations =  2.7

     negative rho (up, down):  3.097E+00 0.000E+00

     total cpu time spent up to now is     6549.6 secs

     total energy              =  -12716.74886577 Ry
     Harris-Foulkes estimate   =  -12719.05146149 Ry
     estimated scf accuracy    <      20.97976909 Ry

     iteration # 19     ecut=    80.00 Ry     beta=0.70
     Davidson diagonalization with overlap
     ethr =  1.62E-03,  avg # of iterations =  2.2

     negative rho (up, down):  2.251E+00 0.000E+00

     total cpu time spent up to now is     6730.9 secs

     total energy              =  -12715.65358744 Ry
     Harris-Foulkes estimate   =  -12717.64461706 Ry
     estimated scf accuracy    <      13.42708955 Ry

     iteration # 20     ecut=    80.00 Ry     beta=0.70
     Davidson diagonalization with overlap
     ethr =  1.04E-03,  avg # of iterations =  5.7

     negative rho (up, down):  2.506E+00 0.000E+00

     total cpu time spent up to now is     6954.4 secs

     total energy              =  -12715.41693960 Ry
     Harris-Foulkes estimate   =  -12716.12876480 Ry
     estimated scf accuracy    <      11.96610441 Ry

     iteration # 21     ecut=    80.00 Ry     beta=0.70
     Davidson diagonalization with overlap
     ethr =  9.23E-04,  avg # of iterations =  2.8

     negative rho (up, down):  1.847E+00 0.000E+00

     total cpu time spent up to now is     7143.2 secs

     total energy              =  -12714.67065913 Ry
     Harris-Foulkes estimate   =  -12715.58312109 Ry
     estimated scf accuracy    <       8.53027491 Ry

     iteration # 22     ecut=    80.00 Ry     beta=0.70
     Davidson diagonalization with overlap
     ethr =  6.58E-04,  avg # of iterations =  1.8

     negative rho (up, down):  1.552E+00 0.000E+00

     total cpu time spent up to now is     7319.1 secs

     total energy              =  -12712.77266494 Ry
     Harris-Foulkes estimate   =  -12714.77188430 Ry
     estimated scf accuracy    <       7.84546920 Ry

     iteration # 23     ecut=    80.00 Ry     beta=0.70
     Davidson diagonalization with overlap
     ethr =  6.05E-04,  avg # of iterations =  2.2

     negative rho (up, down):  7.016E-01 0.000E+00

     total cpu time spent up to now is     7500.1 secs

     total energy              =  -12711.81605078 Ry
     Harris-Foulkes estimate   =  -12712.94242797 Ry
     estimated scf accuracy    <       6.96039162 Ry

     iteration # 24     ecut=    80.00 Ry     beta=0.70
     Davidson diagonalization with overlap
     ethr =  5.37E-04,  avg # of iterations =  3.2

     negative rho (up, down):  1.855E-02 0.000E+00

     total cpu time spent up to now is     7693.9 secs

     total energy              =  -12710.97531790 Ry
     Harris-Foulkes estimate   =  -12711.95099710 Ry
     estimated scf accuracy    <       4.21099934 Ry

     iteration # 25     ecut=    80.00 Ry     beta=0.70
     Davidson diagonalization with overlap
     ethr =  3.25E-04,  avg # of iterations =  6.2

     negative rho (up, down):  4.270E-02 0.000E+00

     total cpu time spent up to now is     7925.0 secs

     total energy              =  -12710.60195447 Ry
     Harris-Foulkes estimate   =  -12711.44794212 Ry
     estimated scf accuracy    <      25.33954401 Ry

     iteration # 26     ecut=    80.00 Ry     beta=0.70
     Davidson diagonalization with overlap
     ethr =  3.25E-04,  avg # of iterations =  1.8

     negative rho (up, down):  9.282E-02 0.000E+00

     total cpu time spent up to now is     8102.6 secs

     total energy              =  -12710.99751834 Ry
     Harris-Foulkes estimate   =  -12711.09787638 Ry
     estimated scf accuracy    <       5.31507654 Ry

     iteration # 27     ecut=    80.00 Ry     beta=0.70
     Davidson diagonalization with overlap
     ethr =  3.25E-04,  avg # of iterations =  2.0

     negative rho (up, down):  4.045E-01 0.000E+00

     total cpu time spent up to now is     8282.1 secs

     total energy              =  -12710.46599052 Ry
     Harris-Foulkes estimate   =  -12711.31676586 Ry
     estimated scf accuracy    <       3.47231237 Ry

     iteration # 28     ecut=    80.00 Ry     beta=0.70
     Davidson diagonalization with overlap
     ethr =  2.68E-04,  avg # of iterations =  6.0

     negative rho (up, down):  9.956E-01 0.000E+00

     total cpu time spent up to now is     8511.5 secs

     total energy              =  -12710.44992162 Ry
     Harris-Foulkes estimate   =  -12710.80425752 Ry
     estimated scf accuracy    <      13.26406408 Ry

     iteration # 29     ecut=    80.00 Ry     beta=0.70
     Davidson diagonalization with overlap
     ethr =  2.68E-04,  avg # of iterations =  8.8

     negative rho (up, down):  5.150E-01 0.000E+00

     total cpu time spent up to now is     8786.3 secs

     total energy              =  -12709.38794749 Ry
     Harris-Foulkes estimate   =  -12710.56478382 Ry
     estimated scf accuracy    <      14.64958504 Ry

     iteration # 30     ecut=    80.00 Ry     beta=0.70
     Davidson diagonalization with overlap
     ethr =  2.68E-04,  avg # of iterations =  9.3

     negative rho (up, down):  4.621E-01 0.000E+00

     total cpu time spent up to now is     9058.2 secs

     total energy              =  -12710.11507188 Ry
     Harris-Foulkes estimate   =  -12710.17981858 Ry
     estimated scf accuracy    <       0.73899501 Ry

     iteration # 31     ecut=    80.00 Ry     beta=0.70
     Davidson diagonalization with overlap
     ethr =  5.70E-05,  avg # of iterations =  4.3

     negative rho (up, down):  7.879E-02 0.000E+00

     total cpu time spent up to now is     9268.4 secs

     total energy              =  -12710.12324440 Ry
     Harris-Foulkes estimate   =  -12710.15342869 Ry
     estimated scf accuracy    <       0.28129741 Ry

     iteration # 32     ecut=    80.00 Ry     beta=0.70
     Davidson diagonalization with overlap
     ethr =  2.17E-05,  avg # of iterations = 11.2

     negative rho (up, down):  1.797E-01 0.000E+00

     total cpu time spent up to now is     9583.8 secs

     total energy              =  -12710.13456348 Ry
     Harris-Foulkes estimate   =  -12710.15145944 Ry
     estimated scf accuracy    <       0.31988864 Ry

     iteration # 33     ecut=    80.00 Ry     beta=0.70
     Davidson diagonalization with overlap
     ethr =  2.17E-05,  avg # of iterations =  7.3

     negative rho (up, down):  8.591E-02 0.000E+00

     total cpu time spent up to now is     9839.2 secs

     total energy              =  -12710.13631225 Ry
     Harris-Foulkes estimate   =  -12710.14733014 Ry
     estimated scf accuracy    <       0.22859831 Ry

     iteration # 34     ecut=    80.00 Ry     beta=0.70
     Davidson diagonalization with overlap
     ethr =  1.76E-05,  avg # of iterations =  7.3

     negative rho (up, down):  4.606E-02 0.000E+00

     total cpu time spent up to now is    10089.6 secs

     total energy              =  -12710.13011778 Ry
     Harris-Foulkes estimate   =  -12710.13945754 Ry
     estimated scf accuracy    <       0.16854268 Ry

     iteration # 35     ecut=    80.00 Ry     beta=0.70
     Davidson diagonalization with overlap
     c_bands:  1 eigenvalues not converged
     ethr =  1.30E-05,  avg # of iterations = 12.0

     negative rho (up, down):  9.247E-02 0.000E+00

     total cpu time spent up to now is    10396.3 secs

     total energy              =  -12710.11811488 Ry
     Harris-Foulkes estimate   =  -12710.13126971 Ry
     estimated scf accuracy    <       0.10379727 Ry

     iteration # 36     ecut=    80.00 Ry     beta=0.70
     Davidson diagonalization with overlap
     ethr =  8.01E-06,  avg # of iterations =  7.7

     negative rho (up, down):  6.554E-02 0.000E+00

     total cpu time spent up to now is    10656.0 secs

     total energy              =  -12710.11991470 Ry
     Harris-Foulkes estimate   =  -12710.12217954 Ry
     estimated scf accuracy    <       0.03663106 Ry

     iteration # 37     ecut=    80.00 Ry     beta=0.70
     Davidson diagonalization with overlap
     ethr =  2.83E-06,  avg # of iterations = 10.0

     negative rho (up, down):  5.797E-02 0.000E+00

     total cpu time spent up to now is    10937.3 secs

     total energy              =  -12710.11926609 Ry
     Harris-Foulkes estimate   =  -12710.12053283 Ry
     estimated scf accuracy    <       0.02149629 Ry

     iteration # 38     ecut=    80.00 Ry     beta=0.70
     Davidson diagonalization with overlap
     ethr =  1.66E-06,  avg # of iterations =  3.2

     negative rho (up, down):  3.004E-02 0.000E+00

     total cpu time spent up to now is    11139.2 secs

     total energy              =  -12710.11654532 Ry
     Harris-Foulkes estimate   =  -12710.11952886 Ry
     estimated scf accuracy    <       0.01166270 Ry

     iteration # 39     ecut=    80.00 Ry     beta=0.70
     Davidson diagonalization with overlap
     c_bands:  1 eigenvalues not converged
     ethr =  9.00E-07,  avg # of iterations = 13.7

     negative rho (up, down):  2.086E-02 0.000E+00

     total cpu time spent up to now is    11489.2 secs

     total energy              =  -12710.11768903 Ry
     Harris-Foulkes estimate   =  -12710.11820815 Ry
     estimated scf accuracy    <       0.00222136 Ry

     iteration # 40     ecut=    80.00 Ry     beta=0.70
     Davidson diagonalization with overlap
     ethr =  1.71E-07,  avg # of iterations =  9.0

     negative rho (up, down):  5.022E-03 0.000E+00

     total cpu time spent up to now is    11756.8 secs

     total energy              =  -12710.11752611 Ry
     Harris-Foulkes estimate   =  -12710.11784772 Ry
     estimated scf accuracy    <       0.00013027 Ry

     iteration # 41     ecut=    80.00 Ry     beta=0.70
     Davidson diagonalization with overlap
     ethr =  1.01E-08,  avg # of iterations = 11.7

     negative rho (up, down):  2.658E-03 0.000E+00

     total cpu time spent up to now is    12133.8 secs

     total energy              =  -12710.11751435 Ry
     Harris-Foulkes estimate   =  -12710.11756030 Ry
     estimated scf accuracy    <       0.00022828 Ry

     iteration # 42     ecut=    80.00 Ry     beta=0.70
     Davidson diagonalization with overlap
     ethr =  1.01E-08,  avg # of iterations =  5.3

     negative rho (up, down):  1.948E-03 0.000E+00

     total cpu time spent up to now is    12356.1 secs

     total energy              =  -12710.11751322 Ry
     Harris-Foulkes estimate   =  -12710.11752143 Ry
     estimated scf accuracy    <       0.00003775 Ry

     iteration # 43     ecut=    80.00 Ry     beta=0.70
     Davidson diagonalization with overlap
     ethr =  2.91E-09,  avg # of iterations =  2.0

     negative rho (up, down):  1.958E-03 0.000E+00

     total cpu time spent up to now is    12546.4 secs

     total energy              =  -12710.11751888 Ry
     Harris-Foulkes estimate   =  -12710.11751768 Ry
     estimated scf accuracy    <       0.00000304 Ry

     iteration # 44     ecut=    80.00 Ry     beta=0.70
     Davidson diagonalization with overlap
     ethr =  2.35E-10,  avg # of iterations =  2.7

     negative rho (up, down):  1.883E-03 0.000E+00

     total cpu time spent up to now is    12742.6 secs

     total energy              =  -12710.11751950 Ry
     Harris-Foulkes estimate   =  -12710.11751903 Ry
     estimated scf accuracy    <       0.00000077 Ry

     iteration # 45     ecut=    80.00 Ry     beta=0.70
     Davidson diagonalization with overlap
     ethr =  5.91E-11,  avg # of iterations =  3.0

     negative rho (up, down):  1.840E-03 0.000E+00

     total cpu time spent up to now is    12957.7 secs

     total energy              =  -12710.11751973 Ry
     Harris-Foulkes estimate   =  -12710.11751966 Ry
     estimated scf accuracy    <       0.00000026 Ry

     iteration # 46     ecut=    80.00 Ry     beta=0.70
     Davidson diagonalization with overlap
     ethr =  2.03E-11,  avg # of iterations =  2.0

     negative rho (up, down):  1.867E-03 0.000E+00

     total cpu time spent up to now is    13143.6 secs

     total energy              =  -12710.11751975 Ry
     Harris-Foulkes estimate   =  -12710.11751975 Ry
     estimated scf accuracy    <       0.00000003 Ry

     iteration # 47     ecut=    80.00 Ry     beta=0.70
     Davidson diagonalization with overlap
     ethr =  2.33E-12,  avg # of iterations =  3.0

     negative rho (up, down):  1.889E-03 0.000E+00

     total cpu time spent up to now is    13352.6 secs

     End of self-consistent calculation

          k = 0.0000 0.0000 0.0000 (256287 PWs)   bands (ev):

   -16.0460 -15.6825 -15.6620 -14.5893 -14.5451 -14.0952 -14.0707 -13.7409
   -13.7293 -13.7258 -13.6785 -12.8075 -12.7468 -12.6793 -12.6535 -12.6296
   -12.6159 -11.0376 -10.9557 -10.9325 -10.9294 -10.7604  -9.7402  -9.2535
    -9.0661  -9.0513  -9.0408  -8.3837  -8.1964  -8.1837  -8.1413  -7.6678
    -7.1858  -7.1543  -7.1401  -7.1080  -7.1030  -7.0760  -7.0333  -6.8823
    -5.6965  -5.5865  -5.5535  -5.5332  -5.5131  -5.4155  -5.3938  -5.3562
    -5.3532  -5.1720  -5.1422  -4.6836  -4.3545  -4.2975  -4.2492  -4.2279
    -4.0370  -3.9574  -3.9027  -3.8161  -3.8022  -3.6777  -3.6369  -3.1542
    -3.1372  -3.1176  -3.1126  -3.0924  -3.0852  -3.0535  -2.9874  -2.9615
    -2.9389  -2.8490  -2.7843  -2.7322  -2.7199  -2.6971  -2.6953  -2.6638
    -2.6440  -2.6234  -2.5166  -2.4412  -2.4373  -2.3939  -2.2935  -2.2815
    -2.2708  -2.2606  -2.2513  -2.1595  -2.0794  -2.0595  -2.0437  -1.9930
    -1.9643  -1.8918  -1.8755  -1.8688  -1.8423  -1.8419  -1.8359  -1.8321
    -1.8128  -1.7307  -1.7260  -1.7154  -1.7092  -1.7008  -1.6986  -1.6038
    -1.5797  -1.5088  -1.4973  -1.4672  -1.4537  -1.4403  -1.4230  -1.4170
    -1.3845  -1.3729  -1.3508  -1.3421  -1.3338  -1.3146  -1.3039  -1.2712
    -1.2580  -1.2464  -1.2421  -1.2332  -1.2313  -1.2160  -1.2042  -1.1970
    -1.1938  -1.1666  -1.1609  -1.1399  -1.1128  -1.0909  -1.0431  -1.0325
    -0.9877  -0.9849  -0.9808  -0.9619  -0.9414  -0.9379  -0.9294  -0.9038
    -0.8950  -0.8896  -0.8756  -0.8687  -0.8495  -0.8381  -0.8254  -0.7880
    -0.7834  -0.7809  -0.7708  -0.7425  -0.7290  -0.7256  -0.7213  -0.7166
    -0.7125  -0.7069  -0.7008  -0.6990  -0.6953  -0.6819  -0.6772  -0.6574
    -0.6476  -0.6391  -0.6265  -0.6213  -0.6102  -0.6051  -0.5964  -0.5823
    -0.5621  -0.5551  -0.5508  -0.5460  -0.5428  -0.5388  -0.5372  -0.5348
    -0.5330  -0.5324  -0.5298  -0.5287  -0.5255  -0.5242  -0.5211  -0.5182
    -0.5122  -0.5097  -0.4814  -0.4557  -0.4528  -0.4317  -0.3878  -0.3851
    -0.3708  -0.3626  -0.3524  -0.3414  -0.3356  -0.3244  -0.3197  -0.3107
    -0.3086  -0.2988  -0.2905  -0.2882  -0.2775  -0.2708  -0.2600  -0.2540
    -0.2483  -0.2421  -0.2376  -0.2342  -0.2265  -0.2124  -0.1924  -0.1809
    -0.1774  -0.1687  -0.1371  -0.1262  -0.1192  -0.1158  -0.1102  -0.1061
    -0.0925  -0.0891  -0.0888  -0.0864  -0.0851  -0.0813  -0.0794  -0.0723
    -0.0691  -0.0667  -0.0627  -0.0607  -0.0438  -0.0372  -0.0296  -0.0264
    -0.0170   0.0124   0.0218   0.0246   0.0259   0.0304   0.0495   0.0559
     0.0569   0.0587   0.0637   0.0641   0.0656   0.0736   0.0784   0.0865
     0.0904   0.0952   0.1023   0.1072   0.1095   0.1106   0.1139   0.1203
     0.1242   0.1261   0.1292   0.1386   0.1397   0.1499   0.1812   0.1830
     0.1954   0.1999   0.2101   0.2202   0.2297   0.2406   0.2500   0.2538
     0.2550   0.2606   0.2629   0.2671   0.2696   0.2731   0.2957   0.3102
     0.3153   0.3199   0.3258   0.3325   0.3386   0.3401   0.3427   0.3437
     0.3474   0.3512   0.3561   0.3654   0.3665   0.3702   0.3741   0.3777
     0.3802   0.3846   0.3857   0.3900   0.3974   0.4085   0.4151   0.4244
     0.4265   0.4373   0.4431   0.4529   0.4565   0.4618   0.4778   0.4886
     0.4993   0.5082   0.5177   0.5337   0.5367   0.5458   0.5496   0.5610
     0.5631   0.5704   0.5755   0.5794   0.5828   0.5864   0.5961   0.6011
     0.6135   0.6313   0.6447   0.6486   0.6532   0.6639   0.6674   0.6686
     0.6785   0.6872   0.6935   0.7008   0.7059   0.7083   0.7190   0.7210
     0.7316   0.7358   0.7384   0.7424   0.7560   0.7608   0.7663   0.7768
     0.7869   0.7954   0.8031   0.8078   0.8181   0.8217   0.8257   0.8279
     0.8333   0.8342   0.8403   0.8455   0.8471   0.8572   0.8618   0.8651
     0.8690   0.8736   0.8754   0.8803   0.8811   0.8861   0.8870   0.8966
     0.9022   0.9100   0.9211   0.9274   0.9289   0.9382   0.9461   0.9522
     0.9618   0.9662   0.9700   0.9745   0.9765   0.9823   0.9848   0.9881
     0.9972   0.9988   1.0045   1.0088   1.0124   1.0134   1.0159   1.0253
     1.0269   1.0294   1.0335   1.0405   1.0440   1.0468   1.0587   1.0642
     1.0693   1.0721   1.0729   1.0744   1.0750   1.0786   1.0810   1.0851
     1.0976   1.1066   1.1247   1.1292   1.1303   1.1340   1.1405   1.1434
     1.1458   1.1510   1.1539   1.1595   1.1688   1.1749   1.1824   1.1936
     1.2035   1.2050   1.2092   1.2123   1.2169   1.2247   1.2277   1.2312
     1.2387   1.2472   1.2489   1.2562   1.2611   1.2654   1.2677   1.2712
     1.2739   1.2777   1.2894   1.2961   1.3011   1.3036   1.3084   1.3107
     1.3188   1.3238   1.3264   1.3321   1.3331   1.3383   1.3414   1.3440
     1.3524   1.3558   1.3567   1.3577   1.3606   1.3628   1.3689   1.3729
     1.3760   1.3808   1.3944   1.3986   1.4048   1.4119   1.4145   1.4221
     1.4271   1.4292   1.4346   1.4375   1.4420   1.4431   1.4444   1.4451
     1.4499   1.4541   1.4587   1.4625   1.4736   1.4884   1.4963   1.5044
     1.5080   1.5107   1.5114   1.5220   1.5244   1.5255   1.5318   1.5384
     1.5417   1.5461   1.5494   1.5497   1.5549   1.5560   1.5599   1.5665
     1.5678   1.5736   1.5753   1.5838   1.5877   1.5917   1.5933   1.5969
     1.5992   1.6037   1.6102   1.6152   1.6175   1.6215   1.6221   1.6266
     1.6328   1.6364   1.6374   1.6413   1.6419   1.6471   1.6499   1.6526
     1.6641   1.6696   1.6764   1.6812   1.6860   1.6909   1.6926   1.6951
     1.6995   1.7105   1.7126   1.7143   1.7197   1.7280   1.7287   1.7379
     1.7418   1.7440   1.7457   1.7461   1.7493   1.7534   1.7555   1.7582
     1.7607   1.7612   1.7640   1.7666   1.7678   1.7721   1.7758   1.7853
     1.7868   1.7875   1.7908   1.8000   1.8019   1.8156   1.8276   1.8388
     1.8412   1.8458   1.8538   1.8585   1.8636   1.8727   1.8801   1.8917
     1.8946   1.9066   1.9088   1.9345   1.9347   1.9423   1.9486   1.9560
     1.9579   1.9682   1.9702   1.9715   2.1673   2.1828   2.2817   2.3412
     2.4409   2.4551   2.4616   2.4948   2.5065   2.5160   2.5312   2.5325
     2.5401   2.5440   2.5683   2.6122   2.6885   2.6936   2.7405   2.7521
     2.7814   2.7848   2.7978   2.9021   3.0033   3.0222   3.0341   3.2813
     3.3504   3.3706   3.4416   3.5018   3.6250   3.7919   3.9076   3.9194
     4.1279   4.1504   4.1608   4.1715   4.1881   4.2024   4.2622   4.2826
     4.3089   4.3181   4.3227   4.3236   4.3332   4.4045   4.4308   4.5067
     4.5256   4.5663   4.6367   4.7179   4.9178   5.1254   5.1718   5.3215
     5.3371   5.4840   5.5484   5.6337   5.7005   5.7647   5.8915   6.0061
     6.0237   6.1662   6.2453   6.2651   6.2922   6.4681   6.6579   6.7029
     6.7520   6.7682   6.7711   6.8056   6.8533   6.9479   6.9636   7.0550
     7.0803   7.1139   7.1348   7.1608   7.2058   7.2465   7.3030   7.3479
     7.3856   7.3940   7.4117   7.6300   7.6560   7.6749   7.7288   7.8358
     7.8734   7.9084   7.9181   7.9753   7.9886   7.9966   8.0559   8.1139
     8.2378   8.3281   8.4556   8.5016   8.5116   8.5279   8.5641   8.6092
     8.6493   8.6555   8.6780   8.6973   8.7403   8.8175   8.8225   8.8756
     8.8775   8.9305   8.9393   8.9628   8.9843   9.0201   9.0844   9.0920
     9.1658   9.2605   9.3087   9.3133   9.3344   9.3551   9.3736   9.3987
     9.4021   9.4141   9.4257   9.4944   9.5628   9.6465   9.7078   9.8150
     9.8449   9.8987   9.9366  10.0698  10.0769  10.0817  10.0902  10.1600
    10.2744  10.3432

          k = 0.0000-0.2165 0.0000 (256176 PWs)   bands (ev):

   -15.9678 -15.9359 -15.2303 -15.1890 -14.0232 -14.0026 -13.9921 -13.9522
   -13.7736 -13.7210 -13.3161 -13.2761 -13.2509 -13.2325 -11.9430 -11.8758
   -11.8505 -11.8326 -11.6641 -11.6305 -10.0726  -9.9594  -9.9426  -9.9400
    -8.8800  -8.6836  -8.6492  -8.5602  -8.5224  -8.5178  -7.9848  -7.7234
    -7.7059  -7.6859  -7.3104  -6.5537  -6.5386  -6.5011  -6.4965  -6.3982
    -6.3621  -6.3354  -6.3158  -5.5907  -5.5699  -5.5412  -5.5115  -4.7655
    -4.7487  -4.7243  -4.6973  -4.6487  -4.5511  -4.5246  -4.4102  -4.2069
    -4.1792  -4.1700  -4.1485  -4.1376  -4.0977  -3.7046  -3.5058  -3.3901
    -3.2445  -3.0289  -2.9906  -2.9878  -2.9642  -2.9143  -2.8778  -2.8644
    -2.7570  -2.7364  -2.7125  -2.6640  -2.6363  -2.6072  -2.5983  -2.5048
    -2.4680  -2.4405  -2.4252  -2.4198  -2.3636  -2.3394  -2.2809  -2.2729
    -2.2693  -2.2692  -2.2603  -2.2495  -2.2392  -2.1576  -2.1485  -2.1289
    -1.9823  -1.9634  -1.9400  -1.9298  -1.9285  -1.8743  -1.8584  -1.8451
    -1.8331  -1.8212  -1.7758  -1.7551  -1.6716  -1.6676  -1.6498  -1.6454
    -1.6378  -1.5663  -1.5473  -1.5311  -1.4871  -1.4734  -1.4487  -1.4420
    -1.4325  -1.4285  -1.4265  -1.4215  -1.4060  -1.3950  -1.3705  -1.3283
    -1.3201  -1.2987  -1.2638  -1.2292  -1.2151  -1.1738  -1.1613  -1.1489
    -1.1260  -1.1238  -1.0744  -1.0519  -1.0425  -1.0010  -0.9916  -0.9731
    -0.9626  -0.9588  -0.9544  -0.9512  -0.9480  -0.9368  -0.9348  -0.9247
    -0.9200  -0.9095  -0.9053  -0.9047  -0.8966  -0.8799  -0.8662  -0.8567
    -0.8524  -0.8465  -0.8286  -0.8183  -0.7772  -0.7693  -0.7660  -0.7350
    -0.7318  -0.7297  -0.7242  -0.6933  -0.6892  -0.6754  -0.6712  -0.6610
    -0.6602  -0.6563  -0.6390  -0.6179  -0.6119  -0.6058  -0.6017  -0.6002
    -0.5947  -0.5899  -0.5808  -0.5797  -0.5628  -0.5462  -0.5425  -0.5221
    -0.5166  -0.5025  -0.4985  -0.4944  -0.4885  -0.4855  -0.4813  -0.4625
    -0.4518  -0.4395  -0.4323  -0.4311  -0.4299  -0.3784  -0.3446  -0.3353
    -0.3313  -0.3301  -0.3156  -0.3128  -0.3117  -0.3055  -0.2916  -0.2863
    -0.2841  -0.2821  -0.2793  -0.2676  -0.2591  -0.2460  -0.2405  -0.2335
    -0.2222  -0.2198  -0.2156  -0.2119  -0.2065  -0.1861  -0.1797  -0.1770
    -0.1722  -0.1684  -0.1679  -0.1477  -0.1349  -0.1280  -0.1225  -0.1182
    -0.1140  -0.1126  -0.1023  -0.0867  -0.0738  -0.0569  -0.0458  -0.0404
    -0.0345  -0.0215  -0.0144  -0.0062   0.0085   0.0117   0.0221   0.0250
     0.0275   0.0311   0.0324   0.0337   0.0413   0.0510   0.0529   0.0579
     0.0582   0.0639   0.0703   0.0726   0.0801   0.0804   0.0838   0.0868
     0.0919   0.0978   0.1077   0.1156   0.1209   0.1233   0.1332   0.1397
     0.1469   0.1643   0.1697   0.1794   0.1824   0.1851   0.1888   0.1918
     0.2023   0.2078   0.2140   0.2221   0.2314   0.2326   0.2367   0.2426
     0.2439   0.2486   0.2516   0.2527   0.2627   0.2711   0.2733   0.2883
     0.2912   0.2953   0.3075   0.3110   0.3149   0.3184   0.3197   0.3270
     0.3331   0.3352   0.3424   0.3456   0.3526   0.3544   0.3576   0.3692
     0.3735   0.3840   0.3887   0.3938   0.3955   0.3994   0.4114   0.4147
     0.4190   0.4256   0.4367   0.4404   0.4430   0.4471   0.4510   0.4537
     0.4630   0.4742   0.4869   0.5018   0.5093   0.5094   0.5235   0.5247
     0.5255   0.5330   0.5408   0.5546   0.5680   0.5779   0.5830   0.5963
     0.6162   0.6228   0.6332   0.6355   0.6523   0.6737   0.6852   0.6977
     0.7024   0.7108   0.7122   0.7249   0.7261   0.7328   0.7407   0.7419
     0.7491   0.7589   0.7680   0.7736   0.7758   0.7802   0.7865   0.7883
     0.7924   0.7933   0.7971   0.8009   0.8030   0.8090   0.8169   0.8322
     0.8350   0.8434   0.8448   0.8483   0.8496   0.8566   0.8606   0.8608
     0.8615   0.8650   0.8709   0.8762   0.8773   0.8780   0.8839   0.8862
     0.8887   0.8963   0.9026   0.9031   0.9074   0.9096   0.9140   0.9144
     0.9199   0.9221   0.9367   0.9396   0.9606   0.9614   0.9657   0.9767
     0.9813   0.9839   0.9852   0.9930   0.9962   0.9976   1.0009   1.0028
     1.0073   1.0083   1.0129   1.0155   1.0274   1.0400   1.0437   1.0493
     1.0509   1.0583   1.0593   1.0685   1.0751   1.0786   1.0810   1.0828
     1.0956   1.0986   1.1032   1.1053   1.1283   1.1383   1.1457   1.1518
     1.1671   1.1730   1.1757   1.1896   1.2009   1.2067   1.2129   1.2177
     1.2192   1.2212   1.2289   1.2337   1.2382   1.2412   1.2427   1.2487
     1.2505   1.2590   1.2619   1.2630   1.2659   1.2678   1.2749   1.2798
     1.2848   1.2895   1.2903   1.2915   1.2930   1.2963   1.2980   1.3063
     1.3072   1.3092   1.3124   1.3131   1.3144   1.3165   1.3193   1.3267
     1.3318   1.3341   1.3404   1.3449   1.3461   1.3494   1.3525   1.3539
     1.3619   1.3659   1.3692   1.3769   1.3852   1.3974   1.4070   1.4103
     1.4136   1.4227   1.4308   1.4440   1.4476   1.4521   1.4577   1.4617
     1.4692   1.4749   1.4881   1.4886   1.4902   1.4988   1.5032   1.5091
     1.5119   1.5156   1.5178   1.5211   1.5234   1.5253   1.5260   1.5294
     1.5316   1.5330   1.5390   1.5446   1.5449   1.5481   1.5523   1.5530
     1.5544   1.5568   1.5686   1.5765   1.5877   1.5896   1.5925   1.5942
     1.5964   1.6032   1.6089   1.6125   1.6149   1.6161   1.6177   1.6230
     1.6242   1.6303   1.6356   1.6392   1.6406   1.6450   1.6476   1.6588
     1.6658   1.6686   1.6734   1.6764   1.6838   1.6916   1.6940   1.6964
     1.6995   1.7023   1.7073   1.7118   1.7161   1.7198   1.7210   1.7378
     1.7404   1.7486   1.7509   1.7533   1.7638   1.7665   1.7683   1.7697
     1.7729   1.7751   1.7781   1.7797   1.7830   1.8013   1.8027   1.8122
     1.8130   1.8194   1.8226   1.8256   1.8275   1.8369   1.8434   1.8465
     1.8489   1.8543   1.8630   1.8686   1.8723   1.8802   1.8907   1.9082
     1.9123   1.9664   1.9802   2.0237   2.0247   2.0327   2.0407   2.0493
     2.0711   2.0770   2.0904   2.1025   2.1178   2.1258   2.1327   2.1374
     2.1438   2.1774   2.1799   2.3917   2.4351   2.4593   2.5006   2.5840
     2.6558   2.7394   2.7428   2.7678   2.8234   2.8339   2.8679   2.8775
     2.8974   2.9014   2.9583   2.9820   3.0179   3.0264   3.0832   3.0918
     3.2358   3.2432   3.2573   3.4133   3.4441   3.4837   3.4840   3.5948
     3.7113   3.7369   3.7660   3.9493   4.1731   4.1931   4.3416   4.3864
     4.4130   4.4302   4.4738   4.5172   4.5662   4.6387   4.6498   4.7451
     4.8629   4.8896   4.9948   5.0340   5.0839   5.1463   5.2453   5.4147
     5.4277   5.4998   5.6078   5.6679   5.6711   5.6782   5.7144   5.7446
     5.9541   6.0144   6.0404   6.1727   6.2301   6.3025   6.3797   6.6837
     6.6917   6.7314   6.7401   6.7736   6.8809   6.9068   6.9818   7.0436
     7.0890   7.1223   7.1681   7.3389   7.3521   7.3590   7.3751   7.4130
     7.4235   7.4415   7.4438   7.4672   7.5162   7.5431   7.5714   7.6068
     7.6747   7.7091   7.7538   7.8814   8.0711   8.1042   8.1137   8.1311
     8.1918   8.3489   8.4132   8.4943   8.5152   8.5407   8.5493   8.6296
     8.6697   8.7096   8.7272   8.7546   8.8525   8.8879   8.9090   8.9331
     8.9623   9.0286   9.0394   9.0574   9.0686   9.1507   9.1670   9.1767
     9.2077   9.2223   9.2669   9.3168   9.3902   9.4746   9.5435   9.5519
     9.5870   9.6195   9.6732   9.6795   9.7061   9.7339   9.7417   9.7790
     9.8147   9.9031   9.9232   9.9336   9.9417  10.0887  10.0992  10.1848
    10.2071  10.2168

          k = 0.2500 0.0000 0.0000 (256240 PWs)   bands (ev):

   -15.9218 -15.5589 -15.5388 -14.9349 -14.5784 -14.5595 -14.4611 -14.4221
   -13.5025 -13.4597 -13.0067 -12.6947 -12.6552 -12.6319 -12.6201 -11.7634
   -11.7115 -11.6339 -11.6023 -10.6689 -10.3643 -10.3248 -10.3202  -9.8322
    -9.6318  -9.3931  -9.3083  -8.9500  -8.7504  -8.6684  -8.2057  -7.7218
    -7.1269  -7.1206  -7.0788  -7.0446  -6.9679  -6.8302  -6.5144  -6.2470
    -5.6889  -5.5269  -5.5004  -5.4860  -5.4654  -5.4360  -4.9998  -4.9795
    -4.7663  -4.7228  -4.5294  -4.2562  -4.1998  -4.1481  -4.1327  -3.9719
    -3.9635  -3.9323  -3.9197  -3.8844  -3.7043  -3.6876  -3.6593  -3.6411
    -3.5382  -3.5282  -3.4760  -3.3031  -3.2257  -3.1868  -3.1640  -3.1361
    -3.1250  -3.1034  -3.0313  -3.0109  -2.9798  -2.9173  -2.8688  -2.8332
    -2.7656  -2.6920  -2.6464  -2.5876  -2.5525  -2.4879  -2.4812  -2.4386
    -2.3889  -2.3183  -2.2282  -2.1116  -2.0718  -2.0520  -2.0386  -1.9803
    -1.8817  -1.8007  -1.7854  -1.7728  -1.7677  -1.7387  -1.6874  -1.6719
    -1.6389  -1.5884  -1.5725  -1.5252  -1.5059  -1.4905  -1.4846  -1.4783
    -1.4777  -1.4733  -1.4539  -1.4221  -1.4186  -1.4093  -1.3818  -1.3644
    -1.3430  -1.3264  -1.2917  -1.2814  -1.2773  -1.2680  -1.2654  -1.2600
    -1.2549  -1.2339  -1.2229  -1.2127  -1.1921  -1.1857  -1.1775  -1.1739
    -1.1662  -1.1087  -1.0564  -1.0486  -1.0255  -1.0044  -0.9907  -0.9754
    -0.9407  -0.9307  -0.9229  -0.9202  -0.9145  -0.9030  -0.8953  -0.8910
    -0.8757  -0.8677  -0.8629  -0.8519  -0.8437  -0.8396  -0.8310  -0.8146
    -0.8109  -0.8069  -0.7946  -0.7893  -0.7827  -0.7786  -0.7648  -0.7572
    -0.7402  -0.7320  -0.7290  -0.7250  -0.7060  -0.7021  -0.6967  -0.6956
    -0.6871  -0.6856  -0.6687  -0.6669  -0.6632  -0.6626  -0.6599  -0.6569
    -0.6511  -0.6443  -0.6405  -0.6281  -0.6183  -0.6133  -0.6107  -0.5957
    -0.5868  -0.5803  -0.5434  -0.5420  -0.5309  -0.5136  -0.5015  -0.4982
    -0.4900  -0.4799  -0.4769  -0.4700  -0.4526  -0.4513  -0.4411  -0.4374
    -0.4341  -0.4271  -0.4243  -0.4206  -0.3821  -0.3227  -0.2985  -0.2912
    -0.2801  -0.2719  -0.2639  -0.2539  -0.2490  -0.2443  -0.2381  -0.2302
    -0.2258  -0.2174  -0.2117  -0.2095  -0.2059  -0.2001  -0.1911  -0.1850
    -0.1773  -0.1717  -0.1631  -0.1589  -0.1483  -0.1410  -0.1358  -0.1295
    -0.1095  -0.0900  -0.0827  -0.0817  -0.0793  -0.0713  -0.0669  -0.0626
    -0.0582  -0.0533  -0.0443  -0.0397  -0.0314  -0.0192  -0.0113  -0.0055
     0.0096   0.0131   0.0206   0.0227   0.0274   0.0300   0.0367   0.0432
     0.0496   0.0556   0.0657   0.0712   0.0780   0.0833   0.0917   0.1071
     0.1103   0.1130   0.1213   0.1240   0.1303   0.1343   0.1370   0.1464
     0.1573   0.1687   0.1715   0.1784   0.1840   0.1902   0.1943   0.2043
     0.2109   0.2191   0.2283   0.2403   0.2515   0.2534   0.2569   0.2691
     0.2735   0.2776   0.2911   0.2955   0.3034   0.3074   0.3112   0.3127
     0.3200   0.3211   0.3258   0.3283   0.3362   0.3384   0.3450   0.3463
     0.3516   0.3554   0.3595   0.3664   0.3686   0.3791   0.3830   0.3888
     0.3936   0.3986   0.4068   0.4164   0.4252   0.4292   0.4320   0.4383
     0.4425   0.4525   0.4571   0.4624   0.4651   0.4734   0.4840   0.4881
     0.4969   0.5060   0.5203   0.5366   0.5486   0.5640   0.5715   0.5854
     0.5892   0.5926   0.5958   0.5989   0.6029   0.6050   0.6086   0.6104
     0.6120   0.6161   0.6180   0.6222   0.6280   0.6325   0.6333   0.6414
     0.6453   0.6515   0.6553   0.6577   0.6611   0.6642   0.6709   0.6982
     0.7052   0.7089   0.7126   0.7244   0.7306   0.7338   0.7434   0.7473
     0.7541   0.7603   0.7672   0.7732   0.7795   0.7887   0.7963   0.7985
     0.8028   0.8060   0.8112   0.8139   0.8158   0.8218   0.8246   0.8341
     0.8461   0.8488   0.8512   0.8596   0.8627   0.8684   0.8704   0.8760
     0.8777   0.8860   0.8904   0.8978   0.9016   0.9094   0.9156   0.9215
     0.9245   0.9258   0.9341   0.9358   0.9402   0.9459   0.9525   0.9615
     0.9651   0.9678   0.9800   0.9815   0.9852   0.9900   0.9946   0.9987
     1.0050   1.0181   1.0243   1.0292   1.0427   1.0493   1.0555   1.0602
     1.0631   1.0676   1.0692   1.0766   1.0815   1.0901   1.0940   1.0969
     1.0996   1.1033   1.1101   1.1134   1.1148   1.1315   1.1361   1.1413
     1.1448   1.1587   1.1684   1.1740   1.1806   1.1871   1.1947   1.1989
     1.2013   1.2050   1.2085   1.2136   1.2156   1.2198   1.2230   1.2281
     1.2312   1.2360   1.2415   1.2480   1.2515   1.2618   1.2686   1.2740
     1.2800   1.2859   1.2906   1.2972   1.3014   1.3042   1.3079   1.3130
     1.3161   1.3203   1.3220   1.3287   1.3337   1.3366   1.3415   1.3433
     1.3444   1.3462   1.3529   1.3538   1.3595   1.3622   1.3630   1.3732
     1.3757   1.3785   1.3871   1.3893   1.3914   1.3931   1.3941   1.4000
     1.4049   1.4096   1.4138   1.4215   1.4236   1.4272   1.4333   1.4404
     1.4460   1.4521   1.4537   1.4597   1.4625   1.4680   1.4730   1.4766
     1.4850   1.4890   1.4935   1.5047   1.5072   1.5091   1.5127   1.5240
     1.5355   1.5371   1.5548   1.5557   1.5604   1.5618   1.5678   1.5703
     1.5717   1.5764   1.5801   1.5861   1.5892   1.5931   1.5992   1.6018
     1.6029   1.6044   1.6100   1.6147   1.6187   1.6203   1.6261   1.6282
     1.6314   1.6357   1.6389   1.6418   1.6442   1.6487   1.6524   1.6566
     1.6625   1.6672   1.6749   1.6776   1.6785   1.6829   1.6843   1.6862
     1.6928   1.6944   1.7048   1.7061   1.7119   1.7162   1.7196   1.7326
     1.7378   1.7418   1.7442   1.7465   1.7467   1.7520   1.7550   1.7575
     1.7624   1.7639   1.7662   1.7682   1.7699   1.7742   1.7830   1.7871
     1.7892   1.7922   1.7952   1.8027   1.8050   1.8097   1.8103   1.8202
     1.8262   1.8303   1.8329   1.8346   1.8381   1.8456   1.8690   1.8737
     1.8804   1.9019   1.9055   1.9194   1.9420   1.9477   1.9499   1.9635
     1.9901   1.9988   2.0519   2.0609   2.0733   2.0771   2.1066   2.1143
     2.1624   2.2124   2.3033   2.3204   2.3521   2.3818   2.3971   2.4147
     2.4510   2.5271   2.5446   2.7705   2.7795   2.8499   2.8779   3.0668
     3.1923   3.2722   3.2936   3.3180   3.4232   3.4962   3.5121   3.5388
     3.5404   3.5785   3.6210   3.7591   3.7971   3.8758   3.9170   3.9421
     3.9770   3.9832   4.0270   4.0488   4.0614   4.1316   4.1976   4.2412
     4.3327   4.4081   4.4407   4.4896   4.5023   4.6098   4.7107   4.7860
     4.9371   4.9577   5.0832   5.1371   5.1843   5.3056   5.4108   5.5006
     5.5439   5.5531   5.6289   5.7017   5.7592   5.7774   5.8188   5.8648
     5.8782   5.9102   5.9678   6.0003   6.0470   6.0759   6.0892   6.1391
     6.2240   6.2993   6.3180   6.3710   6.4181   6.4682   6.7028   6.9594
     7.0035   7.0520   7.0691   7.0960   7.1227   7.1536   7.1733   7.2419
     7.2729   7.3353   7.3604   7.3789   7.3996   7.5330   7.5717   7.5848
     7.6252   7.7303   7.7542   7.8178   7.8347   7.8843   7.9756   8.0181
     8.0731   8.0779   8.1293   8.1622   8.1831   8.2994   8.3435   8.3587
     8.3904   8.4070   8.5345   8.5910   8.6306   8.6434   8.6668   8.6872
     8.6888   8.7259   8.8211   8.9083   8.9240   8.9815   8.9968   9.0649
     9.2064   9.2440   9.3651   9.4020   9.4521   9.4599   9.4642   9.4765
     9.4854   9.4996   9.5258   9.5414   9.5482   9.5563   9.5596   9.6145
     9.6716   9.7194   9.7852   9.7972   9.8146   9.9869  10.0134  10.0771
    10.0798  10.1085

          k = 0.2500-0.2165 0.0000 (256316 PWs)   bands (ev):

   -15.8438 -15.8120 -15.1087 -15.0670 -14.8561 -14.8252 -14.1329 -14.0907
   -13.6556 -13.6014 -12.9340 -12.9036 -12.7083 -12.6515 -12.2365 -12.1948
   -11.5641 -11.5204 -10.9557 -10.8984 -10.6877 -10.6404 -10.2883 -10.2759
    -9.2911  -9.1973  -8.8161  -8.6843  -8.6478  -8.5691  -8.2092  -8.0288
    -7.9912  -7.9436  -7.4087  -6.2420  -6.2156  -6.1881  -6.1683  -6.0930
    -6.0438  -5.8699  -5.8176  -5.5334  -5.4985  -5.3918  -5.3538  -4.7541
    -4.7168  -4.4899  -4.4185  -4.3995  -4.3842  -4.3574  -4.2864  -4.0781
    -4.0325  -4.0007  -3.9722  -3.7944  -3.7585  -3.7241  -3.7124  -3.5361
    -3.5064  -3.4121  -3.3893  -3.3000  -3.2477  -3.1648  -3.1537  -3.1439
    -3.1024  -3.0855  -3.0628  -2.9392  -2.8274  -2.7839  -2.7725  -2.6635
    -2.6491  -2.6329  -2.6151  -2.6024  -2.5860  -2.5245  -2.4608  -2.4221
    -2.3692  -2.2804  -2.2042  -2.1650  -2.0996  -2.0127  -1.9961  -1.9795
    -1.9370  -1.8734  -1.8593  -1.8531  -1.8201  -1.7962  -1.7048  -1.6957
    -1.6660  -1.6496  -1.6199  -1.5581  -1.5217  -1.5142  -1.5001  -1.4981
    -1.4732  -1.4504  -1.4360  -1.4188  -1.4031  -1.3963  -1.3869  -1.3814
    -1.3764  -1.3642  -1.3603  -1.3583  -1.3565  -1.3465  -1.3420  -1.3226
    -1.2971  -1.2700  -1.2603  -1.1900  -1.1749  -1.1501  -1.1084  -1.0803
    -1.0455  -1.0268  -1.0109  -1.0040  -0.9625  -0.9602  -0.9551  -0.9497
    -0.9464  -0.9386  -0.9358  -0.9317  -0.9235  -0.9141  -0.9120  -0.9085
    -0.8984  -0.8910  -0.8884  -0.8828  -0.8763  -0.8665  -0.8591  -0.8537
    -0.8142  -0.8126  -0.8053  -0.8026  -0.7971  -0.7951  -0.7912  -0.7853
    -0.7798  -0.7626  -0.7498  -0.7284  -0.7257  -0.7182  -0.7111  -0.7050
    -0.6993  -0.6808  -0.6779  -0.6684  -0.6616  -0.6497  -0.6429  -0.6401
    -0.6356  -0.6331  -0.6177  -0.6084  -0.6011  -0.5949  -0.5868  -0.5587
    -0.5487  -0.5430  -0.5410  -0.5274  -0.5144  -0.4883  -0.4729  -0.4659
    -0.4564  -0.4524  -0.4499  -0.4443  -0.4152  -0.4057  -0.3970  -0.3930
    -0.3913  -0.3828  -0.3764  -0.3685  -0.3556  -0.3397  -0.3348  -0.3235
    -0.3087  -0.3027  -0.2900  -0.2798  -0.2647  -0.2560  -0.2469  -0.2444
    -0.2375  -0.2305  -0.2202  -0.2103  -0.2038  -0.1955  -0.1856  -0.1720
    -0.1674  -0.1613  -0.1565  -0.1492  -0.1440  -0.1336  -0.1290  -0.1159
    -0.1081  -0.1002  -0.0917  -0.0816  -0.0777  -0.0753  -0.0615  -0.0595
    -0.0514  -0.0491  -0.0453  -0.0424  -0.0393  -0.0379  -0.0308  -0.0267
    -0.0231  -0.0127  -0.0105   0.0061   0.0108   0.0251   0.0315   0.0438
     0.0488   0.0513   0.0606   0.0642   0.0746   0.0825   0.0868   0.0949
     0.1029   0.1077   0.1102   0.1191   0.1273   0.1364   0.1632   0.1700
     0.1749   0.1879   0.1941   0.2009   0.2075   0.2159   0.2169   0.2273
     0.2292   0.2344   0.2425   0.2463   0.2536   0.2560   0.2610   0.2681
     0.2715   0.2766   0.2839   0.2866   0.2937   0.3018   0.3066   0.3097
     0.3141   0.3164   0.3190   0.3204   0.3234   0.3282   0.3317   0.3359
     0.3385   0.3465   0.3539   0.3559   0.3655   0.3712   0.3799   0.3856
     0.3951   0.3971   0.4056   0.4081   0.4197   0.4349   0.4432   0.4496
     0.4537   0.4585   0.4600   0.4645   0.4701   0.4722   0.4762   0.4825
     0.4875   0.4968   0.5010   0.5109   0.5135   0.5372   0.5451   0.5599
     0.5684   0.5886   0.5966   0.6014   0.6066   0.6087   0.6101   0.6120
     0.6151   0.6213   0.6251   0.6327   0.6373   0.6421   0.6457   0.6471
     0.6487   0.6553   0.6576   0.6654   0.6716   0.6772   0.6875   0.7006
     0.7090   0.7158   0.7206   0.7277   0.7303   0.7387   0.7424   0.7594
     0.7713   0.7730   0.7773   0.7789   0.7874   0.7906   0.7930   0.7963
     0.7988   0.8029   0.8080   0.8105   0.8195   0.8274   0.8287   0.8436
     0.8478   0.8522   0.8574   0.8745   0.8812   0.8869   0.8926   0.8957
     0.9003   0.9069   0.9135   0.9216   0.9267   0.9288   0.9339   0.9405
     0.9427   0.9452   0.9482   0.9548   0.9595   0.9615   0.9725   0.9734
     0.9778   0.9849   0.9888   0.9907   0.9935   0.9961   0.9996   1.0028
     1.0062   1.0094   1.0114   1.0136   1.0232   1.0259   1.0274   1.0333
     1.0347   1.0398   1.0438   1.0459   1.0549   1.0646   1.0799   1.0831
     1.0899   1.0910   1.1030   1.1107   1.1215   1.1258   1.1356   1.1405
     1.1415   1.1476   1.1518   1.1549   1.1620   1.1656   1.1701   1.1753
     1.1778   1.1782   1.1824   1.1902   1.1919   1.1959   1.2051   1.2080
     1.2130   1.2235   1.2266   1.2358   1.2426   1.2454   1.2516   1.2571
     1.2642   1.2657   1.2761   1.2788   1.2888   1.2915   1.2953   1.2997
     1.3015   1.3083   1.3139   1.3161   1.3235   1.3366   1.3435   1.3474
     1.3532   1.3600   1.3685   1.3776   1.3845   1.3891   1.3952   1.4016
     1.4043   1.4065   1.4104   1.4114   1.4135   1.4151   1.4167   1.4204
     1.4225   1.4296   1.4331   1.4394   1.4440   1.4473   1.4520   1.4638
     1.4671   1.4769   1.4844   1.4883   1.4914   1.4928   1.4990   1.5014
     1.5032   1.5069   1.5108   1.5134   1.5157   1.5176   1.5187   1.5219
     1.5254   1.5275   1.5311   1.5334   1.5361   1.5372   1.5396   1.5450
     1.5539   1.5576   1.5671   1.5689   1.5778   1.5899   1.5923   1.5961
     1.6034   1.6064   1.6084   1.6103   1.6137   1.6197   1.6223   1.6301
     1.6340   1.6373   1.6431   1.6468   1.6486   1.6544   1.6571   1.6597
     1.6672   1.6693   1.6736   1.6757   1.6816   1.6889   1.6939   1.6977
     1.7033   1.7047   1.7068   1.7094   1.7131   1.7149   1.7160   1.7207
     1.7235   1.7292   1.7340   1.7362   1.7392   1.7483   1.7517   1.7564
     1.7578   1.7607   1.7631   1.7638   1.7641   1.7659   1.7704   1.7750
     1.7774   1.7806   1.8033   1.8038   1.8108   1.8152   1.8192   1.8197
     1.8270   1.8325   1.8397   1.8485   1.8494   1.8635   1.8701   1.8758
     1.8825   1.8920   1.8993   1.9071   1.9277   1.9560   1.9665   1.9725
     2.0007   2.0525   2.0735   2.0759   2.0816   2.0849   2.0900   2.1014
     2.1091   2.1274   2.1351   2.1576   2.3839   2.4402   2.4540   2.4704
     2.5048   2.6051   2.7231   2.7782   2.8980   2.9070   3.0504   3.0993
     3.1061   3.1104   3.1156   3.1303   3.1664   3.2663   3.2914   3.3869
     3.4039   3.5704   3.6378   3.7234   3.8547   3.9311   3.9475   3.9832
     4.0516   4.1247   4.1619   4.2226   4.2651   4.2857   4.3712   4.3980
     4.4517   4.4832   4.5487   4.6241   4.6948   4.7431   4.7692   4.8623
     4.9195   4.9384   5.0039   5.0446   5.1129   5.1554   5.2503   5.2760
     5.2853   5.3221   5.4410   5.5412   5.5634   5.6779   5.7156   5.7574
     5.7707   5.7773   5.8095   5.9446   6.0686   6.0871   6.1729   6.2233
     6.2620   6.2917   6.3201   6.4761   6.6911   6.8573   6.8983   6.9309
     6.9970   7.0580   7.0856   7.1004   7.2077   7.2449   7.3193   7.3866
     7.3967   7.4624   7.4675   7.4905   7.5327   7.5588   7.6007   7.6229
     7.6328   7.6841   7.6956   7.7127   7.7273   7.7348   7.8332   7.9317
     7.9657   8.0204   8.1352   8.1695   8.2740   8.2888   8.3046   8.4079
     8.4662   8.5138   8.5239   8.5973   8.6336   8.6954   8.7088   8.7971
     8.8254   8.9100   8.9476   8.9798   9.0066   9.0236   9.0353   9.0596
     9.0979   9.1141   9.1629   9.2276   9.2385   9.3090   9.3369   9.3463
     9.3629   9.4021   9.4372   9.4955   9.5190   9.5307   9.5454   9.5803
     9.6450   9.6599   9.6834   9.6869   9.7001   9.7613   9.8809  10.0060
    10.0434  10.0919

          k =-0.5000 0.0000 0.0000 (256496 PWs)   bands (ev):

   -15.5576 -15.5441 -15.1995 -15.1892 -15.1716 -15.1530 -14.1211 -14.0857
   -14.0707 -14.0453 -12.3601 -12.3084 -12.2902 -12.2613 -11.7536 -11.7134
   -11.4407 -11.4087 -11.3996 -11.3554 -10.7840 -10.7409 -10.3677 -10.3263
    -9.7858  -9.7147  -9.3399  -9.3271  -8.6703  -8.5144  -8.4873  -8.4494
    -7.7001  -6.9914  -6.9815  -6.9485  -6.9232  -6.8572  -6.7380  -5.4732
    -5.4653  -4.9983  -4.9800  -4.7584  -4.7530  -4.5039  -4.4951  -4.4911
    -4.4899  -4.3681  -4.3634  -4.3498  -4.3112  -4.2726  -4.2535  -4.2473
    -4.2326  -4.1107  -4.0139  -3.9713  -3.9618  -3.9382  -3.9374  -3.7333
    -3.6848  -3.6638  -3.6584  -3.6246  -3.3958  -3.3187  -3.2332  -3.2280
    -3.2251  -3.1202  -3.1155  -3.1010  -3.0454  -2.9715  -2.9579  -2.9467
    -2.9375  -2.9111  -2.9028  -2.6177  -2.5127  -2.4855  -2.4289  -2.3810
    -2.3369  -2.3157  -2.3088  -2.2949  -2.2572  -2.1853  -2.0846  -2.0785
    -2.0594  -2.0054  -1.9992  -1.9884  -1.8232  -1.5846  -1.5715  -1.5662
    -1.5621  -1.5588  -1.5487  -1.4897  -1.4634  -1.4571  -1.4331  -1.3816
    -1.3572  -1.3338  -1.3336  -1.3004  -1.2976  -1.2894  -1.2855  -1.2741
    -1.2475  -1.2298  -1.2041  -1.1766  -1.1733  -1.1723  -1.1288  -1.1137
    -1.1120  -1.0953  -1.0888  -1.0840  -1.0805  -1.0699  -1.0535  -1.0478
    -1.0431  -1.0424  -1.0375  -1.0336  -1.0307  -1.0217  -1.0193  -1.0165
    -1.0066  -0.9822  -0.9782  -0.9766  -0.9729  -0.9563  -0.9543  -0.9505
    -0.9480  -0.9027  -0.8947  -0.8862  -0.8833  -0.8676  -0.8618  -0.8583
    -0.8567  -0.8487  -0.8440  -0.8306  -0.8273  -0.8245  -0.8131  -0.7977
    -0.7958  -0.7924  -0.7821  -0.7673  -0.7642  -0.7409  -0.7365  -0.7356
    -0.7101  -0.6948  -0.6776  -0.6674  -0.6656  -0.6617  -0.6581  -0.6498
    -0.6460  -0.6343  -0.6296  -0.6275  -0.6239  -0.6127  -0.6093  -0.6070
    -0.6045  -0.5997  -0.5931  -0.5800  -0.5744  -0.5428  -0.5398  -0.5360
    -0.5189  -0.4858  -0.4739  -0.4430  -0.4072  -0.3989  -0.3979  -0.3950
    -0.3901  -0.3768  -0.3698  -0.3576  -0.3474  -0.3460  -0.3406  -0.3381
    -0.3313  -0.3275  -0.3177  -0.3131  -0.3090  -0.3039  -0.2906  -0.2839
    -0.2772  -0.2735  -0.2664  -0.2499  -0.2054  -0.2005  -0.1926  -0.1840
    -0.1737  -0.1637  -0.1590  -0.1395  -0.1267  -0.1240  -0.0987  -0.0933
    -0.0888  -0.0842  -0.0828  -0.0783  -0.0755  -0.0660  -0.0544  -0.0496
    -0.0483  -0.0478  -0.0464  -0.0453  -0.0284  -0.0217  -0.0080   0.0029
     0.0089   0.0176   0.0230   0.0283   0.0340   0.0381   0.0533   0.0663
     0.0673   0.0706   0.0773   0.0802   0.0899   0.0981   0.0992   0.1195
     0.1240   0.1324   0.1624   0.1657   0.1722   0.1845   0.1866   0.1873
     0.1924   0.1943   0.2086   0.2143   0.2221   0.2327   0.2444   0.2496
     0.2605   0.2689   0.2736   0.2823   0.2890   0.2942   0.2959   0.2985
     0.3012   0.3038   0.3085   0.3117   0.3139   0.3214   0.3278   0.3547
     0.3611   0.3660   0.3689   0.3748   0.3799   0.3860   0.3884   0.3915
     0.3966   0.4003   0.4012   0.4031   0.4044   0.4089   0.4185   0.4290
     0.4299   0.4320   0.4352   0.4373   0.4407   0.4413   0.4420   0.4431
     0.4449   0.4460   0.4539   0.4595   0.4613   0.4668   0.4703   0.4723
     0.4753   0.4792   0.4833   0.4858   0.4933   0.4977   0.5147   0.5348
     0.5717   0.5762   0.5877   0.6083   0.6144   0.6191   0.6230   0.6355
     0.6392   0.6426   0.6449   0.6500   0.6535   0.6587   0.6605   0.6630
     0.6678   0.6705   0.6730   0.6762   0.6770   0.6790   0.6810   0.6847
     0.6870   0.6894   0.6904   0.6970   0.6982   0.7001   0.7082   0.7174
     0.7187   0.7271   0.7305   0.7392   0.7498   0.7618   0.7681   0.7773
     0.7934   0.8094   0.8121   0.8214   0.8251   0.8291   0.8344   0.8431
     0.8447   0.8476   0.8495   0.8526   0.8533   0.8555   0.8584   0.8605
     0.8614   0.8655   0.8680   0.8693   0.8769   0.8809   0.8859   0.8941
     0.8984   0.9039   0.9088   0.9145   0.9207   0.9258   0.9337   0.9358
     0.9441   0.9479   0.9539   0.9561   0.9586   0.9602   0.9613   0.9689
     0.9702   0.9752   0.9783   0.9831   0.9864   0.9881   1.0024   1.0062
     1.0187   1.0193   1.0263   1.0342   1.0375   1.0394   1.0398   1.0473
     1.0514   1.0662   1.0705   1.0858   1.0874   1.0915   1.1011   1.1216
     1.1279   1.1346   1.1489   1.1519   1.1566   1.1586   1.1624   1.1638
     1.1651   1.1662   1.1706   1.1756   1.1802   1.1814   1.1855   1.1884
     1.1921   1.2011   1.2103   1.2132   1.2163   1.2169   1.2237   1.2285
     1.2317   1.2356   1.2376   1.2415   1.2579   1.2635   1.2662   1.2723
     1.2855   1.2972   1.3102   1.3265   1.3287   1.3370   1.3402   1.3514
     1.3527   1.3617   1.3714   1.3758   1.3814   1.3892   1.3915   1.3975
     1.4036   1.4091   1.4114   1.4143   1.4200   1.4273   1.4280   1.4344
     1.4358   1.4445   1.4460   1.4476   1.4496   1.4526   1.4553   1.4579
     1.4594   1.4600   1.4636   1.4641   1.4677   1.4828   1.4945   1.4982
     1.5010   1.5017   1.5045   1.5122   1.5171   1.5261   1.5305   1.5346
     1.5405   1.5453   1.5553   1.5577   1.5607   1.5635   1.5663   1.5683
     1.5684   1.5714   1.5732   1.5773   1.5814   1.5843   1.5899   1.5924
     1.5975   1.6057   1.6172   1.6241   1.6278   1.6341   1.6354   1.6363
     1.6377   1.6407   1.6433   1.6446   1.6476   1.6492   1.6509   1.6517
     1.6532   1.6546   1.6569   1.6579   1.6594   1.6613   1.6634   1.6655
     1.6721   1.6738   1.6760   1.6810   1.6864   1.6904   1.6931   1.6958
     1.6992   1.7104   1.7128   1.7165   1.7347   1.7365   1.7382   1.7427
     1.7476   1.7499   1.7525   1.7572   1.7626   1.7635   1.7705   1.7708
     1.7746   1.7776   1.7782   1.7847   1.7884   1.7913   1.7917   1.7969
     1.7993   1.8018   1.8024   1.8116   1.8196   1.8238   1.8373   1.8399
     1.8404   1.8417   1.8436   1.8468   1.8497   1.8611   1.8964   1.9019
     1.9173   1.9206   1.9320   1.9368   1.9419   1.9552   2.1465   2.2635
     2.3324   2.3515   2.4363   2.4824   2.5480   2.5579   2.5780   2.5909
     2.6064   2.6084   2.7409   2.8146   2.8411   2.9315   3.0179   3.0775
     3.1457   3.1473   3.2628   3.4081   3.4495   3.4765   3.5103   3.5279
     3.5912   3.6939   3.8374   3.9316   4.0690   4.1165   4.1395   4.1571
     4.2352   4.2369   4.3491   4.3687   4.3858   4.4373   4.4390   4.4652
     4.6227   4.7833   4.7934   4.9640   4.9868   5.0372   5.0598   5.1039
     5.1402   5.1625   5.1753   5.2102   5.2316   5.2501   5.3370   5.3448
     5.3508   5.3610   5.3736   5.3849   5.4055   5.4361   5.4798   5.5032
     5.6289   5.7320   5.7535   5.7756   5.8707   5.8816   5.9484   6.0354
     6.1032   6.1499   6.2853   6.2951   6.2995   6.3270   6.3336   6.3504
     6.4379   6.5080   6.5959   6.6949   6.7167   6.7911   6.8139   6.8533
     6.8793   6.9727   7.3109   7.3978   7.4153   7.4403   7.5159   7.5626
     7.8284   7.8931   7.9023   7.9068   7.9070   7.9263   7.9692   8.0188
     8.0692   8.0753   8.1030   8.1299   8.1428   8.1925   8.2050   8.2664
     8.2928   8.3225   8.3412   8.3884   8.4071   8.4325   8.4762   8.5723
     8.5729   8.5790   8.6205   8.6864   8.6955   8.8841   8.9800   9.1006
     9.1226   9.1572   9.1856   9.1945   9.2089   9.2133   9.2200   9.2755
     9.3772   9.3907   9.4736   9.4767   9.4946   9.5771   9.6025   9.7121
     9.7883   9.8046   9.8301   9.8376   9.8490   9.8616   9.9546   9.9625
     9.9645   9.9758

          k =-0.5000-0.2165 0.0000 (256328 PWs)   bands (ev):

   -15.4850 -15.4665 -15.4464 -15.4295 -14.7546 -14.7266 -14.7048 -14.6887
   -13.3234 -13.2773 -13.2599 -13.2254 -11.7085 -11.6522 -11.6447 -11.6033
   -11.2771 -11.2128 -11.1918 -11.1726 -11.0560 -11.0208 -11.0113 -11.0030
    -9.4391  -9.3238  -9.3053  -9.2639  -8.5179  -8.3753  -8.3306  -8.2863
    -7.8812  -7.5891  -7.5787  -7.5523  -7.1746  -5.5192  -5.5048  -5.5010
    -5.4547  -4.9166  -4.9073  -4.8766  -4.8690  -4.8646  -4.8500  -4.8380
    -4.8198  -4.6692  -4.6570  -4.6415  -4.6262  -4.0503  -4.0153  -4.0047
    -3.9496  -3.8955  -3.8937  -3.8808  -3.8635  -3.7927  -3.7736  -3.7676
    -3.7213  -3.5923  -3.5497  -3.5416  -3.5263  -3.3098  -3.2727  -3.2662
    -3.2505  -3.2448  -3.2310  -3.2238  -3.2104  -3.1056  -3.0595  -3.0389
    -2.9284  -2.8473  -2.7171  -2.7133  -2.6989  -2.2809  -2.2772  -2.2697
    -2.2614  -2.2286  -2.2161  -2.2069  -2.1453  -1.9722  -1.9667  -1.9198
    -1.9055  -1.8811  -1.8046  -1.7856  -1.7741  -1.7472  -1.7223  -1.7138
    -1.7005  -1.6642  -1.6304  -1.6045  -1.5986  -1.5247  -1.4918  -1.4869
    -1.4846  -1.4624  -1.4142  -1.3742  -1.3643  -1.2716  -1.2021  -1.1911
    -1.1837  -1.1753  -1.1722  -1.1710  -1.1602  -1.1509  -1.1383  -1.1307
    -1.1220  -1.1194  -1.1156  -1.1137  -1.1023  -1.0833  -1.0726  -1.0687
    -1.0643  -1.0624  -1.0595  -1.0565  -1.0495  -1.0455  -1.0440  -1.0398
    -1.0222  -0.9961  -0.9925  -0.9874  -0.9853  -0.9675  -0.9451  -0.9150
    -0.8847  -0.8830  -0.8774  -0.8725  -0.8677  -0.8641  -0.8607  -0.8511
    -0.8343  -0.8290  -0.8189  -0.8122  -0.8064  -0.8046  -0.8026  -0.7992
    -0.7983  -0.7806  -0.7748  -0.7693  -0.7638  -0.7452  -0.7411  -0.7328
    -0.7290  -0.7276  -0.7266  -0.7243  -0.7187  -0.7142  -0.7122  -0.7114
    -0.7039  -0.6761  -0.6494  -0.6310  -0.6087  -0.5881  -0.5733  -0.5591
    -0.5444  -0.5377  -0.5373  -0.5357  -0.5312  -0.5032  -0.4845  -0.4727
    -0.4657  -0.4581  -0.4509  -0.4439  -0.4436  -0.4417  -0.4373  -0.4361
    -0.4277  -0.3908  -0.3890  -0.3838  -0.3819  -0.3777  -0.3740  -0.3702
    -0.3681  -0.3619  -0.3523  -0.3518  -0.3484  -0.3196  -0.2670  -0.2606
    -0.2530  -0.2509  -0.2470  -0.2363  -0.2270  -0.2011  -0.2001  -0.1845
    -0.1811  -0.1776  -0.1681  -0.1452  -0.1381  -0.1259  -0.1234  -0.1201
    -0.1147  -0.1089  -0.1017  -0.0874  -0.0862  -0.0852  -0.0785  -0.0709
    -0.0685  -0.0631  -0.0591  -0.0470  -0.0298  -0.0058   0.0140   0.0313
     0.0446   0.0484   0.0544   0.0580   0.0628   0.0635   0.0662   0.0706
     0.0789   0.0800   0.0897   0.1302   0.1363   0.1418   0.1485   0.1566
     0.1602   0.1648   0.1691   0.1701   0.1744   0.1767   0.1835   0.2001
     0.2026   0.2094   0.2119   0.2141   0.2173   0.2225   0.2251   0.2284
     0.2308   0.2324   0.2388   0.2555   0.2663   0.2793   0.2864   0.2956
     0.3070   0.3093   0.3165   0.3273   0.3367   0.3542   0.3585   0.3768
     0.3793   0.3869   0.3898   0.3932   0.3975   0.4007   0.4023   0.4076
     0.4086   0.4108   0.4140   0.4144   0.4162   0.4178   0.4235   0.4254
     0.4298   0.4314   0.4322   0.4337   0.4382   0.4430   0.4476   0.4510
     0.4553   0.4635   0.4679   0.4710   0.4735   0.4765   0.4767   0.4806
     0.4809   0.4919   0.4961   0.5144   0.5202   0.5321   0.5379   0.5425
     0.5582   0.5624   0.5662   0.5756   0.5933   0.6245   0.6296   0.6394
     0.6415   0.6445   0.6470   0.6572   0.6588   0.6640   0.6651   0.6702
     0.6721   0.6734   0.6802   0.6816   0.6858   0.6860   0.6887   0.6913
     0.6968   0.6983   0.7009   0.7031   0.7065   0.7100   0.7177   0.7217
     0.7263   0.7350   0.7362   0.7521   0.7582   0.7619   0.7669   0.7810
     0.7853   0.7880   0.7910   0.7928   0.7952   0.8056   0.8112   0.8133
     0.8223   0.8278   0.8312   0.8392   0.8417   0.8482   0.8514   0.8592
     0.8677   0.8713   0.8795   0.8821   0.8854   0.8898   0.8905   0.8943
     0.8958   0.8975   0.9001   0.9023   0.9072   0.9081   0.9101   0.9148
     0.9165   0.9269   0.9280   0.9345   0.9558   0.9646   0.9832   0.9885
     0.9925   0.9952   0.9999   1.0027   1.0089   1.0109   1.0137   1.0149
     1.0218   1.0266   1.0310   1.0329   1.0378   1.0411   1.0425   1.0491
     1.0510   1.0540   1.0544   1.0565   1.0665   1.0862   1.0913   1.1009
     1.1026   1.1131   1.1153   1.1272   1.1346   1.1404   1.1420   1.1442
     1.1510   1.1593   1.1696   1.1717   1.1724   1.1785   1.1919   1.1941
     1.1975   1.2029   1.2322   1.2398   1.2436   1.2507   1.2521   1.2604
     1.2790   1.2847   1.2954   1.3001   1.3108   1.3141   1.3290   1.3323
     1.3361   1.3408   1.3441   1.3493   1.3519   1.3566   1.3622   1.3634
     1.3679   1.3690   1.3705   1.3719   1.3753   1.3763   1.3768   1.3801
     1.3825   1.3853   1.3881   1.3934   1.3973   1.4007   1.4021   1.4022
     1.4067   1.4156   1.4169   1.4224   1.4267   1.4407   1.4439   1.4472
     1.4479   1.4491   1.4502   1.4535   1.4549   1.4570   1.4619   1.4646
     1.4661   1.4739   1.4988   1.5068   1.5104   1.5144   1.5168   1.5186
     1.5225   1.5267   1.5279   1.5364   1.5377   1.5449   1.5585   1.5634
     1.5672   1.5709   1.5739   1.5758   1.5816   1.5820   1.5880   1.5914
     1.5977   1.6012   1.6029   1.6035   1.6080   1.6106   1.6178   1.6188
     1.6370   1.6440   1.6526   1.6561   1.6631   1.6666   1.6749   1.6765
     1.6805   1.6827   1.6840   1.6856   1.6878   1.6907   1.6936   1.6947
     1.6964   1.6984   1.7018   1.7032   1.7042   1.7071   1.7090   1.7117
     1.7148   1.7156   1.7173   1.7221   1.7244   1.7256   1.7280   1.7312
     1.7325   1.7341   1.7367   1.7405   1.7488   1.7588   1.7670   1.7699
     1.7722   1.7741   1.7809   1.7835   1.7894   1.7937   1.7983   1.8025
     1.8184   1.8232   1.8248   1.8295   1.8479   1.8584   1.8659   1.8702
[...]
     atom   56 type  1   force =     0.00043031   -0.00026008    0.00019613
     atom   57 type  1   force =     0.00020136   -0.00027162    0.00038168
     atom   58 type  1   force =     0.00060734   -0.00042278   -0.00004964
     atom   59 type  1   force =     0.00034759   -0.00049936   -0.00001210
     atom   60 type  1   force =     0.00000040   -0.00010877   -0.00017094
     atom   61 type  1   force =     0.00061687    0.00010118    0.00053800
     atom   62 type  1   force =     0.00019203   -0.00005939   -0.00024300
     atom   63 type  1   force =     0.00050061   -0.00004449   -0.00013604
     atom   64 type  1   force =     0.00022151   -0.00037240   -0.00024100
     atom   65 type  1   force =    -0.00053494   -0.00002967   -0.00039220
     atom   66 type  1   force =     0.00085670    0.00083590    0.00089845
     atom   67 type  1   force =     0.00010880   -0.00070836    0.00020658
     atom   68 type  1   force =     0.00079623   -0.00041282   -0.00051448
     atom   69 type  1   force =    -0.00029432   -0.00026131   -0.00053746
     atom   70 type  1   force =     0.00100985    0.00008510    0.00008202
     atom   71 type  1   force =    -0.00003649    0.00014272   -0.00004307
     atom   72 type  1   force =     0.00024189   -0.00016060   -0.00128077
     atom   73 type  1   force =     0.00034746   -0.00031693    0.00050745
     atom   74 type  1   force =     0.00029469   -0.00050916    0.00061824
     atom   75 type  1   force =     0.00049718   -0.00041535    0.00017126
     atom   76 type  1   force =     0.00046585    0.00029320   -0.00040963
     atom   77 type  1   force =     0.00039081   -0.00021327   -0.00014630
     atom   78 type  1   force =     0.00036763   -0.00071368   -0.00002639
     atom   79 type  1   force =     0.00013299   -0.00024334   -0.00017964
     atom   80 type  1   force =     0.00039799    0.00014206   -0.00002571
     atom   81 type  1   force =     0.00077238   -0.00032025   -0.00033964
     atom   82 type  1   force =     0.00061308   -0.00009188    0.00006252
     atom   83 type  1   force =     0.00009270   -0.00008745   -0.00053362
     atom   84 type  1   force =     0.00135182   -0.00021193   -0.00044470
     atom   85 type  1   force =     0.00066808    0.00025745    0.00091653
     atom   86 type  1   force =    -0.00042567   -0.00163305   -0.00184426
     atom   87 type  1   force =    -0.00078083    0.00022641   -0.00002263
     atom   88 type  1   force =     0.00033662   -0.00158661   -0.00095785
     atom   89 type  1   force =     0.00038617    0.00082360   -0.00073527
     atom   90 type  1   force =     0.00016897   -0.00309653    0.00083848
     atom   91 type  1   force =    -0.00412997    0.00082193    0.00223663
     atom   92 type  1   force =     0.00054939    0.00070078   -0.00130021
     atom   93 type  1   force =     0.00002037   -0.00025685    0.00080681
     atom   94 type  1   force =     0.00049597   -0.00058591    0.00018660
     atom   95 type  1   force =     0.00004637   -0.00077725    0.00028976
     atom   96 type  1   force =     0.00021109    0.00039989    0.00000546
     atom   97 type  1   force =     0.00072608   -0.00026534    0.00009045
     atom   98 type  1   force =     0.00022671   -0.00041480   -0.00012699
     atom   99 type  1   force =    -0.00002673   -0.00010129   -0.00007424
     atom  100 type  1   force =     0.00042548    0.00000144    0.00007686
     atom  101 type  2   force =    -0.00173598    0.00086906    0.00093229
     atom  102 type  2   force =    -0.00158060    0.00049507    0.00030793
     atom  103 type  2   force =    -0.00066452   -0.00002111   -0.00142001
     atom  104 type  2   force =    -0.00076582    0.00047317   -0.00020800
     atom  105 type  2   force =    -0.00059899    0.00066202   -0.00024479
     atom  106 type  2   force =     0.00010948    0.00109799    0.00055190
     atom  107 type  2   force =    -0.00165706    0.00020081   -0.00089653
     atom  108 type  2   force =    -0.00096194   -0.00044324   -0.00124656
     atom  109 type  2   force =    -0.00003570   -0.00029307   -0.00023801
     atom  110 type  2   force =     0.00080020    0.00156780   -0.00099501
     atom  111 type  2   force =    -0.00005324    0.00023631    0.00073947
     atom  112 type  2   force =    -0.00052144   -0.00101492   -0.00026736
     atom  113 type  2   force =    -0.00013200    0.00048468   -0.00045021
     atom  114 type  2   force =    -0.00150624   -0.00005158   -0.00156999
     atom  115 type  2   force =    -0.00017779    0.00006523    0.00004277
     atom  116 type  2   force =    -0.00056108    0.00136721   -0.00127193
     atom  117 type  2   force =    -0.00042809   -0.00208301    0.00080569
     atom  118 type  2   force =     0.00159789    0.00073255    0.00249862
     atom  119 type  2   force =    -0.00019810    0.00073404   -0.00005462
     atom  120 type  2   force =    -0.00143286    0.00013356    0.00361065
     atom  121 type  2   force =     0.00278938    0.00154448   -0.00419297
     atom  122 type  2   force =     0.00104650    0.00098462    0.00093498
     atom  123 type  2   force =     0.00052899   -0.00013124    0.00027550
     atom  124 type  2   force =    -0.00108073    0.00076986   -0.00180169
     atom  125 type  2   force =     0.00003229    0.00097847    0.00006670
     atom  126 type  2   force =    -0.00031339    0.00158207   -0.00136972
     atom  127 type  2   force =     0.00005072    0.00102017    0.00041343
     atom  128 type  2   force =    -0.00036856   -0.00015612   -0.00013666
     atom  129 type  2   force =    -0.00166060    0.00022342    0.00120094
     atom  130 type  2   force =    -0.00038263    0.00050509    0.00090599
     atom  131 type  2   force =     0.00016324    0.00090954    0.00042049
     atom  132 type  2   force =     0.00053456    0.00054438    0.00120085
     atom  133 type  2   force =    -0.00077613   -0.00008670    0.00019242
     atom  134 type  2   force =     0.00016970    0.00105174    0.00037814
     atom  135 type  2   force =    -0.00021592    0.00040580   -0.00074043
     atom  136 type  2   force =    -0.00063887    0.00056381    0.00086579
     atom  137 type  2   force =    -0.00060362    0.00051997   -0.00005828
     atom  138 type  2   force =    -0.00094789    0.00000148    0.00156552
     atom  139 type  2   force =    -0.00096489   -0.00071193   -0.00065408
     atom  140 type  2   force =    -0.00136202    0.00122836    0.00069135
     atom  141 type  2   force =    -0.00117309    0.00087817   -0.00081713
     atom  142 type  2   force =    -0.00107402    0.00075910   -0.00027701
     atom  143 type  2   force =    -0.00161047   -0.00038952    0.00107799
     atom  144 type  2   force =     0.00005173    0.00064041   -0.00023137
     atom  145 type  2   force =    -0.00083361    0.00180768    0.00082056
     atom  146 type  2   force =    -0.00100061    0.00081522    0.00012246
     atom  147 type  2   force =     0.00006293   -0.00108247    0.00011422
     atom  148 type  2   force =    -0.00043446    0.00042681    0.00131641
     atom  149 type  2   force =    -0.00136477    0.00231055   -0.00136916

     Total force =     0.015463     Total SCF correction =     0.000425

     number of scf cycles    =  17
     number of bfgs steps    =  16

     energy   old            =  -12710.1437416334 Ry
     energy   new            =  -12710.1441069848 Ry

     CASE: energy  _new < energy  _old

     new trust radius        =       0.0136335887 bohr
     new conv_thr            =       0.0000000100 Ry


ATOMIC_POSITIONS (angstrom)
Cu       0.002013907  -0.019173104   7.347059739
Cu       1.848105280   1.684916147   7.342900071
Cu       3.691379737  -0.020107530   7.347389059
Cu       5.536391121   1.687808972   7.348296741
Cu       0.004693244   3.393745214   7.347708408
Cu       1.850354568   5.105634272   7.353798963
Cu       3.693915118   3.396348167   7.346867779
Cu       5.539654145   5.104335316   7.347121107
Cu       0.007250654   6.816105878   7.351737781
Cu       1.850797056   8.524908598   7.351762357
Cu       3.694780685   6.815868962   7.350547762
Cu       5.539590574   8.527542156   7.346038746
Cu       0.005602668  10.233201726   7.348805741
Cu       1.848670301  11.934539037   7.349571033
Cu       3.693626727  10.230391929   7.349312260
Cu       5.536626818  11.926899837   7.357495710
Cu       0.000461754  13.622656243   7.356022721
Cu       1.845740779  15.315421255   7.351606616
Cu       3.693495555  13.624717688   7.356012125
Cu       5.536228867  15.321010008   7.350772890
Cu       0.004092095   1.683279954   9.176037956
Cu       1.849660505  -0.020975096   9.176722356
Cu       3.699090080   1.682053218   9.173244736
Cu       5.538935257  -0.020922271   9.182886950
Cu       0.009423226   5.103869010   9.174409569
Cu       1.852904266   3.385020767   9.167817163
Cu       3.702428127   5.103965717   9.176318279
Cu       5.543381371   3.395733601   9.177007175
Cu       0.010861634   8.525190170   9.178792166
Cu       1.857280388   6.816218301   9.181990815
Cu       3.702226382   8.524361318   9.180168500
Cu       5.545618304   6.816784489   9.173454671
Cu       0.005639840  11.921547345   9.198106545
Cu       1.853947304  10.233197421   9.178832822
Cu       3.699475608  11.923940177   9.195046771
Cu       5.544492816  10.221716175   9.191524130
Cu       0.005486189  15.317750498   9.187277898
Cu       1.850091950  13.618163757   9.200225252
Cu       3.693223266  15.318876639   9.188740394
Cu       5.539923795  13.622019913   9.196058357
Cu       0.009968681  -0.023568262  11.019443973
Cu       1.858145024   1.676312128  11.005952470
Cu       3.701956114  -0.021841825  11.023508772
Cu       5.546887444   1.684337502  11.018745132
Cu       0.009967670   3.392370174  11.011872097
Cu       1.864016933   5.081580916  10.989604220
Cu       3.712544665   3.382692305  11.000486376
Cu       5.560529768   5.105818115  11.015447501
Cu       0.016571760   6.812757740  11.010259229
Cu       1.866253482   8.536076777  11.006414024
Cu       3.725351188   6.812975890  11.011079317
Cu       5.563100294   8.508242712  11.034233122
Cu       0.015481932  10.206212530  11.047967722
Cu       1.860437828  11.904694570  11.048668985
Cu       3.716006167  10.215483132  11.032685162
Cu       5.551180522  11.914219542  11.046130597
Cu       0.015672038  13.619071084  11.040492859
Cu       1.854851581  15.324177568  11.036849033
Cu       3.699003786  13.620336370  11.040706625
Cu       5.545287878  15.316359152  11.035776005
Cu       0.016074433   1.676339331  12.840894563
Cu       1.866462879  -0.009658988  12.872950024
Cu       3.716377821   1.681417491  12.848549969
Cu       5.549425729  -0.020327015  12.866522515
Cu       0.051482799   5.106472034  12.860151484
Cu       1.871390938   3.375643493  12.824145861
Cu       3.729928484   5.084013346  12.815858695
Cu       5.570248724   3.397772230  12.854330403
Cu       0.062427905   8.472915693  12.910806563
Cu       1.887016460   6.800586151  12.748371199
Cu       3.736707095   8.501449756  12.859270638
Cu       5.603030190   6.795868574  12.893024533
Cu       0.030435140  11.907440758  12.881220700
Cu       1.881097071  10.177362829  12.906537143
Cu       3.717803051  11.906385757  12.871890047
Cu       5.581962047  10.187414026  12.892643117
Cu       0.020293719  15.324606589  12.882869059
Cu       1.864896786  13.617506777  12.881301222
Cu       3.706450733  15.323289687  12.882384118
Cu       5.557193847  13.618044477  12.883258636
Cu       0.037858388   0.005150112  14.686734441
Cu       1.886934437   1.717177728  14.674547219
Cu       3.701614314  -0.006535718  14.698839583
Cu       5.560267044   1.668955945  14.677015698
Cu       0.020089990   3.360909357  14.652567004
Cu       1.916289715   4.989671554  14.650627527
Cu       3.778925605   3.374874808  14.657306253
Cu       5.621575599   5.102385188  14.695625659
Cu       0.175716005   6.751780617  14.823574699
Cu       1.949561668   8.492204016  14.787722419
Cu       3.795792507   6.765916330  14.626305567
Cu       5.626863580   8.461123703  14.721075401
Cu       0.055227153  10.192129980  14.708208623
Cu       1.877549090  11.902642624  14.690143868
Cu       3.762082630  10.211376374  14.688933233
Cu       5.585725697  11.905104010  14.693692193
Cu       0.026395664  13.616802069  14.702864099
Cu       1.869312395  15.321142251  14.695248623
Cu       3.722598926  13.604872848  14.685533632
Cu       5.558207064  15.332796934  14.695036037
C       -0.023616705   0.741362549  17.635045270
C       -0.028283830   2.162935004  17.646754799
C        1.206982218   0.030988194  17.625419935
C        1.200816970   2.872096247  17.628361829
C        2.435038378   0.738879361  17.606738943
C        2.430501898   2.160980980  17.597674692
C        3.666036875   0.029894351  17.597041342
C        3.656425696   2.873789053  17.577735052
C        4.895689124   0.741993681  17.614115935
C        4.890977720   2.164821770  17.605132387
C        6.125292196   0.031652993  17.619945973
C        6.120229602   2.873925689  17.621048817
C       -0.037085052   5.006560718  17.654596812
C       -0.044520181   6.429062349  17.744850865
C        1.198535332   4.295086127  17.607868499
C        1.165821371   7.149611266  17.724830276
C        2.415636452   4.993620887  17.497152156
C        2.379612867   6.458413537  17.233770872
C        3.643646678   4.299180124  17.528650644
C        3.659895909   7.149226512  17.547633468
C        2.093025148   6.666662846  15.636186052
C        4.881425794   5.007646498  17.549929909
C        4.869929410   6.433441084  17.612189641
C        6.113421084   4.299721376  17.613400487
C        6.100903313   7.136543615  17.738180417
C       -0.037497069   9.266564084  17.758038511
C       -0.029692904  10.682436317  17.678598424
C        1.187182925   8.554209423  17.764929738
C        1.203223845  11.391201343  17.642858252
C        2.423640759   9.263351954  17.676731549
C        2.431346891  10.678151983  17.660083034
C        3.655893202   8.550163425  17.652811298
C        3.661234880  11.391665040  17.644922424
C        4.883068705   9.264570039  17.694191022
C        4.888693153  10.683266217  17.671874047
C        6.110280045   8.553355830  17.735803681
C        6.119469977  11.393673526  17.646224756
C       -0.020667152  13.522315226  17.577652215
C       -0.020048752  14.942153038  17.598340954
C        1.208896621  12.810269103  17.602632571
C        1.209134901  15.650558202  17.605721151
C        2.437854515  13.520403389  17.603950823
C        2.438933885  14.939591473  17.589447099
C        3.665489709  12.810628537  17.616302773
C        3.667783436  15.649301915  17.595216715
C        4.895341260  13.521429460  17.604024835
C        4.896395217  14.940518572  17.595121461
C        6.124180373  12.813388254  17.600058666
C        6.127707266  15.650287106  17.602608652



     Writing output data file gc.save
     Check: negative starting charge=   -0.001819
     NEW-OLD atomic charge density approx. for the potential
     Check: negative starting charge=   -0.001818

     negative rho (up, down):  1.891E-03 0.000E+00

     total cpu time spent up to now is    56186.1 secs

     Self-consistent Calculation

     iteration #  1     ecut=    80.00 Ry     beta=0.70
     Davidson diagonalization with overlap
     ethr =  1.00E-06,  avg # of iterations =  4.0

     negative rho (up, down):  1.951E-03 0.000E+00

     total cpu time spent up to now is    56664.4 secs

     total energy              =  -12710.14437504 Ry
     Harris-Foulkes estimate   =  -12710.14467061 Ry
     estimated scf accuracy    <       0.00252712 Ry

     iteration #  2     ecut=    80.00 Ry     beta=0.70
     Davidson diagonalization with overlap
     ethr =  1.95E-07,  avg # of iterations =  2.0

     negative rho (up, down):  1.988E-03 0.000E+00

     total cpu time spent up to now is    56864.0 secs

     total energy              =  -12710.14440922 Ry
     Harris-Foulkes estimate   =  -12710.14455078 Ry
     estimated scf accuracy    <       0.00050464 Ry

     iteration #  3     ecut=    80.00 Ry     beta=0.70
     Davidson diagonalization with overlap
     ethr =  3.89E-08,  avg # of iterations =  2.0

     negative rho (up, down):  2.031E-03 0.000E+00

     total cpu time spent up to now is    57083.2 secs

     total energy              =  -12710.14444544 Ry
     Harris-Foulkes estimate   =  -12710.14451998 Ry
     estimated scf accuracy    <       0.00076990 Ry

     iteration #  4     ecut=    80.00 Ry     beta=0.70
     Davidson diagonalization with overlap
     ethr =  3.89E-08,  avg # of iterations =  2.0

     negative rho (up, down):  2.030E-03 0.000E+00

     total cpu time spent up to now is    57272.7 secs

     total energy              =  -12710.14447651 Ry
     Harris-Foulkes estimate   =  -12710.14447803 Ry
     estimated scf accuracy    <       0.00001113 Ry

     iteration #  5     ecut=    80.00 Ry     beta=0.70
     Davidson diagonalization with overlap
     ethr =  8.59E-10,  avg # of iterations =  3.7

     negative rho (up, down):  2.020E-03 0.000E+00

     total cpu time spent up to now is    57596.2 secs

     total energy              =  -12710.14447869 Ry
     Harris-Foulkes estimate   =  -12710.14447965 Ry
     estimated scf accuracy    <       0.00000739 Ry

     iteration #  6     ecut=    80.00 Ry     beta=0.70
     Davidson diagonalization with overlap
     ethr =  5.71E-10,  avg # of iterations =  1.0

     negative rho (up, down):  1.994E-03 0.000E+00

     total cpu time spent up to now is    57775.0 secs

     total energy              =  -12710.14447883 Ry
     Harris-Foulkes estimate   =  -12710.14447911 Ry
     estimated scf accuracy    <       0.00000293 Ry

     iteration #  7     ecut=    80.00 Ry     beta=0.70
     Davidson diagonalization with overlap
     ethr =  2.26E-10,  avg # of iterations =  2.0

     negative rho (up, down):  1.970E-03 0.000E+00

     total cpu time spent up to now is    57967.0 secs

     total energy              =  -12710.14447896 Ry
     Harris-Foulkes estimate   =  -12710.14447898 Ry
     estimated scf accuracy    <       0.00000058 Ry

     iteration #  8     ecut=    80.00 Ry     beta=0.70
     Davidson diagonalization with overlap
     ethr =  4.50E-11,  avg # of iterations =  2.0

     negative rho (up, down):  1.953E-03 0.000E+00

     total cpu time spent up to now is    58163.4 secs

     total energy              =  -12710.14447905 Ry
     Harris-Foulkes estimate   =  -12710.14447903 Ry
     estimated scf accuracy    <       0.00000021 Ry

     iteration #  9     ecut=    80.00 Ry     beta=0.70
     Davidson diagonalization with overlap
     ethr =  1.63E-11,  avg # of iterations =  1.8

     negative rho (up, down):  1.933E-03 0.000E+00

     total cpu time spent up to now is    58351.6 secs

     total energy              =  -12710.14447911 Ry
     Harris-Foulkes estimate   =  -12710.14447907 Ry
     estimated scf accuracy    <       0.00000008 Ry

     iteration # 10     ecut=    80.00 Ry     beta=0.70
     Davidson diagonalization with overlap
     ethr =  6.33E-12,  avg # of iterations =  2.0

     negative rho (up, down):  1.917E-03 0.000E+00

     total cpu time spent up to now is    58546.9 secs

     total energy              =  -12710.14447915 Ry
     Harris-Foulkes estimate   =  -12710.14447912 Ry
     estimated scf accuracy    <       0.00000003 Ry

     iteration # 11     ecut=    80.00 Ry     beta=0.70
     Davidson diagonalization with overlap
     ethr =  2.44E-12,  avg # of iterations =  2.3

     negative rho (up, down):  1.909E-03 0.000E+00

     total cpu time spent up to now is    58740.1 secs

     total energy              =  -12710.14447917 Ry
     Harris-Foulkes estimate   =  -12710.14447916 Ry
     estimated scf accuracy    <       0.00000001 Ry

     iteration # 12     ecut=    80.00 Ry     beta=0.70
     Davidson diagonalization with overlap
