mpirun: INFO: switching to OpenMPI runtime version 1.10.2

     Program PWSCF v.5.4.0 starts on 12May2017 at 10:51:16 

     This program is part of the open-source Quantum ESPRESSO suite
     for quantum simulation of materials; please cite
         "P. Giannozzi et al., J. Phys.:Condens. Matter 21 395502 (2009);
          URL http://www.quantum-espresso.org", 
     in publications or presentations arising from this work. More details at
     http://www.quantum-espresso.org/quote

     Parallel version (MPI & OpenMP), running on      56 processor cores
     Number of MPI processes:                56
     Threads/MPI process:                     1
     R & G space division:  proc/nbgrp/npool/nimage =      56
     Waiting for input...
     Reading input from standard input
Warning: card &IONS ignored
Warning: card / ignored

     Current dimensions of program PWSCF are:
     Max number of different atomic species (ntypx) = 10
     Max number of k-points (npk) =  40000
     Max angular momentum in pseudopotentials (lmaxx) =  3
     WARNING: atomic wfc #  2 for atom type 4 has zero norm
     WARNING: atomic wfc #  4 for atom type 4 has zero norm
     WARNING: atomic wfc #  5 for atom type 4 has zero norm

     -------------------------------------
     Parameters for Dispersion Correction:
     -------------------------------------
       atom      VdW radius       C_6     

        Cu         2.952        374.666
        C_h        2.744         60.710
        C          2.744         60.710
        O          2.536         24.284
        H          1.892          4.857

     Subspace diagonalization in iterative solution of the eigenvalue problem:
     one sub-group per band group will be used
     scalapack distributed-memory algorithm (size of sub-group:  5*  5 procs)

 
     Parallelization info
     --------------------
     sticks:   dense  smooth     PW     G-vecs:    dense   smooth      PW
     Min         204     204     54                36612    36612    4962
     Max         205     205     55                36617    36617    4968
     Sum       11433   11433   3039              2050409  2050409  278033
 


     bravais-lattice index     =            0
     lattice parameter (alat)  =      13.9425  a.u.
     unit-cell volume          =   21209.0878 (a.u.)^3
     number of atoms/cell      =          152
     number of atomic types    =            5
     number of electrons       =      1309.00
     number of Kohn-Sham states=          786
     kinetic-energy cutoff     =      80.0000  Ry
     charge density cutoff     =     320.0000  Ry
     convergence threshold     =      1.0E-08
     mixing beta               =       0.7000
     number of iterations used =            8  local-TF  mixing
     Exchange-correlation      =  SLA  PW   PBE  PBE ( 1  4  3  4 0 0)

     celldm(1)=  13.942539  celldm(2)=   0.000000  celldm(3)=   0.000000
     celldm(4)=   0.000000  celldm(5)=   0.000000  celldm(6)=   0.000000

     crystal axes: (cart. coord. in units of alat)
               a(1) = (   1.000000   0.000000   0.000000 )  
               a(2) = (   0.000000   2.309401   0.000000 )  
               a(3) = (   0.000000   0.000000   3.388418 )  

     reciprocal axes: (cart. coord. in units 2 pi/alat)
               b(1) = (  1.000000  0.000000  0.000000 )  
               b(2) = (  0.000000  0.433013  0.000000 )  
               b(3) = (  0.000000  0.000000  0.295123 )  


     PseudoPot. # 1 for Cu read from file:
     /home/549/hxw549/Short/pseudopotentials/Cu.pbe-n-van_ak.UPF
     MD5 check sum: 601f7c30f7467666bec936e0661ce3e1
     Pseudo is Ultrasoft + core correction, Zval = 11.0
     Generated by new atomic code, or converted to UPF format
     Using radial grid of  867 points,  6 beta functions with: 
                l(1) =   0
                l(2) =   0
                l(3) =   1
                l(4) =   1
                l(5) =   2
                l(6) =   2
     Q(r) pseudized with  8 coefficients,  rinner =    1.400   1.400   1.400
                                                       1.400   1.400

     PseudoPot. # 2 for C  read from file:
     /home/549/hxw549/Short/pseudopotentials/C.star1s-pbe-mt_gipaw.UPF
     MD5 check sum: ef0cb3dee31bd9e4ba2a832a2c716264
     Pseudo is Norm-conserving, Zval =  5.0
     Generated by new atomic code, or converted to UPF format
     Using radial grid of 1073 points,  1 beta functions with: 
                l(1) =   0

     PseudoPot. # 3 for C  read from file:
     /home/549/hxw549/Short/pseudopotentials/C.pbe-mt_gipaw.UPF
     MD5 check sum: 5ac2f21f2c440b14befe521540822c15
     Pseudo is Norm-conserving, Zval =  4.0
     Generated by new atomic code, or converted to UPF format
     Using radial grid of 1073 points,  1 beta functions with: 
                l(1) =   0

     PseudoPot. # 4 for O  read from file:
     /home/549/hxw549/Short/pseudopotentials/O.pbe-van_gipaw.UPF
     MD5 check sum: 5ce2a047509d4f331db576c963e74b29
     Pseudo is Ultrasoft, Zval =  6.0
     Generated by new atomic code, or converted to UPF format
     Using radial grid of 1095 points,  4 beta functions with: 
                l(1) =   0
                l(2) =   0
                l(3) =   1
                l(4) =   1
     Q(r) pseudized with 0 coefficients 


     PseudoPot. # 5 for H  read from file:
     /home/549/hxw549/Short/pseudopotentials/H.pbe-van_ak.UPF
     MD5 check sum: 077eb6d537518a38cb46c6de387227b7
     Pseudo is Ultrasoft, Zval =  1.0
     Generated by new atomic code, or converted to UPF format
     Using radial grid of  615 points,  1 beta functions with: 
                l(1) =   0
     Q(r) pseudized with  8 coefficients,  rinner =    0.800

     atomic species   valence    mass     pseudopotential
        Cu            11.00    63.54600     Cu( 1.00)
        C_h            5.00    12.01070     C ( 1.00)
        C              4.00    12.01070     C ( 1.00)
        O              6.00    15.99940     O ( 1.00)
        H              1.00     1.00783     H ( 1.00)

     No symmetry found



   Cartesian axes

     site n.     atom                  positions (alat units)
         1           Cu  tau(   1) = (   0.0000842  -0.0003681   0.9999582  )
         2           Cu  tau(   2) = (   0.2500548   0.2313457   0.9998843  )
         3           Cu  tau(   3) = (   0.5000576  -0.0002607   0.9999865  )
         4           Cu  tau(   4) = (   0.7500833   0.2313139   0.9998641  )
         5           Cu  tau(   5) = (   0.0000630   0.4624576   0.9996374  )
         6           Cu  tau(   6) = (   0.2500574   0.6931393   0.9991054  )
         7           Cu  tau(   7) = (   0.5000697   0.4624370   0.9995248  )
         8           Cu  tau(   8) = (   0.7500716   0.6931484   0.9991088  )
         9           Cu  tau(   9) = (   0.0000622   0.9236166   0.9988218  )
        10           Cu  tau(  10) = (   0.2500643   1.1539091   0.9989623  )
        11           Cu  tau(  11) = (   0.5000640   0.9235821   0.9987715  )
        12           Cu  tau(  12) = (   0.7500634   1.1539179   0.9989606  )
        13           Cu  tau(  13) = (   0.0000687   1.3841458   0.9994650  )
        14           Cu  tau(  14) = (   0.2500837   1.6145936   0.9999104  )
        15           Cu  tau(  15) = (   0.5000627   1.3841804   0.9994855  )
        16           Cu  tau(  16) = (   0.7500522   1.6145705   0.9999235  )
        17           Cu  tau(  17) = (   0.0000612   1.8455769   1.0000095  )
        18           Cu  tau(  18) = (   0.2500741   2.0771549   1.0000108  )
        19           Cu  tau(  19) = (   0.5000791   1.8455049   1.0000850  )
        20           Cu  tau(  20) = (   0.7500687   2.0771896   1.0000020  )
        21           Cu  tau(  21) = (   0.0000704   0.2315434   1.2478653  )
        22           Cu  tau(  22) = (   0.2500664  -0.0002381   1.2475273  )
        23           Cu  tau(  23) = (   0.5000670   0.2316783   1.2479035  )
        24           Cu  tau(  24) = (   0.7500740  -0.0002273   1.2475423  )
        25           Cu  tau(  25) = (   0.0000692   0.6936868   1.2480512  )
        26           Cu  tau(  26) = (   0.2500874   0.4630175   1.2481231  )
        27           Cu  tau(  27) = (   0.5000643   0.6936369   1.2480478  )
        28           Cu  tau(  28) = (   0.7500461   0.4629896   1.2480760  )
        29           Cu  tau(  29) = (   0.0000655   1.1534501   1.2482728  )
        30           Cu  tau(  30) = (   0.2500957   0.9236477   1.2480367  )
        31           Cu  tau(  31) = (   0.5000669   1.1533940   1.2482530  )
        32           Cu  tau(  32) = (   0.7500350   0.9236609   1.2480361  )
        33           Cu  tau(  33) = (   0.0000688   1.6141455   1.2484967  )
        34           Cu  tau(  34) = (   0.2500811   1.3834824   1.2485944  )
        35           Cu  tau(  35) = (   0.5000677   1.6141108   1.2487066  )
        36           Cu  tau(  36) = (   0.7500538   1.3834640   1.2486243  )
        37           Cu  tau(  37) = (   0.0000721   2.0771959   1.2475848  )
        38           Cu  tau(  38) = (   0.2500753   1.8454353   1.2480641  )
        39           Cu  tau(  39) = (   0.5000696   2.0772392   1.2474654  )
        40           Cu  tau(  40) = (   0.7500644   1.8454540   1.2480357  )
        41           Cu  tau(  41) = (   0.0000552  -0.0003437   1.4963069  )
        42           Cu  tau(  42) = (   0.2501594   0.2316922   1.4966729  )
        43           Cu  tau(  43) = (   0.5000801  -0.0003239   1.4961498  )
        44           Cu  tau(  44) = (   0.7499692   0.2317424   1.4967073  )
        45           Cu  tau(  45) = (   0.0000623   0.4634405   1.4974589  )
        46           Cu  tau(  46) = (   0.2501391   0.6941193   1.4986964  )
        47           Cu  tau(  47) = (   0.5000667   0.4635838   1.4978574  )
        48           Cu  tau(  48) = (   0.7499975   0.6940653   1.4985995  )
        49           Cu  tau(  49) = (   0.0000719   0.9236097   1.4991718  )
        50           Cu  tau(  50) = (   0.2500634   1.1527743   1.4992825  )
        51           Cu  tau(  51) = (   0.5000695   0.9235140   1.4993108  )
        52           Cu  tau(  52) = (   0.7500770   1.1527397   1.4993345  )
        53           Cu  tau(  53) = (   0.0000750   1.3828780   1.4988430  )
        54           Cu  tau(  54) = (   0.2500890   1.6138847   1.4980387  )
        55           Cu  tau(  55) = (   0.5000679   1.3824979   1.4990271  )
        56           Cu  tau(  56) = (   0.7500488   1.6139412   1.4979863  )
        57           Cu  tau(  57) = (   0.0000808   1.8455483   1.4970029  )
        58           Cu  tau(  58) = (   0.2499997   2.0773826   1.4963591  )
        59           Cu  tau(  59) = (   0.5000580   1.8459184   1.4969695  )
        60           Cu  tau(  60) = (   0.7501390   2.0773614   1.4963585  )
        61           Cu  tau(  61) = (   0.0000295   0.2315309   1.7444207  )
        62           Cu  tau(  62) = (   0.2502029  -0.0002994   1.7446931  )
        63           Cu  tau(  63) = (   0.5000678   0.2311869   1.7451939  )
        64           Cu  tau(  64) = (   0.7499079  -0.0002989   1.7446971  )
        65           Cu  tau(  65) = (   0.0000435   0.6936173   1.7489464  )
        66           Cu  tau(  66) = (   0.2505725   0.4629719   1.7465844  )
        67           Cu  tau(  67) = (   0.5000601   0.6943936   1.7503369  )
        68           Cu  tau(  68) = (   0.7495268   0.4630920   1.7467012  )
        69           Cu  tau(  69) = (   0.0000924   1.1527931   1.7508173  )
        70           Cu  tau(  70) = (   0.2502615   0.9234581   1.7512347  )
        71           Cu  tau(  71) = (   0.5000542   1.1517041   1.7514155  )
        72           Cu  tau(  72) = (   0.7499023   0.9232312   1.7511647  )
        73           Cu  tau(  73) = (   0.0000949   1.6141779   1.7468887  )
        74           Cu  tau(  74) = (   0.2500008   1.3824766   1.7488313  )
        75           Cu  tau(  75) = (   0.5000403   1.6144221   1.7459068  )
        76           Cu  tau(  76) = (   0.7501499   1.3826237   1.7486353  )
        77           Cu  tau(  77) = (   0.0000597   2.0774819   1.7453209  )
        78           Cu  tau(  78) = (   0.2497908   1.8462237   1.7455670  )
        79           Cu  tau(  79) = (   0.5000663   2.0778525   1.7452871  )
        80           Cu  tau(  80) = (   0.7503417   1.8461915   1.7455604  )
        81           Cu  tau(  81) = (   0.0000293   0.0005630   1.9893151  )
        82           Cu  tau(  82) = (   0.2503945   0.2305317   1.9904370  )
        83           Cu  tau(  83) = (   0.5000451  -0.0001654   1.9914204  )
        84           Cu  tau(  84) = (   0.7496550   0.2306286   1.9903824  )
        85           Cu  tau(  85) = (   0.0001352   0.4606957   1.9911783  )
        86           Cu  tau(  86) = (   0.2509809   0.6915100   1.9960722  )
        87           Cu  tau(  87) = (   0.4999039   0.4602277   1.9939597  )
        88           Cu  tau(  88) = (   0.7490330   0.6914184   1.9964879  )
        89           Cu  tau(  89) = (   0.0000790   0.9223187   1.9982276  )
        90           Cu  tau(  90) = (   0.2509422   1.1535728   1.9995783  )
        91           Cu  tau(  91) = (   0.5001296   0.9227220   2.0050881  )
        92           Cu  tau(  92) = (   0.7492111   1.1536228   1.9988463  )
        93           Cu  tau(  93) = (   0.0000122   1.3841067   1.9962199  )
        94           Cu  tau(  94) = (   0.2491204   1.6154633   1.9915726  )
        95           Cu  tau(  95) = (   0.5001393   1.3858631   1.9939386  )
        96           Cu  tau(  96) = (   0.7510023   1.6154462   1.9916054  )
        97           Cu  tau(  97) = (   0.0000452   1.8467905   1.9920833  )
        98           Cu  tau(  98) = (   0.2500174   2.0780821   1.9906638  )
        99           Cu  tau(  99) = (   0.5000701   1.8458323   1.9897529  )
       100           Cu  tau( 100) = (   0.7500815   2.0780660   1.9906233  )
       101           C   tau( 101) = (   0.0000064   0.0982753   2.3856156  )
       102           C   tau( 102) = (   0.0000439   0.2906318   2.3863779  )
       103           C   tau( 103) = (   0.1666622   0.0021375   2.3846841  )
       104           C   tau( 104) = (   0.1665525   0.3867349   2.3858861  )
       105           C   tau( 105) = (   0.3332165   0.0983228   2.3831609  )
       106           C   tau( 106) = (   0.3332256   0.2906221   2.3844894  )
       107           C   tau( 107) = (   0.5000598   0.0019732   2.3803645  )
       108           C   tau( 108) = (   0.5000831   0.3875023   2.3852626  )
       109           C   tau( 109) = (   0.6668708   0.0983910   2.3827119  )
       110           C   tau( 110) = (   0.6669726   0.2907066   2.3839420  )
       111           C   tau( 111) = (   0.8333707   0.0021311   2.3842294  )
       112           C   tau( 112) = (   0.8335622   0.3868739   2.3852090  )
       113           C   tau( 113) = (  -0.0000664   0.6753953   2.3854927  )
       114           C   tau( 114) = (  -0.0000530   0.8677380   2.3850831  )
       115           C   tau( 115) = (   0.1662822   0.5790995   2.3858133  )
       116           C   tau( 116) = (   0.1669701   0.9636455   2.3943290  )
       117           C   tau( 117) = (   0.3328676   0.6759619   2.3925700  )
       118           C   tau( 118) = (   0.3306870   0.8664276   2.4033686  )
       119           C   tau( 119) = (   0.5000557   0.5791262   2.3918876  )
       120           C_h tau( 120) = (   0.5005703   0.9642771   2.4585553  )
       121           C   tau( 121) = (   0.6669877   0.6763032   2.3895459  )
       122           C   tau( 122) = (   0.6689183   0.8667870   2.4013501  )
       123           C   tau( 123) = (   0.8335215   0.5793055   2.3841319  )
       124           C   tau( 124) = (   0.8327639   0.9636664   2.3937551  )
       125           C   tau( 125) = (   0.0001775   1.2524267   2.3940154  )
       126           C   tau( 126) = (   0.0002058   1.4454123   2.3866222  )
       127           C   tau( 127) = (   0.1666178   1.1567825   2.3964067  )
       128           C   tau( 128) = (   0.1669769   1.5416877   2.3844312  )
       129           C   tau( 129) = (   0.3342788   1.2531476   2.3945734  )
       130           C   tau( 130) = (   0.3337672   1.4457448   2.3873535  )
       131           C   tau( 131) = (   0.5000705   1.1600103   2.4042867  )
       132           C   tau( 132) = (   0.5001390   1.5419263   2.3875286  )
       133           C   tau( 133) = (   0.6659113   1.2532485   2.3961466  )
       134           C   tau( 134) = (   0.6665638   1.4459311   2.3883803  )
       135           C   tau( 135) = (   0.8334444   1.1567853   2.3980193  )
       136           C   tau( 136) = (   0.8334256   1.5416843   2.3850458  )
       137           C   tau( 137) = (   0.0000818   1.8305645   2.3801465  )
       138           C   tau( 138) = (   0.0000178   2.0230047   2.3827294  )
       139           C   tau( 139) = (   0.1669767   1.7342100   2.3821412  )
       140           C   tau( 140) = (   0.1666234   2.1191650   2.3827717  )
       141           C   tau( 141) = (   0.3334727   1.8304533   2.3834572  )
       142           C   tau( 142) = (   0.3334464   2.0228704   2.3818320  )
       143           C   tau( 143) = (   0.5000638   1.7343864   2.3850919  )
       144           C   tau( 144) = (   0.5000445   2.1189962   2.3815734  )
       145           C   tau( 145) = (   0.6666800   1.8303624   2.3835727  )
       146           C   tau( 146) = (   0.6666154   2.0227865   2.3818160  )
       147           C   tau( 147) = (   0.8332512   1.7341954   2.3822333  )
       148           C   tau( 148) = (   0.8333765   2.1191374   2.3825846  )
       149           C   tau( 149) = (   0.4878592   0.9658295   2.6754889  )
       150           O   tau( 150) = (   0.3907150   1.0691884   2.7619711  )
       151           O   tau( 151) = (   0.5916853   0.8343731   2.7542978  )
       152           H   tau( 152) = (   0.5700785   0.8427763   2.8860689  )

     number of k points=     6  gaussian smearing, width (Ry)=  0.1000
                       cart. coord. in units 2pi/alat
        k(    1) = (   0.0000000   0.0000000   0.0000000), wk =   0.2500000
        k(    2) = (   0.0000000  -0.2165064   0.0000000), wk =   0.2500000
        k(    3) = (   0.2500000   0.0000000   0.0000000), wk =   0.5000000
        k(    4) = (   0.2500000  -0.2165064   0.0000000), wk =   0.5000000
        k(    5) = (  -0.5000000   0.0000000   0.0000000), wk =   0.2500000
        k(    6) = (  -0.5000000  -0.2165064   0.0000000), wk =   0.2500000

     Dense  grid:  2050409 G-vectors     FFT dimensions: (  80, 192, 270)

     Largest allocated arrays     est. size (Mb)     dimensions
        Kohn-Sham Wavefunctions        55.22 Mb     (    4604,  786)
        NL pseudopotentials           131.09 Mb     (    4604, 1866)
        Each V/rho on FFT grid          1.17 Mb     (   76800)
        Each G-vector array             0.28 Mb     (   36616)
        G-vector shells                 0.14 Mb     (   17932)
     Largest temporary arrays     est. size (Mb)     dimensions
        Auxiliary wavefunctions       220.87 Mb     (    4604, 3144)
        Each subspace H/S matrix        6.02 Mb     (     628,  628)
        Each <psi_i|beta_j> matrix     22.38 Mb     (    1866,  786)
        Arrays for rho mixing           9.38 Mb     (   76800,    8)

     Initial potential from superposition of free atoms
     Check: negative starting charge=   -0.001569

     starting charge 1283.31750, renormalised to 1309.00000

     negative rho (up, down):  1.601E-03 0.000E+00
     Starting wfc are 1301 randomized atomic wfcs

     total cpu time spent up to now is      111.0 secs

     Self-consistent Calculation

     iteration #  1     ecut=    80.00 Ry     beta=0.70
     Davidson diagonalization with overlap
     c_bands:  1 eigenvalues not converged
     c_bands:  2 eigenvalues not converged
     c_bands:  3 eigenvalues not converged
     c_bands:  1 eigenvalues not converged
     ethr =  1.00E-04,  avg # of iterations = 38.3

     negative rho (up, down):  2.276E+01 0.000E+00

     total cpu time spent up to now is     2210.3 secs

     total energy              =  -10131.79931721 Ry
     Harris-Foulkes estimate   =  -17482.90761958 Ry
     estimated scf accuracy    <  183320.10251225 Ry

     iteration #  2     ecut=    80.00 Ry     beta=0.70
     Davidson diagonalization with overlap
     ethr =  1.00E-02,  avg # of iterations = 10.2

     negative rho (up, down):  2.700E+01 0.000E+00

     total cpu time spent up to now is     3112.3 secs

     total energy              =  -11984.33422001 Ry
     Harris-Foulkes estimate   =  -13746.59817621 Ry
     estimated scf accuracy    <   30073.42139859 Ry

     iteration #  3     ecut=    80.00 Ry     beta=0.70
     Davidson diagonalization with overlap
     ethr =  1.00E-02,  avg # of iterations =  7.0

     negative rho (up, down):  2.789E+01 0.000E+00

     total cpu time spent up to now is     3684.3 secs

     total energy              =  -12447.27466015 Ry
     Harris-Foulkes estimate   =  -13531.96234730 Ry
     estimated scf accuracy    <    5954.77604592 Ry

     iteration #  4     ecut=    80.00 Ry     beta=0.70
     Davidson diagonalization with overlap
     ethr =  1.00E-02,  avg # of iterations =  5.3

     negative rho (up, down):  1.828E+01 0.000E+00

     total cpu time spent up to now is     4238.0 secs

     total energy              =  -12866.18886903 Ry
     Harris-Foulkes estimate   =  -13106.71909774 Ry
     estimated scf accuracy    <     865.86296509 Ry

     iteration #  5     ecut=    80.00 Ry     beta=0.70
     Davidson diagonalization with overlap
     ethr =  1.00E-02,  avg # of iterations =  2.8

     negative rho (up, down):  1.576E+01 0.000E+00

     total cpu time spent up to now is     4509.8 secs

     total energy              =  -12890.09530495 Ry
     Harris-Foulkes estimate   =  -12949.90813997 Ry
     estimated scf accuracy    <    1496.74672450 Ry

     iteration #  6     ecut=    80.00 Ry     beta=0.70
     Davidson diagonalization with overlap
     ethr =  1.00E-02,  avg # of iterations =  1.3

     negative rho (up, down):  1.007E+01 0.000E+00

     total cpu time spent up to now is     4682.9 secs

     total energy              =  -12860.94190011 Ry
     Harris-Foulkes estimate   =  -12915.58167717 Ry
     estimated scf accuracy    <     435.83956437 Ry

     iteration #  7     ecut=    80.00 Ry     beta=0.70
     Davidson diagonalization with overlap
     ethr =  1.00E-02,  avg # of iterations =  2.0

     negative rho (up, down):  7.751E+00 0.000E+00

     total cpu time spent up to now is     4872.3 secs

     total energy              =  -12849.55693044 Ry
     Harris-Foulkes estimate   =  -12877.12056481 Ry
     estimated scf accuracy    <     763.41142487 Ry

     iteration #  8     ecut=    80.00 Ry     beta=0.70
     Davidson diagonalization with overlap
     ethr =  1.00E-02,  avg # of iterations =  1.2

     negative rho (up, down):  7.069E+00 0.000E+00

     total cpu time spent up to now is     5044.0 secs

     total energy              =  -12847.40483769 Ry
     Harris-Foulkes estimate   =  -12860.44590981 Ry
     estimated scf accuracy    <     609.00870561 Ry

     iteration #  9     ecut=    80.00 Ry     beta=0.70
     Davidson diagonalization with overlap
     ethr =  1.00E-02,  avg # of iterations =  1.3

     negative rho (up, down):  6.065E+00 0.000E+00

     total cpu time spent up to now is     5217.3 secs

     total energy              =  -12839.26649857 Ry
     Harris-Foulkes estimate   =  -12850.89434943 Ry
     estimated scf accuracy    <     235.79849085 Ry

     iteration # 10     ecut=    80.00 Ry     beta=0.70
     Davidson diagonalization with overlap
     ethr =  1.00E-02,  avg # of iterations =  1.0

     negative rho (up, down):  1.614E+00 0.000E+00

     total cpu time spent up to now is     5387.0 secs

     total energy              =  -12802.90465604 Ry
     Harris-Foulkes estimate   =  -12843.73216909 Ry
     estimated scf accuracy    <     277.34445885 Ry

     iteration # 11     ecut=    80.00 Ry     beta=0.70
     Davidson diagonalization with overlap
     ethr =  1.00E-02,  avg # of iterations =  2.7

     negative rho (up, down):  1.354E+00 0.000E+00

     total cpu time spent up to now is     5577.5 secs

     total energy              =  -12803.60017823 Ry
     Harris-Foulkes estimate   =  -12813.01723636 Ry
     estimated scf accuracy    <     106.18866170 Ry

     iteration # 12     ecut=    80.00 Ry     beta=0.70
     Davidson diagonalization with overlap
     ethr =  8.11E-03,  avg # of iterations =  2.0

     negative rho (up, down):  9.708E-01 0.000E+00

     total cpu time spent up to now is     5758.5 secs

     total energy              =  -12796.53275785 Ry
     Harris-Foulkes estimate   =  -12809.65833141 Ry
     estimated scf accuracy    <      50.89365034 Ry

     iteration # 13     ecut=    80.00 Ry     beta=0.70
     Davidson diagonalization with overlap
     ethr =  3.89E-03,  avg # of iterations =  2.0

     negative rho (up, down):  3.752E+00 0.000E+00

     total cpu time spent up to now is     5939.2 secs

     total energy              =  -12791.11810707 Ry
     Harris-Foulkes estimate   =  -12797.70766730 Ry
     estimated scf accuracy    <      32.59238318 Ry

     iteration # 14     ecut=    80.00 Ry     beta=0.70
     Davidson diagonalization with overlap
     ethr =  2.49E-03,  avg # of iterations =  5.2

     negative rho (up, down):  3.635E+00 0.000E+00

     total cpu time spent up to now is     6164.4 secs

     total energy              =  -12788.92542188 Ry
     Harris-Foulkes estimate   =  -12792.24108094 Ry
     estimated scf accuracy    <      24.31250471 Ry

     iteration # 15     ecut=    80.00 Ry     beta=0.70
     Davidson diagonalization with overlap
     ethr =  1.86E-03,  avg # of iterations =  2.8

     negative rho (up, down):  4.263E+00 0.000E+00

     total cpu time spent up to now is     6355.5 secs

     total energy              =  -12788.54242340 Ry
     Harris-Foulkes estimate   =  -12790.00804156 Ry
     estimated scf accuracy    <      14.63853043 Ry

     iteration # 16     ecut=    80.00 Ry     beta=0.70
     Davidson diagonalization with overlap
     ethr =  1.12E-03,  avg # of iterations =  6.8

     negative rho (up, down):  2.932E+00 0.000E+00

     total cpu time spent up to now is     6594.6 secs

     total energy              =  -12787.06928508 Ry
     Harris-Foulkes estimate   =  -12788.75219602 Ry
     estimated scf accuracy    <       9.03058525 Ry

     iteration # 17     ecut=    80.00 Ry     beta=0.70
     Davidson diagonalization with overlap
     ethr =  6.90E-04,  avg # of iterations =  7.7

     negative rho (up, down):  2.296E+00 0.000E+00

     total cpu time spent up to now is     6845.9 secs

     total energy              =  -12786.12304919 Ry
     Harris-Foulkes estimate   =  -12787.29696258 Ry
     estimated scf accuracy    <       7.26547460 Ry

     iteration # 18     ecut=    80.00 Ry     beta=0.70
     Davidson diagonalization with overlap
     ethr =  5.55E-04,  avg # of iterations =  9.3

     negative rho (up, down):  1.782E+00 0.000E+00

     total cpu time spent up to now is     7116.1 secs

     total energy              =  -12785.70110259 Ry
     Harris-Foulkes estimate   =  -12786.32644208 Ry
     estimated scf accuracy    <       4.65520740 Ry

     iteration # 19     ecut=    80.00 Ry     beta=0.70
     Davidson diagonalization with overlap
     ethr =  3.56E-04,  avg # of iterations =  4.2

     negative rho (up, down):  1.594E+00 0.000E+00

     total cpu time spent up to now is     7322.9 secs

     total energy              =  -12785.28486373 Ry
     Harris-Foulkes estimate   =  -12785.82761251 Ry
     estimated scf accuracy    <       3.98666011 Ry

     iteration # 20     ecut=    80.00 Ry     beta=0.70
     Davidson diagonalization with overlap
     ethr =  3.05E-04,  avg # of iterations =  5.3

     negative rho (up, down):  9.313E-01 0.000E+00

     total cpu time spent up to now is     7543.5 secs

     total energy              =  -12784.21373789 Ry
     Harris-Foulkes estimate   =  -12785.38953202 Ry
     estimated scf accuracy    <       3.27341466 Ry

     iteration # 21     ecut=    80.00 Ry     beta=0.70
     Davidson diagonalization with overlap
     ethr =  2.50E-04,  avg # of iterations =  8.2

     negative rho (up, down):  6.974E-01 0.000E+00

     total cpu time spent up to now is     7801.1 secs

     total energy              =  -12783.85830249 Ry
     Harris-Foulkes estimate   =  -12784.32791162 Ry
     estimated scf accuracy    <       2.73222030 Ry

     iteration # 22     ecut=    80.00 Ry     beta=0.70
     Davidson diagonalization with overlap
     ethr =  2.09E-04,  avg # of iterations =  3.2

     negative rho (up, down):  6.761E-01 0.000E+00

     total cpu time spent up to now is     7996.0 secs

     total energy              =  -12783.48827930 Ry
     Harris-Foulkes estimate   =  -12783.92332414 Ry
     estimated scf accuracy    <       1.62464320 Ry

     iteration # 23     ecut=    80.00 Ry     beta=0.70
     Davidson diagonalization with overlap
     ethr =  1.24E-04,  avg # of iterations =  6.0

     negative rho (up, down):  7.319E-01 0.000E+00

     total cpu time spent up to now is     8230.5 secs

     total energy              =  -12783.39102297 Ry
     Harris-Foulkes estimate   =  -12783.55685200 Ry
     estimated scf accuracy    <       0.69729787 Ry

     iteration # 24     ecut=    80.00 Ry     beta=0.70
     Davidson diagonalization with overlap
     ethr =  5.33E-05,  avg # of iterations =  9.0

     negative rho (up, down):  5.640E-01 0.000E+00

     total cpu time spent up to now is     8518.3 secs

     total energy              =  -12783.31396205 Ry
     Harris-Foulkes estimate   =  -12783.42315552 Ry
     estimated scf accuracy    <       0.44838364 Ry

     iteration # 25     ecut=    80.00 Ry     beta=0.70
     Davidson diagonalization with overlap
     ethr =  3.43E-05,  avg # of iterations =  7.3

     negative rho (up, down):  4.933E-01 0.000E+00

     total cpu time spent up to now is     8784.5 secs

     total energy              =  -12783.30951467 Ry
     Harris-Foulkes estimate   =  -12783.33774146 Ry
     estimated scf accuracy    <       0.24199527 Ry

     iteration # 26     ecut=    80.00 Ry     beta=0.70
     Davidson diagonalization with overlap
     ethr =  1.85E-05,  avg # of iterations =  9.0

     negative rho (up, down):  2.824E-01 0.000E+00

     total cpu time spent up to now is     9063.0 secs

     total energy              =  -12783.29896383 Ry
     Harris-Foulkes estimate   =  -12783.31717161 Ry
     estimated scf accuracy    <       0.08057655 Ry

     iteration # 27     ecut=    80.00 Ry     beta=0.70
     Davidson diagonalization with overlap
     c_bands:  1 eigenvalues not converged
     ethr =  6.16E-06,  avg # of iterations = 12.0

     negative rho (up, down):  2.137E-01 0.000E+00

     total cpu time spent up to now is     9394.5 secs

     total energy              =  -12783.29617227 Ry
     Harris-Foulkes estimate   =  -12783.30441930 Ry
     estimated scf accuracy    <       0.04711473 Ry

     iteration # 28     ecut=    80.00 Ry     beta=0.70
     Davidson diagonalization with overlap
     c_bands:  1 eigenvalues not converged
     c_bands:  1 eigenvalues not converged
     ethr =  3.60E-06,  avg # of iterations = 17.2

     negative rho (up, down):  1.313E-01 0.000E+00

     total cpu time spent up to now is     9779.1 secs

     total energy              =  -12783.29358271 Ry
     Harris-Foulkes estimate   =  -12783.29912413 Ry
     estimated scf accuracy    <       0.01964587 Ry

     iteration # 29     ecut=    80.00 Ry     beta=0.70
     Davidson diagonalization with overlap
     c_bands:  2 eigenvalues not converged
     ethr =  1.50E-06,  avg # of iterations = 15.3

     negative rho (up, down):  9.750E-02 0.000E+00

     total cpu time spent up to now is    10166.5 secs

     total energy              =  -12783.29394104 Ry
     Harris-Foulkes estimate   =  -12783.29474184 Ry
     estimated scf accuracy    <       0.00539666 Ry

     iteration # 30     ecut=    80.00 Ry     beta=0.70
     Davidson diagonalization with overlap
     ethr =  4.12E-07,  avg # of iterations =  9.2

     negative rho (up, down):  6.037E-02 0.000E+00

     total cpu time spent up to now is    10450.3 secs

     total energy              =  -12783.29309984 Ry
     Harris-Foulkes estimate   =  -12783.29418155 Ry
     estimated scf accuracy    <       0.00240206 Ry

     iteration # 31     ecut=    80.00 Ry     beta=0.70
     Davidson diagonalization with overlap
     c_bands:  1 eigenvalues not converged
     c_bands:  1 eigenvalues not converged
     ethr =  1.84E-07,  avg # of iterations = 12.3

     negative rho (up, down):  4.566E-02 0.000E+00

     total cpu time spent up to now is    10775.7 secs

     total energy              =  -12783.29295759 Ry
     Harris-Foulkes estimate   =  -12783.29324106 Ry
     estimated scf accuracy    <       0.00126798 Ry

     iteration # 32     ecut=    80.00 Ry     beta=0.70
     Davidson diagonalization with overlap
     ethr =  9.69E-08,  avg # of iterations =  5.7

     negative rho (up, down):  3.189E-02 0.000E+00

     total cpu time spent up to now is    11008.8 secs

     total energy              =  -12783.29283794 Ry
     Harris-Foulkes estimate   =  -12783.29303479 Ry
     estimated scf accuracy    <       0.00075225 Ry

     iteration # 33     ecut=    80.00 Ry     beta=0.70
     Davidson diagonalization with overlap
     ethr =  5.75E-08,  avg # of iterations = 10.8

     negative rho (up, down):  1.791E-02 0.000E+00

     total cpu time spent up to now is    11313.0 secs

     total energy              =  -12783.29254288 Ry
     Harris-Foulkes estimate   =  -12783.29287156 Ry
     estimated scf accuracy    <       0.00038161 Ry

     iteration # 34     ecut=    80.00 Ry     beta=0.70
     Davidson diagonalization with overlap
     c_bands:  1 eigenvalues not converged
     ethr =  2.92E-08,  avg # of iterations = 12.0

     negative rho (up, down):  1.028E-02 0.000E+00

     total cpu time spent up to now is    11631.7 secs

     total energy              =  -12783.29238502 Ry
     Harris-Foulkes estimate   =  -12783.29255962 Ry
     estimated scf accuracy    <       0.00014875 Ry

     iteration # 35     ecut=    80.00 Ry     beta=0.70
     Davidson diagonalization with overlap
     c_bands:  1 eigenvalues not converged
     ethr =  1.14E-08,  avg # of iterations = 14.7

     negative rho (up, down):  4.698E-03 0.000E+00

     total cpu time spent up to now is    11980.7 secs

     total energy              =  -12783.29228221 Ry
     Harris-Foulkes estimate   =  -12783.29239367 Ry
     estimated scf accuracy    <       0.00005843 Ry

     iteration # 36     ecut=    80.00 Ry     beta=0.70
     Davidson diagonalization with overlap
     c_bands:  1 eigenvalues not converged
     ethr =  4.46E-09,  avg # of iterations = 11.3

     negative rho (up, down):  2.758E-03 0.000E+00

     total cpu time spent up to now is    12287.6 secs

     total energy              =  -12783.29226626 Ry
     Harris-Foulkes estimate   =  -12783.29228553 Ry
     estimated scf accuracy    <       0.00003353 Ry

     iteration # 37     ecut=    80.00 Ry     beta=0.70
     Davidson diagonalization with overlap
     ethr =  2.56E-09,  avg # of iterations =  4.7

     negative rho (up, down):  2.246E-03 0.000E+00

     total cpu time spent up to now is    12508.0 secs

     total energy              =  -12783.29226498 Ry
     Harris-Foulkes estimate   =  -12783.29226813 Ry
     estimated scf accuracy    <       0.00001170 Ry

     iteration # 38     ecut=    80.00 Ry     beta=0.70
     Davidson diagonalization with overlap
     ethr =  8.94E-10,  avg # of iterations =  2.0

     negative rho (up, down):  2.037E-03 0.000E+00

     total cpu time spent up to now is    12692.6 secs

     total energy              =  -12783.29226898 Ry
     Harris-Foulkes estimate   =  -12783.29226552 Ry
     estimated scf accuracy    <       0.00000451 Ry

     iteration # 39     ecut=    80.00 Ry     beta=0.70
     Davidson diagonalization with overlap
     ethr =  3.45E-10,  avg # of iterations =  3.0

     negative rho (up, down):  1.982E-03 0.000E+00

     total cpu time spent up to now is    12895.4 secs

     total energy              =  -12783.29226999 Ry
     Harris-Foulkes estimate   =  -12783.29226918 Ry
     estimated scf accuracy    <       0.00000225 Ry

     iteration # 40     ecut=    80.00 Ry     beta=0.70
     Davidson diagonalization with overlap
     ethr =  1.72E-10,  avg # of iterations =  3.0

     negative rho (up, down):  1.903E-03 0.000E+00

     total cpu time spent up to now is    13100.6 secs

     total energy              =  -12783.29227017 Ry
     Harris-Foulkes estimate   =  -12783.29227012 Ry
     estimated scf accuracy    <       0.00000082 Ry

     iteration # 41     ecut=    80.00 Ry     beta=0.70
     Davidson diagonalization with overlap
     ethr =  6.25E-11,  avg # of iterations =  2.0

     negative rho (up, down):  1.897E-03 0.000E+00

     total cpu time spent up to now is    13287.5 secs

     total energy              =  -12783.29227031 Ry
     Harris-Foulkes estimate   =  -12783.29227022 Ry
     estimated scf accuracy    <       0.00000037 Ry

     iteration # 42     ecut=    80.00 Ry     beta=0.70
     Davidson diagonalization with overlap
     ethr =  2.84E-11,  avg # of iterations =  3.0

     negative rho (up, down):  1.852E-03 0.000E+00

     total cpu time spent up to now is    13489.7 secs

     total energy              =  -12783.29227028 Ry
     Harris-Foulkes estimate   =  -12783.29227034 Ry
     estimated scf accuracy    <       0.00000023 Ry

     iteration # 43     ecut=    80.00 Ry     beta=0.70
     Davidson diagonalization with overlap
     ethr =  1.75E-11,  avg # of iterations =  2.8

     negative rho (up, down):  1.861E-03 0.000E+00

     total cpu time spent up to now is    13687.9 secs

     total energy              =  -12783.29227030 Ry
     Harris-Foulkes estimate   =  -12783.29227030 Ry
     estimated scf accuracy    <       0.00000010 Ry

     iteration # 44     ecut=    80.00 Ry     beta=0.70
     Davidson diagonalization with overlap
     ethr =  7.29E-12,  avg # of iterations =  2.2

     negative rho (up, down):  1.867E-03 0.000E+00

     total cpu time spent up to now is    13881.2 secs

     total energy              =  -12783.29227031 Ry
     Harris-Foulkes estimate   =  -12783.29227031 Ry
     estimated scf accuracy    <       0.00000002 Ry

     iteration # 45     ecut=    80.00 Ry     beta=0.70
     Davidson diagonalization with overlap
     ethr =  1.41E-12,  avg # of iterations =  3.0

     negative rho (up, down):  1.882E-03 0.000E+00

     total cpu time spent up to now is    14082.2 secs

     End of self-consistent calculation

          k = 0.0000 0.0000 0.0000 (256287 PWs)   bands (ev):

   -20.9817 -18.6782 -17.4306 -16.0997 -15.9147 -15.3900 -14.8734 -14.6357
   -14.4994 -14.1146 -14.0416 -13.9647 -13.9454 -13.3833 -13.1438 -12.9867
   -12.9539 -12.9101 -12.9078 -11.6827 -11.3559 -11.3158 -11.2177 -11.0462
   -10.2919 -10.0261  -9.5748  -9.4528  -9.3670  -9.2985  -8.8219  -8.6002
    -8.5052  -8.4297  -7.9158  -7.7678  -7.6223  -7.4874  -7.4231  -7.4065
    -7.3557  -7.3433  -6.8433  -6.2541  -6.1979  -5.9158  -5.8634  -5.8439
    -5.7784  -5.7182  -5.6860  -5.6690  -5.3141  -5.3085  -4.9252  -4.8121
    -4.7537  -4.6378  -4.5178  -4.4450  -4.4254  -4.3003  -4.2607  -4.0875
    -3.9576  -3.8561  -3.8198  -3.8106  -3.7990  -3.6481  -3.4870  -3.3909
    -3.3457  -3.2592  -3.2494  -3.2352  -3.2331  -3.1594  -3.0715  -3.0123
    -2.9880  -2.9742  -2.8452  -2.8355  -2.8342  -2.8322  -2.8303  -2.7125
    -2.6478  -2.6464  -2.6390  -2.5687  -2.5656  -2.5459  -2.5420  -2.5231
    -2.4462  -2.2349  -2.2105  -2.2059  -2.1774  -2.1694  -2.0784  -2.0478
    -2.0204  -2.0196  -1.9812  -1.9809  -1.9791  -1.9789  -1.9179  -1.9056
    -1.9010  -1.8533  -1.8514  -1.8478  -1.8474  -1.8470  -1.7891  -1.6893
    -1.6685  -1.6054  -1.5680  -1.5671  -1.5664  -1.5626  -1.5236  -1.5050
    -1.5016  -1.4876  -1.4824  -1.4431  -1.4288  -1.4223  -1.3951  -1.3929
    -1.3919  -1.3886  -1.3674  -1.3629  -1.3608  -1.3442  -1.3424  -1.3351
    -1.2698  -1.2656  -1.2452  -1.2202  -1.2157  -1.2083  -1.1987  -1.1816
    -1.1755  -1.1279  -1.0930  -1.0920  -1.0788  -1.0407  -1.0406  -1.0398
    -1.0210  -1.0178  -0.9961  -0.9926  -0.9885  -0.9624  -0.9426  -0.9398
    -0.8997  -0.8801  -0.8761  -0.8689  -0.8616  -0.8568  -0.8519  -0.8519
    -0.8507  -0.8499  -0.8469  -0.8441  -0.8321  -0.8278  -0.8157  -0.8072
    -0.7807  -0.7741  -0.7636  -0.7551  -0.7484  -0.7469  -0.7459  -0.7401
    -0.6893  -0.6881  -0.6863  -0.6859  -0.6853  -0.6847  -0.6836  -0.6794
    -0.6781  -0.6768  -0.6766  -0.6760  -0.6745  -0.6720  -0.6706  -0.6679
    -0.6581  -0.6576  -0.6453  -0.6367  -0.6131  -0.5192  -0.5188  -0.5134
    -0.5117  -0.5110  -0.4900  -0.4892  -0.4703  -0.4701  -0.4507  -0.4490
    -0.4391  -0.4354  -0.4302  -0.4293  -0.4181  -0.3943  -0.3938  -0.3897
    -0.3889  -0.3835  -0.3827  -0.3725  -0.3716  -0.3219  -0.3210  -0.3160
    -0.2682  -0.2678  -0.2574  -0.2567  -0.2552  -0.2517  -0.2407  -0.2392
    -0.2352  -0.2341  -0.2332  -0.2323  -0.2289  -0.2288  -0.2144  -0.2140
    -0.2128  -0.2095  -0.2042  -0.1885  -0.1798  -0.1789  -0.1302  -0.1288
    -0.1242  -0.1211  -0.1208  -0.0978  -0.0976  -0.0909  -0.0909  -0.0859
    -0.0778  -0.0753  -0.0712  -0.0710  -0.0587  -0.0528  -0.0525  -0.0477
    -0.0460  -0.0444  -0.0431  -0.0415  -0.0398  -0.0385  -0.0314  -0.0207
    -0.0193  -0.0166  -0.0164   0.0025   0.0303   0.0501   0.0516   0.0523
     0.0527   0.0566   0.0773   0.0967   0.1004   0.1028   0.1034   0.1079
     0.1090   0.1102   0.1109   0.1117   0.1170   0.1264   0.1411   0.1602
     0.1621   0.1635   0.1648   0.1706   0.1864   0.1881   0.1940   0.1946
     0.1965   0.2042   0.2164   0.2168   0.2170   0.2176   0.2218   0.2254
     0.2332   0.2335   0.2342   0.2346   0.2431   0.2479   0.2521   0.2569
     0.2736   0.2742   0.3060   0.3063   0.3279   0.3367   0.3382   0.3570
     0.3659   0.3707   0.3993   0.4003   0.4066   0.4135   0.4183   0.4203
     0.4419   0.4423   0.4438   0.4443   0.4447   0.4519   0.4532   0.4553
     0.5008   0.5100   0.5108   0.5180   0.5208   0.5211   0.5222   0.5481
     0.5489   0.5526   0.5534   0.5547   0.5642   0.5848   0.5896   0.5917
     0.5920   0.6002   0.6076   0.6094   0.6124   0.6176   0.6504   0.6515
     0.6603   0.6628   0.6655   0.6737   0.6741   0.6791   0.6949   0.6959
     0.6982   0.7043   0.7046   0.7059   0.7082   0.7087   0.7154   0.7175
     0.7180   0.7255   0.7261   0.7271   0.7285   0.7347   0.7351   0.7692
     0.7750   0.7751   0.7798   0.7908   0.8176   0.8185   0.8197   0.8199
     0.8234   0.8235   0.8237   0.8258   0.8330   0.8359   0.8419   0.8481
     0.8489   0.8506   0.8522   0.8567   0.8570   0.8660   0.8690   0.8757
     0.8902   0.8906   0.8925   0.8936   0.9013   0.9029   0.9121   0.9169
     0.9178   0.9178   0.9209   0.9244   0.9249   0.9295   0.9302   0.9379
     0.9422   0.9480   0.9753   0.9756   0.9872   0.9899   0.9908   0.9913
     0.9967   0.9978   1.0250   1.0261   1.0400   1.0409   1.0458   1.0461
     1.0602   1.0606   1.0690   1.0699   1.0700   1.0702   1.0817   1.0900
     1.1064   1.1080   1.1093   1.1117   1.1121   1.1128   1.1295   1.1316
     1.1385   1.1483   1.1559   1.1560   1.1654   1.1690   1.1797   1.1811
     1.1816   1.1820   1.1831   1.1853   1.1870   1.1922   1.1964   1.1979
     1.1983   1.1988   1.1995   1.2134   1.2136   1.2288   1.2328   1.2348
     1.2364   1.2373   1.2446   1.2710   1.2733   1.2744   1.2779   1.2801
     1.2807   1.2829   1.2851   1.2881   1.2887   1.2892   1.2894   1.2899
     1.2925   1.3041   1.3056   1.3135   1.3395   1.3530   1.3546   1.3611
     1.3674   1.3709   1.3737   1.3752   1.3761   1.3779   1.3810   1.3946
     1.3984   1.4067   1.4086   1.4088   1.4105   1.4117   1.4136   1.4148
     1.4161   1.4249   1.4415   1.4431   1.4433   1.4441   1.4465   1.4473
     1.4488   1.4497   1.4611   1.4638   1.4641   1.4655   1.4730   1.4796
     1.4800   1.4809   1.4815   1.4833   1.4908   1.4949   1.4968   1.5133
     1.5220   1.5237   1.5246   1.5249   1.5263   1.5269   1.5306   1.5426
     1.5522   1.5572   1.5576   1.5622   1.5716   1.5814   1.5824   1.5831
     1.5934   1.5944   1.5972   1.6000   1.6017   1.6035   1.6043   1.6050
     1.6051   1.6063   1.6087   1.6169   1.6177   1.6205   1.6355   1.6362
     1.6372   1.6383   1.6411   1.6481   1.6512   1.6538   1.6773   1.6792
     1.6821   1.6901   1.7251   1.7265   1.7312   1.7332   1.7488   1.7504
     1.7506   1.7567   1.7605   1.7766   1.7979   1.8020   1.8025   1.8033
     1.8045   1.8122   1.8133   1.8148   2.0688   2.0778   2.1253   2.2792
     2.2833   2.3258   2.3311   2.3737   2.3776   2.3779   2.3811   2.3939
     2.3954   2.3964   2.4229   2.5699   2.5762   2.6371   2.6399   2.6410
     2.6418   2.6515   2.6557   2.8907   2.8945   2.8952   2.8959   3.1318
     3.1696   3.1802   3.3436   3.6866   3.6935   3.8223   3.9853   3.9930
     4.0240   4.0246   4.0268   4.0400   4.0913   4.1365   4.1625   4.1699
     4.1759   4.1786   4.1803   4.1840   4.1865   4.1931   4.4186   4.4245
     4.4260   4.4370   4.5807   4.6914   4.8629   4.9396   5.0329   5.0614
     5.4398   5.4690   5.5581   5.5915   5.6444   5.6995   5.8753   5.8808
     5.9073   5.9193   6.1030   6.1052   6.5104   6.5190   6.5435   6.5809
     6.6257   6.6466   6.6544   6.6569   6.6863   6.7295   6.7588   6.7858
     6.8671   6.9237   6.9441   6.9530   6.9795   7.0076   7.1772   7.2242
     7.2315   7.2543   7.2609   7.2672   7.5286   7.5299   7.6756   7.7242
     7.7315   7.8670   7.8697   7.8760   7.8786   7.9283   8.1065   8.2948
     8.3305   8.3575   8.3714   8.3954   8.4536   8.4626   8.5065   8.5100
     8.5366   8.5486   8.5792   8.5967   8.6245   8.7102   8.7140   8.7322
     8.7590   8.8203   8.8304   8.8324   8.8396   8.8967   8.9114   8.9553
     9.0086   9.0147   9.0156   9.0590   9.2333   9.2742   9.2821   9.2904
     9.2992   9.3003   9.3185   9.4089   9.4477   9.4861   9.5152   9.5173
     9.5380   9.7087   9.7242   9.7470   9.7508   9.8351   9.9652  10.0010
    10.1238  10.2137

          k = 0.0000-0.2165 0.0000 (256176 PWs)   bands (ev):

   -20.9817 -18.6782 -17.4305 -16.1418 -15.8009 -15.4875 -15.0120 -14.4861
   -14.1968 -14.1766 -14.1117 -14.0500 -13.6881 -13.6061 -13.5460 -13.5145
   -12.5719 -12.2570 -12.2095 -12.1413 -11.9825 -11.9094 -10.7770 -10.3737
   -10.3450 -10.2265  -9.7998  -9.2780  -9.2374  -9.0138  -8.9275  -8.8158
    -8.7937  -8.2471  -8.1143  -8.0564  -7.9947  -7.3790  -7.2342  -6.9967
    -6.8079  -6.7710  -6.7321  -6.6877  -6.6715  -6.5913  -6.0404  -5.9035
    -5.7136  -5.7064  -5.4298  -5.2541  -5.0634  -4.9803  -4.8537  -4.8008
    -4.7426  -4.6871  -4.6661  -4.6549  -4.5809  -4.4637  -4.4396  -4.3050
    -4.2091  -4.0835  -3.8619  -3.7718  -3.6445  -3.4939  -3.4022  -3.3300
    -3.1473  -3.1327  -3.1323  -3.1291  -3.1182  -3.0739  -3.0600  -2.9100
    -2.9019  -2.8890  -2.8837  -2.8587  -2.8564  -2.7331  -2.7151  -2.7084
    -2.6643  -2.6196  -2.5963  -2.5745  -2.4512  -2.4366  -2.4294  -2.4154
    -2.4089  -2.4060  -2.4051  -2.4043  -2.3689  -2.1894  -2.1688  -2.1254
    -2.0851  -2.0831  -2.0756  -2.0735  -1.9943  -1.9752  -1.9741  -1.9730
    -1.9533  -1.8589  -1.8150  -1.8149  -1.7897  -1.7893  -1.7708  -1.6971
    -1.6895  -1.6500  -1.6211  -1.6108  -1.5980  -1.5951  -1.5791  -1.5783
    -1.5693  -1.5693  -1.5533  -1.5478  -1.4945  -1.4766  -1.4706  -1.4618
    -1.4023  -1.3939  -1.3474  -1.3017  -1.2986  -1.2875  -1.2873  -1.2177
    -1.2067  -1.2012  -1.1986  -1.1975  -1.1456  -1.1452  -1.1394  -1.1086
    -1.1062  -1.1051  -1.1032  -1.1000  -1.0971  -1.0794  -1.0648  -1.0570
    -1.0538  -1.0501  -1.0489  -1.0404  -1.0341  -0.9859  -0.9819  -0.9780
    -0.9658  -0.9607  -0.9511  -0.9174  -0.9169  -0.8796  -0.8792  -0.8763
    -0.8760  -0.8484  -0.8389  -0.8284  -0.8155  -0.8149  -0.8098  -0.8090
    -0.8058  -0.8031  -0.7577  -0.7548  -0.7489  -0.7485  -0.7395  -0.7391
    -0.7335  -0.7238  -0.7211  -0.7210  -0.6622  -0.6542  -0.6507  -0.6486
    -0.6480  -0.6474  -0.6388  -0.6261  -0.6257  -0.6174  -0.6139  -0.6049
    -0.5837  -0.5836  -0.5811  -0.5766  -0.5129  -0.4894  -0.4890  -0.4773
    -0.4762  -0.4622  -0.4619  -0.4369  -0.4355  -0.4347  -0.4332  -0.4301
    -0.4300  -0.4081  -0.4033  -0.3725  -0.3718  -0.3712  -0.3675  -0.3673
    -0.3654  -0.3646  -0.3625  -0.3338  -0.3327  -0.3276  -0.3179  -0.3134
    -0.3134  -0.3124  -0.2798  -0.2781  -0.2778  -0.2759  -0.2727  -0.2715
    -0.2578  -0.2562  -0.2548  -0.2464  -0.2222  -0.1948  -0.1944  -0.1784
    -0.1777  -0.1563  -0.1542  -0.1444  -0.1333  -0.1328  -0.1271  -0.1254
    -0.1246  -0.1235  -0.1052  -0.1050  -0.0928  -0.0921  -0.0917  -0.0910
    -0.0821  -0.0761  -0.0756  -0.0741  -0.0734  -0.0730  -0.0726  -0.0669
    -0.0656  -0.0605  -0.0366  -0.0363  -0.0334  -0.0333   0.0046   0.0280
     0.0288   0.0304   0.0307   0.0370   0.0387   0.0428   0.0430   0.0461
     0.0487   0.0564   0.0719   0.0740   0.0788   0.0829   0.0831   0.0893
     0.0909   0.0923   0.0941   0.0951   0.0979   0.0994   0.1215   0.1529
     0.1532   0.1545   0.1550   0.1736   0.1748   0.1750   0.1759   0.1781
     0.1877   0.1902   0.1968   0.1979   0.2053   0.2065   0.2130   0.2196
     0.2294   0.2314   0.2455   0.2458   0.2467   0.2477   0.2651   0.2672
     0.2816   0.2817   0.2899   0.2921   0.3020   0.3047   0.3048   0.3059
     0.3472   0.3478   0.3548   0.3558   0.3598   0.3721   0.3725   0.3735
     0.3973   0.3986   0.4306   0.4360   0.4364   0.4396   0.4585   0.4850
     0.4856   0.5089   0.5378   0.5533   0.5535   0.5596   0.5607   0.5807
     0.5816   0.5831   0.5851   0.6003   0.6131   0.6180   0.6191   0.6219
     0.6231   0.6238   0.6259   0.6305   0.6333   0.6338   0.6450   0.6463
     0.6466   0.6481   0.6513   0.6539   0.6550   0.6600   0.6790   0.6846
     0.6869   0.6958   0.6961   0.6975   0.6995   0.7053   0.7053   0.7262
     0.7265   0.7274   0.7278   0.7282   0.7294   0.7302   0.7304   0.7322
     0.7438   0.7503   0.7515   0.7532   0.7547   0.7566   0.7586   0.7630
     0.7646   0.7815   0.8146   0.8153   0.8261   0.8266   0.8326   0.8358
     0.8385   0.8387   0.8393   0.8429   0.8476   0.8516   0.8517   0.8526
     0.8530   0.8544   0.8878   0.8945   0.8950   0.8952   0.8972   0.9117
     0.9121   0.9130   0.9138   0.9141   0.9230   0.9342   0.9423   0.9444
     0.9474   0.9510   0.9524   0.9537   1.0027   1.0046   1.0424   1.0565
     1.0584   1.0606   1.0638   1.0644   1.0668   1.0743   1.0784   1.0793
     1.0805   1.0855   1.0868   1.0934   1.0951   1.0959   1.0960   1.1079
     1.1104   1.1112   1.1115   1.1119   1.1151   1.1265   1.1318   1.1341
     1.1357   1.1358   1.1370   1.1375   1.1429   1.1431   1.1463   1.1574
     1.1583   1.1590   1.1605   1.1607   1.1636   1.1640   1.1747   1.1813
     1.1826   1.1923   1.1960   1.1962   1.2002   1.2006   1.2074   1.2079
     1.2091   1.2092   1.2092   1.2124   1.2414   1.2604   1.2635   1.2871
     1.2968   1.2974   1.3049   1.3144   1.3169   1.3219   1.3229   1.3242
     1.3389   1.3407   1.3474   1.3499   1.3582   1.3618   1.3628   1.3645
     1.3657   1.3689   1.3702   1.3704   1.3713   1.3717   1.3722   1.3724
     1.3795   1.3801   1.3846   1.3931   1.3973   1.3997   1.4006   1.4020
     1.4090   1.4102   1.4156   1.4387   1.4392   1.4396   1.4438   1.4441
     1.4468   1.4475   1.4525   1.4644   1.4673   1.4679   1.4691   1.4801
     1.4815   1.4825   1.4838   1.4848   1.4965   1.5004   1.5015   1.5028
     1.5033   1.5205   1.5208   1.5227   1.5340   1.5435   1.5439   1.5485
     1.5491   1.5492   1.5517   1.5622   1.5630   1.5656   1.5661   1.5794
     1.5803   1.5951   1.5959   1.5967   1.5995   1.6144   1.6163   1.6164
     1.6186   1.6204   1.6205   1.6210   1.6216   1.6476   1.6490   1.6566
     1.6571   1.6594   1.6734   1.6753   1.6861   1.6877   1.6885   1.6896
     1.6918   1.6999   1.7043   1.7061   1.7177   1.7543   1.7579   1.7601
     1.7604   1.8599   1.8605   1.8803   1.8939   1.8985   1.9017   1.9025
     1.9291   1.9575   1.9579   1.9606   1.9658   1.9816   1.9835   1.9844
     1.9958   2.0194   2.0257   2.2302   2.2457   2.2710   2.5723   2.5780
     2.5982   2.5989   2.6624   2.6710   2.7276   2.7361   2.7374   2.7386
     2.7515   2.7518   2.8755   2.8789   2.9082   2.9294   2.9538   2.9552
     3.0185   3.0930   3.0959   3.3388   3.3388   3.3629   3.3720   3.5683
     3.6050   3.8351   3.8462   4.0190   4.0929   4.1160   4.2425   4.2626
     4.2835   4.2898   4.4909   4.4951   4.5042   4.5050   4.6420   4.6668
     4.7145   4.8480   4.8971   4.9443   4.9481   5.1256   5.2515   5.2749
     5.2794   5.3709   5.5289   5.5300   5.5303   5.5323   5.5977   5.6305
     5.8145   5.8547   5.9028   5.9570   6.0924   6.3456   6.5646   6.5753
     6.5808   6.5953   6.6326   6.6404   6.7214   6.7296   6.8312   6.8436
     6.9569   6.9777   6.9841   7.1912   7.2100   7.2280   7.2304   7.2504
     7.2811   7.2875   7.2977   7.3041   7.3182   7.5060   7.5178   7.5241
     7.5494   7.5690   7.6707   7.7897   7.8129   7.9095   7.9237   8.1001
     8.2803   8.3107   8.3117   8.4210   8.5059   8.5251   8.5286   8.5322
     8.5448   8.5822   8.6160   8.6439   8.6499   8.7583   8.8608   8.8757
     8.8828   8.8887   8.9059   8.9247   8.9431   8.9475   9.0137   9.1058
     9.1355   9.1677   9.1911   9.2622   9.3226   9.3289   9.3621   9.3794
     9.3979   9.4891   9.5360   9.5369   9.5459   9.5537   9.5771   9.5807
     9.6513   9.6573   9.6724   9.6793   9.7204   9.8370   9.8534   9.9266
     9.9594   9.9658

          k = 0.2500 0.0000 0.0000 (256240 PWs)   bands (ev):

   -20.9816 -18.6781 -17.4011 -15.9928 -15.7930 -15.5239 -15.0133 -14.8308
   -14.7871 -14.7150 -14.0359 -13.7859 -13.6147 -13.1134 -12.9988 -12.9237
   -12.8710 -12.2705 -12.0581 -11.9787 -11.9119 -11.2196 -10.9681 -10.6356
   -10.5134 -10.2547 -10.0722  -9.8567  -9.7696  -9.5579  -9.3183  -9.0663
    -8.9870  -8.4981  -7.9018  -7.6893  -7.5711  -7.4057  -7.3819  -7.2783
    -6.9726  -6.8623  -6.7033  -6.1594  -6.0685  -5.8750  -5.7981  -5.7459
    -5.6651  -5.3204  -5.1702  -5.1403  -5.1353  -4.8515  -4.7640  -4.7124
    -4.5286  -4.3967  -4.3086  -4.2986  -4.2927  -4.2691  -4.2287  -4.1644
    -4.0833  -3.9289  -3.8296  -3.8268  -3.8062  -3.7420  -3.7063  -3.6681
    -3.6655  -3.6321  -3.4734  -3.4688  -3.4353  -3.3986  -3.3517  -3.2525
    -3.2430  -3.1689  -3.0943  -3.0749  -3.0582  -3.0244  -2.9439  -2.8674
    -2.8388  -2.7196  -2.6562  -2.6269  -2.6262  -2.5748  -2.5001  -2.4583
    -2.4491  -2.3674  -2.3405  -2.2509  -2.2274  -2.1652  -2.1504  -1.9277
    -1.9271  -1.9110  -1.9098  -1.9065  -1.8356  -1.8316  -1.8042  -1.7335
    -1.7224  -1.7118  -1.6642  -1.6304  -1.6301  -1.6248  -1.6224  -1.6219
    -1.6023  -1.5755  -1.5692  -1.5566  -1.5473  -1.5414  -1.5386  -1.4919
    -1.4767  -1.4644  -1.4330  -1.4122  -1.4095  -1.4071  -1.4068  -1.4065
    -1.4033  -1.3556  -1.3472  -1.3327  -1.3303  -1.3203  -1.3177  -1.2021
    -1.1794  -1.1660  -1.1615  -1.1418  -1.1015  -1.0979  -1.0786  -1.0737
    -1.0724  -1.0693  -1.0665  -1.0534  -1.0428  -1.0400  -1.0371  -1.0147
    -1.0126  -1.0107  -1.0069  -0.9893  -0.9709  -0.9651  -0.9632  -0.9620
    -0.9591  -0.9422  -0.9398  -0.9379  -0.9124  -0.9057  -0.8978  -0.8801
    -0.8785  -0.8764  -0.8708  -0.8649  -0.8493  -0.8458  -0.8421  -0.8389
    -0.8315  -0.8259  -0.8214  -0.8126  -0.8118  -0.8090  -0.8076  -0.8048
    -0.8042  -0.7936  -0.7844  -0.7776  -0.7752  -0.7712  -0.7564  -0.7354
    -0.7321  -0.7304  -0.7239  -0.6834  -0.6810  -0.6446  -0.6444  -0.6268
    -0.6251  -0.6177  -0.6005  -0.5998  -0.5874  -0.5842  -0.5826  -0.5776
    -0.5724  -0.5680  -0.5527  -0.5229  -0.4332  -0.4297  -0.4286  -0.4261
    -0.3980  -0.3967  -0.3960  -0.3803  -0.3789  -0.3786  -0.3777  -0.3636
    -0.3608  -0.3565  -0.3558  -0.3534  -0.3441  -0.3382  -0.3155  -0.3150
    -0.3139  -0.3118  -0.3103  -0.3097  -0.2904  -0.2903  -0.2870  -0.2341
    -0.2293  -0.2288  -0.2273  -0.2213  -0.2194  -0.2171  -0.2099  -0.2003
    -0.1869  -0.1857  -0.1836  -0.1691  -0.1640  -0.1636  -0.1573  -0.1410
    -0.1250  -0.1247  -0.1203  -0.1198  -0.1117  -0.1096  -0.1009  -0.0978
    -0.0936  -0.0870  -0.0816  -0.0679  -0.0604  -0.0548  -0.0305  -0.0289
    -0.0287  -0.0261  -0.0203  -0.0120  -0.0104  -0.0092  -0.0056   0.0105
     0.0171   0.0173   0.0303   0.0333   0.0412   0.0515   0.0574   0.0588
     0.0596   0.0878   0.1040   0.1052   0.1077   0.1108   0.1168   0.1319
     0.1497   0.1507   0.1556   0.1576   0.1593   0.1623   0.1632   0.1697
     0.1760   0.1762   0.1771   0.1790   0.1796   0.1835   0.2001   0.2030
     0.2033   0.2060   0.2098   0.2120   0.2280   0.2292   0.2452   0.2472
     0.2539   0.2653   0.2835   0.2842   0.2866   0.2874   0.2906   0.3034
     0.3094   0.3111   0.3117   0.3124   0.3129   0.3441   0.3486   0.3610
     0.3721   0.4212   0.4219   0.4238   0.4278   0.4382   0.4400   0.4409
     0.4420   0.4445   0.4523   0.4543   0.4546   0.4586   0.4607   0.4654
     0.4678   0.4730   0.4765   0.4770   0.4799   0.4886   0.4917   0.4978
     0.5021   0.5041   0.5053   0.5100   0.5269   0.5328   0.5371   0.5634
     0.5674   0.5751   0.5828   0.5937   0.5943   0.6119   0.6125   0.6130
     0.6168   0.6252   0.6329   0.6453   0.6491   0.6503   0.6564   0.6575
     0.6603   0.6625   0.6660   0.6664   0.6819   0.6878   0.6951   0.6997
     0.7082   0.7159   0.7175   0.7191   0.7201   0.7214   0.7247   0.7259
     0.7420   0.7502   0.7505   0.7538   0.7596   0.7630   0.7664   0.7669
     0.7702   0.7789   0.7796   0.7872   0.7882   0.7912   0.8074   0.8088
     0.8273   0.8278   0.8301   0.8342   0.8392   0.8404   0.8455   0.8587
     0.8719   0.8753   0.8933   0.8981   0.9103   0.9107   0.9147   0.9166
     0.9202   0.9347   0.9373   0.9410   0.9444   0.9485   0.9490   0.9556
     0.9611   0.9711   0.9719   0.9754   0.9847   0.9927   0.9948   0.9951
     1.0110   1.0236   1.0249   1.0264   1.0278   1.0475   1.0499   1.0583
     1.0613   1.0633   1.0638   1.0644   1.0723   1.0725   1.0763   1.0775
     1.0956   1.1064   1.1175   1.1196   1.1215   1.1244   1.1252   1.1380
     1.1396   1.1588   1.1606   1.1607   1.1633   1.1684   1.1695   1.1717
     1.1805   1.1874   1.1876   1.1879   1.1882   1.1906   1.1928   1.1945
     1.1966   1.2006   1.2011   1.2031   1.2087   1.2104   1.2173   1.2280
     1.2301   1.2308   1.2344   1.2384   1.2387   1.2451   1.2461   1.2599
     1.2602   1.2663   1.2746   1.2768   1.2774   1.2807   1.2815   1.2920
     1.3024   1.3060   1.3065   1.3149   1.3188   1.3221   1.3257   1.3263
     1.3282   1.3328   1.3459   1.3536   1.3588   1.3616   1.3623   1.3945
     1.4005   1.4032   1.4096   1.4140   1.4144   1.4179   1.4221   1.4227
     1.4234   1.4275   1.4316   1.4390   1.4452   1.4469   1.4483   1.4487
     1.4583   1.4668   1.4688   1.4695   1.4716   1.4749   1.4802   1.4829
     1.4836   1.4858   1.4864   1.4928   1.4932   1.4939   1.5020   1.5049
     1.5114   1.5177   1.5209   1.5233   1.5260   1.5262   1.5284   1.5300
     1.5447   1.5493   1.5494   1.5507   1.5716   1.5721   1.5807   1.5823
     1.5879   1.5912   1.5917   1.5929   1.5956   1.5974   1.6003   1.6027
     1.6039   1.6061   1.6100   1.6118   1.6258   1.6327   1.6332   1.6349
     1.6354   1.6387   1.6393   1.6488   1.6522   1.6526   1.6607   1.6639
     1.6750   1.6761   1.6793   1.6830   1.6844   1.6870   1.7079   1.7149
     1.7228   1.7416   1.7504   1.7853   1.7921   1.7951   1.7982   1.8278
     1.8335   1.9089   1.9251   1.9312   1.9328   1.9450   1.9508   1.9692
     2.0060   2.0920   2.2000   2.2202   2.2406   2.2487   2.2569   2.2594
     2.3589   2.4182   2.4295   2.7168   2.7318   2.7336   2.7362   2.8534
     3.1454   3.1456   3.1815   3.3628   3.3633   3.3877   3.3878   3.4400
     3.4559   3.6352   3.6452   3.7495   3.7535   3.7991   3.8032   3.8682
     3.8732   3.8878   3.8903   3.9301   4.0352   4.0428   4.1334   4.1422
     4.1620   4.3204   4.3614   4.3684   4.4143   4.4499   4.5585   4.6576
     4.8967   4.9428   4.9901   5.0466   5.2261   5.3378   5.3882   5.3911
     5.4003   5.4782   5.5388   5.6329   5.6409   5.6624   5.6978   5.7551
     5.7648   5.7926   5.8442   5.8710   5.9013   5.9126   5.9924   5.9993
     6.0193   6.1697   6.1776   6.1909   6.2185   6.2817   6.6894   6.7976
     6.8586   6.8694   6.8766   6.9115   6.9276   6.9646   7.0431   7.0781
     7.1857   7.2097   7.2159   7.2204   7.2365   7.3430   7.4185   7.4669
     7.4921   7.5862   7.6840   7.6932   7.7262   7.7375   7.8483   7.9388
     7.9473   7.9692   8.0399   8.1658   8.1802   8.2274   8.2356   8.2625
     8.3345   8.4106   8.4243   8.4508   8.4798   8.4814   8.5341   8.5676
     8.5784   8.6067   8.6614   8.8122   8.8149   9.0572   9.0657   9.0909
     9.1154   9.1259   9.2041   9.2510   9.3182   9.3383   9.3681   9.3800
     9.3928   9.4040   9.4353   9.4445   9.5006   9.5259   9.5648   9.5758
     9.5940   9.6165   9.6594   9.6789   9.7455   9.8328   9.8899   9.8908
     9.9028   9.9252

          k = 0.2500-0.2165 0.0000 (256316 PWs)   bands (ev):

   -20.9816 -18.6781 -17.4011 -16.0182 -15.7652 -15.3722 -15.2742 -15.0294
   -14.6079 -14.3907 -14.1363 -13.9410 -13.5794 -13.1191 -13.1033 -12.9824
   -12.6281 -12.4894 -12.0505 -11.8600 -11.4425 -11.2606 -11.1373 -10.9549
   -10.7955 -10.4659  -9.9795  -9.6551  -9.5032  -9.2212  -9.1052  -8.9365
    -8.8809  -8.5104  -8.4459  -8.3120  -8.2579  -7.2924  -6.9813  -6.8486
    -6.5372  -6.4855  -6.4242  -6.3157  -6.2849  -6.1583  -5.9197  -5.8566
    -5.5355  -5.5288  -5.3263  -5.1202  -4.9421  -4.8116  -4.7335  -4.6473
    -4.5768  -4.5047  -4.4988  -4.4406  -4.3563  -4.1773  -4.1727  -4.1486
    -4.0877  -4.0307  -4.0131  -3.9813  -3.8872  -3.7173  -3.6541  -3.5967
    -3.5710  -3.4277  -3.4101  -3.3677  -3.2900  -3.2864  -3.2807  -3.2400
    -3.1813  -3.1437  -3.0697  -3.0330  -2.9700  -2.9311  -2.8900  -2.8604
    -2.7758  -2.7470  -2.7441  -2.7370  -2.7348  -2.6406  -2.5729  -2.5257
    -2.4910  -2.3245  -2.2359  -2.1442  -2.1407  -2.0959  -2.0370  -2.0086
    -1.9969  -1.9968  -1.9892  -1.9495  -1.8451  -1.8387  -1.8372  -1.8045
    -1.7929  -1.7860  -1.7371  -1.6937  -1.6485  -1.6415  -1.6408  -1.6283
    -1.6042  -1.5815  -1.5780  -1.5527  -1.5506  -1.5401  -1.5366  -1.5247
    -1.5129  -1.5064  -1.5054  -1.5049  -1.4986  -1.4955  -1.4943  -1.4141
    -1.4066  -1.2980  -1.2974  -1.2164  -1.1983  -1.1959  -1.1928  -1.1599
    -1.1582  -1.1135  -1.1075  -1.1053  -1.0919  -1.0914  -1.0887  -1.0786
    -1.0764  -1.0687  -1.0635  -1.0543  -1.0529  -1.0461  -1.0375  -1.0340
    -1.0309  -1.0288  -1.0225  -1.0174  -1.0099  -1.0065  -0.9625  -0.9613
    -0.9591  -0.9517  -0.9498  -0.9433  -0.9423  -0.9364  -0.9168  -0.9071
    -0.9035  -0.8770  -0.8691  -0.8688  -0.8612  -0.8572  -0.8523  -0.8281
    -0.8253  -0.8250  -0.8082  -0.7994  -0.7956  -0.7911  -0.7906  -0.7877
    -0.7853  -0.7844  -0.7763  -0.7705  -0.7557  -0.7517  -0.7335  -0.7287
    -0.7028  -0.6914  -0.6908  -0.6904  -0.6399  -0.6133  -0.6097  -0.6051
    -0.6003  -0.5976  -0.5956  -0.5750  -0.5537  -0.5496  -0.5422  -0.5419
    -0.5346  -0.5343  -0.5255  -0.5218  -0.5070  -0.4827  -0.4819  -0.4485
    -0.4437  -0.4362  -0.3993  -0.3974  -0.3936  -0.3921  -0.3904  -0.3652
    -0.3624  -0.3589  -0.3517  -0.3429  -0.3368  -0.3316  -0.3301  -0.3180
    -0.3165  -0.3020  -0.2902  -0.2872  -0.2824  -0.2779  -0.2694  -0.2659
    -0.2387  -0.2384  -0.2308  -0.2241  -0.2218  -0.2145  -0.2100  -0.1991
    -0.1979  -0.1938  -0.1930  -0.1904  -0.1863  -0.1857  -0.1819  -0.1797
    -0.1677  -0.1588  -0.1470  -0.1468  -0.1284  -0.1210  -0.1097  -0.1031
    -0.0961  -0.0854  -0.0735  -0.0697  -0.0691  -0.0593  -0.0494  -0.0479
    -0.0469  -0.0447  -0.0380  -0.0107   0.0014   0.0139   0.0144   0.0516
     0.0522   0.0619   0.0622   0.0651   0.0664   0.0818   0.0821   0.0847
     0.1003   0.1009   0.1048   0.1120   0.1138   0.1187   0.1278   0.1297
     0.1335   0.1339   0.1381   0.1520   0.1611   0.1641   0.1656   0.1675
     0.1687   0.1714   0.1723   0.1729   0.1769   0.1776   0.1805   0.2006
     0.2010   0.2015   0.2019   0.2343   0.2356   0.2428   0.2444   0.2477
     0.2495   0.2697   0.2709   0.2736   0.2931   0.3002   0.3011   0.3037
     0.3093   0.3162   0.3204   0.3208   0.3216   0.3306   0.3362   0.3418
     0.3458   0.3480   0.3718   0.3773   0.4284   0.4378   0.4438   0.4445
     0.4481   0.4513   0.4523   0.4557   0.4564   0.4634   0.4654   0.4678
     0.4719   0.4782   0.4862   0.4914   0.4957   0.4974   0.4985   0.5009
     0.5094   0.5109   0.5202   0.5317   0.5435   0.5505   0.5513   0.5623
     0.5640   0.5733   0.5750   0.6111   0.6143   0.6172   0.6240   0.6242
     0.6254   0.6289   0.6381   0.6414   0.6415   0.6454   0.6498   0.6515
     0.6549   0.6566   0.6631   0.6786   0.6842   0.6887   0.6909   0.7026
     0.7050   0.7252   0.7374   0.7378   0.7387   0.7398   0.7667   0.7726
     0.7746   0.7756   0.7765   0.7800   0.7816   0.7830   0.7936   0.7948
     0.7960   0.8006   0.8031   0.8079   0.8116   0.8237   0.8255   0.8288
     0.8374   0.8380   0.8400   0.8402   0.8457   0.8470   0.8548   0.8558
     0.8577   0.8602   0.8690   0.8778   0.8790   0.8808   0.8857   0.8866
     0.8874   0.8901   0.8908   0.8918   0.9225   0.9255   0.9333   0.9380
     0.9439   0.9587   0.9681   0.9769   0.9879   0.9926   0.9930   0.9950
     0.9958   0.9995   1.0006   1.0226   1.0229   1.0235   1.0238   1.0255
     1.0258   1.0342   1.0387   1.0453   1.0534   1.0543   1.0606   1.0651
     1.0683   1.0744   1.0876   1.0974   1.0975   1.1131   1.1207   1.1223
     1.1259   1.1300   1.1325   1.1351   1.1357   1.1377   1.1482   1.1618
     1.1696   1.1716   1.1798   1.1856   1.1879   1.1905   1.1990   1.2063
     1.2115   1.2282   1.2318   1.2337   1.2491   1.2495   1.2556   1.2567
     1.2578   1.2596   1.2608   1.2610   1.2623   1.2661   1.2707   1.2748
     1.2750   1.2851   1.2861   1.2884   1.2983   1.3067   1.3149   1.3338
     1.3351   1.3394   1.3412   1.3433   1.3446   1.3451   1.3477   1.3533
     1.3565   1.3580   1.3586   1.3626   1.3677   1.3706   1.3725   1.3727
     1.3750   1.3787   1.3843   1.3916   1.3921   1.3928   1.3935   1.3947
     1.3991   1.4076   1.4100   1.4138   1.4151   1.4384   1.4395   1.4460
     1.4476   1.4615   1.4627   1.4670   1.4675   1.4790   1.4792   1.4824
     1.4902   1.4922   1.4991   1.4996   1.5026   1.5030   1.5056   1.5150
     1.5162   1.5171   1.5200   1.5285   1.5287   1.5394   1.5435   1.5503
     1.5507   1.5514   1.5526   1.5540   1.5570   1.5612   1.5614   1.5734
     1.5740   1.5775   1.5788   1.5878   1.5902   1.5912   1.5951   1.6040
     1.6057   1.6060   1.6069   1.6116   1.6129   1.6132   1.6160   1.6180
     1.6224   1.6227   1.6442   1.6470   1.6473   1.6520   1.6603   1.6698
     1.6714   1.6892   1.6907   1.6938   1.6976   1.7176   1.7191   1.7242
     1.7276   1.7519   1.7528   1.7678   1.7886   1.8159   1.8330   1.8345
     1.8707   1.9195   1.9236   1.9353   1.9422   1.9509   1.9553   1.9572
     1.9618   1.9775   2.0017   2.0245   2.2928   2.2947   2.3251   2.3273
     2.4424   2.4620   2.7339   2.7527   2.7710   2.9504   2.9592   2.9602
     2.9628   2.9718   2.9900   3.0063   3.0260   3.1511   3.1538   3.2312
     3.2651   3.6941   3.7176   3.7754   3.7773   3.8264   3.8644   4.0013
     4.0104   4.0138   4.0159   4.1595   4.1643   4.2203   4.2310   4.3256
     4.3321   4.3851   4.5316   4.5437   4.5457   4.6852   4.7152   4.7217
     4.8143   4.8386   4.8576   4.8811   5.0505   5.1004   5.1126   5.1554
     5.2252   5.2501   5.3949   5.4683   5.4846   5.5401   5.6022   5.6166
     5.6285   5.6349   5.6662   5.7874   5.9303   5.9362   6.0555   6.0659
     6.0916   6.1424   6.1828   6.3726   6.7428   6.7533   6.7891   6.7951
     6.8655   6.9161   6.9445   7.0255   7.0353   7.1736   7.1847   7.2393
     7.2476   7.2589   7.2714   7.2967   7.3455   7.3689   7.3965   7.4755
     7.5042   7.5084   7.5223   7.5440   7.6061   7.6097   7.7997   7.8501
     7.8732   7.9481   7.9635   8.0203   8.1531   8.1656   8.3103   8.3579
     8.3657   8.3883   8.4387   8.4585   8.5518   8.6665   8.7085   8.7480
     8.7542   8.7958   8.8028   8.8441   8.8702   8.8775   8.9209   8.9774
     9.0210   9.0918   9.1158   9.1289   9.2511   9.2904   9.2990   9.3048
     9.3284   9.3451   9.3618   9.4011   9.4149   9.4234   9.4390   9.4932
     9.5213   9.5419   9.5700   9.5816   9.5991   9.6986   9.7022   9.7344
     9.8132   9.9181

          k =-0.5000 0.0000 0.0000 (256496 PWs)   bands (ev):

   -20.9816 -18.6780 -17.3690 -15.8308 -15.5995 -15.4550 -15.4489 -15.3806
   -14.7277 -14.4415 -14.3468 -14.3060 -13.2606 -12.7302 -12.5936 -12.5297
   -12.3213 -12.2324 -11.7722 -11.7325 -11.6322 -11.6290 -11.1330 -11.0429
   -10.8800 -10.5824 -10.1654 -10.1479  -9.9703  -9.6715  -9.5865  -8.9857
    -8.9039  -8.8059  -8.7789  -7.7219  -7.5500  -7.4368  -7.2513  -7.2021
    -7.1726  -6.8418  -6.2083  -6.0226  -5.7110  -5.1860  -5.1383  -5.1344
    -5.0322  -4.8432  -4.7435  -4.6783  -4.6385  -4.6326  -4.6318  -4.6292
    -4.6245  -4.5969  -4.5648  -4.5499  -4.4907  -4.4174  -4.3703  -4.3014
    -4.2283  -4.2088  -4.1995  -4.0318  -3.8604  -3.8328  -3.8079  -3.8067
    -3.7698  -3.6345  -3.5396  -3.4502  -3.4038  -3.3827  -3.3731  -3.2671
    -3.2569  -3.2513  -3.2483  -3.2475  -3.2458  -3.2161  -3.2011  -3.1718
    -3.0508  -2.7810  -2.7479  -2.6894  -2.6507  -2.5970  -2.5875  -2.5836
    -2.5004  -2.4352  -2.4279  -2.2878  -2.2748  -2.2636  -2.1366  -2.1305
    -2.1298  -2.1282  -1.9025  -1.7271  -1.7081  -1.7076  -1.7069  -1.7062
    -1.7054  -1.7038  -1.6961  -1.5839  -1.5822  -1.5812  -1.5583  -1.5193
    -1.4798  -1.4797  -1.4793  -1.4776  -1.4314  -1.4305  -1.4295  -1.4286
    -1.3344  -1.3302  -1.3233  -1.3185  -1.3168  -1.3161  -1.2784  -1.2553
    -1.2550  -1.2545  -1.2520  -1.2364  -1.2350  -1.1872  -1.1866  -1.1822
    -1.1801  -1.1719  -1.1715  -1.1701  -1.1685  -1.1671  -1.1596  -1.1217
    -1.1215  -1.1204  -1.1180  -1.0976  -1.0968  -1.0967  -1.0956  -1.0346
    -1.0335  -1.0287  -1.0136  -1.0120  -1.0108  -1.0103  -0.9883  -0.9864
    -0.9831  -0.9801  -0.9792  -0.9787  -0.9757  -0.9549  -0.9372  -0.9370
    -0.9359  -0.9355  -0.9176  -0.9147  -0.9136  -0.8854  -0.8849  -0.8421
    -0.8395  -0.8385  -0.8112  -0.8103  -0.8082  -0.8068  -0.7867  -0.7835
    -0.7822  -0.7802  -0.7750  -0.7736  -0.7716  -0.7631  -0.7618  -0.7584
    -0.7572  -0.7546  -0.7331  -0.7315  -0.6709  -0.6698  -0.6675  -0.6674
    -0.6247  -0.6239  -0.5587  -0.5410  -0.5401  -0.5397  -0.5392  -0.5194
    -0.5113  -0.5031  -0.5025  -0.5010  -0.5004  -0.4984  -0.4927  -0.4700
    -0.4640  -0.4629  -0.4594  -0.4554  -0.4503  -0.4464  -0.4364  -0.4312
    -0.4284  -0.4171  -0.3835  -0.3474  -0.3414  -0.3090  -0.3014  -0.3007
    -0.2976  -0.2866  -0.2864  -0.2846  -0.2590  -0.2434  -0.2400  -0.2374
    -0.2370  -0.2347  -0.2326  -0.2284  -0.2178  -0.1993  -0.1988  -0.1982
    -0.1976  -0.1923  -0.1599  -0.1595  -0.1591  -0.1583  -0.1524  -0.1256
    -0.1255  -0.1250  -0.1249  -0.1137  -0.1132  -0.0809  -0.0807  -0.0784
    -0.0778  -0.0739  -0.0681  -0.0581  -0.0563  -0.0429  -0.0297  -0.0239
     0.0156   0.0327   0.0339   0.0342   0.0348   0.0400   0.0405   0.0424
     0.0431   0.0802   0.0805   0.0840   0.0877   0.1171   0.1174   0.1434
     0.1437   0.1451   0.1462   0.1463   0.1470   0.1480   0.1489   0.1497
     0.1508   0.1511   0.1521   0.1772   0.2106   0.2237   0.2271   0.2313
     0.2354   0.2359   0.2393   0.2414   0.2424   0.2430   0.2458   0.2477
     0.2501   0.2506   0.2538   0.2545   0.2576   0.2589   0.2645   0.2686
     0.2687   0.2842   0.2847   0.2880   0.2882   0.2885   0.2888   0.2973
     0.2973   0.2978   0.2979   0.3102   0.3109   0.3160   0.3227   0.3232
     0.3238   0.3247   0.3353   0.3532   0.3548   0.3743   0.4232   0.4356
     0.4541   0.4544   0.4573   0.4574   0.4879   0.4882   0.4891   0.4898
     0.5004   0.5014   0.5044   0.5067   0.5109   0.5112   0.5147   0.5159
     0.5172   0.5178   0.5258   0.5260   0.5270   0.5291   0.5334   0.5392
     0.5438   0.5455   0.5489   0.5548   0.5580   0.5581   0.5663   0.5665
     0.5724   0.5727   0.5966   0.6045   0.6550   0.6584   0.6625   0.6639
     0.6734   0.6760   0.6889   0.6901   0.6946   0.6950   0.6975   0.6996
     0.7009   0.7019   0.7035   0.7041   0.7044   0.7071   0.7097   0.7099
     0.7145   0.7156   0.7165   0.7189   0.7332   0.7363   0.7534   0.7535
     0.7638   0.7665   0.7718   0.7793   0.7864   0.7872   0.7901   0.7913
     0.8003   0.8006   0.8015   0.8035   0.8039   0.8071   0.8158   0.8178
     0.8218   0.8220   0.8360   0.8380   0.8382   0.8405   0.8701   0.8731
     0.8754   0.8766   0.8806   0.8849   0.8903   0.8960   0.9104   0.9264
     0.9335   0.9338   0.9356   0.9359   0.9364   0.9390   0.9397   0.9778
     1.0044   1.0045   1.0084   1.0093   1.0097   1.0101   1.0141   1.0145
     1.0214   1.0220   1.0227   1.0234   1.0337   1.0354   1.0527   1.0549
     1.0563   1.0574   1.0606   1.0667   1.0744   1.0750   1.0752   1.0763
     1.0774   1.0775   1.1119   1.1152   1.1157   1.1162   1.1316   1.1582
     1.1811   1.1818   1.1823   1.1826   1.1891   1.2148   1.2159   1.2160
     1.2171   1.2198   1.2340   1.2346   1.2428   1.2457   1.2474   1.2568
     1.2595   1.2610   1.2782   1.2783   1.2838   1.2851   1.2862   1.2864
     1.2923   1.2932   1.2937   1.2956   1.3038   1.3040   1.3049   1.3051
     1.3065   1.3068   1.3079   1.3094   1.3362   1.3445   1.3449   1.3452
     1.3460   1.3680   1.3740   1.3767   1.3778   1.3809   1.3818   1.3825
     1.3901   1.3991   1.4009   1.4095   1.4099   1.4107   1.4114   1.4198
     1.4211   1.4218   1.4219   1.4247   1.4334   1.4380   1.4391   1.4464
     1.4675   1.4682   1.4746   1.4820   1.4831   1.4833   1.4834   1.4839
     1.4841   1.4846   1.4943   1.4979   1.4983   1.4987   1.4997   1.4998
     1.5011   1.5014   1.5061   1.5077   1.5105   1.5110   1.5112   1.5116
     1.5180   1.5181   1.5327   1.5340   1.5433   1.5539   1.5545   1.5570
     1.5588   1.5605   1.5611   1.5621   1.5653   1.5787   1.5819   1.5837
     1.5838   1.5976   1.5983   1.6048   1.6062   1.6169   1.6170   1.6174
     1.6183   1.6344   1.6375   1.6394   1.6403   1.6422   1.6468   1.6475
     1.6477   1.6481   1.6530   1.6601   1.6673   1.6691   1.6788   1.6813
     1.6817   1.6821   1.6823   1.6927   1.6961   1.6973   1.7418   1.7469
     1.7495   1.7743   1.7751   1.7786   1.7802   1.7969   2.1893   2.2001
     2.2014   2.2022   2.3822   2.4055   2.4173   2.4240   2.4516   2.4532
     2.4604   2.4607   2.6788   2.7847   2.7912   2.7950   2.8300   2.9986
     3.0027   3.0044   3.0200   3.3533   3.3536   3.3569   3.3572   3.6402
     3.6441   3.9170   3.9239   3.9291   3.9295   4.0880   4.0898   4.0954
     4.0965   4.2297   4.2368   4.2394   4.2449   4.3496   4.3534   4.4156
     4.5534   4.5944   4.8574   4.9083   4.9169   4.9250   4.9317   4.9862
     4.9939   4.9972   5.0549   5.1054   5.1862   5.1893   5.2054   5.2142
     5.2169   5.2227   5.2411   5.2415   5.2601   5.2725   5.3005   5.3160
     5.5242   5.5841   5.6963   5.7069   5.7183   5.7838   5.8471   5.8633
     5.9802   6.1515   6.1557   6.1656   6.1783   6.1832   6.2108   6.2149
     6.2218   6.2754   6.5387   6.5811   6.6081   6.6147   6.6211   6.6320
     6.6607   6.7830   7.2446   7.2611   7.2621   7.2856   7.2907   7.2923
     7.6537   7.7524   7.7549   7.7692   7.7711   7.7722   7.7777   7.8092
     7.9198   7.9851   8.0071   8.0517   8.0553   8.0599   8.0754   8.1763
     8.2233   8.2282   8.2304   8.2481   8.3021   8.3151   8.3184   8.3294
     8.5256   8.6893   8.7129   8.8492   8.9396   8.9879   8.9974   8.9996
     9.0026   9.0537   9.0658   9.1442   9.2197   9.2347   9.2445   9.2599
     9.2771   9.4060   9.4379   9.4408   9.5643   9.5759   9.5769   9.5844
     9.5933   9.6640   9.6782   9.6903   9.6940   9.6979   9.7122   9.7469
     9.7753   9.8298

          k =-0.5000-0.2165 0.0000 (256328 PWs)   bands (ev):

   -20.9816 -18.6780 -17.3690 -15.7951 -15.6576 -15.6328 -15.2678 -15.0445
   -14.9870 -14.9354 -14.0230 -13.6628 -13.5389 -13.5011 -12.7074 -12.2537
   -11.8412 -11.8342 -11.7884 -11.6040 -11.5006 -11.4203 -11.3774 -11.3678
   -11.2553 -11.2411 -10.1300  -9.8460  -9.6729  -9.5638  -9.4827  -9.0651
    -8.7134  -8.6225  -8.5914  -8.1232  -8.0450  -7.8688  -7.8364  -7.0218
    -6.4128  -6.1956  -5.9118  -5.7884  -5.6768  -5.4464  -5.2446  -5.1500
    -5.1423  -5.0293  -5.0115  -5.0107  -5.0082  -5.0013  -4.8595  -4.8439
    -4.7540  -4.4398  -4.2619  -4.2033  -4.1695  -4.1676  -4.0984  -4.0634
    -4.0500  -4.0311  -4.0272  -4.0263  -4.0090  -3.9986  -3.8535  -3.7082
    -3.7020  -3.6822  -3.6763  -3.6146  -3.5797  -3.5566  -3.5257  -3.5206
    -3.4322  -3.4283  -3.3220  -3.2928  -3.2773  -3.1686  -3.0645  -2.8970
    -2.8905  -2.8807  -2.5830  -2.5073  -2.4420  -2.4074  -2.4071  -2.4054
    -2.4034  -2.3597  -2.3445  -2.3441  -2.3277  -2.2582  -2.1761  -1.9844
    -1.9480  -1.9275  -1.9271  -1.9261  -1.9110  -1.8964  -1.8540  -1.8454
    -1.8444  -1.8385  -1.8246  -1.6334  -1.6323  -1.6302  -1.6278  -1.5888
    -1.5692  -1.5607  -1.4537  -1.3624  -1.3360  -1.3324  -1.3227  -1.3221
    -1.3218  -1.3215  -1.2900  -1.2856  -1.2821  -1.2819  -1.2648  -1.2642
    -1.2602  -1.2600  -1.2160  -1.2151  -1.2148  -1.2144  -1.2136  -1.2115
    -1.2059  -1.2051  -1.2015  -1.1874  -1.1873  -1.1868  -1.1866  -1.1400
    -1.1383  -1.1354  -1.1352  -1.1233  -1.0626  -1.0622  -1.0597  -1.0522
    -1.0216  -1.0214  -1.0185  -1.0183  -1.0014  -1.0012  -0.9995  -0.9974
    -0.9760  -0.9514  -0.9509  -0.9504  -0.9501  -0.9454  -0.9453  -0.9452
    -0.9433  -0.9273  -0.9214  -0.9176  -0.9131  -0.8917  -0.8914  -0.8805
    -0.8788  -0.8744  -0.8744  -0.8710  -0.8682  -0.8668  -0.8651  -0.8646
    -0.8640  -0.8624  -0.8586  -0.8349  -0.7144  -0.7137  -0.7103  -0.7086
    -0.6819  -0.6816  -0.6815  -0.6812  -0.6035  -0.6027  -0.6020  -0.5992
    -0.5959  -0.5954  -0.5920  -0.5916  -0.5912  -0.5904  -0.5886  -0.5796
    -0.5294  -0.5291  -0.5289  -0.5271  -0.5193  -0.5187  -0.5179  -0.5168
    -0.5033  -0.5022  -0.4909  -0.4877  -0.4107  -0.4078  -0.4077  -0.4019
    -0.3971  -0.3964  -0.3957  -0.3894  -0.3293  -0.3288  -0.3275  -0.3256
    -0.2809  -0.2790  -0.2785  -0.2781  -0.2662  -0.2594  -0.2593  -0.2563
    -0.2557  -0.2324  -0.2319  -0.2281  -0.2200  -0.2189  -0.2186  -0.2172
    -0.2046  -0.1816  -0.1783  -0.1775  -0.1711  -0.1067  -0.1064  -0.1004
    -0.0998  -0.0869  -0.0866  -0.0859  -0.0853  -0.0710  -0.0705  -0.0702
    -0.0696   0.0099   0.0118   0.0120   0.0134   0.0156   0.0168   0.0177
     0.0191   0.0196   0.0201   0.0203   0.0215   0.0568   0.0570   0.0572
     0.0576   0.0692   0.0697   0.0700   0.0704   0.0740   0.0750   0.0752
     0.0764   0.1411   0.1431   0.1437   0.1453   0.1593   0.1653   0.1738
     0.1762   0.1837   0.2139   0.2152   0.2215   0.2251   0.2278   0.2292
     0.2475   0.2485   0.2489   0.2494   0.2523   0.2551   0.2567   0.2579
     0.2592   0.2601   0.2625   0.2645   0.2692   0.2699   0.2703   0.2705
     0.2753   0.2754   0.2778   0.2786   0.2799   0.2925   0.2926   0.2930
     0.2954   0.3196   0.3197   0.3206   0.3207   0.3304   0.3315   0.3315
     0.3342   0.3801   0.3802   0.3807   0.3814   0.4052   0.4129   0.4144
     0.4157   0.4345   0.4771   0.4809   0.4882   0.4919   0.4939   0.4956
     0.4974   0.4986   0.5033   0.5083   0.5124   0.5137   0.5148   0.5156
     0.5252   0.5258   0.5272   0.5317   0.5328   0.5348   0.5368   0.5393
     0.5441   0.5463   0.5481   0.5487   0.5531   0.5541   0.5602   0.5622
     0.6182   0.6183   0.6219   0.6231   0.6270   0.6272   0.6274   0.6315
     0.6379   0.6381   0.6390   0.6400   0.6672   0.6694   0.6778   0.6788
     0.6796   0.6804   0.6901   0.6907   0.7167   0.7190   0.7203   0.7264
     0.7290   0.7293   0.7358   0.7364   0.7371   0.7376   0.7395   0.7405
     0.7444   0.7447   0.7465   0.7487   0.7598   0.7606   0.7627   0.7628
     0.7654   0.7734   0.7786   0.7801   0.8324   0.8416   0.8459   0.8494
     0.8500   0.8527   0.8528   0.8541   0.8551   0.8558   0.8612   0.8622
     0.8671   0.8710   0.8773   0.8786   0.8969   0.8982   0.8989   0.8997
     0.8999   0.9010   0.9014   0.9050   0.9381   0.9488   0.9529   0.9539
     0.9755   0.9792   0.9804   0.9813   0.9845   0.9862   0.9990   1.0012
     1.0154   1.0154   1.0188   1.0209   1.0413   1.0416   1.0437   1.0437
     1.0941   1.0950   1.0956   1.0960   1.1258   1.1265   1.1297   1.1299
     1.1417   1.1785   1.1788   1.1810   1.1866   1.1950   1.1962   1.1968
     1.2026   1.2071   1.2075   1.2086   1.2130   1.2131   1.2133   1.2137
     1.2152   1.2156   1.2160   1.2189   1.2193   1.2232   1.2251   1.2428
     1.2450   1.2465   1.2476   1.2486   1.2501   1.2507   1.2519   1.2527
     1.2594   1.2641   1.2672   1.2688   1.2857   1.2874   1.2929   1.2940
     1.2946   1.2983   1.3020   1.3029   1.3098   1.3114   1.3117   1.3125
     1.3483   1.3598   1.3610   1.3615   1.3630   1.3640   1.3664   1.3679
     1.3864   1.3902   1.3910   1.3911   1.3929   1.4053   1.4074   1.4103
     1.4107   1.4164   1.4269   1.4276   1.4380   1.4395   1.4398   1.4404
     1.4472   1.4473   1.4499   1.4508   1.4541   1.4550   1.4559   1.4567
     1.4929   1.5197   1.5217   1.5219   1.5220   1.5231   1.5231   1.5234
     1.5236   1.5279   1.5307   1.5330   1.5331   1.5408   1.5411   1.5413
     1.5437   1.5468   1.5511   1.5536   1.5537   1.5539   1.5581   1.5600
     1.5616   1.5625   1.5646   1.5647   1.5659   1.5723   1.5756   1.5765
     1.5836   1.5843   1.5848   1.5859   1.6162   1.6171   1.6172   1.6175
     1.6298   1.6320   1.6336   1.6339   1.6381   1.6454   1.6484   1.6529
     1.6618   1.6691   1.6699   1.6705   1.6939   1.7185   1.7240   1.7248
     1.7408   1.7412   1.7416   1.7426   1.7687   1.7711   1.7712   1.7746
     1.7775   1.7798   1.7803   1.7806   1.7843   1.7847   1.7858   1.7860
     2.0006   2.0034   2.0040   2.0045   2.4636   2.5013   2.5256   2.5258
     2.6386   2.7276   2.7309   2.7314   2.7695   2.9621   2.9651   2.9661
     2.9948   3.2584   3.2616   3.2643   3.2715   3.6219   3.6221   3.6222
     3.6248   3.8057   3.8078   3.8165   3.8179   4.0966   4.0971   4.0978
     4.0996   4.3846   4.3934   4.3949   4.3993   4.4486   4.4742   4.5210
     4.5252   4.5371   4.7001   4.7276   4.7296   4.7360   4.7500   4.7549
     4.7601   4.8790   4.9899   5.0490   5.0550   5.1611   5.1817   5.2171
     5.3116   5.3291   5.3333   5.3453   5.3585   5.4104   5.4306   5.4648
     5.5060   5.5075   5.5212   5.5249   5.5583   5.6883   5.8428   5.8985
     5.9166   5.9173   5.9192   5.9209   5.9542   5.9739   6.0372   6.0851
     6.0906   6.5255   6.9197   6.9214   6.9880   6.9887   7.1356   7.2679
     7.2794   7.3106   7.3135   7.3187   7.3214   7.3266   7.3743   7.4481
     7.4506   7.4584   7.4813   7.5335   7.5358   7.5361   7.5431   7.7783
     7.7865   7.7916   7.8014   7.9882   8.0502   8.1263   8.1426   8.1492
     8.1582   8.1969   8.2140   8.3659   8.4038   8.4052   8.4164   8.4224
     8.4776   8.5796   8.8890   9.0462   9.0508   9.0565   9.0598   9.0798
     9.0847   9.0922   9.1006   9.1336   9.1365   9.1378   9.1391   9.1628
     9.1639   9.2198   9.2261   9.2432   9.3049   9.3558   9.3741   9.4878
     9.6733   9.6815   9.7143   9.7267   9.7362   9.7473   9.7539   9.7632
     9.8595   9.8670

     the Fermi energy is     3.4901 ev

!    total energy              =  -12783.29227030 Ry
     Harris-Foulkes estimate   =  -12783.29227032 Ry
     estimated scf accuracy    <          9.8E-09 Ry

     The total energy is the sum of the following terms:

     one-electron contribution = -107433.21031872 Ry
     hartree contribution      =   55092.91632125 Ry
     xc contribution           =   -4465.78135634 Ry
     ewald contribution        =   44029.16683408 Ry
     Dispersion Correction     =      -3.01374636 Ry
     smearing contrib. (-TS)   =      -3.37000421 Ry

     convergence has been achieved in  45 iterations

     Writing output data file gc.save
 
     init_run     :    102.83s CPU    110.27s WALL (       1 calls)
     electrons    :  13103.26s CPU  13971.46s WALL (       1 calls)

     Called by init_run:
     wfcinit      :    100.10s CPU    106.85s WALL (       1 calls)
     potinit      :      0.62s CPU      0.67s WALL (       1 calls)

     Called by electrons:
     c_bands      :  12088.34s CPU  12857.90s WALL (      45 calls)
     sum_band     :    845.53s CPU    917.13s WALL (      45 calls)
     v_of_rho     :      3.08s CPU      3.67s WALL (      46 calls)
     newd         :      9.43s CPU     15.43s WALL (      46 calls)
     mix_rho      :    156.77s CPU    177.15s WALL (      45 calls)

     Called by c_bands:
     init_us_2    :     37.97s CPU     38.58s WALL (     546 calls)
     cegterg      :  11919.92s CPU  12683.34s WALL (     277 calls)

     Called by sum_band:
     sum_band:bec :      4.78s CPU      5.40s WALL (     270 calls)
     addusdens    :      9.33s CPU     15.50s WALL (      45 calls)

     Called by *egterg:
     h_psi        :   4179.28s CPU   4506.47s WALL (    2127 calls)
     s_psi        :   1015.15s CPU   1026.76s WALL (    2127 calls)
     g_psi        :     10.59s CPU     10.58s WALL (    1844 calls)
     cdiaghg      :   3786.20s CPU   3929.10s WALL (    2114 calls)

     Called by h_psi:
     add_vuspsi   :   1020.85s CPU   1033.66s WALL (    2127 calls)

     General routines
     calbec       :   1439.88s CPU   1450.59s WALL (    2397 calls)
     fft          :      3.92s CPU      4.58s WALL (     597 calls)
     ffts         :     91.28s CPU    103.14s WALL (   23996 calls)
     fftw         :   2400.52s CPU   2655.49s WALL ( 1324482 calls)
     davcio       :      0.32s CPU      4.38s WALL (       6 calls)
 
     Parallel routines
     fft_scatter  :   1546.29s CPU   1689.03s WALL ( 1349075 calls)
 
     PWSCF        :     3h40m CPU        3h54m WALL

 
   This run was terminated on:  14:46: 6  12May2017            

=------------------------------------------------------------------------------=
   JOB DONE.
=------------------------------------------------------------------------------=
