mpirun: INFO: switching to OpenMPI runtime version 1.10.2

     Program PWSCF v.5.4.0 starts on 12May2017 at 10:20: 5 

     This program is part of the open-source Quantum ESPRESSO suite
     for quantum simulation of materials; please cite
         "P. Giannozzi et al., J. Phys.:Condens. Matter 21 395502 (2009);
          URL http://www.quantum-espresso.org", 
     in publications or presentations arising from this work. More details at
     http://www.quantum-espresso.org/quote

     Parallel version (MPI & OpenMP), running on      56 processor cores
     Number of MPI processes:                56
     Threads/MPI process:                     1
     R & G space division:  proc/nbgrp/npool/nimage =      56
     Waiting for input...
     Reading input from standard input
Warning: card &IONS ignored
Warning: card / ignored

     Current dimensions of program PWSCF are:
     Max number of different atomic species (ntypx) = 10
     Max number of k-points (npk) =  40000
     Max angular momentum in pseudopotentials (lmaxx) =  3

     -------------------------------------
     Parameters for Dispersion Correction:
     -------------------------------------
       atom      VdW radius       C_6     

        Cu         2.952        374.666
        C_h        2.744         60.710
        C          2.744         60.710
        H          1.892          4.857

     Subspace diagonalization in iterative solution of the eigenvalue problem:
     one sub-group per band group will be used
     scalapack distributed-memory algorithm (size of sub-group:  5*  5 procs)

 
     Parallelization info
     --------------------
     sticks:   dense  smooth     PW     G-vecs:    dense   smooth      PW
     Min         204     204     54                36612    36612    4962
     Max         205     205     55                36617    36617    4968
     Sum       11433   11433   3039              2050409  2050409  278033
 


     bravais-lattice index     =            0
     lattice parameter (alat)  =      13.9425  a.u.
     unit-cell volume          =   21209.0878 (a.u.)^3
     number of atoms/cell      =          149
     number of atomic types    =            4
     number of electrons       =      1293.00
     number of Kohn-Sham states=          776
     kinetic-energy cutoff     =      80.0000  Ry
     charge density cutoff     =     320.0000  Ry
     convergence threshold     =      1.0E-08
     mixing beta               =       0.7000
     number of iterations used =            8  local-TF  mixing
     Exchange-correlation      =  SLA  PW   PBE  PBE ( 1  4  3  4 0 0)

     celldm(1)=  13.942539  celldm(2)=   0.000000  celldm(3)=   0.000000
     celldm(4)=   0.000000  celldm(5)=   0.000000  celldm(6)=   0.000000

     crystal axes: (cart. coord. in units of alat)
               a(1) = (   1.000000   0.000000   0.000000 )  
               a(2) = (   0.000000   2.309401   0.000000 )  
               a(3) = (   0.000000   0.000000   3.388418 )  

     reciprocal axes: (cart. coord. in units 2 pi/alat)
               b(1) = (  1.000000  0.000000  0.000000 )  
               b(2) = (  0.000000  0.433013  0.000000 )  
               b(3) = (  0.000000  0.000000  0.295123 )  


     PseudoPot. # 1 for Cu read from file:
     /home/549/hxw549/Short/pseudopotentials/Cu.pbe-n-van_ak.UPF
     MD5 check sum: 601f7c30f7467666bec936e0661ce3e1
     Pseudo is Ultrasoft + core correction, Zval = 11.0
     Generated by new atomic code, or converted to UPF format
     Using radial grid of  867 points,  6 beta functions with: 
                l(1) =   0
                l(2) =   0
                l(3) =   1
                l(4) =   1
                l(5) =   2
                l(6) =   2
     Q(r) pseudized with  8 coefficients,  rinner =    1.400   1.400   1.400
                                                       1.400   1.400

     PseudoPot. # 2 for C  read from file:
     /home/549/hxw549/Short/pseudopotentials/C.star1s-pbe-mt_gipaw.UPF
     MD5 check sum: ef0cb3dee31bd9e4ba2a832a2c716264
     Pseudo is Norm-conserving, Zval =  5.0
     Generated by new atomic code, or converted to UPF format
     Using radial grid of 1073 points,  1 beta functions with: 
                l(1) =   0

     PseudoPot. # 3 for C  read from file:
     /home/549/hxw549/Short/pseudopotentials/C.pbe-mt_gipaw.UPF
     MD5 check sum: 5ac2f21f2c440b14befe521540822c15
     Pseudo is Norm-conserving, Zval =  4.0
     Generated by new atomic code, or converted to UPF format
     Using radial grid of 1073 points,  1 beta functions with: 
                l(1) =   0

     PseudoPot. # 4 for H  read from file:
     /home/549/hxw549/Short/pseudopotentials/H.pbe-van_ak.UPF
     MD5 check sum: 077eb6d537518a38cb46c6de387227b7
     Pseudo is Ultrasoft, Zval =  1.0
     Generated by new atomic code, or converted to UPF format
     Using radial grid of  615 points,  1 beta functions with: 
                l(1) =   0
     Q(r) pseudized with  8 coefficients,  rinner =    0.800

     atomic species   valence    mass     pseudopotential
        Cu            11.00    63.54600     Cu( 1.00)
        C_h            5.00    12.01070     C ( 1.00)
        C              4.00    12.01070     C ( 1.00)
        H              1.00     1.00783     H ( 1.00)

     No symmetry found



   Cartesian axes

     site n.     atom                  positions (alat units)
         1           Cu  tau(   1) = (   0.0001062  -0.0002701   0.9985021  )
         2           Cu  tau(   2) = (   0.2500787   0.2310134   0.9985351  )
         3           Cu  tau(   3) = (   0.5001031  -0.0002030   0.9984957  )
         4           Cu  tau(   4) = (   0.7501278   0.2310331   0.9985380  )
         5           Cu  tau(   5) = (   0.0000980   0.4619866   0.9984814  )
         6           Cu  tau(   6) = (   0.2501083   0.6927319   0.9981769  )
         7           Cu  tau(   7) = (   0.5001095   0.4619569   0.9984100  )
         8           Cu  tau(   8) = (   0.7501047   0.6927365   0.9981595  )
         9           Cu  tau(   9) = (   0.0001111   0.9234701   0.9979600  )
        10           Cu  tau(  10) = (   0.2501267   1.1541690   0.9980943  )
        11           Cu  tau(  11) = (   0.5001118   0.9234548   0.9979528  )
        12           Cu  tau(  12) = (   0.7501036   1.1541603   0.9980828  )
        13           Cu  tau(  13) = (   0.0001161   1.3847735   0.9984261  )
        14           Cu  tau(  14) = (   0.2501209   1.6154338   0.9987173  )
        15           Cu  tau(  15) = (   0.5001193   1.3847925   0.9985012  )
        16           Cu  tau(  16) = (   0.7501117   1.6154180   0.9987198  )
        17           Cu  tau(  17) = (   0.0001077   1.8463630   0.9986692  )
        18           Cu  tau(  18) = (   0.2501164   2.0776756   0.9985055  )
        19           Cu  tau(  19) = (   0.5001155   1.8463207   0.9986800  )
        20           Cu  tau(  20) = (   0.7500984   2.0776748   0.9985316  )
        21           Cu  tau(  21) = (   0.0001142   0.2310039   1.2467663  )
        22           Cu  tau(  22) = (   0.2501082  -0.0003075   1.2464524  )
        23           Cu  tau(  23) = (   0.5001128   0.2310801   1.2467556  )
        24           Cu  tau(  24) = (   0.7501188  -0.0003027   1.2464412  )
        25           Cu  tau(  25) = (   0.0001174   0.6930674   1.2468122  )
        26           Cu  tau(  26) = (   0.2501222   0.4621895   1.2468825  )
        27           Cu  tau(  27) = (   0.5001258   0.6930014   1.2467758  )
        28           Cu  tau(  28) = (   0.7501104   0.4622021   1.2469065  )
        29           Cu  tau(  29) = (   0.0001284   1.1538705   1.2468417  )
        30           Cu  tau(  30) = (   0.2501381   0.9235067   1.2466962  )
        31           Cu  tau(  31) = (   0.5001386   1.1538127   1.2468886  )
        32           Cu  tau(  32) = (   0.7501164   0.9235074   1.2467107  )
        33           Cu  tau(  33) = (   0.0001378   1.6152162   1.2472012  )
        34           Cu  tau(  34) = (   0.2501478   1.3843762   1.2471956  )
        35           Cu  tau(  35) = (   0.5001388   1.6152561   1.2473273  )
        36           Cu  tau(  36) = (   0.7501281   1.3843636   1.2472131  )
        37           Cu  tau(  37) = (   0.0001187   2.0777131   1.2464476  )
        38           Cu  tau(  38) = (   0.2501285   1.8464123   1.2468533  )
        39           Cu  tau(  39) = (   0.5001218   2.0777351   1.2463692  )
        40           Cu  tau(  40) = (   0.7501305   1.8464055   1.2468590  )
        41           Cu  tau(  41) = (   0.0001398  -0.0005976   1.4956460  )
        42           Cu  tau(  42) = (   0.2501884   0.2308765   1.4958148  )
        43           Cu  tau(  43) = (   0.5001240  -0.0005707   1.4955169  )
        44           Cu  tau(  44) = (   0.7500756   0.2308766   1.4958139  )
        45           Cu  tau(  45) = (   0.0001366   0.4623698   1.4961838  )
        46           Cu  tau(  46) = (   0.2501764   0.6932994   1.4967045  )
        47           Cu  tau(  47) = (   0.5001356   0.4624606   1.4964121  )
        48           Cu  tau(  48) = (   0.7501124   0.6933120   1.4967337  )
        49           Cu  tau(  49) = (   0.0001553   0.9235898   1.4970496  )
        50           Cu  tau(  50) = (   0.2501228   1.1534113   1.4971363  )
        51           Cu  tau(  51) = (   0.5001412   0.9233830   1.4970945  )
        52           Cu  tau(  52) = (   0.7501941   1.1533954   1.4971565  )
        53           Cu  tau(  53) = (   0.0001622   1.3839302   1.4970342  )
        54           Cu  tau(  54) = (   0.2501526   1.6151711   1.4965927  )
        55           Cu  tau(  55) = (   0.5001668   1.3837547   1.4970188  )
        56           Cu  tau(  56) = (   0.7501879   1.6151672   1.4966010  )
        57           Cu  tau(  57) = (   0.0001650   1.8465727   1.4960685  )
        58           Cu  tau(  58) = (   0.2500999   2.0778210   1.4957140  )
        59           Cu  tau(  59) = (   0.5001584   1.8468456   1.4960878  )
        60           Cu  tau(  60) = (   0.7501879   2.0778198   1.4957306  )
        61           Cu  tau(  61) = (   0.0001517   0.2305471   1.7439360  )
        62           Cu  tau(  62) = (   0.2502748  -0.0006169   1.7447258  )
        63           Cu  tau(  63) = (   0.5001687   0.2302578   1.7444685  )
        64           Cu  tau(  64) = (   0.7500432  -0.0006116   1.7447253  )
        65           Cu  tau(  65) = (   0.0001525   0.6931548   1.7461986  )
        66           Cu  tau(  66) = (   0.2506154   0.4620556   1.7449625  )
        67           Cu  tau(  67) = (   0.5001896   0.6934823   1.7472335  )
        68           Cu  tau(  68) = (   0.7497210   0.4620354   1.7449991  )
        69           Cu  tau(  69) = (   0.0001607   1.1532693   1.7480559  )
        70           Cu  tau(  70) = (   0.2503663   0.9233382   1.7478123  )
        71           Cu  tau(  71) = (   0.5001786   1.1527037   1.7477931  )
        72           Cu  tau(  72) = (   0.7499536   0.9233549   1.7478449  )
        73           Cu  tau(  73) = (   0.0001791   1.6153090   1.7455076  )
        74           Cu  tau(  74) = (   0.2499874   1.3836365   1.7463173  )
        75           Cu  tau(  75) = (   0.5001888   1.6153878   1.7445883  )
        76           Cu  tau(  76) = (   0.7503648   1.3836347   1.7463380  )
        77           Cu  tau(  77) = (   0.0001652   2.0778124   1.7452608  )
        78           Cu  tau(  78) = (   0.2499577   1.8469924   1.7449953  )
        79           Cu  tau(  79) = (   0.5001761   2.0781916   1.7452680  )
        80           Cu  tau(  80) = (   0.7504179   1.8469935   1.7450127  )
        81           Cu  tau(  81) = (   0.0001715   0.0001696   1.9902234  )
        82           Cu  tau(  82) = (   0.2502611   0.2304366   1.9900343  )
        83           Cu  tau(  83) = (   0.5002197  -0.0000844   1.9920463  )
        84           Cu  tau(  84) = (   0.7501451   0.2303807   1.9901791  )
        85           Cu  tau(  85) = (   0.0001409   0.4610770   1.9887770  )
        86           Cu  tau(  86) = (   0.2519728   0.6915446   1.9926216  )
        87           Cu  tau(  87) = (   0.5002714   0.4595661   1.9916901  )
        88           Cu  tau(  88) = (   0.7484151   0.6915568   1.9927390  )
        89           Cu  tau(  89) = (   0.0001109   0.9219076   1.9940306  )
        90           Cu  tau(  90) = (   0.2509317   1.1538053   1.9950377  )
        91           Cu  tau(  91) = (   0.5002227   0.9233362   1.9991762  )
        92           Cu  tau(  92) = (   0.7493995   1.1538291   1.9951609  )
        93           Cu  tau(  93) = (   0.0001298   1.3845380   1.9935689  )
        94           Cu  tau(  94) = (   0.2494337   1.6156610   1.9901388  )
        95           Cu  tau(  95) = (   0.5002175   1.3857850   1.9912431  )
        96           Cu  tau(  96) = (   0.7509197   1.6157167   1.9901779  )
        97           Cu  tau(  97) = (   0.0002010   1.8470434   1.9918987  )
        98           Cu  tau(  98) = (   0.2503312   2.0781345   1.9911027  )
        99           Cu  tau(  99) = (   0.5001876   1.8460428   1.9897390  )
       100           Cu  tau( 100) = (   0.7500454   2.0781106   1.9911824  )
       101           C   tau( 101) = (   0.0003000   0.0978087   2.3877304  )
       102           C   tau( 102) = (   0.0003184   0.2900119   2.3856958  )
       103           C   tau( 103) = (   0.1669668   0.0017950   2.3872556  )
       104           C   tau( 104) = (   0.1667498   0.3861250   2.3825853  )
       105           C   tau( 105) = (   0.3335057   0.0979316   2.3852403  )
       106           C   tau( 106) = (   0.3334842   0.2901708   2.3834463  )
       107           C   tau( 107) = (   0.5002978   0.0015822   2.3846346  )
       108           C   tau( 108) = (   0.5003897   0.3869811   2.3836731  )
       109           C   tau( 109) = (   0.6671305   0.0978857   2.3858069  )
       110           C   tau( 110) = (   0.6672112   0.2901189   2.3840939  )
       111           C   tau( 111) = (   0.8336390   0.0017613   2.3876797  )
       112           C   tau( 112) = (   0.8338939   0.3861424   2.3831273  )
       113           C   tau( 113) = (   0.0003325   0.6747222   2.3774287  )
       114           C   tau( 114) = (   0.0003109   0.8670655   2.3756581  )
       115           C   tau( 115) = (   0.1665696   0.5783202   2.3786596  )
       116           C   tau( 116) = (   0.1673342   0.9630378   2.3844795  )
       117           C   tau( 117) = (   0.3330081   0.6754849   2.3837621  )
       118           C   tau( 118) = (   0.3308756   0.8659615   2.3913750  )
       119           C   tau( 119) = (   0.5003706   0.5786899   2.3870649  )
       120           C   tau( 120) = (   0.5002405   0.9634325   2.4431809  )
       121           H   tau( 121) = (   0.4995975   0.9609870   2.5959454  )
       122           C   tau( 122) = (   0.6677086   0.6755115   2.3842438  )
       123           C   tau( 123) = (   0.6697853   0.8659772   2.3921054  )
       124           C   tau( 124) = (   0.8341199   0.5783477   2.3792482  )
       125           C   tau( 125) = (   0.8333105   0.9630290   2.3849179  )
       126           C   tau( 126) = (   0.0004020   1.2520724   2.3870267  )
       127           C   tau( 127) = (   0.0004025   1.4451755   2.3815712  )
       128           C   tau( 128) = (   0.1670681   1.1564086   2.3893699  )
       129           C   tau( 129) = (   0.1671401   1.5416071   2.3811226  )
       130           C   tau( 130) = (   0.3345797   1.2533025   2.3895913  )
       131           C   tau( 131) = (   0.3339906   1.4459872   2.3843272  )
       132           C_h tau( 132) = (   0.5004360   1.1601743   2.3973219  )
       133           C   tau( 133) = (   0.5004344   1.5419259   2.3857438  )
       134           C   tau( 134) = (   0.6662994   1.2533218   2.3900622  )
       135           C   tau( 135) = (   0.6669051   1.4459974   2.3848351  )
       136           C   tau( 136) = (   0.8337342   1.1564012   2.3899329  )
       137           C   tau( 137) = (   0.8336802   1.5416439   2.3815460  )
       138           C   tau( 138) = (   0.0003242   1.8304356   2.3806540  )
       139           C   tau( 139) = (   0.0002579   2.0228029   2.3850643  )
       140           C   tau( 140) = (   0.1671501   1.7340969   2.3815095  )
       141           C   tau( 141) = (   0.1668791   2.1188753   2.3858106  )
       142           C   tau( 142) = (   0.3336897   1.8302293   2.3846875  )
       143           C   tau( 143) = (   0.3336549   2.0226017   2.3851744  )
       144           C   tau( 144) = (   0.5003773   1.7343588   2.3854412  )
       145           C   tau( 145) = (   0.5002558   2.1186784   2.3861815  )
       146           C   tau( 146) = (   0.6669817   1.8302723   2.3850179  )
       147           C   tau( 147) = (   0.6668813   2.0226289   2.3856046  )
       148           C   tau( 148) = (   0.8335225   1.7341201   2.3817501  )
       149           C   tau( 149) = (   0.8336415   2.1188792   2.3862952  )

     number of k points=     6  gaussian smearing, width (Ry)=  0.1000
                       cart. coord. in units 2pi/alat
        k(    1) = (   0.0000000   0.0000000   0.0000000), wk =   0.2500000
        k(    2) = (   0.0000000  -0.2165064   0.0000000), wk =   0.2500000
        k(    3) = (   0.2500000   0.0000000   0.0000000), wk =   0.5000000
        k(    4) = (   0.2500000  -0.2165064   0.0000000), wk =   0.5000000
        k(    5) = (  -0.5000000   0.0000000   0.0000000), wk =   0.2500000
        k(    6) = (  -0.5000000  -0.2165064   0.0000000), wk =   0.2500000

     Dense  grid:  2050409 G-vectors     FFT dimensions: (  80, 192, 270)

     Largest allocated arrays     est. size (Mb)     dimensions
        Kohn-Sham Wavefunctions        54.52 Mb     (    4604,  776)
        NL pseudopotentials           129.89 Mb     (    4604, 1849)
        Each V/rho on FFT grid          1.17 Mb     (   76800)
        Each G-vector array             0.28 Mb     (   36616)
        G-vector shells                 0.14 Mb     (   17932)
     Largest temporary arrays     est. size (Mb)     dimensions
        Auxiliary wavefunctions       218.06 Mb     (    4604, 3104)
        Each subspace H/S matrix        5.87 Mb     (     620,  620)
        Each <psi_i|beta_j> matrix     21.89 Mb     (    1849,  776)
        Arrays for rho mixing           9.38 Mb     (   76800,    8)

     Initial potential from superposition of free atoms
     Check: negative starting charge=   -0.001824

     starting charge 1267.81750, renormalised to 1293.00000

     negative rho (up, down):  1.861E-03 0.000E+00
     Starting wfc are 1285 randomized atomic wfcs

     total cpu time spent up to now is      107.2 secs

     Self-consistent Calculation

     iteration #  1     ecut=    80.00 Ry     beta=0.70
     Davidson diagonalization with overlap
     c_bands:  2 eigenvalues not converged
     c_bands:  4 eigenvalues not converged
     c_bands:  2 eigenvalues not converged
     ethr =  1.00E-04,  avg # of iterations = 37.8

     negative rho (up, down):  2.539E+01 0.000E+00

     total cpu time spent up to now is     2082.1 secs

     total energy              =   -9651.40470437 Ry
     Harris-Foulkes estimate   =  -17300.43268562 Ry
     estimated scf accuracy    <  179571.19303010 Ry

     iteration #  2     ecut=    80.00 Ry     beta=0.70
     Davidson diagonalization with overlap
     ethr =  1.00E-02,  avg # of iterations = 11.7

     negative rho (up, down):  2.948E+01 0.000E+00

     total cpu time spent up to now is     2978.0 secs

     total energy              =  -12217.63009778 Ry
     Harris-Foulkes estimate   =  -13640.09430394 Ry
     estimated scf accuracy    <   23500.94767246 Ry

     iteration #  3     ecut=    80.00 Ry     beta=0.70
     Davidson diagonalization with overlap
     ethr =  1.00E-02,  avg # of iterations =  7.2

     negative rho (up, down):  3.013E+01 0.000E+00

     total cpu time spent up to now is     3503.2 secs

     total energy              =  -12426.16919147 Ry
     Harris-Foulkes estimate   =  -13375.34785250 Ry
     estimated scf accuracy    <    5974.75295082 Ry

     iteration #  4     ecut=    80.00 Ry     beta=0.70
     Davidson diagonalization with overlap
     ethr =  1.00E-02,  avg # of iterations =  5.3

     negative rho (up, down):  2.250E+01 0.000E+00

     total cpu time spent up to now is     4025.4 secs

     total energy              =  -12824.80131976 Ry
     Harris-Foulkes estimate   =  -13061.89123009 Ry
     estimated scf accuracy    <    1855.48829643 Ry

     iteration #  5     ecut=    80.00 Ry     beta=0.70
     Davidson diagonalization with overlap
     ethr =  1.00E-02,  avg # of iterations =  3.3

     negative rho (up, down):  1.711E+01 0.000E+00

     total cpu time spent up to now is     4298.1 secs

     total energy              =  -12828.34359160 Ry
     Harris-Foulkes estimate   =  -12942.68325046 Ry
     estimated scf accuracy    <    1133.40807264 Ry

     iteration #  6     ecut=    80.00 Ry     beta=0.70
     Davidson diagonalization with overlap
     ethr =  1.00E-02,  avg # of iterations =  3.0

     negative rho (up, down):  1.192E+01 0.000E+00

     total cpu time spent up to now is     4502.6 secs

     total energy              =  -12816.93262153 Ry
     Harris-Foulkes estimate   =  -12886.63567710 Ry
     estimated scf accuracy    <     550.25862564 Ry

     iteration #  7     ecut=    80.00 Ry     beta=0.70
     Davidson diagonalization with overlap
     ethr =  1.00E-02,  avg # of iterations =  2.0

     negative rho (up, down):  8.441E+00 0.000E+00

     total cpu time spent up to now is     4687.6 secs

     total energy              =  -12794.01121312 Ry
     Harris-Foulkes estimate   =  -12837.06433727 Ry
     estimated scf accuracy    <     415.88628383 Ry

     iteration #  8     ecut=    80.00 Ry     beta=0.70
     Davidson diagonalization with overlap
     ethr =  1.00E-02,  avg # of iterations =  2.0

     negative rho (up, down):  6.892E+00 0.000E+00

     total cpu time spent up to now is     4867.5 secs

     total energy              =  -12780.20475251 Ry
     Harris-Foulkes estimate   =  -12811.20288958 Ry
     estimated scf accuracy    <     500.05308016 Ry

     iteration #  9     ecut=    80.00 Ry     beta=0.70
     Davidson diagonalization with overlap
     ethr =  1.00E-02,  avg # of iterations =  2.2

     negative rho (up, down):  5.223E+00 0.000E+00

     total cpu time spent up to now is     5047.0 secs

     total energy              =  -12774.12712447 Ry
     Harris-Foulkes estimate   =  -12792.09510165 Ry
     estimated scf accuracy    <     180.95790332 Ry

     iteration # 10     ecut=    80.00 Ry     beta=0.70
     Davidson diagonalization with overlap
     ethr =  1.00E-02,  avg # of iterations =  1.0

     negative rho (up, down):  1.284E+00 0.000E+00

     total cpu time spent up to now is     5214.3 secs

     total energy              =  -12739.31414430 Ry
     Harris-Foulkes estimate   =  -12775.88463103 Ry
     estimated scf accuracy    <     141.02900296 Ry

     iteration # 11     ecut=    80.00 Ry     beta=0.70
     Davidson diagonalization with overlap
     ethr =  1.00E-02,  avg # of iterations =  3.0

     negative rho (up, down):  9.260E-01 0.000E+00

     total cpu time spent up to now is     5403.3 secs

     total energy              =  -12733.18520918 Ry
     Harris-Foulkes estimate   =  -12749.02451215 Ry
     estimated scf accuracy    <     368.34142277 Ry

     iteration # 12     ecut=    80.00 Ry     beta=0.70
     Davidson diagonalization with overlap
     ethr =  1.00E-02,  avg # of iterations =  1.3

     negative rho (up, down):  5.423E-01 0.000E+00

     total cpu time spent up to now is     5572.9 secs

     total energy              =  -12731.26690901 Ry
     Harris-Foulkes estimate   =  -12743.41347945 Ry
     estimated scf accuracy    <     195.72077148 Ry

     iteration # 13     ecut=    80.00 Ry     beta=0.70
     Davidson diagonalization with overlap
     ethr =  1.00E-02,  avg # of iterations =  1.5

     negative rho (up, down):  9.566E-01 0.000E+00

     total cpu time spent up to now is     5745.6 secs

     total energy              =  -12722.33889026 Ry
     Harris-Foulkes estimate   =  -12740.21886827 Ry
     estimated scf accuracy    <     169.98809667 Ry

     iteration # 14     ecut=    80.00 Ry     beta=0.70
     Davidson diagonalization with overlap
     ethr =  1.00E-02,  avg # of iterations =  2.2

     negative rho (up, down):  4.285E+00 0.000E+00

     total cpu time spent up to now is     5925.2 secs

     total energy              =  -12721.15946050 Ry
     Harris-Foulkes estimate   =  -12730.68704371 Ry
     estimated scf accuracy    <      63.74114104 Ry

     iteration # 15     ecut=    80.00 Ry     beta=0.70
     Davidson diagonalization with overlap
     ethr =  4.93E-03,  avg # of iterations =  3.5

     negative rho (up, down):  4.973E+00 0.000E+00

     total cpu time spent up to now is     6120.5 secs

     total energy              =  -12718.30943323 Ry
     Harris-Foulkes estimate   =  -12723.29848876 Ry
     estimated scf accuracy    <      44.82850365 Ry

     iteration # 16     ecut=    80.00 Ry     beta=0.70
     Davidson diagonalization with overlap
     ethr =  3.47E-03,  avg # of iterations =  2.7

     negative rho (up, down):  5.226E+00 0.000E+00

     total cpu time spent up to now is     6305.5 secs

     total energy              =  -12716.70260133 Ry
     Harris-Foulkes estimate   =  -12719.80981021 Ry
     estimated scf accuracy    <      32.28161799 Ry

     iteration # 17     ecut=    80.00 Ry     beta=0.70
     Davidson diagonalization with overlap
     ethr =  2.50E-03,  avg # of iterations =  2.8

     negative rho (up, down):  4.807E+00 0.000E+00

     total cpu time spent up to now is     6493.8 secs

     total energy              =  -12715.70424766 Ry
     Harris-Foulkes estimate   =  -12717.78263138 Ry
     estimated scf accuracy    <      20.86897297 Ry

     iteration # 18     ecut=    80.00 Ry     beta=0.70
     Davidson diagonalization with overlap
     ethr =  1.61E-03,  avg # of iterations =  2.0

     negative rho (up, down):  4.031E+00 0.000E+00

     total cpu time spent up to now is     6671.3 secs

     total energy              =  -12713.80007162 Ry
     Harris-Foulkes estimate   =  -12716.20365998 Ry
     estimated scf accuracy    <      13.93786580 Ry

     iteration # 19     ecut=    80.00 Ry     beta=0.70
     Davidson diagonalization with overlap
     ethr =  1.08E-03,  avg # of iterations =  8.0

     negative rho (up, down):  3.302E+00 0.000E+00

     total cpu time spent up to now is     6925.1 secs

     total energy              =  -12713.13473691 Ry
     Harris-Foulkes estimate   =  -12714.20866369 Ry
     estimated scf accuracy    <       9.23079160 Ry

     iteration # 20     ecut=    80.00 Ry     beta=0.70
     Davidson diagonalization with overlap
     ethr =  7.14E-04,  avg # of iterations =  1.8

     negative rho (up, down):  3.458E+00 0.000E+00

     total cpu time spent up to now is     7101.3 secs

     total energy              =  -12712.65368150 Ry
     Harris-Foulkes estimate   =  -12713.35337366 Ry
     estimated scf accuracy    <       7.74921380 Ry

     iteration # 21     ecut=    80.00 Ry     beta=0.70
     Davidson diagonalization with overlap
     ethr =  5.99E-04,  avg # of iterations =  8.0

     negative rho (up, down):  2.379E+00 0.000E+00

     total cpu time spent up to now is     7351.4 secs

     total energy              =  -12711.70983196 Ry
     Harris-Foulkes estimate   =  -12712.80499836 Ry
     estimated scf accuracy    <       6.69156461 Ry

     iteration # 22     ecut=    80.00 Ry     beta=0.70
     Davidson diagonalization with overlap
     ethr =  5.18E-04,  avg # of iterations =  4.3

     negative rho (up, down):  2.327E+00 0.000E+00

     total cpu time spent up to now is     7554.8 secs

     total energy              =  -12710.76952471 Ry
     Harris-Foulkes estimate   =  -12711.90079833 Ry
     estimated scf accuracy    <       5.56281226 Ry

     iteration # 23     ecut=    80.00 Ry     beta=0.70
     Davidson diagonalization with overlap
     ethr =  4.30E-04,  avg # of iterations =  6.5

     negative rho (up, down):  1.681E+00 0.000E+00

     total cpu time spent up to now is     7787.3 secs

     total energy              =  -12709.74314591 Ry
     Harris-Foulkes estimate   =  -12711.14049810 Ry
     estimated scf accuracy    <       9.14281765 Ry

     iteration # 24     ecut=    80.00 Ry     beta=0.70
     Davidson diagonalization with overlap
     ethr =  4.30E-04,  avg # of iterations =  2.8

     negative rho (up, down):  1.035E+00 0.000E+00

     total cpu time spent up to now is     7974.3 secs

     total energy              =  -12708.76170574 Ry
     Harris-Foulkes estimate   =  -12710.01946605 Ry
     estimated scf accuracy    <       4.14435348 Ry

     iteration # 25     ecut=    80.00 Ry     beta=0.70
     Davidson diagonalization with overlap
     ethr =  3.21E-04,  avg # of iterations =  3.0

     negative rho (up, down):  5.984E-01 0.000E+00

     total cpu time spent up to now is     8165.3 secs

     total energy              =  -12708.55425202 Ry
     Harris-Foulkes estimate   =  -12708.99252235 Ry
     estimated scf accuracy    <       2.06774039 Ry

     iteration # 26     ecut=    80.00 Ry     beta=0.70
     Davidson diagonalization with overlap
     ethr =  1.60E-04,  avg # of iterations =  9.2

     negative rho (up, down):  7.970E-01 0.000E+00

     total cpu time spent up to now is     8427.1 secs

     total energy              =  -12708.40028189 Ry
     Harris-Foulkes estimate   =  -12708.69336942 Ry
     estimated scf accuracy    <       1.16843846 Ry

     iteration # 27     ecut=    80.00 Ry     beta=0.70
     Davidson diagonalization with overlap
     ethr =  9.04E-05,  avg # of iterations = 10.8

     negative rho (up, down):  8.473E-01 0.000E+00

     total cpu time spent up to now is     8728.4 secs

     total energy              =  -12708.34413585 Ry
     Harris-Foulkes estimate   =  -12708.48781975 Ry
     estimated scf accuracy    <       0.86522127 Ry

     iteration # 28     ecut=    80.00 Ry     beta=0.70
     Davidson diagonalization with overlap
     ethr =  6.69E-05,  avg # of iterations =  6.8

     negative rho (up, down):  6.397E-01 0.000E+00

     total cpu time spent up to now is     8970.3 secs

     total energy              =  -12708.30501072 Ry
     Harris-Foulkes estimate   =  -12708.38235036 Ry
     estimated scf accuracy    <       0.27940328 Ry

     iteration # 29     ecut=    80.00 Ry     beta=0.70
     Davidson diagonalization with overlap
     ethr =  2.16E-05,  avg # of iterations =  7.0

     negative rho (up, down):  3.730E-01 0.000E+00

     total cpu time spent up to now is     9216.8 secs

     total energy              =  -12708.27889305 Ry
     Harris-Foulkes estimate   =  -12708.31794104 Ry
     estimated scf accuracy    <       0.19740344 Ry

     iteration # 30     ecut=    80.00 Ry     beta=0.70
     Davidson diagonalization with overlap
     ethr =  1.53E-05,  avg # of iterations = 10.0

     negative rho (up, down):  1.351E-01 0.000E+00

     total cpu time spent up to now is     9502.7 secs

     total energy              =  -12708.27336381 Ry
     Harris-Foulkes estimate   =  -12708.28658740 Ry
     estimated scf accuracy    <       0.12065254 Ry

     iteration # 31     ecut=    80.00 Ry     beta=0.70
     Davidson diagonalization with overlap
     c_bands:  1 eigenvalues not converged
     ethr =  9.33E-06,  avg # of iterations = 15.3

     negative rho (up, down):  3.696E-02 0.000E+00

     total cpu time spent up to now is     9850.9 secs

     total energy              =  -12708.27551375 Ry
     Harris-Foulkes estimate   =  -12708.27990466 Ry
     estimated scf accuracy    <       0.05060973 Ry

     iteration # 32     ecut=    80.00 Ry     beta=0.70
     Davidson diagonalization with overlap
     c_bands:  1 eigenvalues not converged
     c_bands:  1 eigenvalues not converged
     c_bands:  1 eigenvalues not converged
     ethr =  3.91E-06,  avg # of iterations = 14.8

     negative rho (up, down):  6.634E-02 0.000E+00

     total cpu time spent up to now is    10196.2 secs

     total energy              =  -12708.27539822 Ry
     Harris-Foulkes estimate   =  -12708.27908589 Ry
     estimated scf accuracy    <       0.03600553 Ry

     iteration # 33     ecut=    80.00 Ry     beta=0.70
     Davidson diagonalization with overlap
     ethr =  2.78E-06,  avg # of iterations = 10.7

     negative rho (up, down):  3.561E-02 0.000E+00

     total cpu time spent up to now is    10498.2 secs

     total energy              =  -12708.27563230 Ry
     Harris-Foulkes estimate   =  -12708.27757703 Ry
     estimated scf accuracy    <       0.01064181 Ry

     iteration # 34     ecut=    80.00 Ry     beta=0.70
     Davidson diagonalization with overlap
     ethr =  8.23E-07,  avg # of iterations =  9.0

     negative rho (up, down):  1.598E-02 0.000E+00

     total cpu time spent up to now is    10775.1 secs

     total energy              =  -12708.27579488 Ry
     Harris-Foulkes estimate   =  -12708.27685111 Ry
     estimated scf accuracy    <       0.00333274 Ry

     iteration # 35     ecut=    80.00 Ry     beta=0.70
     Davidson diagonalization with overlap
     c_bands:  2 eigenvalues not converged
     ethr =  2.58E-07,  avg # of iterations = 12.2

     negative rho (up, down):  1.332E-02 0.000E+00

     total cpu time spent up to now is    11100.6 secs

     total energy              =  -12708.27627045 Ry
     Harris-Foulkes estimate   =  -12708.27619903 Ry
     estimated scf accuracy    <       0.00086800 Ry

     iteration # 36     ecut=    80.00 Ry     beta=0.70
     Davidson diagonalization with overlap
     ethr =  6.71E-08,  avg # of iterations =  9.0

     negative rho (up, down):  7.885E-03 0.000E+00

     total cpu time spent up to now is    11377.5 secs

     total energy              =  -12708.27625066 Ry
     Harris-Foulkes estimate   =  -12708.27633195 Ry
     estimated scf accuracy    <       0.00009318 Ry

     iteration # 37     ecut=    80.00 Ry     beta=0.70
     Davidson diagonalization with overlap
     ethr =  7.21E-09,  avg # of iterations =  7.2

     negative rho (up, down):  4.822E-03 0.000E+00

     total cpu time spent up to now is    11652.9 secs

     total energy              =  -12708.27621941 Ry
     Harris-Foulkes estimate   =  -12708.27626274 Ry
     estimated scf accuracy    <       0.00005190 Ry

     iteration # 38     ecut=    80.00 Ry     beta=0.70
     Davidson diagonalization with overlap
     ethr =  4.01E-09,  avg # of iterations =  6.7

     negative rho (up, down):  3.508E-03 0.000E+00

     total cpu time spent up to now is    11893.9 secs

     total energy              =  -12708.27620848 Ry
     Harris-Foulkes estimate   =  -12708.27622377 Ry
     estimated scf accuracy    <       0.00001484 Ry

     iteration # 39     ecut=    80.00 Ry     beta=0.70
     Davidson diagonalization with overlap
     ethr =  1.15E-09,  avg # of iterations =  5.8

     negative rho (up, down):  2.585E-03 0.000E+00

     total cpu time spent up to now is    12140.7 secs

     total energy              =  -12708.27620315 Ry
     Harris-Foulkes estimate   =  -12708.27620987 Ry
     estimated scf accuracy    <       0.00000323 Ry

     iteration # 40     ecut=    80.00 Ry     beta=0.70
     Davidson diagonalization with overlap
     ethr =  2.50E-10,  avg # of iterations =  4.0

     negative rho (up, down):  2.370E-03 0.000E+00

     total cpu time spent up to now is    12364.5 secs

     total energy              =  -12708.27620296 Ry
     Harris-Foulkes estimate   =  -12708.27620365 Ry
     estimated scf accuracy    <       0.00000202 Ry

     iteration # 41     ecut=    80.00 Ry     beta=0.70
     Davidson diagonalization with overlap
     ethr =  1.56E-10,  avg # of iterations =  2.5

     negative rho (up, down):  2.168E-03 0.000E+00

     total cpu time spent up to now is    12554.9 secs

     total energy              =  -12708.27620305 Ry
     Harris-Foulkes estimate   =  -12708.27620318 Ry
     estimated scf accuracy    <       0.00000069 Ry

     iteration # 42     ecut=    80.00 Ry     beta=0.70
     Davidson diagonalization with overlap
     ethr =  5.36E-11,  avg # of iterations =  2.5

     negative rho (up, down):  2.142E-03 0.000E+00

     total cpu time spent up to now is    12745.1 secs

     total energy              =  -12708.27620317 Ry
     Harris-Foulkes estimate   =  -12708.27620311 Ry
     estimated scf accuracy    <       0.00000022 Ry

     iteration # 43     ecut=    80.00 Ry     beta=0.70
     Davidson diagonalization with overlap
     ethr =  1.72E-11,  avg # of iterations =  2.3

     negative rho (up, down):  2.121E-03 0.000E+00

     total cpu time spent up to now is    12940.9 secs

     total energy              =  -12708.27620324 Ry
     Harris-Foulkes estimate   =  -12708.27620320 Ry
     estimated scf accuracy    <       0.00000006 Ry

     iteration # 44     ecut=    80.00 Ry     beta=0.70
     Davidson diagonalization with overlap
     ethr =  4.32E-12,  avg # of iterations =  3.0

     negative rho (up, down):  2.105E-03 0.000E+00

     total cpu time spent up to now is    13147.2 secs

     total energy              =  -12708.27620324 Ry
     Harris-Foulkes estimate   =  -12708.27620325 Ry
     estimated scf accuracy    <       0.00000002 Ry

     iteration # 45     ecut=    80.00 Ry     beta=0.70
     Davidson diagonalization with overlap
     ethr =  1.34E-12,  avg # of iterations =  3.0

     negative rho (up, down):  2.096E-03 0.000E+00

     total cpu time spent up to now is    13357.5 secs

     End of self-consistent calculation

          k = 0.0000 0.0000 0.0000 (256287 PWs)   bands (ev):

   -17.0289 -16.2021 -16.0484 -15.3381 -14.9869 -14.7030 -14.5705 -14.2242
   -14.1542 -14.0963 -14.0896 -13.3985 -13.2571 -13.1164 -13.0806 -13.0358
   -13.0252 -11.6194 -11.4661 -11.4395 -11.3338 -11.1680 -10.2419  -9.6907
    -9.6901  -9.6084  -9.4469  -8.8575  -8.7455  -8.6625  -8.5590  -7.8650
    -7.8426  -7.7394  -7.5939  -7.5441  -7.4905  -7.4861  -7.4742  -6.3101
    -6.2807  -6.0599  -6.0155  -5.9749  -5.9129  -5.8446  -5.8362  -5.7647
    -5.4868  -5.4618  -5.3978  -4.9638  -4.7693  -4.7405  -4.6859  -4.5661
    -4.4894  -4.4111  -4.2648  -4.1488  -3.9689  -3.9652  -3.8882  -3.8792
    -3.7002  -3.5076  -3.4976  -3.4649  -3.3853  -3.3819  -3.3804  -3.3653
    -3.3159  -3.1631  -3.1038  -3.0939  -2.9920  -2.9847  -2.9840  -2.9760
    -2.9656  -2.9082  -2.7838  -2.7807  -2.7740  -2.7146  -2.7075  -2.6894
    -2.6617  -2.6330  -2.5483  -2.3873  -2.3830  -2.3574  -2.3176  -2.3099
    -2.2082  -2.1691  -2.1665  -2.1393  -2.1288  -2.1274  -2.1273  -2.1272
    -2.1203  -2.1008  -2.0752  -1.9977  -1.9975  -1.9950  -1.9949  -1.9326
    -1.8880  -1.8567  -1.8155  -1.7522  -1.7147  -1.7145  -1.7124  -1.7094
    -1.6726  -1.6487  -1.6460  -1.6344  -1.6306  -1.5858  -1.5701  -1.5598
    -1.5388  -1.5379  -1.5327  -1.5277  -1.5122  -1.5061  -1.4995  -1.4909
    -1.4892  -1.4562  -1.4144  -1.4136  -1.3909  -1.3743  -1.3630  -1.3536
    -1.3484  -1.3280  -1.2950  -1.2741  -1.2388  -1.2374  -1.2315  -1.2196
    -1.1870  -1.1861  -1.1672  -1.1644  -1.1421  -1.1391  -1.1080  -1.1062
    -1.0928  -1.0835  -1.0258  -1.0230  -1.0137  -1.0071  -1.0034  -0.9977
    -0.9973  -0.9965  -0.9964  -0.9925  -0.9913  -0.9801  -0.9731  -0.9659
    -0.9270  -0.9180  -0.9173  -0.9140  -0.9003  -0.8941  -0.8936  -0.8913
    -0.8892  -0.8418  -0.8342  -0.8315  -0.8309  -0.8306  -0.8301  -0.8299
    -0.8273  -0.8269  -0.8239  -0.8237  -0.8231  -0.8231  -0.8192  -0.8175
    -0.8171  -0.8030  -0.8020  -0.7921  -0.7687  -0.7601  -0.6648  -0.6646
    -0.6588  -0.6583  -0.6354  -0.6339  -0.6167  -0.6166  -0.5957  -0.5944
    -0.5913  -0.5835  -0.5765  -0.5761  -0.5703  -0.5623  -0.5394  -0.5392
    -0.5359  -0.5353  -0.5287  -0.5280  -0.5171  -0.5163  -0.4674  -0.4670
    -0.4136  -0.4133  -0.4029  -0.4025  -0.4005  -0.3978  -0.3976  -0.3851
    -0.3828  -0.3800  -0.3789  -0.3786  -0.3762  -0.3750  -0.3748  -0.3599
    -0.3597  -0.3528  -0.3500  -0.3481  -0.3265  -0.3258  -0.2757  -0.2730
    -0.2710  -0.2657  -0.2655  -0.2610  -0.2405  -0.2403  -0.2375  -0.2372
    -0.2235  -0.2211  -0.2173  -0.2171  -0.2094  -0.1958  -0.1956  -0.1928
    -0.1918  -0.1897  -0.1889  -0.1868  -0.1854  -0.1835  -0.1825  -0.1655
    -0.1643  -0.1619  -0.1618  -0.1431  -0.1308  -0.0949  -0.0928  -0.0922
    -0.0917  -0.0894  -0.0456  -0.0442  -0.0430  -0.0420  -0.0383  -0.0372
    -0.0364  -0.0360  -0.0352  -0.0257  -0.0185  -0.0013   0.0075   0.0162
     0.0182   0.0205   0.0207   0.0254   0.0450   0.0452   0.0462   0.0503
     0.0519   0.0572   0.0712   0.0716   0.0718   0.0720   0.0753   0.0779
     0.0890   0.0892   0.0897   0.0899   0.0985   0.1001   0.1054   0.1064
     0.1271   0.1287   0.1607   0.1612   0.1847   0.1904   0.1921   0.2138
     0.2148   0.2222   0.2576   0.2590   0.2616   0.2675   0.2692   0.2709
     0.2925   0.2981   0.2981   0.3001   0.3002   0.3074   0.3080   0.3108
     0.3525   0.3667   0.3671   0.3702   0.3728   0.3758   0.3764   0.3993
     0.4035   0.4079   0.4089   0.4115   0.4143   0.4312   0.4432   0.4439
     0.4486   0.4552   0.4629   0.4655   0.4671   0.4761   0.5048   0.5088
     0.5193   0.5205   0.5231   0.5256   0.5261   0.5346   0.5514   0.5526
     0.5557   0.5599   0.5612   0.5615   0.5622   0.5657   0.5688   0.5703
     0.5743   0.5779   0.5806   0.5826   0.5840   0.5893   0.5907   0.6218
     0.6313   0.6318   0.6371   0.6466   0.6523   0.6730   0.6741   0.6751
     0.6779   0.6795   0.6798   0.6813   0.6856   0.6894   0.6904   0.7001
     0.7046   0.7056   0.7075   0.7079   0.7136   0.7137   0.7227   0.7258
     0.7353   0.7462   0.7464   0.7480   0.7518   0.7597   0.7605   0.7682
     0.7736   0.7746   0.7747   0.7756   0.7807   0.7812   0.7846   0.7937
     0.7938   0.8006   0.8316   0.8321   0.8430   0.8457   0.8485   0.8486
     0.8506   0.8515   0.8813   0.8823   0.8966   0.8969   0.9022   0.9024
     0.9164   0.9170   0.9252   0.9264   0.9270   0.9274   0.9350   0.9464
     0.9596   0.9632   0.9642   0.9678   0.9682   0.9694   0.9762   0.9870
     1.0032   1.0037   1.0068   1.0122   1.0131   1.0229   1.0285   1.0373
     1.0374   1.0382   1.0387   1.0394   1.0419   1.0479   1.0525   1.0542
     1.0549   1.0553   1.0553   1.0701   1.0706   1.0842   1.0893   1.0900
     1.0921   1.0945   1.1004   1.1254   1.1304   1.1308   1.1350   1.1361
     1.1364   1.1393   1.1420   1.1453   1.1455   1.1461   1.1461   1.1474
     1.1486   1.1607   1.1621   1.1688   1.1961   1.2080   1.2114   1.2178
     1.2266   1.2272   1.2292   1.2299   1.2324   1.2327   1.2375   1.2498
     1.2594   1.2639   1.2647   1.2658   1.2665   1.2685   1.2702   1.2721
     1.2724   1.2808   1.2991   1.3004   1.3007   1.3013   1.3028   1.3042
     1.3043   1.3059   1.3200   1.3207   1.3214   1.3216   1.3293   1.3364
     1.3367   1.3376   1.3382   1.3409   1.3470   1.3513   1.3551   1.3704
     1.3739   1.3796   1.3800   1.3811   1.3829   1.3858   1.3862   1.3997
     1.4087   1.4139   1.4146   1.4187   1.4285   1.4411   1.4417   1.4419
     1.4495   1.4496   1.4519   1.4549   1.4590   1.4602   1.4611   1.4621
     1.4630   1.4632   1.4650   1.4738   1.4752   1.4765   1.4920   1.4930
     1.4939   1.4950   1.4973   1.5048   1.5079   1.5126   1.5332   1.5335
     1.5383   1.5469   1.5827   1.5840   1.5865   1.5898   1.6056   1.6066
     1.6076   1.6125   1.6176   1.6318   1.6551   1.6584   1.6596   1.6600
     1.6616   1.6689   1.6700   1.6706   1.9245   1.9821   2.0250   2.1350
     2.1466   2.1838   2.1954   2.2306   2.2311   2.2332   2.2388   2.2414
     2.2524   2.2527   2.2801   2.4262   2.4309   2.4796   2.4938   2.4998
     2.5001   2.5096   2.5183   2.6946   2.7488   2.7530   2.7540   2.8474
     3.0144   3.0680   3.2100   3.5521   3.5521   3.7410   3.8404   3.8538
     3.8798   3.8840   3.8841   3.8975   3.9353   3.9915   4.0169   4.0332
     4.0335   4.0357   4.0369   4.0463   4.0469   4.0501   4.2765   4.2810
     4.2886   4.3029   4.4378   4.4878   4.7664   4.7896   4.8893   4.9304
     5.3258   5.3954   5.4433   5.4584   5.5763   5.7399   5.7560   5.7624
     5.7865   5.9557   5.9587   6.3418   6.3802   6.3950   6.4371   6.4602
     6.5070   6.5127   6.5171   6.5551   6.5968   6.6409   6.7245   6.7377
     6.7991   6.8224   6.8264   6.8395   7.0242   7.0655   7.0800   7.1201
     7.1265   7.1307   7.2633   7.3840   7.3876   7.5824   7.5951   7.6616
     7.7263   7.7322   7.7363   7.7582   7.9616   7.9881   8.1562   8.2254
     8.2438   8.3009   8.3316   8.3499   8.3589   8.3624   8.3827   8.4134
     8.4161   8.4423   8.5233   8.5594   8.5859   8.5918   8.6958   8.7016
     8.7019   8.7172   8.8071   8.8181   8.8648   8.8678   8.8770   8.8797
     9.0678   9.1298   9.1463   9.1472   9.1527   9.1562   9.1640   9.2184
     9.3350   9.3703   9.3768   9.3881   9.4203   9.6052   9.6070   9.6293
     9.6444   9.7548   9.8576   9.8843   9.9827  10.0313  10.0696  10.0708

          k = 0.0000-0.2165 0.0000 (256176 PWs)   bands (ev):

   -17.0277 -16.2769 -15.8379 -15.6102 -14.9584 -14.5481 -14.3237 -14.3163
   -14.2104 -14.1710 -13.7892 -13.7180 -13.6690 -13.6524 -12.5351 -12.3865
   -12.3519 -12.2389 -12.1034 -12.0268 -10.5885 -10.4936 -10.4727 -10.3463
    -9.2995  -9.2788  -9.2739  -9.0778  -8.9607  -8.9215  -8.3432  -8.2412
    -8.1977  -8.0933  -7.2735  -7.2614  -7.0350  -6.8913  -6.8583  -6.8570
    -6.8482  -6.7301  -6.1301  -6.0755  -5.8662  -5.8604  -5.5862  -5.4220
    -5.2608  -5.1391  -5.0614  -4.9738  -4.8488  -4.8204  -4.8064  -4.7239
    -4.6980  -4.5642  -4.5441  -4.4478  -4.2020  -4.0849  -3.7762  -3.7168
    -3.6690  -3.4672  -3.3501  -3.2823  -3.2793  -3.2790  -3.2536  -3.1965
    -3.1727  -3.0411  -3.0399  -3.0271  -3.0109  -3.0060  -2.9938  -2.8706
    -2.8373  -2.8308  -2.7918  -2.7517  -2.7290  -2.6967  -2.6342  -2.6045
    -2.5829  -2.5553  -2.5551  -2.5537  -2.5526  -2.5175  -2.4897  -2.4259
    -2.3104  -2.2669  -2.2412  -2.2196  -2.2191  -2.2162  -2.1437  -2.1238
    -2.1216  -2.1194  -2.1056  -2.0379  -1.9620  -1.9619  -1.9365  -1.9364
    -1.8838  -1.8372  -1.8346  -1.8058  -1.7921  -1.7658  -1.7428  -1.7417
    -1.7256  -1.7251  -1.7159  -1.7159  -1.6993  -1.6962  -1.6223  -1.6195
    -1.6188  -1.5821  -1.5785  -1.5522  -1.4871  -1.4445  -1.4419  -1.4357
    -1.4355  -1.3627  -1.3533  -1.3463  -1.3450  -1.2925  -1.2912  -1.2690
    -1.2561  -1.2545  -1.2524  -1.2498  -1.2494  -1.2458  -1.2453  -1.2255
    -1.2080  -1.2015  -1.2004  -1.1980  -1.1905  -1.1862  -1.1614  -1.1405
    -1.1242  -1.1118  -1.1081  -1.1053  -1.0639  -1.0637  -1.0259  -1.0256
    -1.0226  -1.0224  -0.9920  -0.9804  -0.9740  -0.9604  -0.9595  -0.9574
    -0.9537  -0.9520  -0.9517  -0.9030  -0.9013  -0.8947  -0.8938  -0.8853
    -0.8852  -0.8756  -0.8743  -0.8693  -0.8689  -0.8116  -0.8046  -0.8007
    -0.7939  -0.7936  -0.7913  -0.7867  -0.7774  -0.7708  -0.7701  -0.7558
    -0.7535  -0.7297  -0.7296  -0.7252  -0.7204  -0.6327  -0.6325  -0.6269
    -0.6262  -0.6086  -0.6083  -0.5867  -0.5824  -0.5802  -0.5799  -0.5764
    -0.5763  -0.5672  -0.5512  -0.5488  -0.5176  -0.5166  -0.5165  -0.5141
    -0.5141  -0.5122  -0.5099  -0.5079  -0.4803  -0.4790  -0.4782  -0.4580
    -0.4580  -0.4565  -0.4486  -0.4294  -0.4232  -0.4224  -0.4216  -0.4190
    -0.4135  -0.4127  -0.4070  -0.4063  -0.3483  -0.3361  -0.3358  -0.3285
    -0.3280  -0.3017  -0.3013  -0.2996  -0.2777  -0.2771  -0.2715  -0.2705
    -0.2697  -0.2694  -0.2663  -0.2465  -0.2454  -0.2412  -0.2404  -0.2341
    -0.2290  -0.2237  -0.2224  -0.2192  -0.2189  -0.2181  -0.2177  -0.2174
    -0.2092  -0.2058  -0.1818  -0.1816  -0.1788  -0.1785  -0.1500  -0.1443
    -0.1187  -0.1153  -0.1136  -0.1135  -0.1068  -0.1051  -0.1019  -0.1016
    -0.1009  -0.0885  -0.0731  -0.0663  -0.0615  -0.0610  -0.0583  -0.0530
    -0.0521  -0.0518  -0.0494  -0.0490  -0.0487  -0.0464  -0.0417   0.0087
     0.0088   0.0104   0.0115   0.0193   0.0304   0.0310   0.0314   0.0336
     0.0347   0.0390   0.0524   0.0534   0.0565   0.0586   0.0643   0.0729
     0.0844   0.0853   0.1010   0.1013   0.1015   0.1023   0.1194   0.1213
     0.1363   0.1364   0.1464   0.1487   0.1585   0.1607   0.1614   0.1621
     0.2022   0.2028   0.2106   0.2119   0.2191   0.2253   0.2266   0.2269
     0.2534   0.2550   0.2836   0.2889   0.2906   0.2923   0.3196   0.3295
     0.3319   0.3663   0.3697   0.4084   0.4089   0.4144   0.4145   0.4365
     0.4381   0.4384   0.4393   0.4442   0.4690   0.4745   0.4752   0.4791
     0.4792   0.4801   0.4817   0.4849   0.4866   0.4890   0.5010   0.5026
     0.5028   0.5035   0.5074   0.5101   0.5103   0.5145   0.5406   0.5425
     0.5427   0.5529   0.5533   0.5535   0.5550   0.5621   0.5621   0.5808
     0.5824   0.5837   0.5839   0.5842   0.5852   0.5852   0.5862   0.5884
     0.6033   0.6057   0.6066   0.6094   0.6097   0.6109   0.6138   0.6154
     0.6240   0.6323   0.6702   0.6709   0.6827   0.6831   0.6879   0.6938
     0.6946   0.6949   0.6978   0.6993   0.7019   0.7057   0.7081   0.7085
     0.7085   0.7100   0.7440   0.7504   0.7505   0.7507   0.7540   0.7674
     0.7675   0.7681   0.7691   0.7705   0.7822   0.7877   0.8001   0.8005
     0.8021   0.8066   0.8080   0.8091   0.8591   0.8606   0.9061   0.9114
     0.9150   0.9163   0.9194   0.9197   0.9237   0.9300   0.9355   0.9368
     0.9393   0.9426   0.9433   0.9462   0.9502   0.9514   0.9515   0.9621
     0.9668   0.9677   0.9677   0.9681   0.9711   0.9796   0.9821   0.9922
     0.9925   0.9926   0.9944   0.9956   0.9963   0.9996   1.0003   1.0088
     1.0148   1.0153   1.0154   1.0184   1.0197   1.0200   1.0348   1.0376
     1.0405   1.0490   1.0504   1.0519   1.0556   1.0562   1.0639   1.0644
     1.0654   1.0655   1.0657   1.0675   1.1013   1.1125   1.1186   1.1474
     1.1529   1.1534   1.1613   1.1690   1.1735   1.1772   1.1781   1.1811
     1.1953   1.1963   1.2086   1.2089   1.2134   1.2174   1.2192   1.2217
     1.2235   1.2240   1.2262   1.2263   1.2266   1.2282   1.2286   1.2288
     1.2359   1.2364   1.2414   1.2500   1.2547   1.2570   1.2574   1.2590
     1.2660   1.2668   1.2793   1.2952   1.2955   1.2956   1.3018   1.3033
     1.3034   1.3069   1.3139   1.3222   1.3234   1.3242   1.3247   1.3366
     1.3388   1.3393   1.3399   1.3412   1.3562   1.3584   1.3585   1.3599
     1.3661   1.3770   1.3772   1.3787   1.3938   1.3994   1.4042   1.4052
     1.4061   1.4066   1.4121   1.4192   1.4208   1.4223   1.4249   1.4378
     1.4382   1.4522   1.4527   1.4527   1.4551   1.4717   1.4731   1.4738
     1.4742   1.4764   1.4766   1.4778   1.4782   1.5045   1.5059   1.5136
     1.5138   1.5188   1.5253   1.5322   1.5435   1.5454   1.5461   1.5467
     1.5511   1.5577   1.5608   1.5637   1.5698   1.6081   1.6139   1.6156
     1.6159   1.7140   1.7201   1.7322   1.7468   1.7482   1.7564   1.7579
     1.7900   1.8120   1.8166   1.8187   1.8203   1.8377   1.8384   1.8409
     1.8589   1.8779   1.8808   1.9330   2.1023   2.1475   2.4384   2.4423
     2.4510   2.4517   2.5181   2.5252   2.5830   2.5939   2.5960   2.5967
     2.6069   2.6079   2.7329   2.7352   2.7800   2.7888   2.8066   2.8104
     2.9276   2.9490   2.9557   3.1953   3.1956   3.1986   3.2203   3.4408
     3.4568   3.6961   3.7003   3.7354   3.9530   3.9864   4.1081   4.1303
     4.1390   4.1480   4.3478   4.3560   4.3618   4.3650   4.5247   4.5265
     4.6415   4.7379   4.7603   4.8005   4.8352   4.9723   5.1268   5.1285
     5.1579   5.3396   5.3844   5.3866   5.3875   5.3889   5.4614   5.6205
     5.7017   5.7330   5.7543   5.8279   6.3462   6.4289   6.4436   6.4566
     6.4812   6.4845   6.5131   6.5868   6.6480   6.6915   6.6964   6.8417
     6.8521   7.0482   7.0641   7.0803   7.0992   7.1037   7.1213   7.1475
     7.1478   7.1644   7.1697   7.3388   7.3727   7.3953   7.4107   7.4184
     7.4357   7.5319   7.6782   7.7031   7.7778   7.7866   8.1501   8.1734
     8.1744   8.3822   8.3836   8.3853   8.4102   8.4388   8.4569   8.4734
     8.4893   8.4911   8.5236   8.5708   8.7373   8.7404   8.7424   8.7508
     8.7711   8.7858   8.7950   8.9541   8.9659   9.0254   9.0497   9.0540
     9.1760   9.1853   9.2349   9.2363   9.2743   9.3030   9.4006   9.4018
     9.4195   9.4221   9.4533   9.4617   9.5100   9.5178   9.5354   9.5383
     9.6926   9.7051   9.8125   9.8136   9.8540   9.9105   9.9155   9.9433

          k = 0.2500 0.0000 0.0000 (256240 PWs)   bands (ev):

   -16.9665 -16.0935 -15.9250 -15.5615 -15.1053 -14.9572 -14.8886 -14.8472
   -14.0496 -13.9016 -13.6465 -13.2054 -13.1162 -13.0482 -12.9994 -12.2865
   -12.1817 -12.1159 -12.0185 -11.1665 -11.0588 -10.7485 -10.6384 -10.3359
   -10.1176  -9.8848  -9.8367  -9.4241  -9.2145  -9.1072  -8.6397  -7.8997
    -7.6983  -7.6613  -7.5036  -7.4672  -7.4131  -7.0118  -6.8908  -6.2668
    -6.1848  -5.9660  -5.9416  -5.8665  -5.8171  -5.5582  -5.3284  -5.2869
    -5.2792  -5.1546  -4.8458  -4.8121  -4.5860  -4.4981  -4.4553  -4.4435
    -4.4129  -4.4041  -4.2847  -4.2184  -4.1315  -4.0225  -3.9775  -3.9752
    -3.8707  -3.8317  -3.8154  -3.8047  -3.6902  -3.5786  -3.5492  -3.5420
    -3.5062  -3.4418  -3.3978  -3.3703  -3.3040  -3.2328  -3.2125  -3.1477
    -3.1091  -3.0096  -2.9547  -2.8982  -2.7842  -2.7748  -2.7726  -2.7564
    -2.6118  -2.6025  -2.5939  -2.4423  -2.3840  -2.3679  -2.3302  -2.2966
    -2.2519  -2.0769  -2.0745  -2.0631  -2.0578  -2.0547  -2.0117  -1.9732
    -1.9481  -1.8753  -1.8678  -1.8232  -1.8023  -1.7771  -1.7770  -1.7694
    -1.7693  -1.7606  -1.7492  -1.7207  -1.7118  -1.6955  -1.6911  -1.6791
    -1.6562  -1.6253  -1.6222  -1.5828  -1.5781  -1.5590  -1.5585  -1.5559
    -1.5536  -1.5536  -1.5380  -1.5017  -1.4850  -1.4795  -1.4773  -1.4659
    -1.4620  -1.4024  -1.3470  -1.3109  -1.3055  -1.2881  -1.2468  -1.2443
    -1.2279  -1.2195  -1.2179  -1.2132  -1.2112  -1.1990  -1.1836  -1.1765
    -1.1629  -1.1605  -1.1582  -1.1535  -1.1341  -1.1287  -1.1159  -1.1113
    -1.1085  -1.1057  -1.1005  -1.0877  -1.0861  -1.0769  -1.0566  -1.0493
    -1.0268  -1.0253  -1.0243  -1.0234  -0.9985  -0.9909  -0.9889  -0.9848
    -0.9818  -0.9762  -0.9729  -0.9651  -0.9619  -0.9566  -0.9555  -0.9540
    -0.9527  -0.9512  -0.9501  -0.9391  -0.9239  -0.9209  -0.9166  -0.9091
    -0.8862  -0.8774  -0.8769  -0.8702  -0.8286  -0.8264  -0.7914  -0.7912
    -0.7729  -0.7702  -0.7617  -0.7463  -0.7461  -0.7322  -0.7308  -0.7281
    -0.7241  -0.7182  -0.7152  -0.6977  -0.5925  -0.5803  -0.5772  -0.5735
    -0.5597  -0.5436  -0.5430  -0.5395  -0.5259  -0.5247  -0.5242  -0.5237
    -0.5110  -0.5051  -0.5020  -0.5015  -0.4968  -0.4871  -0.4676  -0.4619
    -0.4598  -0.4592  -0.4572  -0.4555  -0.4355  -0.4354  -0.4332  -0.4170
    -0.3762  -0.3745  -0.3740  -0.3718  -0.3670  -0.3638  -0.3551  -0.3529
    -0.3367  -0.3317  -0.3311  -0.3095  -0.3077  -0.3058  -0.3049  -0.2983
    -0.2697  -0.2692  -0.2671  -0.2665  -0.2564  -0.2552  -0.2510  -0.2450
    -0.2413  -0.2354  -0.2278  -0.2151  -0.2048  -0.2030  -0.1785  -0.1737
    -0.1734  -0.1710  -0.1679  -0.1633  -0.1563  -0.1553  -0.1540  -0.1507
    -0.1360  -0.1265  -0.1262  -0.1139  -0.1109  -0.0988  -0.0881  -0.0860
    -0.0849  -0.0728  -0.0415  -0.0378  -0.0373  -0.0310  -0.0286  -0.0168
     0.0031   0.0064   0.0070   0.0125   0.0150   0.0169   0.0181   0.0257
     0.0296   0.0300   0.0322   0.0324   0.0350   0.0386   0.0539   0.0575
     0.0596   0.0599   0.0653   0.0677   0.0835   0.0851   0.0968   0.1017
     0.1042   0.1192   0.1389   0.1397   0.1418   0.1426   0.1435   0.1516
     0.1612   0.1661   0.1663   0.1677   0.1683   0.1716   0.2020   0.2049
     0.2216   0.2706   0.2788   0.2800   0.2807   0.2940   0.2958   0.2980
     0.2996   0.3002   0.3034   0.3069   0.3100   0.3118   0.3138   0.3144
     0.3225   0.3265   0.3320   0.3326   0.3350   0.3447   0.3463   0.3518
     0.3557   0.3593   0.3613   0.3619   0.3814   0.3874   0.3914   0.4117
     0.4214   0.4312   0.4376   0.4494   0.4502   0.4680   0.4687   0.4693
     0.4732   0.4797   0.4887   0.5024   0.5055   0.5070   0.5104   0.5110
     0.5164   0.5172   0.5208   0.5217   0.5397   0.5432   0.5480   0.5559
     0.5608   0.5686   0.5706   0.5747   0.5762   0.5775   0.5808   0.5817
     0.5985   0.6044   0.6056   0.6123   0.6169   0.6186   0.6221   0.6233
     0.6260   0.6357   0.6367   0.6426   0.6433   0.6447   0.6625   0.6641
     0.6805   0.6840   0.6878   0.6912   0.6943   0.6965   0.7001   0.7143
     0.7280   0.7306   0.7493   0.7541   0.7644   0.7660   0.7681   0.7697
     0.7716   0.7787   0.7913   0.7945   0.7968   0.8008   0.8045   0.8056
     0.8161   0.8213   0.8292   0.8316   0.8407   0.8486   0.8502   0.8505
     0.8674   0.8791   0.8805   0.8824   0.8836   0.9047   0.9057   0.9129
     0.9167   0.9187   0.9201   0.9202   0.9248   0.9280   0.9286   0.9326
     0.9408   0.9660   0.9723   0.9762   0.9774   0.9807   0.9815   0.9943
     0.9962   1.0152   1.0170   1.0178   1.0183   1.0252   1.0254   1.0281
     1.0399   1.0430   1.0442   1.0448   1.0458   1.0473   1.0482   1.0498
     1.0516   1.0565   1.0570   1.0586   1.0653   1.0677   1.0730   1.0802
     1.0864   1.0880   1.0902   1.0951   1.0955   1.1016   1.1025   1.1163
     1.1164   1.1276   1.1310   1.1324   1.1334   1.1375   1.1396   1.1485
     1.1503   1.1611   1.1631   1.1652   1.1716   1.1773   1.1816   1.1835
     1.1850   1.1894   1.2021   1.2102   1.2152   1.2179   1.2192   1.2488
     1.2578   1.2607   1.2670   1.2707   1.2711   1.2764   1.2788   1.2794
     1.2801   1.2861   1.2884   1.2925   1.2977   1.3029   1.3050   1.3055
     1.3168   1.3240   1.3262   1.3264   1.3284   1.3317   1.3370   1.3397
     1.3402   1.3425   1.3435   1.3488   1.3496   1.3507   1.3586   1.3620
     1.3708   1.3738   1.3775   1.3812   1.3830   1.3834   1.3857   1.3889
     1.4003   1.4061   1.4063   1.4070   1.4287   1.4288   1.4369   1.4389
     1.4434   1.4477   1.4483   1.4493   1.4529   1.4535   1.4553   1.4595
     1.4599   1.4607   1.4669   1.4683   1.4840   1.4895   1.4901   1.4918
     1.4923   1.4952   1.4960   1.5084   1.5091   1.5131   1.5175   1.5210
     1.5321   1.5329   1.5350   1.5386   1.5401   1.5436   1.5649   1.5724
     1.5784   1.6024   1.6078   1.6442   1.6494   1.6525   1.6560   1.6877
     1.6943   1.7652   1.7714   1.7872   1.7890   1.8063   1.8076   1.8237
     1.8423   1.8628   2.0560   2.0642   2.0935   2.1054   2.1146   2.1173
     2.2167   2.2773   2.2896   2.5765   2.5879   2.5906   2.5936   2.7896
     3.0007   3.0010   3.0423   3.2180   3.2193   3.2435   3.2437   3.2924
     3.3176   3.4819   3.5096   3.5935   3.6179   3.6406   3.6598   3.6933
     3.7307   3.7378   3.7475   3.7571   3.8664   3.9026   3.9070   4.0016
     4.0081   4.1881   4.2232   4.2367   4.3031   4.3705   4.4278   4.5344
     4.7495   4.8066   4.8464   4.9088   5.1962   5.2260   5.2466   5.2514
     5.2644   5.3730   5.4595   5.5007   5.5131   5.5328   5.5972   5.6243
     5.6539   5.6835   5.7250   5.7398   5.7635   5.7790   5.8613   5.8634
     6.0317   6.0342   6.0549   6.0680   6.2014   6.4901   6.7140   6.7205
     6.7355   6.7588   6.7759   6.8135   6.9025   6.9275   7.0424   7.0647
     7.0751   7.0800   7.0945   7.1970   7.2798   7.3079   7.3519   7.3687
     7.5272   7.5488   7.5675   7.5838   7.6047   7.7786   7.8004   7.8263
     7.9298   8.0281   8.0397   8.0705   8.0802   8.1343   8.1461   8.1535
     8.2769   8.3223   8.3436   8.3438   8.4096   8.4349   8.4707   8.4721
     8.6712   8.6756   8.7464   8.9691   8.9829   8.9891   8.9897   9.0909
     9.1679   9.2055   9.2200   9.2402   9.2579   9.2831   9.2929   9.3019
     9.3328   9.4091   9.4158   9.4444   9.4594   9.4734   9.5050   9.5870
     9.6613   9.7434   9.7499   9.8076   9.8125   9.8387   9.8450   9.9765

          k = 0.2500-0.2165 0.0000 (256316 PWs)   bands (ev):

   -16.9656 -16.1529 -15.8002 -15.4886 -15.3741 -15.1663 -14.6609 -14.5161
   -14.1835 -14.0563 -13.6069 -13.2420 -13.1961 -13.1031 -12.7222 -12.6165
   -12.1060 -11.9546 -11.4336 -11.3929 -11.2421 -11.0610 -10.8705 -10.5968
    -9.8076  -9.7530  -9.3247  -9.2002  -9.0543  -9.0150  -8.6310  -8.5601
    -8.4253  -8.3597  -7.2090  -6.9324  -6.6932  -6.6062  -6.5676  -6.4329
    -6.4156  -6.2970  -6.0428  -6.0059  -5.6953  -5.6823  -5.4946  -5.3619
    -5.1292  -4.9816  -4.8612  -4.7885  -4.6654  -4.6525  -4.6169  -4.4642
    -4.3864  -4.3257  -4.3237  -4.2978  -4.1786  -4.1346  -4.1034  -4.0238
    -3.9312  -3.7746  -3.7079  -3.6829  -3.5721  -3.5350  -3.4965  -3.4640
    -3.4343  -3.4340  -3.2847  -3.2772  -3.2376  -3.1438  -3.1267  -3.0245
    -3.0056  -2.9587  -2.9099  -2.8941  -2.8851  -2.8837  -2.8324  -2.8090
    -2.6750  -2.6189  -2.6032  -2.5215  -2.3501  -2.2964  -2.2909  -2.2797
    -2.1687  -2.1561  -2.1443  -2.1441  -2.1024  -2.0743  -2.0024  -1.9850
    -1.9847  -1.9502  -1.9411  -1.9243  -1.8472  -1.8133  -1.8002  -1.7888
    -1.7883  -1.7594  -1.7251  -1.7249  -1.7077  -1.6989  -1.6864  -1.6841
    -1.6767  -1.6697  -1.6551  -1.6520  -1.6519  -1.6516  -1.6433  -1.6426
    -1.6003  -1.5594  -1.5555  -1.4455  -1.4435  -1.4080  -1.3435  -1.3406
    -1.3315  -1.3054  -1.3044  -1.2627  -1.2533  -1.2519  -1.2384  -1.2381
    -1.2291  -1.2245  -1.2206  -1.2163  -1.2047  -1.1995  -1.1949  -1.1903
    -1.1865  -1.1824  -1.1784  -1.1728  -1.1660  -1.1600  -1.1587  -1.1435
    -1.1075  -1.1069  -1.1049  -1.0984  -1.0963  -1.0900  -1.0890  -1.0808
    -1.0569  -1.0543  -1.0165  -1.0146  -1.0139  -1.0089  -1.0034  -0.9985
    -0.9741  -0.9715  -0.9714  -0.9512  -0.9467  -0.9368  -0.9357  -0.9320
    -0.9307  -0.9285  -0.9221  -0.9002  -0.8983  -0.8957  -0.8859  -0.8751
    -0.8557  -0.8462  -0.8404  -0.8378  -0.8369  -0.8210  -0.7554  -0.7523
    -0.7514  -0.7459  -0.7457  -0.7453  -0.6991  -0.6960  -0.6920  -0.6880
    -0.6871  -0.6814  -0.6803  -0.6701  -0.6683  -0.6636  -0.6304  -0.6271
    -0.5961  -0.5896  -0.5779  -0.5508  -0.5431  -0.5399  -0.5395  -0.5377
    -0.5111  -0.5088  -0.5075  -0.4981  -0.4922  -0.4770  -0.4754  -0.4645
    -0.4630  -0.4483  -0.4391  -0.4327  -0.4286  -0.4213  -0.4155  -0.4043
    -0.4014  -0.3832  -0.3830  -0.3755  -0.3696  -0.3686  -0.3564  -0.3503
    -0.3435  -0.3423  -0.3380  -0.3375  -0.3335  -0.3315  -0.3267  -0.3258
    -0.3108  -0.3066  -0.3037  -0.2923  -0.2918  -0.2657  -0.2621  -0.2488
    -0.2436  -0.2337  -0.2303  -0.2149  -0.2146  -0.2083  -0.2023  -0.1930
    -0.1916  -0.1894  -0.1850  -0.1580  -0.1534  -0.1291  -0.1288  -0.0930
    -0.0916  -0.0833  -0.0829  -0.0808  -0.0786  -0.0703  -0.0620  -0.0617
    -0.0446  -0.0442  -0.0408  -0.0322  -0.0266  -0.0210  -0.0188  -0.0169
    -0.0137  -0.0135  -0.0082   0.0087   0.0129   0.0150   0.0214   0.0220
     0.0229   0.0241   0.0254   0.0263   0.0305   0.0337   0.0347   0.0565
     0.0568   0.0571   0.0575   0.0889   0.0910   0.0931   0.0988   0.0999
     0.1039   0.1187   0.1243   0.1300   0.1363   0.1480   0.1570   0.1580
     0.1647   0.1682   0.1772   0.1779   0.1792   0.1837   0.1928   0.1954
     0.2009   0.2017   0.2288   0.2312   0.2885   0.2926   0.2982   0.3038
     0.3054   0.3068   0.3080   0.3118   0.3120   0.3156   0.3180   0.3197
     0.3267   0.3377   0.3429   0.3447   0.3464   0.3476   0.3532   0.3565
     0.3605   0.3622   0.3767   0.3909   0.3960   0.4066   0.4072   0.4132
     0.4188   0.4268   0.4317   0.4593   0.4694   0.4705   0.4751   0.4801
     0.4823   0.4826   0.4932   0.4943   0.4952   0.4998   0.5040   0.5056
     0.5078   0.5095   0.5118   0.5363   0.5387   0.5437   0.5444   0.5561
     0.5599   0.5625   0.5915   0.5924   0.5932   0.5939   0.6239   0.6276
     0.6278   0.6315   0.6321   0.6348   0.6354   0.6392   0.6483   0.6500
     0.6514   0.6550   0.6565   0.6625   0.6713   0.6766   0.6809   0.6835
     0.6927   0.6928   0.6964   0.6966   0.6985   0.7051   0.7087   0.7116
     0.7142   0.7153   0.7249   0.7321   0.7354   0.7366   0.7411   0.7419
     0.7436   0.7455   0.7466   0.7469   0.7769   0.7808   0.7905   0.7938
     0.8037   0.8097   0.8177   0.8328   0.8458   0.8484   0.8488   0.8503
     0.8508   0.8552   0.8565   0.8659   0.8786   0.8795   0.8801   0.8803
     0.8816   0.8833   0.8933   0.8986   0.9088   0.9098   0.9169   0.9207
     0.9243   0.9296   0.9378   0.9539   0.9539   0.9556   0.9773   0.9795
     0.9809   0.9866   0.9892   0.9898   0.9914   0.9940   0.9997   1.0137
     1.0253   1.0282   1.0331   1.0420   1.0443   1.0532   1.0567   1.0626
     1.0709   1.0781   1.0863   1.0898   1.1055   1.1058   1.1112   1.1130
     1.1148   1.1156   1.1166   1.1169   1.1200   1.1218   1.1288   1.1313
     1.1322   1.1412   1.1429   1.1447   1.1579   1.1626   1.1753   1.1845
     1.1904   1.1920   1.1971   1.1997   1.2007   1.2022   1.2044   1.2111
     1.2139   1.2159   1.2170   1.2179   1.2199   1.2257   1.2282   1.2300
     1.2313   1.2363   1.2428   1.2475   1.2489   1.2493   1.2505   1.2510
     1.2589   1.2642   1.2698   1.2707   1.2759   1.2947   1.2957   1.3031
     1.3039   1.3177   1.3201   1.3225   1.3233   1.3342   1.3359   1.3383
     1.3462   1.3478   1.3509   1.3564   1.3573   1.3603   1.3620   1.3706
     1.3728   1.3736   1.3740   1.3849   1.3858   1.3941   1.4004   1.4072
     1.4074   1.4076   1.4110   1.4114   1.4121   1.4180   1.4186   1.4298
     1.4305   1.4313   1.4354   1.4405   1.4457   1.4490   1.4502   1.4601
     1.4623   1.4629   1.4635   1.4690   1.4695   1.4696   1.4700   1.4751
     1.4791   1.4794   1.5024   1.5040   1.5043   1.5100   1.5139   1.5255
     1.5284   1.5462   1.5491   1.5521   1.5540   1.5721   1.5760   1.5792
     1.5831   1.5836   1.6092   1.6106   1.6505   1.6712   1.6907   1.6926
     1.7309   1.7763   1.7818   1.7934   1.8011   1.8123   1.8138   1.8150
     1.8168   1.8395   1.8682   1.8765   2.1494   2.1511   2.1815   2.1839
     2.3059   2.3154   2.5448   2.6083   2.6207   2.8064   2.8138   2.8153
     2.8241   2.8255   2.8480   2.8631   2.8852   3.0061   3.0100   3.0994
     3.1155   3.5480   3.5689   3.6277   3.6397   3.6982   3.7157   3.8614
     3.8646   3.8684   3.8724   4.0040   4.0214   4.0666   4.0894   4.1763
     4.1874   4.2585   4.3824   4.3987   4.4004   4.5341   4.5799   4.5818
     4.6877   4.7027   4.7220   4.7470   4.9334   4.9641   5.0074   5.0627
     5.0697   5.1077   5.2782   5.3200   5.3975   5.4371   5.4696   5.4755
     5.4830   5.4843   5.5634   5.7772   5.7898   5.9017   5.9244   5.9639
     5.9723   5.9949   6.3721   6.5850   6.6253   6.6526   6.6603   6.7764
     6.7828   6.8841   6.9012   6.9525   7.0606   7.0916   7.1117   7.1179
     7.1289   7.1572   7.2099   7.2378   7.2483   7.3452   7.3553   7.3656
     7.3774   7.4129   7.4654   7.4665   7.4741   7.6831   7.6996   7.7942
     7.8228   7.8448   7.9732   8.0225   8.0938   8.2135   8.2266   8.2677
     8.2847   8.2981   8.5492   8.6096   8.6128   8.6181   8.6307   8.6683
     8.6740   8.7220   8.7336   8.7417   8.8740   8.8955   8.9484   8.9555
     8.9772   9.0337   9.1507   9.1681   9.1750   9.1953   9.2072   9.2283
     9.2497   9.2762   9.2968   9.3076   9.3694   9.3894   9.3984   9.4517
     9.4630   9.4686   9.6228   9.6286   9.8757   9.9426   9.9761   9.9796

          k =-0.5000 0.0000 0.0000 (256496 PWs)   bands (ev):

   -16.8878 -15.9399 -15.7108 -15.5730 -15.5594 -15.5370 -14.7448 -14.5519
   -14.4741 -14.4378 -13.1078 -12.8341 -12.7182 -12.6552 -12.3444 -12.3169
   -11.8815 -11.8614 -11.7734 -11.7519 -11.2053 -11.1640 -10.9672 -10.7116
   -10.2680 -10.2398  -9.9146  -9.7149  -9.1380  -9.1014  -8.9193  -8.8472
    -7.7293  -7.5474  -7.5357  -7.3666  -7.3161  -7.3007  -6.1324  -6.0614
    -5.7812  -5.6804  -5.2862  -5.2780  -5.1864  -4.9905  -4.9363  -4.8285
    -4.7811  -4.7810  -4.7799  -4.7714  -4.7248  -4.6983  -4.6516  -4.6345
    -4.6303  -4.5100  -4.4883  -4.3970  -4.3739  -4.3220  -4.2855  -4.0423
    -4.0058  -3.9994  -3.9456  -3.9422  -3.7103  -3.6396  -3.6172  -3.5392
    -3.5354  -3.4985  -3.3971  -3.3962  -3.3961  -3.3952  -3.3545  -3.3479
    -3.3196  -3.3031  -3.1306  -2.9186  -2.9153  -2.8085  -2.7622  -2.7469
    -2.7345  -2.6872  -2.6156  -2.5769  -2.5667  -2.5204  -2.4240  -2.4013
    -2.2843  -2.2763  -2.2749  -2.2704  -1.8721  -1.8548  -1.8545  -1.8542
    -1.8524  -1.8520  -1.8477  -1.7872  -1.7847  -1.7400  -1.7286  -1.7216
    -1.6624  -1.6266  -1.6261  -1.6256  -1.6218  -1.5780  -1.5775  -1.5773
    -1.5764  -1.5273  -1.4774  -1.4652  -1.4630  -1.4601  -1.4401  -1.4330
    -1.4173  -1.4018  -1.4010  -1.4002  -1.3927  -1.3825  -1.3811  -1.3340
    -1.3333  -1.3292  -1.3284  -1.3192  -1.3177  -1.3162  -1.3133  -1.3097
    -1.2972  -1.2678  -1.2668  -1.2655  -1.2627  -1.2438  -1.2433  -1.2431
    -1.2423  -1.1802  -1.1798  -1.1707  -1.1599  -1.1582  -1.1569  -1.1567
    -1.1307  -1.1293  -1.1277  -1.1254  -1.1251  -1.1232  -1.0942  -1.0831
    -1.0820  -1.0815  -1.0813  -1.0625  -1.0615  -1.0598  -1.0312  -1.0310
    -0.9848  -0.9843  -0.9639  -0.9608  -0.9572  -0.9564  -0.9541  -0.9541
    -0.9277  -0.9264  -0.9261  -0.9241  -0.9218  -0.9202  -0.9080  -0.9075
    -0.9044  -0.9035  -0.8949  -0.8788  -0.8778  -0.8373  -0.8163  -0.8151
    -0.8131  -0.8127  -0.7699  -0.7695  -0.6874  -0.6870  -0.6862  -0.6856
    -0.6650  -0.6580  -0.6485  -0.6481  -0.6470  -0.6466  -0.6450  -0.6385
    -0.6175  -0.6069  -0.6069  -0.6061  -0.6025  -0.5961  -0.5931  -0.5804
    -0.5757  -0.5747  -0.5576  -0.5378  -0.4923  -0.4870  -0.4578  -0.4492
    -0.4477  -0.4402  -0.4314  -0.4312  -0.4186  -0.4015  -0.3883  -0.3850
    -0.3816  -0.3812  -0.3789  -0.3777  -0.3731  -0.3546  -0.3433  -0.3428
    -0.3424  -0.3418  -0.3220  -0.3046  -0.3038  -0.3036  -0.3031  -0.2708
    -0.2706  -0.2704  -0.2700  -0.2593  -0.2590  -0.2550  -0.2261  -0.2261
    -0.2244  -0.2240  -0.2203  -0.2128  -0.2013  -0.1855  -0.1854  -0.1759
    -0.1540  -0.1113  -0.1099  -0.1098  -0.1093  -0.1042  -0.1039  -0.1020
    -0.1015  -0.0646  -0.0644  -0.0602  -0.0600  -0.0276  -0.0273  -0.0123
     0.0003   0.0006   0.0016   0.0025   0.0028   0.0036   0.0051   0.0053
     0.0057   0.0060   0.0072   0.0083   0.0709   0.0813   0.0847   0.0856
     0.0884   0.0915   0.0942   0.0957   0.0970   0.0981   0.1014   0.1025
     0.1054   0.1057   0.1097   0.1112   0.1123   0.1140   0.1213   0.1274
     0.1275   0.1422   0.1422   0.1433   0.1433   0.1434   0.1437   0.1526
     0.1530   0.1531   0.1536   0.1664   0.1665   0.1712   0.1785   0.1786
     0.1795   0.1799   0.1934   0.2077   0.2085   0.2304   0.2721   0.2816
     0.3100   0.3109   0.3137   0.3137   0.3431   0.3441   0.3447   0.3449
     0.3575   0.3594   0.3615   0.3635   0.3687   0.3691   0.3699   0.3701
     0.3730   0.3751   0.3757   0.3773   0.3790   0.3826   0.3917   0.3933
     0.3936   0.3949   0.4032   0.4071   0.4111   0.4135   0.4218   0.4222
     0.4273   0.4288   0.4473   0.4630   0.4697   0.5132   0.5152   0.5172
     0.5183   0.5302   0.5314   0.5465   0.5502   0.5516   0.5521   0.5532
     0.5539   0.5560   0.5590   0.5594   0.5600   0.5603   0.5624   0.5635
     0.5639   0.5697   0.5709   0.5717   0.5739   0.5914   0.5929   0.6093
     0.6095   0.6238   0.6266   0.6365   0.6422   0.6451   0.6458   0.6488
     0.6550   0.6556   0.6559   0.6594   0.6599   0.6607   0.6708   0.6753
     0.6775   0.6778   0.6910   0.6920   0.6950   0.6956   0.7155   0.7291
     0.7301   0.7312   0.7319   0.7347   0.7382   0.7519   0.7531   0.7738
     0.7832   0.7906   0.7920   0.7924   0.7926   0.7930   0.7949   0.8330
     0.8562   0.8610   0.8624   0.8653   0.8655   0.8665   0.8685   0.8709
     0.8728   0.8770   0.8779   0.8789   0.8798   0.8907   0.8909   0.9092
     0.9108   0.9124   0.9136   0.9273   0.9301   0.9305   0.9313   0.9318
     0.9333   0.9334   0.9551   0.9713   0.9721   0.9733   0.9744   1.0216
     1.0371   1.0381   1.0386   1.0390   1.0504   1.0712   1.0721   1.0721
     1.0734   1.0786   1.0901   1.0906   1.0997   1.1020   1.1040   1.1125
     1.1162   1.1238   1.1339   1.1361   1.1380   1.1419   1.1423   1.1435
     1.1476   1.1494   1.1495   1.1521   1.1589   1.1601   1.1610   1.1615
     1.1622   1.1625   1.1644   1.1659   1.1740   1.2010   1.2015   1.2016
     1.2023   1.2123   1.2281   1.2330   1.2333   1.2381   1.2385   1.2396
     1.2410   1.2556   1.2574   1.2664   1.2666   1.2673   1.2675   1.2764
     1.2773   1.2783   1.2794   1.2825   1.2846   1.2964   1.2965   1.3055
     1.3240   1.3248   1.3338   1.3403   1.3403   1.3405   1.3405   1.3408
     1.3410   1.3414   1.3497   1.3532   1.3545   1.3550   1.3558   1.3561
     1.3570   1.3576   1.3622   1.3646   1.3673   1.3675   1.3677   1.3683
     1.3746   1.3749   1.3815   1.3892   1.3904   1.4088   1.4115   1.4144
     1.4163   1.4165   1.4170   1.4183   1.4186   1.4353   1.4374   1.4398
     1.4400   1.4542   1.4542   1.4613   1.4614   1.4737   1.4739   1.4743
     1.4746   1.4923   1.4931   1.4961   1.4978   1.5001   1.5039   1.5043
     1.5044   1.5047   1.5093   1.5190   1.5233   1.5251   1.5313   1.5383
     1.5385   1.5391   1.5392   1.5487   1.5540   1.5543   1.5988   1.6033
     1.6056   1.6319   1.6322   1.6356   1.6376   1.6556   2.0477   2.0548
     2.0603   2.0618   2.2463   2.2610   2.2769   2.2856   2.3059   2.3089
     2.3153   2.3166   2.5508   2.6435   2.6451   2.6578   2.6878   2.8554
     2.8561   2.8620   2.8901   3.2073   3.2086   3.2093   3.2129   3.4860
     3.4985   3.7575   3.7883   3.7896   3.7917   3.9396   3.9458   3.9549
     3.9585   4.0400   4.0926   4.0967   4.1023   4.1454   4.2249   4.2267
     4.4153   4.5125   4.7127   4.7669   4.7742   4.7863   4.7992   4.8497
     4.8506   4.8814   4.9132   5.0420   5.0435   5.0530   5.0698   5.0740
     5.0791   5.0844   5.1001   5.1055   5.1223   5.1228   5.1658   5.1755
     5.4433   5.5444   5.5505   5.5639   5.6270   5.7170   5.7365   5.8532
     5.9368   6.0111   6.0162   6.0365   6.0469   6.0685   6.0741   6.0882
     6.1228   6.2741   6.4622   6.4637   6.4748   6.4937   6.4950   6.5139
     7.1029   7.1224   7.1249   7.1454   7.1498   7.1555   7.4214   7.6113
     7.6181   7.6254   7.6275   7.6287   7.6324   7.6699   7.6872   7.8374
     7.8406   7.9031   7.9102   7.9175   7.9211   8.0311   8.0802   8.0839
     8.0903   8.1248   8.1330   8.1634   8.1706   8.1904   8.4225   8.6020
     8.6365   8.6777   8.7120   8.8459   8.8573   8.8614   8.8618   8.9860
     8.9903   9.0373   9.1014   9.1038   9.1107   9.1947   9.2848   9.2942
     9.4078   9.4450   9.4793   9.4951   9.4981   9.5021   9.5415   9.5449
     9.5566   9.5646   9.5663   9.5765   9.7808   9.8040   9.8869   9.9318

          k =-0.5000-0.2165 0.0000 (256328 PWs)   bands (ev):

   -16.8875 -15.8914 -15.7856 -15.7785 -15.3363 -15.1565 -15.1055 -15.0790
   -13.9789 -13.7710 -13.6715 -13.6249 -12.5359 -12.3295 -11.9826 -11.9639
   -11.8847 -11.6962 -11.6356 -11.5432 -11.4957 -11.4951 -11.3738 -11.3657
   -10.0327  -9.9528  -9.7101  -9.6511  -9.0190  -8.9036  -8.7402  -8.7271
    -8.2132  -8.2106  -7.9687  -7.9209  -6.2890  -6.1937  -6.1897  -5.9096
    -5.7746  -5.5986  -5.4946  -5.3307  -5.2696  -5.2253  -5.1579  -5.1574
    -5.1551  -5.1495  -5.0074  -4.9786  -4.9622  -4.4616  -4.3801  -4.3650
    -4.3130  -4.2747  -4.1836  -4.1783  -4.1775  -4.1744  -4.1623  -4.1472
    -4.1124  -4.0100  -3.8955  -3.8623  -3.8388  -3.7852  -3.7784  -3.7208
    -3.6599  -3.5928  -3.5834  -3.5617  -3.5557  -3.4820  -3.4508  -3.4105
    -3.1926  -3.1184  -3.0429  -3.0292  -2.6134  -2.5582  -2.5568  -2.5547
    -2.5477  -2.5415  -2.5282  -2.4939  -2.4929  -2.4909  -2.3854  -2.3479
    -2.2912  -2.1246  -2.1211  -2.0731  -2.0718  -2.0553  -2.0431  -2.0053
    -1.9910  -1.9906  -1.9878  -1.9401  -1.9328  -1.8506  -1.7803  -1.7788
    -1.7768  -1.7760  -1.7165  -1.7020  -1.5706  -1.5421  -1.4829  -1.4728
    -1.4694  -1.4687  -1.4687  -1.4686  -1.4332  -1.4288  -1.4277  -1.4253
    -1.4093  -1.4087  -1.4069  -1.4069  -1.3616  -1.3610  -1.3602  -1.3593
    -1.3591  -1.3587  -1.3545  -1.3534  -1.3335  -1.3335  -1.3334  -1.3332
    -1.2853  -1.2850  -1.2821  -1.2820  -1.2358  -1.2277  -1.2067  -1.2061
    -1.2047  -1.1669  -1.1666  -1.1653  -1.1651  -1.1605  -1.1479  -1.1475
    -1.1463  -1.1302  -1.0978  -1.0962  -1.0957  -1.0945  -1.0907  -1.0905
    -1.0904  -1.0885  -1.0832  -1.0668  -1.0625  -1.0393  -1.0353  -1.0350
    -1.0297  -1.0291  -1.0181  -1.0177  -1.0131  -1.0128  -1.0126  -1.0118
    -1.0111  -1.0110  -0.9878  -0.9833  -0.9120  -0.8589  -0.8583  -0.8560
    -0.8560  -0.8283  -0.8281  -0.8279  -0.8275  -0.7619  -0.7467  -0.7461
    -0.7454  -0.7430  -0.7399  -0.7380  -0.7374  -0.7368  -0.7368  -0.7354
    -0.7117  -0.6774  -0.6754  -0.6750  -0.6726  -0.6653  -0.6649  -0.6642
    -0.6623  -0.6453  -0.6441  -0.6397  -0.6377  -0.5560  -0.5529  -0.5496
    -0.5484  -0.5448  -0.5433  -0.5412  -0.5388  -0.4742  -0.4741  -0.4728
    -0.4714  -0.4240  -0.4239  -0.4233  -0.4222  -0.4034  -0.4034  -0.4020
    -0.4018  -0.3934  -0.3819  -0.3765  -0.3744  -0.3651  -0.3642  -0.3633
    -0.3621  -0.3498  -0.3261  -0.3246  -0.3231  -0.2504  -0.2501  -0.2469
    -0.2468  -0.2323  -0.2320  -0.2318  -0.2317  -0.2212  -0.2162  -0.2151
    -0.2151  -0.1671  -0.1335  -0.1321  -0.1315  -0.1290  -0.1281  -0.1272
    -0.1265  -0.1262  -0.1247  -0.1245  -0.1225  -0.0983  -0.0868  -0.0867
    -0.0864  -0.0862  -0.0747  -0.0746  -0.0744  -0.0742  -0.0705  -0.0703
    -0.0689  -0.0629  -0.0186  -0.0015  -0.0009  -0.0004   0.0021   0.0243
     0.0251   0.0281   0.0290   0.0703   0.0743   0.0769   0.0829   0.0857
     0.0892   0.1030   0.1057   0.1058   0.1066   0.1085   0.1126   0.1130
     0.1136   0.1154   0.1171   0.1181   0.1197   0.1257   0.1262   0.1266
     0.1274   0.1317   0.1318   0.1335   0.1337   0.1484   0.1486   0.1490
     0.1498   0.1767   0.1767   0.1770   0.1771   0.1834   0.1858   0.1863
     0.1872   0.2060   0.2353   0.2360   0.2366   0.2375   0.2623   0.2686
     0.2692   0.2703   0.2809   0.3251   0.3379   0.3436   0.3492   0.3507
     0.3522   0.3527   0.3550   0.3630   0.3666   0.3693   0.3707   0.3720
     0.3741   0.3827   0.3832   0.3889   0.3910   0.3911   0.3917   0.3936
     0.3947   0.3976   0.3987   0.4024   0.4037   0.4128   0.4182   0.4224
     0.4722   0.4745   0.4763   0.4796   0.4816   0.4826   0.4838   0.4871
     0.4946   0.4950   0.4953   0.4956   0.5251   0.5299   0.5308   0.5340
     0.5349   0.5352   0.5399   0.5406   0.5408   0.5774   0.5783   0.5804
     0.5821   0.5880   0.5899   0.5922   0.5925   0.5938   0.5948   0.5951
     0.6003   0.6003   0.6009   0.6043   0.6145   0.6164   0.6177   0.6184
     0.6200   0.6293   0.6344   0.6351   0.6683   0.6953   0.7017   0.7033
     0.7062   0.7063   0.7080   0.7092   0.7106   0.7116   0.7117   0.7172
     0.7173   0.7293   0.7318   0.7369   0.7532   0.7545   0.7547   0.7554
     0.7560   0.7567   0.7569   0.7599   0.7900   0.8061   0.8084   0.8092
     0.8138   0.8365   0.8366   0.8375   0.8385   0.8472   0.8561   0.8583
     0.8723   0.8726   0.8736   0.8755   0.8968   0.8979   0.8996   0.8998
     0.9497   0.9509   0.9513   0.9517   0.9830   0.9837   0.9846   0.9856
     0.9976   1.0236   1.0343   1.0370   1.0399   1.0416   1.0496   1.0526
     1.0550   1.0635   1.0646   1.0650   1.0656   1.0694   1.0699   1.0701
     1.0704   1.0730   1.0730   1.0749   1.0751   1.0847   1.0934   1.0989
     1.0993   1.1024   1.1049   1.1055   1.1066   1.1075   1.1088   1.1099
     1.1129   1.1205   1.1232   1.1246   1.1432   1.1459   1.1491   1.1499
     1.1514   1.1577   1.1586   1.1586   1.1664   1.1686   1.1687   1.1695
     1.2050   1.2139   1.2162   1.2173   1.2200   1.2208   1.2232   1.2245
     1.2446   1.2470   1.2474   1.2477   1.2513   1.2632   1.2641   1.2678
     1.2684   1.2745   1.2842   1.2843   1.2942   1.2957   1.2964   1.2974
     1.3041   1.3042   1.3053   1.3066   1.3107   1.3122   1.3123   1.3131
     1.3360   1.3774   1.3780   1.3784   1.3785   1.3796   1.3797   1.3801
     1.3804   1.3854   1.3873   1.3896   1.3913   1.3968   1.3974   1.3984
     1.4012   1.4058   1.4077   1.4084   1.4091   1.4118   1.4132   1.4151
     1.4195   1.4203   1.4204   1.4206   1.4220   1.4309   1.4310   1.4318
     1.4403   1.4409   1.4420   1.4427   1.4735   1.4741   1.4743   1.4747
     1.4866   1.4895   1.4896   1.4904   1.4964   1.5037   1.5042   1.5079
     1.5183   1.5263   1.5265   1.5270   1.5496   1.5784   1.5802   1.5806
     1.5984   1.5984   1.5987   1.5993   1.6257   1.6283   1.6287   1.6317
     1.6347   1.6367   1.6381   1.6388   1.6405   1.6411   1.6423   1.6439
     1.8553   1.8590   1.8607   1.8617   2.3294   2.3719   2.3745   2.3778
     2.4804   2.5834   2.5851   2.5867   2.5878   2.8155   2.8239   2.8259
     2.8524   3.1093   3.1229   3.1273   3.1295   3.4773   3.4779   3.4781
     3.4809   3.6491   3.6665   3.6703   3.6717   3.9508   3.9522   3.9537
     3.9550   4.2438   4.2509   4.2525   4.2530   4.2984   4.3654   4.3746
     4.3771   4.4680   4.5433   4.5848   4.5878   4.5948   4.6147   4.6231
     4.6246   4.7466   4.8250   4.9024   4.9168   5.0153   5.0297   5.0967
     5.1650   5.1985   5.1996   5.2005   5.2188   5.2699   5.3092   5.3261
     5.3677   5.3725   5.3792   5.3935   5.4330   5.6404   5.7528   5.7625
     5.7711   5.7739   5.7790   5.7813   5.8584   5.9269   5.9302   5.9358
     6.7569   6.7938   6.8087   6.8243   6.8265   7.1351   7.1402   7.1582
     7.1648   7.1797   7.1834   7.1841   7.2091   7.2979   7.3156   7.3262
     7.3532   7.3923   7.3933   7.3948   7.4057   7.6441   7.6466   7.6534
     7.6698   7.6928   7.9103   7.9306   7.9969   8.0096   8.0164   8.0239
     8.0810   8.1851   8.2567   8.2602   8.2647   8.2830   8.3286   8.3573
     8.8735   8.9156   8.9175   8.9239   8.9241   8.9356   8.9456   8.9481
     8.9893   8.9924   8.9942   8.9973   9.0386   9.1067   9.1216   9.1280
     9.1400   9.2026   9.2851   9.3131   9.4052   9.5521   9.5611   9.5836
     9.5921   9.5997   9.6103   9.6244   9.7205   9.8975   9.9113   9.9580

     the Fermi energy is     3.3470 ev

!    total energy              =  -12708.27620324 Ry
     Harris-Foulkes estimate   =  -12708.27620324 Ry
     estimated scf accuracy    <          6.2E-09 Ry

     The total energy is the sum of the following terms:

     one-electron contribution = -109384.66111038 Ry
     hartree contribution      =   56055.56172906 Ry
     xc contribution           =   -4448.57619303 Ry
     ewald contribution        =   45075.75455794 Ry
     Dispersion Correction     =      -2.99695788 Ry
     smearing contrib. (-TS)   =      -3.35822894 Ry

     convergence has been achieved in  45 iterations

     Writing output data file gc.save
 
     init_run     :    100.20s CPU    107.03s WALL (       1 calls)
     electrons    :  12392.33s CPU  13250.54s WALL (       1 calls)

     Called by init_run:
     wfcinit      :     97.84s CPU    104.33s WALL (       1 calls)
     potinit      :      0.41s CPU      0.43s WALL (       1 calls)

     Called by electrons:
     c_bands      :  11385.11s CPU  12141.55s WALL (      45 calls)
     sum_band     :    829.79s CPU    903.87s WALL (      45 calls)
     v_of_rho     :      3.05s CPU      3.74s WALL (      46 calls)
     newd         :      8.79s CPU     14.17s WALL (      46 calls)
     mix_rho      :    165.46s CPU    187.13s WALL (      45 calls)

     Called by c_bands:
     init_us_2    :     37.04s CPU     37.54s WALL (     546 calls)
     cegterg      :  11220.32s CPU  11970.89s WALL (     276 calls)

     Called by sum_band:
     sum_band:bec :      4.74s CPU      5.29s WALL (     270 calls)
     addusdens    :      8.06s CPU     13.64s WALL (      45 calls)

     Called by *egterg:
     h_psi        :   4099.11s CPU   4434.20s WALL (    1967 calls)
     s_psi        :    977.52s CPU    989.51s WALL (    1967 calls)
     g_psi        :     10.14s CPU     10.16s WALL (    1685 calls)
     cdiaghg      :   3302.41s CPU   3428.95s WALL (    1955 calls)

     Called by h_psi:
     add_vuspsi   :    982.57s CPU    996.01s WALL (    1967 calls)

     General routines
     calbec       :   1407.86s CPU   1417.88s WALL (    2237 calls)
     fft          :      3.75s CPU      4.27s WALL (     597 calls)
     ffts         :     97.61s CPU    110.89s WALL (   25232 calls)
     fftw         :   2375.12s CPU   2650.47s WALL ( 1305578 calls)
     davcio       :      0.24s CPU      3.08s WALL (       6 calls)
 
     Parallel routines
     fft_scatter  :   1542.70s CPU   1693.82s WALL ( 1331407 calls)
 
     PWSCF        :     3h28m CPU        3h42m WALL

 
   This run was terminated on:  14: 2:50  12May2017            

=------------------------------------------------------------------------------=
   JOB DONE.
=------------------------------------------------------------------------------=
