mpirun: INFO: switching to OpenMPI runtime version 1.10.2

     Program PWSCF v.5.4.0 starts on 11Oct2017 at 17:10:44 

     This program is part of the open-source Quantum ESPRESSO suite
     for quantum simulation of materials; please cite
         "P. Giannozzi et al., J. Phys.:Condens. Matter 21 395502 (2009);
          URL http://www.quantum-espresso.org", 
     in publications or presentations arising from this work. More details at
     http://www.quantum-espresso.org/quote

     Parallel version (MPI & OpenMP), running on      28 processor cores
     Number of MPI processes:                28
     Threads/MPI process:                     1
     R & G space division:  proc/nbgrp/npool/nimage =      28
     Waiting for input...
     Reading input from standard input
Warning: card &IONS ignored
Warning: card / ignored

     Current dimensions of program PWSCF are:
     Max number of different atomic species (ntypx) = 10
     Max number of k-points (npk) =  40000
     Max angular momentum in pseudopotentials (lmaxx) =  3
     WARNING: atomic wfc #  2 for atom type 4 has zero norm
     WARNING: atomic wfc #  4 for atom type 4 has zero norm
     WARNING: atomic wfc #  5 for atom type 4 has zero norm

     -------------------------------------
     Parameters for Dispersion Correction:
     -------------------------------------
       atom      VdW radius       C_6     

        Cu         2.952        374.666
        C_h        2.744         60.710
        C          2.744         60.710
        O          2.536         24.284
        H          1.892          4.857

     Subspace diagonalization in iterative solution of the eigenvalue problem:
     one sub-group per band group will be used
     scalapack distributed-memory algorithm (size of sub-group:  3*  3 procs)

 
     Parallelization info
     --------------------
     sticks:   dense  smooth     PW     G-vecs:    dense   smooth      PW
     Min         408     408    108                73226    73226    9928
     Max         410     410    109                73231    73231    9931
     Sum       11433   11433   3039              2050409  2050409  278033
 


     bravais-lattice index     =            0
     lattice parameter (alat)  =      13.9425  a.u.
     unit-cell volume          =   21209.0878 (a.u.)^3
     number of atoms/cell      =            2
     number of atomic types    =            5
     number of electrons       =        10.00
     number of Kohn-Sham states=            9
     kinetic-energy cutoff     =      80.0000  Ry
     charge density cutoff     =     320.0000  Ry
     convergence threshold     =      1.0E-08
     mixing beta               =       0.7000
     number of iterations used =            8  local-TF  mixing
     Exchange-correlation      =  SLA  PW   PBE  PBE ( 1  4  3  4 0 0)

     celldm(1)=  13.942539  celldm(2)=   0.000000  celldm(3)=   0.000000
     celldm(4)=   0.000000  celldm(5)=   0.000000  celldm(6)=   0.000000

     crystal axes: (cart. coord. in units of alat)
               a(1) = (   1.000000   0.000000   0.000000 )  
               a(2) = (   0.000000   2.309401   0.000000 )  
               a(3) = (   0.000000   0.000000   3.388418 )  

     reciprocal axes: (cart. coord. in units 2 pi/alat)
               b(1) = (  1.000000  0.000000  0.000000 )  
               b(2) = (  0.000000  0.433013  0.000000 )  
               b(3) = (  0.000000  0.000000  0.295123 )  


     PseudoPot. # 1 for Cu read from file:
     /home/549/hxw549/Short/pseudopotentials/Cu.pbe-n-van_ak.UPF
     MD5 check sum: 601f7c30f7467666bec936e0661ce3e1
     Pseudo is Ultrasoft + core correction, Zval = 11.0
     Generated by new atomic code, or converted to UPF format
     Using radial grid of  867 points,  6 beta functions with: 
                l(1) =   0
                l(2) =   0
                l(3) =   1
                l(4) =   1
                l(5) =   2
                l(6) =   2
     Q(r) pseudized with  8 coefficients,  rinner =    1.400   1.400   1.400
                                                       1.400   1.400

     PseudoPot. # 2 for C  read from file:
     /home/549/hxw549/Short/pseudopotentials/C.star1s-pbe-mt_gipaw.UPF
     MD5 check sum: ef0cb3dee31bd9e4ba2a832a2c716264
     Pseudo is Norm-conserving, Zval =  5.0
     Generated by new atomic code, or converted to UPF format
     Using radial grid of 1073 points,  1 beta functions with: 
                l(1) =   0

     PseudoPot. # 3 for C  read from file:
     /home/549/hxw549/Short/pseudopotentials/C.pbe-mt_gipaw.UPF
     MD5 check sum: 5ac2f21f2c440b14befe521540822c15
     Pseudo is Norm-conserving, Zval =  4.0
     Generated by new atomic code, or converted to UPF format
     Using radial grid of 1073 points,  1 beta functions with: 
                l(1) =   0

     PseudoPot. # 4 for O  read from file:
     /home/549/hxw549/Short/pseudopotentials/O.pbe-van_gipaw.UPF
     MD5 check sum: 5ce2a047509d4f331db576c963e74b29
     Pseudo is Ultrasoft, Zval =  6.0
     Generated by new atomic code, or converted to UPF format
     Using radial grid of 1095 points,  4 beta functions with: 
                l(1) =   0
                l(2) =   0
                l(3) =   1
                l(4) =   1
     Q(r) pseudized with 0 coefficients 


     PseudoPot. # 5 for H  read from file:
     /home/549/hxw549/Short/pseudopotentials/H.pbe-van_ak.UPF
     MD5 check sum: 077eb6d537518a38cb46c6de387227b7
     Pseudo is Ultrasoft, Zval =  1.0
     Generated by new atomic code, or converted to UPF format
     Using radial grid of  615 points,  1 beta functions with: 
                l(1) =   0
     Q(r) pseudized with  8 coefficients,  rinner =    0.800

     atomic species   valence    mass     pseudopotential
        Cu            11.00    63.54600     Cu( 1.00)
        C_h            5.00    12.01070     C ( 1.00)
        C              4.00    12.01070     C ( 1.00)
        O              6.00    15.99940     O ( 1.00)
        H              1.00     1.00783     H ( 1.00)

      2 Sym. Ops. (no inversion) found



   Cartesian axes

     site n.     atom                  positions (alat units)
         1           C_h tau(   1) = (   0.4817526   0.9548742   3.3884182  )
         2           O   tau(   2) = (   0.3804061   1.0742193   3.3884182  )

     number of k points=     6  gaussian smearing, width (Ry)=  0.1000
                       cart. coord. in units 2pi/alat
        k(    1) = (   0.0000000   0.0000000   0.0000000), wk =   0.2500000
        k(    2) = (   0.0000000  -0.2165064   0.0000000), wk =   0.2500000
        k(    3) = (   0.2500000   0.0000000   0.0000000), wk =   0.5000000
        k(    4) = (   0.2500000  -0.2165064   0.0000000), wk =   0.5000000
        k(    5) = (  -0.5000000   0.0000000   0.0000000), wk =   0.2500000
        k(    6) = (  -0.5000000  -0.2165064   0.0000000), wk =   0.2500000

     Dense  grid:  2050409 G-vectors     FFT dimensions: (  80, 192, 270)

     Largest allocated arrays     est. size (Mb)     dimensions
        Kohn-Sham Wavefunctions         1.26 Mb     (    9171,    9)
        NL pseudopotentials             1.26 Mb     (    9171,    9)
        Each V/rho on FFT grid          2.34 Mb     (  153600)
        Each G-vector array             0.56 Mb     (   73230)
        G-vector shells                 0.27 Mb     (   35784)
     Largest temporary arrays     est. size (Mb)     dimensions
        Auxiliary wavefunctions         5.04 Mb     (    9171,   36)
        Each subspace H/S matrix        0.00 Mb     (      12,   12)
        Each <psi_i|beta_j> matrix      0.00 Mb     (       9,    9)
        Arrays for rho mixing          18.75 Mb     (  153600,    8)

     Initial potential from superposition of free atoms

     starting charge    9.50000, renormalised to   10.00000

     negative rho (up, down):  8.758E-05 0.000E+00
     Starting wfc are   12 randomized atomic wfcs

     total cpu time spent up to now is        4.1 secs

     Self-consistent Calculation

     iteration #  1     ecut=    80.00 Ry     beta=0.70
     Davidson diagonalization with overlap
     ethr =  1.00E-04,  avg # of iterations =  9.7

     negative rho (up, down):  4.800E-02 0.000E+00

     total cpu time spent up to now is       67.3 secs

     total energy              =     -49.38401298 Ry
     Harris-Foulkes estimate   =     -51.02334867 Ry
     estimated scf accuracy    <       3.98442995 Ry

     iteration #  2     ecut=    80.00 Ry     beta=0.70
     Davidson diagonalization with overlap
     ethr =  1.00E-02,  avg # of iterations =  2.0

     negative rho (up, down):  4.383E-02 0.000E+00

     total cpu time spent up to now is      114.7 secs

     total energy              =     -50.20521050 Ry
     Harris-Foulkes estimate   =     -50.51670690 Ry
     estimated scf accuracy    <       0.96994795 Ry

     iteration #  3     ecut=    80.00 Ry     beta=0.70
     Davidson diagonalization with overlap
     ethr =  9.70E-03,  avg # of iterations =  1.0

     negative rho (up, down):  5.040E-02 0.000E+00

     total cpu time spent up to now is      153.1 secs

     total energy              =     -50.31638402 Ry
     Harris-Foulkes estimate   =     -50.32870537 Ry
     estimated scf accuracy    <       0.03177805 Ry

     iteration #  4     ecut=    80.00 Ry     beta=0.70
     Davidson diagonalization with overlap
     ethr =  3.18E-04,  avg # of iterations =  3.3

     negative rho (up, down):  4.247E-02 0.000E+00

     total cpu time spent up to now is      198.7 secs

     total energy              =     -50.31616357 Ry
     Harris-Foulkes estimate   =     -50.31970938 Ry
     estimated scf accuracy    <       0.00972450 Ry

     iteration #  5     ecut=    80.00 Ry     beta=0.70
     Davidson diagonalization with overlap
     ethr =  9.72E-05,  avg # of iterations =  4.0

     negative rho (up, down):  2.336E-02 0.000E+00

     total cpu time spent up to now is      259.6 secs

     total energy              =     -50.31680212 Ry
     Harris-Foulkes estimate   =     -50.31706421 Ry
     estimated scf accuracy    <       0.00097700 Ry

     iteration #  6     ecut=    80.00 Ry     beta=0.70
     Davidson diagonalization with overlap
     ethr =  9.77E-06,  avg # of iterations =  5.3

     negative rho (up, down):  1.149E-02 0.000E+00

     total cpu time spent up to now is      305.4 secs

     total energy              =     -50.31675744 Ry
     Harris-Foulkes estimate   =     -50.31685643 Ry
     estimated scf accuracy    <       0.00020586 Ry

     iteration #  7     ecut=    80.00 Ry     beta=0.70
     Davidson diagonalization with overlap
     ethr =  2.06E-06,  avg # of iterations =  5.3

     negative rho (up, down):  3.026E-03 0.000E+00

     total cpu time spent up to now is      361.4 secs

     total energy              =     -50.31677554 Ry
     Harris-Foulkes estimate   =     -50.31678387 Ry
     estimated scf accuracy    <       0.00005625 Ry

     iteration #  8     ecut=    80.00 Ry     beta=0.70
     Davidson diagonalization with overlap
     ethr =  5.62E-07,  avg # of iterations =  5.0

     negative rho (up, down):  2.511E-04 0.000E+00

     total cpu time spent up to now is      412.0 secs

     total energy              =     -50.31678967 Ry
     Harris-Foulkes estimate   =     -50.31678142 Ry
     estimated scf accuracy    <       0.00000283 Ry

     iteration #  9     ecut=    80.00 Ry     beta=0.70
     Davidson diagonalization with overlap
     ethr =  2.83E-08,  avg # of iterations =  3.3

     negative rho (up, down):  5.458E-05 0.000E+00

     total cpu time spent up to now is      477.1 secs

     total energy              =     -50.31679151 Ry
     Harris-Foulkes estimate   =     -50.31679006 Ry
     estimated scf accuracy    <       0.00000052 Ry

     iteration # 10     ecut=    80.00 Ry     beta=0.70
     Davidson diagonalization with overlap
     ethr =  5.18E-09,  avg # of iterations =  1.3

     negative rho (up, down):  1.031E-04 0.000E+00

     total cpu time spent up to now is      542.6 secs

     total energy              =     -50.31679244 Ry
     Harris-Foulkes estimate   =     -50.31679158 Ry
     estimated scf accuracy    <       0.00000011 Ry

     iteration # 11     ecut=    80.00 Ry     beta=0.70
     Davidson diagonalization with overlap
     ethr =  1.15E-09,  avg # of iterations =  1.0

     negative rho (up, down):  6.244E-05 0.000E+00

     total cpu time spent up to now is      624.1 secs

     total energy              =     -50.31679284 Ry
     Harris-Foulkes estimate   =     -50.31679245 Ry
     estimated scf accuracy    <       0.00000002 Ry

     iteration # 12     ecut=    80.00 Ry     beta=0.70
     Davidson diagonalization with overlap
     ethr =  1.56E-10,  avg # of iterations =  2.0

     negative rho (up, down):  4.685E-05 0.000E+00

     total cpu time spent up to now is      626.7 secs

     End of self-consistent calculation

          k = 0.0000 0.0000 0.0000 (256287 PWs)   bands (ev):

   -42.1066 -25.7218 -23.3681 -23.3526 -21.1171 -14.6366 -14.6205  -4.2869
    -2.6292

          k = 0.0000-0.2165 0.0000 (256176 PWs)   bands (ev):

   -42.1066 -25.7218 -23.3681 -23.3526 -21.1171 -14.6366 -14.6205  -4.2869
    -2.6295

          k = 0.2500 0.0000 0.0000 (256240 PWs)   bands (ev):

   -42.1066 -25.7218 -23.3681 -23.3526 -21.1171 -14.6364 -14.6205  -4.1967
    -2.8013

          k = 0.2500-0.2165 0.0000 (256316 PWs)   bands (ev):

   -42.1066 -25.7218 -23.3681 -23.3526 -21.1171 -14.6364 -14.6205  -4.1967
    -2.8013

          k =-0.5000 0.0000 0.0000 (256496 PWs)   bands (ev):

   -42.1066 -25.7218 -23.3681 -23.3526 -21.1170 -14.6362 -14.6205  -4.0707
    -3.1261

          k =-0.5000-0.2165 0.0000 (256328 PWs)   bands (ev):

   -42.1066 -25.7218 -23.3681 -23.3526 -21.1170 -14.6362 -14.6205  -4.0707
    -3.1261

     the Fermi energy is   -17.9646 ev

!    total energy              =     -50.31679289 Ry
     Harris-Foulkes estimate   =     -50.31679284 Ry
     estimated scf accuracy    <          2.4E-09 Ry

     The total energy is the sum of the following terms:

     one-electron contribution =    -116.17947730 Ry
     hartree contribution      =      55.06010987 Ry
     xc contribution           =     -10.70326154 Ry
     ewald contribution        =      21.50639610 Ry
     Dispersion Correction     =      -0.00002070 Ry
     smearing contrib. (-TS)   =      -0.00053932 Ry

     convergence has been achieved in  12 iterations

     Writing output data file gc.save
 
     init_run     :      3.25s CPU      3.90s WALL (       1 calls)
     electrons    :    554.97s CPU    622.73s WALL (       1 calls)

     Called by init_run:
     wfcinit      :      0.65s CPU      0.78s WALL (       1 calls)
     potinit      :      0.94s CPU      0.99s WALL (       1 calls)

     Called by electrons:
     c_bands      :     16.18s CPU     19.07s WALL (      12 calls)
     sum_band     :      7.26s CPU     10.18s WALL (      12 calls)
     v_of_rho     :      1.27s CPU      1.63s WALL (      13 calls)
     newd         :      1.78s CPU      4.45s WALL (      13 calls)
     mix_rho      :    528.51s CPU    587.61s WALL (      12 calls)

     Called by c_bands:
     init_us_2    :      0.41s CPU      0.67s WALL (     150 calls)
     cegterg      :     15.81s CPU     18.44s WALL (      72 calls)

     Called by sum_band:
     sum_band:bec :      0.00s CPU      0.00s WALL (      72 calls)
     addusdens    :      3.82s CPU      6.20s WALL (      12 calls)

     Called by *egterg:
     h_psi        :     13.10s CPU     14.77s WALL (     338 calls)
     s_psi        :      0.11s CPU      0.12s WALL (     338 calls)
     g_psi        :      0.05s CPU      0.05s WALL (     260 calls)
     cdiaghg      :      0.77s CPU      0.85s WALL (     332 calls)

     Called by h_psi:
     add_vuspsi   :      0.14s CPU      0.16s WALL (     338 calls)

     General routines
     calbec       :      0.34s CPU      0.38s WALL (     410 calls)
     fft          :      1.12s CPU      1.38s WALL (     168 calls)
     ffts         :    221.78s CPU    265.04s WALL (   35149 calls)
     fftw         :     12.13s CPU     13.67s WALL (    4258 calls)
     davcio       :      0.00s CPU      0.05s WALL (       6 calls)
 
     Parallel routines
     fft_scatter  :    145.34s CPU    174.62s WALL (   39575 calls)
 
     PWSCF        :  9m18.59s CPU    10m27.53s WALL

 
   This run was terminated on:  17:21:11  11Oct2017            

=------------------------------------------------------------------------------=
   JOB DONE.
=------------------------------------------------------------------------------=
