mpirun: INFO: switching to OpenMPI runtime version 1.10.2

     Program PWSCF v.5.4.0 starts on 10May2017 at 17:16:42 

     This program is part of the open-source Quantum ESPRESSO suite
     for quantum simulation of materials; please cite
         "P. Giannozzi et al., J. Phys.:Condens. Matter 21 395502 (2009);
          URL http://www.quantum-espresso.org", 
     in publications or presentations arising from this work. More details at
     http://www.quantum-espresso.org/quote

     Parallel version (MPI & OpenMP), running on      28 processor cores
     Number of MPI processes:                28
     Threads/MPI process:                     1
     R & G space division:  proc/nbgrp/npool/nimage =      28
     Waiting for input...
     Reading input from standard input

     Current dimensions of program PWSCF are:
     Max number of different atomic species (ntypx) = 10
     Max number of k-points (npk) =  40000
     Max angular momentum in pseudopotentials (lmaxx) =  3
     WARNING: atomic wfc #  2 for atom type 3 has zero norm
     WARNING: atomic wfc #  4 for atom type 3 has zero norm
     WARNING: atomic wfc #  5 for atom type 3 has zero norm

     -------------------------------------
     Parameters for Dispersion Correction:
     -------------------------------------
       atom      VdW radius       C_6     

        Cu         2.952        374.666
        C          2.744         60.710
        O          2.536         24.284
        H          1.892          4.857

     Subspace diagonalization in iterative solution of the eigenvalue problem:
     one sub-group per band group will be used
     scalapack distributed-memory algorithm (size of sub-group:  3*  3 procs)

 
     Parallelization info
     --------------------
     sticks:   dense  smooth     PW     G-vecs:    dense   smooth      PW
     Min         408     408    108                73226    73226    9928
     Max         410     410    109                73231    73231    9931
     Sum       11433   11433   3039              2050409  2050409  278033
 


     bravais-lattice index     =            0
     lattice parameter (alat)  =      13.9425  a.u.
     unit-cell volume          =   21209.0878 (a.u.)^3
     number of atoms/cell      =          151
     number of atomic types    =            4
     number of electrons       =      1308.00
     number of Kohn-Sham states=          785
     kinetic-energy cutoff     =      80.0000  Ry
     charge density cutoff     =     320.0000  Ry
     convergence threshold     =      1.0E-08
     mixing beta               =       0.7000
     number of iterations used =            8  local-TF  mixing
     Exchange-correlation      =  SLA  PW   PBE  PBE ( 1  4  3  4 0 0)
     nstep                     =           50


     celldm(1)=  13.942539  celldm(2)=   0.000000  celldm(3)=   0.000000
     celldm(4)=   0.000000  celldm(5)=   0.000000  celldm(6)=   0.000000

     crystal axes: (cart. coord. in units of alat)
               a(1) = (   1.000000   0.000000   0.000000 )  
               a(2) = (   0.000000   2.309401   0.000000 )  
               a(3) = (   0.000000   0.000000   3.388418 )  

     reciprocal axes: (cart. coord. in units 2 pi/alat)
               b(1) = (  1.000000  0.000000  0.000000 )  
               b(2) = (  0.000000  0.433013  0.000000 )  
               b(3) = (  0.000000  0.000000  0.295123 )  


     PseudoPot. # 1 for Cu read from file:
     /home/549/hxw549/Short/pseudopotentials/Cu.pbe-n-van_ak.UPF
     MD5 check sum: 601f7c30f7467666bec936e0661ce3e1
     Pseudo is Ultrasoft + core correction, Zval = 11.0
     Generated by new atomic code, or converted to UPF format
     Using radial grid of  867 points,  6 beta functions with: 
                l(1) =   0
                l(2) =   0
                l(3) =   1
                l(4) =   1
                l(5) =   2
                l(6) =   2
     Q(r) pseudized with  8 coefficients,  rinner =    1.400   1.400   1.400
                                                       1.400   1.400

     PseudoPot. # 2 for C  read from file:
     /home/549/hxw549/Short/pseudopotentials/C.pbe-mt_gipaw.UPF
     MD5 check sum: 5ac2f21f2c440b14befe521540822c15
     Pseudo is Norm-conserving, Zval =  4.0
     Generated by new atomic code, or converted to UPF format
     Using radial grid of 1073 points,  1 beta functions with: 
                l(1) =   0

     PseudoPot. # 3 for O  read from file:
     /home/549/hxw549/Short/pseudopotentials/O.pbe-van_gipaw.UPF
     MD5 check sum: 5ce2a047509d4f331db576c963e74b29
     Pseudo is Ultrasoft, Zval =  6.0
     Generated by new atomic code, or converted to UPF format
     Using radial grid of 1095 points,  4 beta functions with: 
                l(1) =   0
                l(2) =   0
                l(3) =   1
                l(4) =   1
     Q(r) pseudized with 0 coefficients 


     PseudoPot. # 4 for H  read from file:
     /home/549/hxw549/Short/pseudopotentials/H.pbe-van_ak.UPF
     MD5 check sum: 077eb6d537518a38cb46c6de387227b7
     Pseudo is Ultrasoft, Zval =  1.0
     Generated by new atomic code, or converted to UPF format
     Using radial grid of  615 points,  1 beta functions with: 
                l(1) =   0
     Q(r) pseudized with  8 coefficients,  rinner =    0.800

     atomic species   valence    mass     pseudopotential
        Cu            11.00    63.54600     Cu( 1.00)
        C              4.00    12.01070     C ( 1.00)
        O              6.00    15.99940     O ( 1.00)
        H              1.00     1.00783     H ( 1.00)

     No symmetry found



   Cartesian axes

     site n.     atom                  positions (alat units)
         1           Cu  tau(   1) = (   0.0000055   0.0001973   0.9983229  )
         2           Cu  tau(   2) = (   0.2500180   0.2313082   0.9984177  )
         3           Cu  tau(   3) = (   0.5000175   0.0002532   0.9983610  )
         4           Cu  tau(   4) = (   0.7500218   0.2313161   0.9984096  )
         5           Cu  tau(   5) = (   0.0000319   0.4621134   0.9983210  )
         6           Cu  tau(   6) = (   0.2500197   0.6928319   0.9979420  )
         7           Cu  tau(   7) = (   0.5000271   0.4621123   0.9982190  )
         8           Cu  tau(   8) = (   0.7500538   0.6928345   0.9979299  )
         9           Cu  tau(   9) = (   0.0000435   0.9236432   0.9977520  )
        10           Cu  tau(  10) = (   0.2500495   1.1544709   0.9978961  )
        11           Cu  tau(  11) = (   0.5000354   0.9236231   0.9976994  )
        12           Cu  tau(  12) = (   0.7500238   1.1544602   0.9978863  )
        13           Cu  tau(  13) = (   0.0000214   1.3852090   0.9982504  )
        14           Cu  tau(  14) = (   0.2500314   1.6159550   0.9985312  )
        15           Cu  tau(  15) = (   0.5000370   1.3852184   0.9983090  )
        16           Cu  tau(  16) = (   0.7500079   1.6159691   0.9985266  )
        17           Cu  tau(  17) = (   0.0000215   1.8469845   0.9984429  )
        18           Cu  tau(  18) = (   0.2500193   2.0782838   0.9983175  )
        19           Cu  tau(  19) = (   0.5000015   1.8469396   0.9984818  )
        20           Cu  tau(  20) = (   0.7499972   2.0782697   0.9983181  )
        21           Cu  tau(  21) = (   0.0000545   0.2313391   1.2467521  )
        22           Cu  tau(  22) = (   0.2500625   0.0001495   1.2464217  )
        23           Cu  tau(  23) = (   0.5000583   0.2314837   1.2468210  )
        24           Cu  tau(  24) = (   0.7500292   0.0001540   1.2464226  )
        25           Cu  tau(  25) = (   0.0000793   0.6932811   1.2467216  )
        26           Cu  tau(  26) = (   0.2500948   0.4625039   1.2469218  )
        27           Cu  tau(  27) = (   0.5000788   0.6932310   1.2466592  )
        28           Cu  tau(  28) = (   0.7500432   0.4625087   1.2469119  )
        29           Cu  tau(  29) = (   0.0000770   1.1541432   1.2465742  )
        30           Cu  tau(  30) = (   0.2501221   0.9237044   1.2464676  )
        31           Cu  tau(  31) = (   0.5000851   1.1540542   1.2466610  )
        32           Cu  tau(  32) = (   0.7500443   0.9237014   1.2464627  )
        33           Cu  tau(  33) = (   0.0000601   1.6157213   1.2469099  )
        34           Cu  tau(  34) = (   0.2501130   1.3847191   1.2469820  )
        35           Cu  tau(  35) = (   0.5000609   1.6157088   1.2471004  )
        36           Cu  tau(  36) = (   0.7500327   1.3847130   1.2469875  )
        37           Cu  tau(  37) = (   0.0000411   2.0782724   1.2463022  )
        38           Cu  tau(  38) = (   0.2500603   1.8469857   1.2466074  )
        39           Cu  tau(  39) = (   0.5000448   2.0782818   1.2462858  )
        40           Cu  tau(  40) = (   0.7500371   1.8469839   1.2466026  )
        41           Cu  tau(  41) = (   0.0000984  -0.0002068   1.4956743  )
        42           Cu  tau(  42) = (   0.2502188   0.2312207   1.4959310  )
        43           Cu  tau(  43) = (   0.5001062  -0.0001334   1.4956580  )
        44           Cu  tau(  44) = (   0.7500067   0.2312410   1.4959375  )
        45           Cu  tau(  45) = (   0.0001255   0.4627081   1.4962216  )
        46           Cu  tau(  46) = (   0.2502379   0.6938230   1.4969069  )
        47           Cu  tau(  47) = (   0.5001312   0.4629948   1.4967272  )
        48           Cu  tau(  48) = (   0.7500474   0.6938193   1.4968980  )
        49           Cu  tau(  49) = (   0.0001490   0.9240029   1.4969351  )
        50           Cu  tau(  50) = (   0.2501798   1.1535955   1.4971186  )
        51           Cu  tau(  51) = (   0.5001503   0.9237084   1.4972977  )
        52           Cu  tau(  52) = (   0.7501205   1.1535701   1.4971451  )
        53           Cu  tau(  53) = (   0.0001427   1.3842310   1.4967441  )
        54           Cu  tau(  54) = (   0.2501437   1.6156244   1.4962772  )
        55           Cu  tau(  55) = (   0.5001441   1.3839669   1.4970282  )
        56           Cu  tau(  56) = (   0.7501128   1.6156344   1.4962666  )
        57           Cu  tau(  57) = (   0.0001133   1.8471126   1.4957738  )
        58           Cu  tau(  58) = (   0.2500831   2.0782999   1.4956489  )
        59           Cu  tau(  59) = (   0.5001105   1.8473280   1.4958840  )
        60           Cu  tau(  60) = (   0.7501202   2.0782927   1.4956478  )
        61           Cu  tau(  61) = (   0.0001600   0.2307212   1.7440076  )
        62           Cu  tau(  62) = (   0.2502904  -0.0004274   1.7449168  )
        63           Cu  tau(  63) = (   0.5001665   0.2306058   1.7448980  )
        64           Cu  tau(  64) = (   0.7500248  -0.0004179   1.7449035  )
        65           Cu  tau(  65) = (   0.0001856   0.6938362   1.7461672  )
        66           Cu  tau(  66) = (   0.2507695   0.4625161   1.7450141  )
        67           Cu  tau(  67) = (   0.5002052   0.6945077   1.7483107  )
        68           Cu  tau(  68) = (   0.7495869   0.4625562   1.7450642  )
        69           Cu  tau(  69) = (   0.0002259   1.1534227   1.7483920  )
        70           Cu  tau(  70) = (   0.2503561   0.9238983   1.7487437  )
        71           Cu  tau(  71) = (   0.5002009   1.1526333   1.7487538  )
        72           Cu  tau(  72) = (   0.7500558   0.9238254   1.7487800  )
        73           Cu  tau(  73) = (   0.0002029   1.6159886   1.7450781  )
        74           Cu  tau(  74) = (   0.2500688   1.3839610   1.7462046  )
        75           Cu  tau(  75) = (   0.5001918   1.6159242   1.7445460  )
        76           Cu  tau(  76) = (   0.7503557   1.3839767   1.7461476  )
        77           Cu  tau(  77) = (   0.0001642   2.0781291   1.7452523  )
        78           Cu  tau(  78) = (   0.2500004   1.8475039   1.7448310  )
        79           Cu  tau(  79) = (   0.5001634   2.0785129   1.7453477  )
        80           Cu  tau(  80) = (   0.7503575   1.8474958   1.7448367  )
        81           Cu  tau(  81) = (   0.0002054   0.0001863   1.9905826  )
        82           Cu  tau(  82) = (   0.2502389   0.2305784   1.9899700  )
        83           Cu  tau(  83) = (   0.5001690  -0.0001588   1.9924395  )
        84           Cu  tau(  84) = (   0.7501355   0.2305988   1.9899459  )
        85           Cu  tau(  85) = (   0.0002424   0.4614288   1.9881215  )
        86           Cu  tau(  86) = (   0.2521402   0.6918106   1.9932132  )
        87           Cu  tau(  87) = (   0.5001477   0.4600748   1.9926734  )
        88           Cu  tau(  88) = (   0.7482674   0.6917609   1.9934758  )
        89           Cu  tau(  89) = (   0.0002042   0.9216302   1.9966301  )
        90           Cu  tau(  90) = (   0.2504637   1.1543767   1.9965356  )
        91           Cu  tau(  91) = (   0.5002531   0.9242271   2.0029660  )
        92           Cu  tau(  92) = (   0.7500322   1.1544276   1.9962920  )
        93           Cu  tau(  93) = (   0.0002875   1.3858822   1.9930715  )
        94           Cu  tau(  94) = (   0.2498210   1.6165220   1.9899899  )
        95           Cu  tau(  95) = (   0.5002136   1.3859863   1.9916430  )
        96           Cu  tau(  96) = (   0.7506522   1.6164236   1.9899539  )
        97           Cu  tau(  97) = (   0.0001831   1.8474362   1.9920466  )
        98           Cu  tau(  98) = (   0.2502222   2.0782331   1.9915515  )
        99           Cu  tau(  99) = (   0.5002545   1.8467786   1.9902330  )
       100           Cu  tau( 100) = (   0.7501787   2.0782925   1.9915258  )
       101           C   tau( 101) = (   0.0000064   0.0979239   2.3869522  )
       102           C   tau( 102) = (   0.0000112   0.2904884   2.3816567  )
       103           C   tau( 103) = (   0.1665802   0.0013830   2.3882279  )
       104           C   tau( 104) = (   0.1666156   0.3864838   2.3790509  )
       105           C   tau( 105) = (   0.3331992   0.0977983   2.3852134  )
       106           C   tau( 106) = (   0.3332217   0.2903889   2.3811220  )
       107           C   tau( 107) = (   0.5000011   0.0010501   2.3856350  )
       108           C   tau( 108) = (   0.5001270   0.3875402   2.3810436  )
       109           C   tau( 109) = (   0.6668462   0.0977708   2.3850469  )
       110           C   tau( 110) = (   0.6669741   0.2903961   2.3809109  )
       111           C   tau( 111) = (   0.8334274   0.0013751   2.3880774  )
       112           C   tau( 112) = (   0.8334738   0.3867267   2.3788744  )
       113           C   tau( 113) = (   0.0000298   0.6750104   2.3746820  )
       114           C   tau( 114) = (  -0.0005811   0.8671027   2.3762485  )
       115           C   tau( 115) = (   0.1665516   0.5789795   2.3781055  )
       116           C   tau( 116) = (   0.1670236   0.9625066   2.3944296  )
       117           C   tau( 117) = (   0.3326821   0.6756315   2.3974193  )
       118           C   tau( 118) = (   0.3300095   0.8655769   2.4162738  )
       119           C   tau( 119) = (   0.5002073   0.5790593   2.3944495  )
       120           C   tau( 120) = (   0.4997361   0.9626363   2.5451926  )
       121           C   tau( 121) = (   0.6672568   0.6762598   2.3974266  )
       122           C   tau( 122) = (   0.6689434   0.8659670   2.4182084  )
       123           C   tau( 123) = (   0.8334063   0.5794044   2.3780645  )
       124           C   tau( 124) = (   0.8318467   0.9623917   2.3955621  )
       125           C   tau( 125) = (   0.0001864   1.2503186   2.3801320  )
       126           C   tau( 126) = (   0.0001289   1.4431833   2.3750440  )
       127           C   tau( 127) = (   0.1667494   1.1554487   2.3920213  )
       128           C   tau( 128) = (   0.1668552   1.5396042   2.3772127  )
       129           C   tau( 129) = (   0.3343740   1.2516651   2.4002453  )
       130           C   tau( 130) = (   0.3338015   1.4439053   2.3839953  )
       131           C   tau( 131) = (   0.4998369   1.1587281   2.4209226  )
       132           C   tau( 132) = (   0.5001095   1.5400893   2.3841298  )
       133           C   tau( 133) = (   0.6656248   1.2513363   2.4006160  )
       134           C   tau( 134) = (   0.6662752   1.4437109   2.3838609  )
       135           C   tau( 135) = (   0.8333013   1.1552388   2.3926113  )
       136           C   tau( 136) = (   0.8332866   1.5394756   2.3770113  )
       137           C   tau( 137) = (   0.0000287   1.8284947   2.3824456  )
       138           C   tau( 138) = (  -0.0000047   2.0212831   2.3878599  )
       139           C   tau( 139) = (   0.1669224   1.7321270   2.3814168  )
       140           C   tau( 140) = (   0.1665045   2.1179353   2.3883973  )
       141           C   tau( 141) = (   0.3332837   1.8286087   2.3867359  )
       142           C   tau( 142) = (   0.3332857   2.0212988   2.3883704  )
       143           C   tau( 143) = (   0.5000140   1.7326262   2.3856333  )
       144           C   tau( 144) = (   0.4999843   2.1176978   2.3888923  )
       145           C   tau( 145) = (   0.6667536   1.8286044   2.3865724  )
       146           C   tau( 146) = (   0.6666625   2.0213057   2.3882283  )
       147           C   tau( 147) = (   0.8331424   1.7320990   2.3812349  )
       148           C   tau( 148) = (   0.8334635   2.1179176   2.3882464  )
       149           C   tau( 149) = (   0.4864987   0.9645678   2.7561846  )
       150           O   tau( 150) = (   0.3886168   1.0695663   2.8377479  )
       151           O   tau( 151) = (   0.5929530   0.8331891   2.8370320  )

     number of k points=     6  gaussian smearing, width (Ry)=  0.1000
                       cart. coord. in units 2pi/alat
        k(    1) = (   0.0000000   0.0000000   0.0000000), wk =   0.2500000
        k(    2) = (   0.0000000  -0.2165064   0.0000000), wk =   0.2500000
        k(    3) = (   0.2500000   0.0000000   0.0000000), wk =   0.5000000
        k(    4) = (   0.2500000  -0.2165064   0.0000000), wk =   0.5000000
        k(    5) = (  -0.5000000   0.0000000   0.0000000), wk =   0.2500000
        k(    6) = (  -0.5000000  -0.2165064   0.0000000), wk =   0.2500000

     Dense  grid:  2050409 G-vectors     FFT dimensions: (  80, 192, 270)

     Largest allocated arrays     est. size (Mb)     dimensions
        Kohn-Sham Wavefunctions       109.85 Mb     (    9171,  785)
        NL pseudopotentials           260.99 Mb     (    9171, 1865)
        Each V/rho on FFT grid          2.34 Mb     (  153600)
        Each G-vector array             0.56 Mb     (   73230)
        G-vector shells                 0.27 Mb     (   35784)
     Largest temporary arrays     est. size (Mb)     dimensions
        Auxiliary wavefunctions       439.41 Mb     (    9171, 3140)
        Each subspace H/S matrix       16.69 Mb     (    1046, 1046)
        Each <psi_i|beta_j> matrix     22.34 Mb     (    1865,  785)
        Arrays for rho mixing          18.75 Mb     (  153600,    8)

     Initial potential from superposition of free atoms
     Check: negative starting charge=   -0.001550

     starting charge 1282.31751, renormalised to 1308.00000

     negative rho (up, down):  1.581E-03 0.000E+00
     Starting wfc are 1300 randomized atomic wfcs

     total cpu time spent up to now is      209.0 secs

     Self-consistent Calculation

     iteration #  1     ecut=    80.00 Ry     beta=0.70
     Davidson diagonalization with overlap
     c_bands:  5 eigenvalues not converged
     ethr =  1.00E-04,  avg # of iterations = 20.8

     negative rho (up, down):  2.494E+01 0.000E+00

     total cpu time spent up to now is     3889.6 secs

     total energy              =   -9808.55314304 Ry
     Harris-Foulkes estimate   =  -17275.40197812 Ry
     estimated scf accuracy    <  182232.81841811 Ry

     iteration #  2     ecut=    80.00 Ry     beta=0.70
     Davidson diagonalization with overlap
     ethr =  1.00E-02,  avg # of iterations = 11.5

     negative rho (up, down):  2.768E+01 0.000E+00

     total cpu time spent up to now is     5814.3 secs

     total energy              =  -12252.34251569 Ry
     Harris-Foulkes estimate   =  -13701.33900570 Ry
     estimated scf accuracy    <   20931.88245165 Ry

     iteration #  3     ecut=    80.00 Ry     beta=0.70
     Davidson diagonalization with overlap
     ethr =  1.00E-02,  avg # of iterations =  6.3

     negative rho (up, down):  2.945E+01 0.000E+00

     total cpu time spent up to now is     6958.0 secs

     total energy              =  -12481.93057737 Ry
     Harris-Foulkes estimate   =  -13428.29917348 Ry
     estimated scf accuracy    <    6439.75206469 Ry

     iteration #  4     ecut=    80.00 Ry     beta=0.70
     Davidson diagonalization with overlap
     ethr =  1.00E-02,  avg # of iterations =  5.0

     negative rho (up, down):  2.432E+01 0.000E+00

     total cpu time spent up to now is     8058.6 secs

     total energy              =  -12846.19029840 Ry
     Harris-Foulkes estimate   =  -13163.08170789 Ry
     estimated scf accuracy    <    4639.90132360 Ry

     iteration #  5     ecut=    80.00 Ry     beta=0.70
     Davidson diagonalization with overlap
     ethr =  1.00E-02,  avg # of iterations =  4.5

     negative rho (up, down):  1.523E+01 0.000E+00

     total cpu time spent up to now is     8698.3 secs

     total energy              =  -12891.40038992 Ry
     Harris-Foulkes estimate   =  -13055.27553537 Ry
     estimated scf accuracy    <    1095.31014973 Ry

     iteration #  6     ecut=    80.00 Ry     beta=0.70
     Davidson diagonalization with overlap
     ethr =  1.00E-02,  avg # of iterations =  2.0

     negative rho (up, down):  1.021E+01 0.000E+00

     total cpu time spent up to now is     9137.5 secs

     total energy              =  -12873.41826526 Ry
     Harris-Foulkes estimate   =  -12935.01160408 Ry
     estimated scf accuracy    <     437.49967178 Ry

     iteration #  7     ecut=    80.00 Ry     beta=0.70
     Davidson diagonalization with overlap
     ethr =  1.00E-02,  avg # of iterations =  2.0

     negative rho (up, down):  7.176E+00 0.000E+00

     total cpu time spent up to now is     9495.4 secs

     total energy              =  -12854.97006663 Ry
     Harris-Foulkes estimate   =  -12889.60630006 Ry
     estimated scf accuracy    <     719.11201522 Ry

     iteration #  8     ecut=    80.00 Ry     beta=0.70
     Davidson diagonalization with overlap
     ethr =  1.00E-02,  avg # of iterations =  1.7

     negative rho (up, down):  6.826E+00 0.000E+00

     total cpu time spent up to now is     9839.2 secs

     total energy              =  -12856.01775859 Ry
     Harris-Foulkes estimate   =  -12862.09070776 Ry
     estimated scf accuracy    <     292.10158369 Ry

     iteration #  9     ecut=    80.00 Ry     beta=0.70
     Davidson diagonalization with overlap
     ethr =  1.00E-02,  avg # of iterations =  1.2

     negative rho (up, down):  4.127E+00 0.000E+00

     total cpu time spent up to now is    10176.2 secs

     total energy              =  -12830.54180624 Ry
     Harris-Foulkes estimate   =  -12857.41742973 Ry
     estimated scf accuracy    <     231.76756665 Ry

     iteration # 10     ecut=    80.00 Ry     beta=0.70
     Davidson diagonalization with overlap
     ethr =  1.00E-02,  avg # of iterations =  1.0

     negative rho (up, down):  1.217E+00 0.000E+00

     total cpu time spent up to now is    10508.0 secs

     total energy              =  -12799.88440940 Ry
     Harris-Foulkes estimate   =  -12837.38153858 Ry
     estimated scf accuracy    <     448.99204243 Ry

     iteration # 11     ecut=    80.00 Ry     beta=0.70
     Davidson diagonalization with overlap
     ethr =  1.00E-02,  avg # of iterations =  1.0

     negative rho (up, down):  8.613E-01 0.000E+00

     total cpu time spent up to now is    10838.4 secs

     total energy              =  -12793.84867010 Ry
     Harris-Foulkes estimate   =  -12813.43455642 Ry
     estimated scf accuracy    <     205.23640186 Ry

     iteration # 12     ecut=    80.00 Ry     beta=0.70
     Davidson diagonalization with overlap
     ethr =  1.00E-02,  avg # of iterations =  2.0

     negative rho (up, down):  2.249E+00 0.000E+00

     total cpu time spent up to now is    11190.1 secs

     total energy              =  -12786.33033727 Ry
     Harris-Foulkes estimate   =  -12807.14973561 Ry
     estimated scf accuracy    <     155.98612843 Ry

     iteration # 13     ecut=    80.00 Ry     beta=0.70
     Davidson diagonalization with overlap
     ethr =  1.00E-02,  avg # of iterations =  2.8

     negative rho (up, down):  2.081E+00 0.000E+00

     total cpu time spent up to now is    11563.0 secs

     total energy              =  -12786.53303513 Ry
     Harris-Foulkes estimate   =  -12794.57413576 Ry
     estimated scf accuracy    <      96.04486596 Ry

     iteration # 14     ecut=    80.00 Ry     beta=0.70
     Davidson diagonalization with overlap
     ethr =  7.34E-03,  avg # of iterations =  2.3

     negative rho (up, down):  4.080E+00 0.000E+00

     total cpu time spent up to now is    11922.3 secs

     total energy              =  -12785.12872860 Ry
     Harris-Foulkes estimate   =  -12791.16536791 Ry
     estimated scf accuracy    <      94.62407634 Ry

     iteration # 15     ecut=    80.00 Ry     beta=0.70
     Davidson diagonalization with overlap
     ethr =  7.23E-03,  avg # of iterations =  1.5

     negative rho (up, down):  3.591E+00 0.000E+00

     total cpu time spent up to now is    12262.6 secs

     total energy              =  -12781.10951192 Ry
     Harris-Foulkes estimate   =  -12786.53897330 Ry
     estimated scf accuracy    <      53.27716866 Ry

     iteration # 16     ecut=    80.00 Ry     beta=0.70
     Davidson diagonalization with overlap
     ethr =  4.07E-03,  avg # of iterations =  2.5

     negative rho (up, down):  3.216E+00 0.000E+00

     total cpu time spent up to now is    12625.0 secs

     total energy              =  -12780.10113347 Ry
     Harris-Foulkes estimate   =  -12782.32243399 Ry
     estimated scf accuracy    <      36.44400041 Ry

     iteration # 17     ecut=    80.00 Ry     beta=0.70
     Davidson diagonalization with overlap
     ethr =  2.79E-03,  avg # of iterations =  2.7

     negative rho (up, down):  3.597E+00 0.000E+00

     total cpu time spent up to now is    12988.7 secs

     total energy              =  -12777.30509584 Ry
     Harris-Foulkes estimate   =  -12781.51538083 Ry
     estimated scf accuracy    <      34.26103502 Ry

     iteration # 18     ecut=    80.00 Ry     beta=0.70
     Davidson diagonalization with overlap
     ethr =  2.62E-03,  avg # of iterations =  4.7

     negative rho (up, down):  3.417E+00 0.000E+00

     total cpu time spent up to now is    13405.3 secs

     total energy              =  -12777.53877869 Ry
     Harris-Foulkes estimate   =  -12779.04551015 Ry
     estimated scf accuracy    <      16.54320120 Ry

     iteration # 19     ecut=    80.00 Ry     beta=0.70
     Davidson diagonalization with overlap
     ethr =  1.26E-03,  avg # of iterations =  3.3

     negative rho (up, down):  2.316E+00 0.000E+00

     total cpu time spent up to now is    13785.8 secs

     total energy              =  -12777.20404475 Ry
     Harris-Foulkes estimate   =  -12778.43806026 Ry
     estimated scf accuracy    <       9.63834314 Ry

     iteration # 20     ecut=    80.00 Ry     beta=0.70
     Davidson diagonalization with overlap
     ethr =  7.37E-04,  avg # of iterations =  4.5

     negative rho (up, down):  2.142E+00 0.000E+00

     total cpu time spent up to now is    14193.8 secs

     total energy              =  -12777.02706271 Ry
     Harris-Foulkes estimate   =  -12777.66343240 Ry
     estimated scf accuracy    <       7.77533136 Ry

     iteration # 21     ecut=    80.00 Ry     beta=0.70
     Davidson diagonalization with overlap
     ethr =  5.94E-04,  avg # of iterations =  1.3

     negative rho (up, down):  1.839E+00 0.000E+00

     total cpu time spent up to now is    14535.3 secs

     total energy              =  -12776.42902749 Ry
     Harris-Foulkes estimate   =  -12777.18804613 Ry
     estimated scf accuracy    <       6.06318723 Ry

     iteration # 22     ecut=    80.00 Ry     beta=0.70
     Davidson diagonalization with overlap
     ethr =  4.64E-04,  avg # of iterations =  6.0

     negative rho (up, down):  9.374E-01 0.000E+00

     total cpu time spent up to now is    14978.2 secs

     total energy              =  -12775.54929151 Ry
     Harris-Foulkes estimate   =  -12776.56925603 Ry
     estimated scf accuracy    <       7.92251800 Ry

     iteration # 23     ecut=    80.00 Ry     beta=0.70
     Davidson diagonalization with overlap
     ethr =  4.64E-04,  avg # of iterations =  7.7

     negative rho (up, down):  9.035E-01 0.000E+00

     total cpu time spent up to now is    15451.2 secs

     total energy              =  -12775.40604316 Ry
     Harris-Foulkes estimate   =  -12775.72259174 Ry
     estimated scf accuracy    <       8.32749363 Ry

     iteration # 24     ecut=    80.00 Ry     beta=0.70
     Davidson diagonalization with overlap
     ethr =  4.64E-04,  avg # of iterations =  1.2

     negative rho (up, down):  2.856E-01 0.000E+00

     total cpu time spent up to now is    15786.9 secs

     total energy              =  -12774.61394930 Ry
     Harris-Foulkes estimate   =  -12775.51410838 Ry
     estimated scf accuracy    <       5.09532209 Ry

     iteration # 25     ecut=    80.00 Ry     beta=0.70
     Davidson diagonalization with overlap
     ethr =  3.90E-04,  avg # of iterations =  3.2

     negative rho (up, down):  6.673E-02 0.000E+00

     total cpu time spent up to now is    16164.7 secs

     total energy              =  -12774.14150340 Ry
     Harris-Foulkes estimate   =  -12774.86158559 Ry
     estimated scf accuracy    <       3.85415032 Ry

     iteration # 26     ecut=    80.00 Ry     beta=0.70
     Davidson diagonalization with overlap
     ethr =  2.95E-04,  avg # of iterations =  8.7

     negative rho (up, down):  1.969E-01 0.000E+00

     total cpu time spent up to now is    16663.7 secs

     total energy              =  -12773.99242883 Ry
     Harris-Foulkes estimate   =  -12774.32870767 Ry
     estimated scf accuracy    <       3.33038640 Ry

     iteration # 27     ecut=    80.00 Ry     beta=0.70
     Davidson diagonalization with overlap
     ethr =  2.55E-04,  avg # of iterations =  4.3

     negative rho (up, down):  4.839E-01 0.000E+00

     total cpu time spent up to now is    17067.1 secs

     total energy              =  -12773.79879318 Ry
     Harris-Foulkes estimate   =  -12774.07474838 Ry
     estimated scf accuracy    <       2.01957231 Ry

     iteration # 28     ecut=    80.00 Ry     beta=0.70
     Davidson diagonalization with overlap
     ethr =  1.54E-04,  avg # of iterations =  9.2

     negative rho (up, down):  3.758E-01 0.000E+00

     total cpu time spent up to now is    17590.7 secs

     total energy              =  -12773.72810269 Ry
     Harris-Foulkes estimate   =  -12773.84930116 Ry
     estimated scf accuracy    <       1.23173290 Ry

     iteration # 29     ecut=    80.00 Ry     beta=0.70
     Davidson diagonalization with overlap
     ethr =  9.42E-05,  avg # of iterations =  7.3

     negative rho (up, down):  9.310E-02 0.000E+00

     total cpu time spent up to now is    18065.4 secs

     total energy              =  -12773.63219780 Ry
     Harris-Foulkes estimate   =  -12773.76912961 Ry
     estimated scf accuracy    <       0.89473892 Ry

     iteration # 30     ecut=    80.00 Ry     beta=0.70
     Davidson diagonalization with overlap
     ethr =  6.84E-05,  avg # of iterations =  9.5

     negative rho (up, down):  1.203E-01 0.000E+00

     total cpu time spent up to now is    18616.4 secs

     total energy              =  -12773.65031573 Ry
     Harris-Foulkes estimate   =  -12773.69903942 Ry
     estimated scf accuracy    <       0.33186276 Ry

     iteration # 31     ecut=    80.00 Ry     beta=0.70
     Davidson diagonalization with overlap
     c_bands:  1 eigenvalues not converged
     ethr =  2.54E-05,  avg # of iterations = 11.2

     negative rho (up, down):  7.524E-02 0.000E+00

     total cpu time spent up to now is    19198.6 secs

     total energy              =  -12773.66625337 Ry
     Harris-Foulkes estimate   =  -12773.67419450 Ry
     estimated scf accuracy    <       0.06107877 Ry

     iteration # 32     ecut=    80.00 Ry     beta=0.70
     Davidson diagonalization with overlap
     ethr =  4.67E-06,  avg # of iterations = 11.7

     negative rho (up, down):  7.839E-02 0.000E+00

     total cpu time spent up to now is    19835.0 secs

     total energy              =  -12773.66895675 Ry
     Harris-Foulkes estimate   =  -12773.67622392 Ry
     estimated scf accuracy    <       0.05432685 Ry

     iteration # 33     ecut=    80.00 Ry     beta=0.70
     Davidson diagonalization with overlap
     ethr =  4.15E-06,  avg # of iterations = 10.5

     negative rho (up, down):  4.418E-02 0.000E+00

     total cpu time spent up to now is    20394.0 secs

     total energy              =  -12773.66997707 Ry
     Harris-Foulkes estimate   =  -12773.67378008 Ry
     estimated scf accuracy    <       0.01541486 Ry

     iteration # 34     ecut=    80.00 Ry     beta=0.70
     Davidson diagonalization with overlap
     c_bands:  1 eigenvalues not converged
     c_bands:  1 eigenvalues not converged
     ethr =  1.18E-06,  avg # of iterations = 17.5

     negative rho (up, down):  2.331E-02 0.000E+00

     total cpu time spent up to now is    21179.8 secs

     total energy              =  -12773.67119172 Ry
     Harris-Foulkes estimate   =  -12773.67197085 Ry
     estimated scf accuracy    <       0.00807290 Ry

     iteration # 35     ecut=    80.00 Ry     beta=0.70
     Davidson diagonalization with overlap
     ethr =  6.17E-07,  avg # of iterations = 10.0

     negative rho (up, down):  1.900E-02 0.000E+00

     total cpu time spent up to now is    21757.4 secs

     total energy              =  -12773.67161717 Ry
     Harris-Foulkes estimate   =  -12773.67188537 Ry
     estimated scf accuracy    <       0.00209231 Ry

     iteration # 36     ecut=    80.00 Ry     beta=0.70
     Davidson diagonalization with overlap
     ethr =  1.60E-07,  avg # of iterations =  6.7

     negative rho (up, down):  1.210E-02 0.000E+00

     total cpu time spent up to now is    22234.0 secs

     total energy              =  -12773.67173111 Ry
     Harris-Foulkes estimate   =  -12773.67182378 Ry
     estimated scf accuracy    <       0.00098326 Ry

     iteration # 37     ecut=    80.00 Ry     beta=0.70
     Davidson diagonalization with overlap
     c_bands:  1 eigenvalues not converged
     ethr =  7.52E-08,  avg # of iterations =  9.5

     negative rho (up, down):  9.004E-03 0.000E+00

     total cpu time spent up to now is    22796.0 secs

     total energy              =  -12773.67180133 Ry
     Harris-Foulkes estimate   =  -12773.67185012 Ry
     estimated scf accuracy    <       0.00068839 Ry

     iteration # 38     ecut=    80.00 Ry     beta=0.70
     Davidson diagonalization with overlap
     ethr =  5.26E-08,  avg # of iterations =  5.3

     negative rho (up, down):  7.133E-03 0.000E+00

     total cpu time spent up to now is    23243.4 secs

     total energy              =  -12773.67189858 Ry
     Harris-Foulkes estimate   =  -12773.67186312 Ry
     estimated scf accuracy    <       0.00021371 Ry

     iteration # 39     ecut=    80.00 Ry     beta=0.70
     Davidson diagonalization with overlap
     c_bands:  1 eigenvalues not converged
     c_bands:  1 eigenvalues not converged
     ethr =  1.63E-08,  avg # of iterations = 10.7

     negative rho (up, down):  5.329E-03 0.000E+00

     total cpu time spent up to now is    23820.9 secs

     total energy              =  -12773.67192858 Ry
     Harris-Foulkes estimate   =  -12773.67192053 Ry
     estimated scf accuracy    <       0.00011617 Ry

     iteration # 40     ecut=    80.00 Ry     beta=0.70
     Davidson diagonalization with overlap
     ethr =  8.88E-09,  avg # of iterations =  9.3

     negative rho (up, down):  4.403E-03 0.000E+00

     total cpu time spent up to now is    24374.6 secs

     total energy              =  -12773.67192495 Ry
     Harris-Foulkes estimate   =  -12773.67193780 Ry
     estimated scf accuracy    <       0.00002661 Ry

     iteration # 41     ecut=    80.00 Ry     beta=0.70
     Davidson diagonalization with overlap
     ethr =  2.03E-09,  avg # of iterations =  3.7

     negative rho (up, down):  1.958E-03 0.000E+00

     total cpu time spent up to now is    24785.4 secs

     total energy              =  -12773.67190172 Ry
     Harris-Foulkes estimate   =  -12773.67192722 Ry
     estimated scf accuracy    <       0.00001130 Ry

     iteration # 42     ecut=    80.00 Ry     beta=0.70
     Davidson diagonalization with overlap
     c_bands:  1 eigenvalues not converged
     ethr =  8.64E-10,  avg # of iterations =  8.3

     negative rho (up, down):  1.826E-03 0.000E+00

     total cpu time spent up to now is    25326.1 secs

     total energy              =  -12773.67190371 Ry
     Harris-Foulkes estimate   =  -12773.67190289 Ry
     estimated scf accuracy    <       0.00000158 Ry

     iteration # 43     ecut=    80.00 Ry     beta=0.70
     Davidson diagonalization with overlap
     ethr =  1.21E-10,  avg # of iterations =  3.0

     negative rho (up, down):  1.692E-03 0.000E+00

     total cpu time spent up to now is    25744.0 secs

     total energy              =  -12773.67190404 Ry
     Harris-Foulkes estimate   =  -12773.67190396 Ry
     estimated scf accuracy    <       0.00000125 Ry

     iteration # 44     ecut=    80.00 Ry     beta=0.70
     Davidson diagonalization with overlap
     ethr =  9.59E-11,  avg # of iterations =  2.8

     negative rho (up, down):  1.699E-03 0.000E+00

     total cpu time spent up to now is    26126.9 secs

     total energy              =  -12773.67190456 Ry
     Harris-Foulkes estimate   =  -12773.67190413 Ry
     estimated scf accuracy    <       0.00000042 Ry

     iteration # 45     ecut=    80.00 Ry     beta=0.70
     Davidson diagonalization with overlap
     ethr =  3.23E-11,  avg # of iterations =  3.0

     negative rho (up, down):  1.742E-03 0.000E+00

     total cpu time spent up to now is    26525.6 secs

     total energy              =  -12773.67190473 Ry
     Harris-Foulkes estimate   =  -12773.67190460 Ry
     estimated scf accuracy    <       0.00000015 Ry

     iteration # 46     ecut=    80.00 Ry     beta=0.70
     Davidson diagonalization with overlap
     ethr =  1.17E-11,  avg # of iterations =  3.0

     negative rho (up, down):  1.704E-03 0.000E+00

     total cpu time spent up to now is    26922.8 secs

     total energy              =  -12773.67190478 Ry
     Harris-Foulkes estimate   =  -12773.67190474 Ry
     estimated scf accuracy    <       0.00000004 Ry

     iteration # 47     ecut=    80.00 Ry     beta=0.70
     Davidson diagonalization with overlap
     ethr =  2.75E-12,  avg # of iterations =  3.0

     negative rho (up, down):  1.705E-03 0.000E+00

     total cpu time spent up to now is    27329.9 secs

     total energy              =  -12773.67190481 Ry
     Harris-Foulkes estimate   =  -12773.67190478 Ry
     estimated scf accuracy    <       0.00000002 Ry

     iteration # 48     ecut=    80.00 Ry     beta=0.70
     Davidson diagonalization with overlap
     ethr =  1.90E-12,  avg # of iterations =  2.7

     negative rho (up, down):  1.696E-03 0.000E+00

     total cpu time spent up to now is    27691.8 secs

     End of self-consistent calculation

          k = 0.0000 0.0000 0.0000 (256287 PWs)   bands (ev):

   -18.1838 -16.1718 -15.8322 -15.6472 -15.0741 -14.6786 -14.6084 -14.2172
   -14.1865 -13.8825 -13.8731 -13.7403 -13.5622 -12.8896 -12.8756 -12.7751
   -12.7203 -12.7148 -12.3452 -11.0904 -11.0383 -11.0324 -10.9555 -10.7107
    -9.8084  -9.2085  -9.2066  -9.1544  -9.1332  -8.4404  -8.3432  -8.3141
    -8.1710  -7.6024  -7.3302  -7.3186  -7.2657  -7.2610  -7.2519  -7.0009
    -6.9148  -6.2700  -5.9270  -5.7056  -5.6944  -5.6119  -5.5867  -5.5413
    -5.3959  -5.3893  -5.2684  -5.2456  -5.0911  -4.9560  -4.5036  -4.4824
    -4.3534  -4.2806  -4.2442  -4.0064  -3.9763  -3.9577  -3.8979  -3.8953
    -3.8133  -3.3165  -3.3140  -3.2689  -3.2660  -3.2117  -3.1878  -3.1169
    -3.0991  -3.0792  -3.0512  -3.0466  -2.9215  -2.9180  -2.9148  -2.9135
    -2.9098  -2.7954  -2.7686  -2.7225  -2.6640  -2.6505  -2.6434  -2.6105
    -2.5506  -2.4948  -2.4327  -2.4160  -2.3983  -2.2893  -2.2692  -2.2460
    -2.2429  -2.1678  -2.1426  -2.1273  -2.1002  -2.0990  -2.0613  -2.0608
    -2.0607  -2.0600  -2.0011  -1.9321  -1.9315  -1.9258  -1.9252  -1.9148
    -1.8945  -1.8649  -1.7716  -1.7481  -1.7099  -1.6841  -1.6706  -1.6455
    -1.6444  -1.6427  -1.6304  -1.5947  -1.5803  -1.5720  -1.5669  -1.5603
    -1.5423  -1.5055  -1.4976  -1.4714  -1.4692  -1.4668  -1.4629  -1.4347
    -1.4331  -1.4276  -1.4230  -1.4204  -1.3932  -1.3476  -1.3290  -1.3231
    -1.2835  -1.2722  -1.2595  -1.2572  -1.2190  -1.2055  -1.1711  -1.1699
    -1.1695  -1.1563  -1.1211  -1.1182  -1.1173  -1.0990  -1.0949  -1.0739
    -1.0701  -1.0132  -0.9976  -0.9920  -0.9873  -0.9769  -0.9572  -0.9512
    -0.9442  -0.9359  -0.9316  -0.9283  -0.9282  -0.9266  -0.9248  -0.9232
    -0.9219  -0.9089  -0.9047  -0.8760  -0.8579  -0.8496  -0.8434  -0.8330
    -0.8260  -0.8217  -0.8210  -0.7925  -0.7666  -0.7660  -0.7635  -0.7632
    -0.7618  -0.7615  -0.7608  -0.7582  -0.7577  -0.7543  -0.7541  -0.7539
    -0.7506  -0.7480  -0.7479  -0.7393  -0.7339  -0.7039  -0.6881  -0.6703
    -0.6094  -0.5962  -0.5958  -0.5897  -0.5887  -0.5671  -0.5652  -0.5472
    -0.5465  -0.5279  -0.5261  -0.5160  -0.5128  -0.5054  -0.5025  -0.4945
    -0.4727  -0.4716  -0.4671  -0.4661  -0.4609  -0.4593  -0.4497  -0.4478
    -0.4355  -0.3983  -0.3972  -0.3631  -0.3448  -0.3442  -0.3358  -0.3350
    -0.3322  -0.3271  -0.3213  -0.3169  -0.3141  -0.3123  -0.3108  -0.3097
    -0.3059  -0.3058  -0.3056  -0.2916  -0.2913  -0.2846  -0.2734  -0.2724
    -0.2564  -0.2551  -0.2086  -0.2069  -0.1986  -0.1984  -0.1969  -0.1775
    -0.1732  -0.1729  -0.1699  -0.1690  -0.1538  -0.1511  -0.1491  -0.1486
    -0.1431  -0.1310  -0.1269  -0.1238  -0.1233  -0.1217  -0.1198  -0.1197
    -0.1182  -0.1150  -0.1016  -0.0988  -0.0973  -0.0948  -0.0934  -0.0763
    -0.0665  -0.0599  -0.0260  -0.0251  -0.0244  -0.0231  -0.0224   0.0239
     0.0241   0.0252   0.0269   0.0314   0.0322   0.0331   0.0347   0.0350
     0.0499   0.0611   0.0817   0.0865   0.0871   0.0879   0.0943   0.1128
     0.1151   0.1158   0.1168   0.1197   0.1278   0.1384   0.1390   0.1396
     0.1403   0.1457   0.1503   0.1564   0.1567   0.1569   0.1578   0.1691
     0.1729   0.1752   0.1790   0.1964   0.1970   0.2293   0.2297   0.2568
     0.2620   0.2662   0.2790   0.2902   0.3038   0.3259   0.3268   0.3282
     0.3380   0.3409   0.3418   0.3558   0.3659   0.3670   0.3673   0.3677
     0.3762   0.3781   0.3806   0.4198   0.4222   0.4323   0.4337   0.4368
     0.4461   0.4477   0.4530   0.4715   0.4743   0.4753   0.4763   0.4804
     0.4926   0.5062   0.5110   0.5182   0.5259   0.5295   0.5326   0.5362
     0.5415   0.5698   0.5752   0.5863   0.5889   0.5901   0.5940   0.5948
     0.5986   0.6054   0.6154   0.6226   0.6235   0.6250   0.6278   0.6295
     0.6317   0.6350   0.6365   0.6389   0.6407   0.6453   0.6493   0.6501
     0.6523   0.6566   0.6614   0.6809   0.6919   0.6973   0.6975   0.7027
     0.7180   0.7413   0.7418   0.7453   0.7457   0.7472   0.7476   0.7498
     0.7513   0.7624   0.7655   0.7675   0.7725   0.7732   0.7742   0.7785
     0.7801   0.7805   0.7889   0.7924   0.8144   0.8157   0.8183   0.8250
     0.8255   0.8292   0.8340   0.8394   0.8394   0.8413   0.8440   0.8487
     0.8489   0.8517   0.8612   0.8626   0.8992   0.8994   0.9118   0.9131
     0.9150   0.9160   0.9182   0.9211   0.9302   0.9478   0.9510   0.9632
     0.9668   0.9692   0.9694   0.9820   0.9843   0.9869   0.9886   0.9936
     0.9946   0.9976   1.0013   1.0050   1.0146   1.0312   1.0320   1.0351
     1.0360   1.0373   1.0393   1.0547   1.0575   1.0707   1.0728   1.0793
     1.0799   1.0910   1.1043   1.1049   1.1059   1.1081   1.1108   1.1178
     1.1212   1.1217   1.1222   1.1234   1.1260   1.1283   1.1358   1.1364
     1.1521   1.1582   1.1602   1.1612   1.1652   1.1667   1.1688   1.1903
     1.1988   1.2006   1.2014   1.2052   1.2078   1.2097   1.2099   1.2107
     1.2128   1.2144   1.2165   1.2198   1.2207   1.2281   1.2294   1.2395
     1.2425   1.2592   1.2781   1.2785   1.2913   1.2931   1.2986   1.2993
     1.3001   1.3026   1.3027   1.3248   1.3324   1.3331   1.3334   1.3355
     1.3394   1.3402   1.3402   1.3450   1.3487   1.3608   1.3657   1.3673
     1.3684   1.3709   1.3717   1.3720   1.3724   1.3736   1.3873   1.3890
     1.3901   1.3947   1.3990   1.4015   1.4038   1.4045   1.4057   1.4058
     1.4162   1.4169   1.4203   1.4224   1.4359   1.4468   1.4475   1.4521
     1.4547   1.4665   1.4735   1.4753   1.4811   1.4826   1.4868   1.4922
     1.4929   1.4980   1.5052   1.5079   1.5094   1.5160   1.5165   1.5277
     1.5287   1.5290   1.5300   1.5307   1.5321   1.5348   1.5412   1.5420
     1.5435   1.5524   1.5585   1.5604   1.5610   1.5628   1.5646   1.5666
     1.5674   1.5742   1.5755   1.6130   1.6139   1.6239   1.6471   1.6504
     1.6543   1.6581   1.6707   1.6743   1.6751   1.6767   1.6807   1.6821
     1.6929   1.7003   1.7220   1.7257   1.7270   1.7277   1.7316   1.7361
     1.7367   1.7378   1.8393   1.9961   2.0482   2.1721   2.2026   2.2118
     2.2421   2.2541   2.2987   2.2998   2.3010   2.3061   2.3210   2.3260
     2.3276   2.3651   2.4098   2.4969   2.5029   2.5586   2.5631   2.5653
     2.5656   2.5779   2.5861   2.8121   2.8151   2.8243   2.8313   3.2499
     3.2965   3.3496   3.3675   3.6127   3.6192   3.8403   3.9063   3.9165
     3.9415   3.9480   3.9489   3.9672   4.0279   4.0536   4.0717   4.0820
     4.0962   4.0986   4.1023   4.1101   4.1106   4.1138   4.3298   4.3463
     4.3492   4.3619   4.5080   4.8005   4.8566   5.1315   5.1506   5.1923
     5.3892   5.4566   5.5052   5.5271   5.6869   5.7965   5.8059   5.8100
     5.8434   6.0231   6.0259   6.3898   6.4315   6.4582   6.5010   6.5272
     6.5652   6.5705   6.5790   6.5819   6.7206   6.7270   6.7797   6.7988
     6.8639   6.8999   6.9121   6.9784   7.1021   7.1207   7.1425   7.1826
     7.2268   7.2557   7.4215   7.4497   7.4626   7.6214   7.6434   7.6451
     7.6819   7.7871   7.7925   7.7935   7.8055   8.0978   8.2099   8.2289
     8.2665   8.3078   8.3850   8.3972   8.4086   8.4259   8.4303   8.4388
     8.4899   8.5156   8.5176   8.5696   8.6383   8.6403   8.6723   8.7016
     8.7052   8.7519   8.7558   8.7855   8.8016   8.9228   8.9280   8.9352
     8.9516   8.9755   9.0717   9.1790   9.1962   9.2126   9.2179   9.2201
     9.2398   9.3667   9.4320   9.4388   9.5356   9.5890   9.6298   9.6675
     9.6751   9.7815   9.8607   9.9204  10.0173  10.1333  10.1339  10.1929
    10.2232

          k = 0.0000-0.2165 0.0000 (256176 PWs)   bands (ev):

   -18.1838 -16.1423 -15.9619 -15.3389 -15.2161 -15.0639 -14.1819 -14.1791
   -14.0317 -13.9982 -13.8518 -13.7651 -13.4019 -13.3893 -13.3205 -13.0214
   -12.0050 -11.9662 -11.9416 -11.8890 -11.7220 -11.4824 -10.1127 -10.0396
   -10.0285  -9.9567  -8.8815  -8.8041  -8.7407  -8.7063  -8.6132  -8.5889
    -8.0318  -7.8654  -7.8312  -7.6746  -6.9789  -6.7121  -6.6731  -6.6110
    -6.5678  -6.5280  -6.3728  -6.1620  -5.9870  -5.7977  -5.7861  -5.5790
    -5.4019  -4.9047  -4.8856  -4.8681  -4.7913  -4.7470  -4.7385  -4.6396
    -4.5492  -4.3568  -4.3149  -4.2565  -4.1774  -4.1613  -4.0433  -3.8841
    -3.8034  -3.4401  -3.3420  -3.2167  -3.2156  -3.2075  -3.2016  -3.0604
    -2.9815  -2.9760  -2.9400  -2.9385  -2.9083  -2.8758  -2.7937  -2.7679
    -2.7348  -2.7095  -2.5852  -2.5779  -2.5307  -2.5058  -2.4948  -2.4895
    -2.4893  -2.4876  -2.4868  -2.4856  -2.4489  -2.4128  -2.4057  -2.3622
    -2.3145  -2.2777  -2.1946  -2.1712  -2.1455  -2.1397  -2.1369  -2.1010
    -2.0558  -2.0531  -2.0484  -2.0470  -1.9673  -1.9407  -1.8939  -1.8936
    -1.8690  -1.8689  -1.8046  -1.7803  -1.7740  -1.7647  -1.6786  -1.6737
    -1.6705  -1.6581  -1.6578  -1.6489  -1.6488  -1.6443  -1.6331  -1.6246
    -1.6088  -1.6008  -1.5633  -1.5562  -1.5483  -1.4399  -1.4009  -1.3806
    -1.3739  -1.3707  -1.3684  -1.3452  -1.2851  -1.2793  -1.2764  -1.2761
    -1.2255  -1.2207  -1.1913  -1.1881  -1.1827  -1.1820  -1.1814  -1.1753
    -1.1746  -1.1703  -1.1409  -1.1342  -1.1315  -1.1284  -1.1259  -1.1247
    -1.1033  -1.1000  -1.0784  -1.0493  -1.0389  -1.0388  -1.0347  -1.0119
    -0.9955  -0.9946  -0.9573  -0.9569  -0.9541  -0.9532  -0.9158  -0.9031
    -0.8945  -0.8938  -0.8914  -0.8873  -0.8871  -0.8814  -0.8652  -0.8367
    -0.8299  -0.8261  -0.8253  -0.8181  -0.8174  -0.8094  -0.8034  -0.8033
    -0.7894  -0.7374  -0.7367  -0.7341  -0.7254  -0.7245  -0.7160  -0.7093
    -0.7035  -0.7022  -0.6884  -0.6833  -0.6692  -0.6607  -0.6600  -0.6572
    -0.6459  -0.5895  -0.5657  -0.5650  -0.5562  -0.5547  -0.5398  -0.5394
    -0.5144  -0.5121  -0.5106  -0.5106  -0.5083  -0.5081  -0.4829  -0.4819
    -0.4507  -0.4494  -0.4467  -0.4426  -0.4422  -0.4420  -0.4395  -0.4390
    -0.4104  -0.4088  -0.3921  -0.3921  -0.3863  -0.3814  -0.3551  -0.3539
    -0.3537  -0.3518  -0.3451  -0.3446  -0.3364  -0.3348  -0.3197  -0.3176
    -0.2697  -0.2688  -0.2592  -0.2581  -0.2328  -0.2311  -0.2101  -0.2100
    -0.2056  -0.2005  -0.1995  -0.1968  -0.1808  -0.1794  -0.1751  -0.1721
    -0.1717  -0.1626  -0.1588  -0.1555  -0.1519  -0.1512  -0.1507  -0.1495
    -0.1488  -0.1420  -0.1403  -0.1385  -0.1260  -0.1144  -0.1143  -0.1103
    -0.1102  -0.0544  -0.0508  -0.0464  -0.0456  -0.0414  -0.0389  -0.0364
    -0.0349  -0.0265  -0.0160  -0.0134  -0.0003   0.0007   0.0060   0.0067
     0.0073   0.0146   0.0156   0.0160   0.0182   0.0210   0.0239   0.0304
     0.0423   0.0628   0.0764   0.0767   0.0788   0.0795   0.0976   0.0985
     0.1003   0.1011   0.1029   0.1103   0.1182   0.1207   0.1227   0.1305
     0.1322   0.1525   0.1540   0.1580   0.1600   0.1671   0.1677   0.1704
     0.1714   0.1874   0.1939   0.2046   0.2054   0.2131   0.2164   0.2252
     0.2285   0.2288   0.2301   0.2689   0.2693   0.2806   0.2829   0.2863
     0.2934   0.2958   0.2965   0.3203   0.3228   0.3445   0.3566   0.3579
     0.3612   0.3744   0.3870   0.4029   0.4066   0.4284   0.4755   0.4765
     0.4823   0.4832   0.5044   0.5052   0.5066   0.5087   0.5103   0.5277
     0.5414   0.5430   0.5483   0.5501   0.5504   0.5507   0.5524   0.5558
     0.5609   0.5691   0.5698   0.5712   0.5726   0.5744   0.5789   0.5816
     0.5869   0.6085   0.6113   0.6149   0.6192   0.6194   0.6199   0.6224
     0.6271   0.6271   0.6500   0.6506   0.6511   0.6518   0.6526   0.6528
     0.6541   0.6566   0.6653   0.6709   0.6717   0.6740   0.6761   0.6778
     0.6800   0.6839   0.6877   0.6901   0.7022   0.7368   0.7389   0.7494
     0.7500   0.7590   0.7597   0.7631   0.7632   0.7651   0.7654   0.7702
     0.7716   0.7725   0.7740   0.7741   0.7764   0.8094   0.8158   0.8176
     0.8180   0.8192   0.8279   0.8342   0.8354   0.8365   0.8407   0.8516
     0.8530   0.8583   0.8638   0.8666   0.8686   0.8711   0.8778   0.8787
     0.9004   0.9260   0.9286   0.9578   0.9800   0.9804   0.9877   0.9907
     0.9919   0.9954   0.9983   1.0016   1.0037   1.0059   1.0102   1.0111
     1.0191   1.0204   1.0264   1.0290   1.0335   1.0344   1.0348   1.0357
     1.0364   1.0403   1.0515   1.0573   1.0574   1.0587   1.0594   1.0621
     1.0640   1.0667   1.0668   1.0767   1.0791   1.0803   1.0811   1.0851
     1.0858   1.0908   1.0916   1.1037   1.1046   1.1089   1.1194   1.1242
     1.1245   1.1277   1.1280   1.1306   1.1320   1.1332   1.1333   1.1336
     1.1361   1.1599   1.1850   1.2154   1.2203   1.2208   1.2312   1.2337
     1.2385   1.2394   1.2524   1.2619   1.2642   1.2651   1.2744   1.2762
     1.2797   1.2833   1.2872   1.2879   1.2904   1.2918   1.2926   1.2947
     1.2955   1.2966   1.2973   1.2988   1.3001   1.3028   1.3042   1.3043
     1.3224   1.3243   1.3261   1.3307   1.3331   1.3333   1.3351   1.3368
     1.3632   1.3638   1.3654   1.3690   1.3692   1.3701   1.3744   1.3847
     1.3932   1.3942   1.4007   1.4017   1.4048   1.4058   1.4069   1.4092
     1.4111   1.4157   1.4237   1.4257   1.4272   1.4283   1.4457   1.4459
     1.4493   1.4543   1.4648   1.4652   1.4733   1.4738   1.4756   1.4759
     1.4861   1.4870   1.4904   1.4905   1.5042   1.5058   1.5192   1.5198
     1.5205   1.5263   1.5394   1.5403   1.5410   1.5422   1.5431   1.5434
     1.5455   1.5462   1.5708   1.5729   1.5799   1.5805   1.5876   1.5948
     1.6023   1.6074   1.6111   1.6129   1.6137   1.6142   1.6186   1.6268
     1.6311   1.6385   1.6795   1.6806   1.6813   1.6857   1.7721   1.7842
     1.7897   1.8084   1.8093   1.8288   1.8344   1.8431   1.8446   1.8660
     1.8829   1.8865   1.8911   1.8922   1.9066   1.9093   1.9109   1.9418
     1.9442   1.9469   2.3406   2.3982   2.4535   2.4562   2.5109   2.5119
     2.5168   2.5174   2.5890   2.5923   2.6590   2.6599   2.6616   2.6641
     2.6751   2.6753   2.7993   2.8004   2.8517   2.8565   2.8727   2.8747
     3.0098   3.0142   3.0489   3.2543   3.2543   3.2957   3.3180   3.4910
     3.4952   3.7643   3.7672   4.1166   4.1251   4.1646   4.1731   4.2580
     4.3185   4.3349   4.4136   4.4146   4.4227   4.4301   4.5857   4.5910
     4.7208   4.7853   4.8174   4.8583   4.8645   5.1924   5.1942   5.1992
     5.2859   5.4466   5.4483   5.4501   5.4525   5.5351   5.5749   5.7736
     5.7966   5.9209   5.9819   6.0203   6.4504   6.4891   6.5029   6.5181
     6.5247   6.5407   6.5920   6.6368   6.6903   6.7565   6.7590   6.8537
     6.8973   6.9106   7.1116   7.1322   7.1527   7.1664   7.1822   7.1929
     7.2042   7.2160   7.2250   7.2288   7.4245   7.4393   7.4864   7.4972
     7.5546   7.6017   7.6865   7.7542   7.9798   8.0047   8.0438   8.1488
     8.1888   8.2301   8.2323   8.3158   8.4434   8.4481   8.5048   8.5266
     8.5287   8.5320   8.5776   8.7877   8.7956   8.8033   8.8099   8.8185
     8.8487   8.8525   8.8968   8.9656   8.9912   9.0500   9.0818   9.1085
     9.1311   9.1507   9.2303   9.2412   9.2623   9.3121   9.3422   9.3628
     9.4015   9.4682   9.4685   9.4873   9.4881   9.5682   9.5786   9.5991
     9.6025   9.6242   9.7572   9.7782   9.8763   9.8784   9.9784  10.2124
    10.2172

          k = 0.2500 0.0000 0.0000 (256240 PWs)   bands (ev):

   -18.1837 -16.0486 -15.7088 -15.5374 -15.0827 -15.0469 -14.7279 -14.6202
   -14.5500 -14.3331 -13.5906 -13.4515 -13.1276 -12.8142 -12.7542 -12.7372
   -12.4890 -11.8287 -11.7715 -11.7238 -11.5104 -10.7169 -10.5073 -10.4294
   -10.2680  -9.8719  -9.7067  -9.4430  -9.3949  -9.0339  -8.7915  -8.7473
    -8.2510  -7.5988  -7.2660  -7.2481  -7.2026  -7.1351  -6.9963  -6.5612
    -6.3808  -6.1813  -5.7473  -5.7198  -5.6346  -5.5682  -5.4039  -5.2227
    -5.2168  -5.2095  -4.8105  -4.7924  -4.7472  -4.3750  -4.3592  -4.3331
    -4.3218  -4.2179  -4.0786  -4.0550  -3.9293  -3.9108  -3.9060  -3.8881
    -3.8494  -3.7511  -3.7490  -3.7002  -3.5983  -3.5177  -3.3307  -3.3072
    -3.2881  -3.2799  -3.2501  -3.1808  -3.1540  -3.1338  -3.0875  -3.0192
    -2.9854  -2.9380  -2.9162  -2.8108  -2.7781  -2.7303  -2.7103  -2.7077
    -2.7001  -2.5908  -2.5361  -2.5304  -2.4727  -2.3380  -2.3073  -2.2405
    -2.2276  -2.1964  -2.1482  -2.0087  -2.0073  -1.9938  -1.9901  -1.9880
    -1.9042  -1.8731  -1.8284  -1.8023  -1.8009  -1.7880  -1.7446  -1.7292
    -1.7089  -1.7087  -1.7018  -1.7016  -1.6809  -1.6530  -1.6309  -1.6230
    -1.6162  -1.5841  -1.5564  -1.5497  -1.5433  -1.5115  -1.4961  -1.4913
    -1.4873  -1.4863  -1.4860  -1.4816  -1.4725  -1.4386  -1.4279  -1.4174
    -1.4117  -1.4085  -1.3987  -1.3927  -1.2798  -1.2424  -1.2376  -1.2309
    -1.2196  -1.1754  -1.1728  -1.1510  -1.1500  -1.1455  -1.1439  -1.1350
    -1.1189  -1.1179  -1.1134  -1.0945  -1.0915  -1.0889  -1.0843  -1.0662
    -1.0431  -1.0415  -1.0391  -1.0352  -1.0311  -1.0197  -1.0180  -1.0154
    -0.9899  -0.9792  -0.9644  -0.9563  -0.9556  -0.9507  -0.9456  -0.9268
    -0.9234  -0.9199  -0.9149  -0.9108  -0.9070  -0.8976  -0.8937  -0.8905
    -0.8900  -0.8853  -0.8844  -0.8828  -0.8815  -0.8703  -0.8527  -0.8493
    -0.8349  -0.8098  -0.8078  -0.7990  -0.7950  -0.7854  -0.7609  -0.7571
    -0.7284  -0.7223  -0.7199  -0.7051  -0.7009  -0.6939  -0.6775  -0.6772
    -0.6630  -0.6624  -0.6596  -0.6545  -0.6501  -0.6444  -0.6293  -0.5856
    -0.5235  -0.5089  -0.5056  -0.5027  -0.4855  -0.4750  -0.4744  -0.4670
    -0.4614  -0.4569  -0.4559  -0.4544  -0.4531  -0.4342  -0.4331  -0.4281
    -0.4192  -0.4125  -0.3963  -0.3925  -0.3912  -0.3891  -0.3874  -0.3843
    -0.3678  -0.3678  -0.3630  -0.3556  -0.3064  -0.3058  -0.3044  -0.3041
    -0.2989  -0.2943  -0.2871  -0.2730  -0.2679  -0.2631  -0.2621  -0.2408
    -0.2404  -0.2389  -0.2317  -0.2029  -0.2026  -0.1980  -0.1976  -0.1888
    -0.1874  -0.1786  -0.1729  -0.1697  -0.1619  -0.1578  -0.1427  -0.1370
    -0.1357  -0.1092  -0.1060  -0.1031  -0.1022  -0.0975  -0.0902  -0.0883
    -0.0865  -0.0858  -0.0595  -0.0592  -0.0557  -0.0481  -0.0445  -0.0381
    -0.0261  -0.0188  -0.0175  -0.0168   0.0090   0.0250   0.0289   0.0312
     0.0367   0.0408   0.0540   0.0733   0.0745   0.0748   0.0794   0.0816
     0.0848   0.0867   0.0932   0.0978   0.0987   0.1000   0.1027   0.1034
     0.1063   0.1247   0.1259   0.1267   0.1290   0.1332   0.1348   0.1499
     0.1515   0.1615   0.1697   0.1741   0.1939   0.2076   0.2088   0.2100
     0.2103   0.2120   0.2229   0.2258   0.2339   0.2350   0.2357   0.2368
     0.2394   0.2715   0.2740   0.2869   0.3453   0.3460   0.3488   0.3512
     0.3568   0.3631   0.3662   0.3673   0.3687   0.3703   0.3740   0.3798
     0.3820   0.3835   0.3837   0.3904   0.3965   0.4006   0.4012   0.4047
     0.4140   0.4163   0.4199   0.4241   0.4274   0.4288   0.4342   0.4485
     0.4571   0.4641   0.4742   0.4984   0.5021   0.5080   0.5187   0.5189
     0.5354   0.5360   0.5368   0.5400   0.5480   0.5602   0.5627   0.5688
     0.5723   0.5757   0.5794   0.5805   0.5854   0.5860   0.5901   0.5909
     0.5966   0.6121   0.6166   0.6230   0.6341   0.6393   0.6431   0.6443
     0.6462   0.6477   0.6499   0.6613   0.6699   0.6728   0.6765   0.6799
     0.6852   0.6889   0.6911   0.6926   0.6984   0.7027   0.7042   0.7109
     0.7139   0.7192   0.7305   0.7336   0.7396   0.7527   0.7542   0.7578
     0.7614   0.7643   0.7661   0.7832   0.7948   0.7980   0.8114   0.8169
     0.8234   0.8339   0.8343   0.8379   0.8411   0.8453   0.8596   0.8632
     0.8685   0.8712   0.8726   0.8809   0.8917   0.8965   0.8987   0.9085
     0.9164   0.9178   0.9197   0.9258   0.9334   0.9490   0.9494   0.9519
     0.9534   0.9609   0.9726   0.9741   0.9831   0.9855   0.9876   0.9890
     0.9942   0.9954   0.9984   1.0017   1.0073   1.0399   1.0453   1.0488
     1.0498   1.0519   1.0623   1.0648   1.0781   1.0822   1.0827   1.0841
     1.0865   1.0931   1.0938   1.0973   1.1002   1.1045   1.1093   1.1107
     1.1119   1.1133   1.1157   1.1172   1.1215   1.1250   1.1258   1.1269
     1.1323   1.1369   1.1433   1.1453   1.1540   1.1564   1.1584   1.1611
     1.1653   1.1696   1.1699   1.1836   1.1846   1.1852   1.1946   1.1999
     1.2010   1.2037   1.2047   1.2060   1.2146   1.2266   1.2298   1.2314
     1.2430   1.2449   1.2483   1.2530   1.2645   1.2694   1.2771   1.2817
     1.2863   1.2870   1.2907   1.3015   1.3246   1.3256   1.3349   1.3389
     1.3421   1.3440   1.3456   1.3478   1.3491   1.3496   1.3548   1.3555
     1.3702   1.3722   1.3725   1.3765   1.3786   1.3926   1.3933   1.3936
     1.3947   1.3991   1.4045   1.4069   1.4083   1.4106   1.4115   1.4176
     1.4204   1.4246   1.4257   1.4284   1.4347   1.4404   1.4453   1.4476
     1.4498   1.4512   1.4523   1.4548   1.4574   1.4724   1.4727   1.4750
     1.4967   1.4969   1.5056   1.5073   1.5084   1.5157   1.5161   1.5175
     1.5200   1.5213   1.5268   1.5276   1.5285   1.5297   1.5306   1.5366
     1.5395   1.5555   1.5570   1.5581   1.5605   1.5632   1.5638   1.5649
     1.5686   1.5755   1.5757   1.5882   1.5892   1.5984   1.5996   1.6082
     1.6086   1.6130   1.6209   1.6389   1.6462   1.6469   1.6743   1.6842
     1.7025   1.7161   1.7197   1.7210   1.7496   1.7558   1.8271   1.8347
     1.8494   1.8570   1.8579   1.8639   1.8776   1.8912   1.9289   2.0158
     2.1206   2.1228   2.1617   2.1695   2.1807   2.1823   2.2820   2.3216
     2.3430   2.3522   2.4011   2.6521   2.6551   2.6600   2.6639   3.0190
     3.0666   3.0682   3.1061   3.2842   3.2847   3.3082   3.3082   3.3586
     3.3807   3.5496   3.5615   3.6691   3.6772   3.7218   3.7272   3.7921
     3.8010   3.8089   3.8126   3.8599   3.9597   3.9659   4.0581   4.0672
     4.2505   4.2816   4.2839   4.3487   4.3675   4.5097   4.6273   4.7788
     4.8579   4.9079   4.9367   5.0518   5.2577   5.3062   5.3109   5.3209
     5.4421   5.4801   5.5428   5.5617   5.5899   5.6283   5.6754   5.6893
     5.7360   5.7614   5.7966   5.8265   5.8429   5.9099   5.9162   5.9922
     6.0941   6.1019   6.1209   6.1521   6.2776   6.5929   6.7748   6.7892
     6.8082   6.8299   6.8471   6.9591   6.9661   6.9916   7.1023   7.1210
     7.1286   7.1313   7.1545   7.2058   7.3338   7.3675   7.3849   7.4270
     7.5200   7.6006   7.6136   7.6483   7.6675   7.8237   7.8524   7.8561
     7.8837   7.9961   8.0876   8.1063   8.1499   8.1654   8.2711   8.2996
     8.3527   8.3771   8.3936   8.3999   8.4177   8.4695   8.5004   8.5379
     8.5791   8.7268   8.7352   8.7764   8.8112   8.8891   9.0377   9.0414
     9.1696   9.2238   9.2353   9.2573   9.2649   9.2865   9.2976   9.3203
     9.3520   9.3572   9.3913   9.4974   9.5175   9.5454   9.5512   9.6529
     9.6955   9.7505   9.7896   9.8052   9.8108   9.8823   9.9675  10.0366
    10.0719

          k = 0.2500-0.2165 0.0000 (256316 PWs)   bands (ev):

   -18.1837 -16.0182 -15.8429 -15.2188 -15.1339 -15.0671 -15.0304 -14.7929
   -14.2391 -14.0810 -13.7283 -13.6181 -13.1048 -12.9220 -12.7784 -12.6572
   -12.3430 -12.1349 -11.6496 -11.5340 -11.0269 -10.9194 -10.7598 -10.6464
   -10.4516 -10.2273  -9.3502  -9.2736  -8.8518  -8.7865  -8.7648  -8.6182
    -8.2794  -8.1637  -8.0409  -7.9857  -6.8935  -6.4048  -6.3515  -6.2918
    -6.2795  -6.0626  -5.9831  -5.8606  -5.7907  -5.6196  -5.6082  -5.5012
    -5.2921  -4.8525  -4.7051  -4.6411  -4.6231  -4.5836  -4.5759  -4.4836
    -4.3964  -4.2609  -4.2505  -4.2045  -4.0912  -3.9366  -3.8649  -3.8256
    -3.7510  -3.6823  -3.6304  -3.5783  -3.4599  -3.4282  -3.3808  -3.3674
    -3.3599  -3.3264  -3.2865  -3.2414  -3.1282  -3.0347  -2.9545  -2.9117
    -2.8412  -2.8320  -2.8201  -2.8171  -2.8139  -2.7927  -2.7695  -2.6940
    -2.6330  -2.5602  -2.5355  -2.4879  -2.3609  -2.3208  -2.2327  -2.2273
    -2.2177  -2.1376  -2.1054  -2.0910  -2.0777  -2.0774  -2.0691  -2.0299
    -1.9297  -1.9176  -1.9164  -1.8767  -1.8677  -1.8312  -1.7337  -1.7231
    -1.7220  -1.7207  -1.7071  -1.6622  -1.6569  -1.6390  -1.6371  -1.6252
    -1.6205  -1.6133  -1.6079  -1.6035  -1.5878  -1.5863  -1.5838  -1.5821
    -1.5757  -1.5754  -1.5619  -1.4933  -1.4846  -1.4814  -1.3763  -1.3755
    -1.2827  -1.2640  -1.2565  -1.2388  -1.2358  -1.2345  -1.1862  -1.1828
    -1.1738  -1.1699  -1.1695  -1.1623  -1.1567  -1.1553  -1.1434  -1.1398
    -1.1339  -1.1301  -1.1235  -1.1167  -1.1141  -1.1065  -1.1016  -1.0983
    -1.0933  -1.0889  -1.0882  -1.0416  -1.0373  -1.0355  -1.0286  -1.0263
    -1.0198  -1.0194  -1.0065  -0.9896  -0.9848  -0.9546  -0.9482  -0.9471
    -0.9456  -0.9355  -0.9319  -0.9301  -0.9184  -0.9031  -0.9027  -0.8852
    -0.8751  -0.8683  -0.8660  -0.8643  -0.8604  -0.8546  -0.8533  -0.8337
    -0.8279  -0.8227  -0.8073  -0.7975  -0.7786  -0.7695  -0.7692  -0.7686
    -0.6884  -0.6852  -0.6845  -0.6785  -0.6761  -0.6750  -0.6540  -0.6279
    -0.6276  -0.6193  -0.6190  -0.6130  -0.6127  -0.6055  -0.5977  -0.5850
    -0.5585  -0.5580  -0.5444  -0.5218  -0.5193  -0.5050  -0.4751  -0.4717
    -0.4707  -0.4706  -0.4575  -0.4488  -0.4414  -0.4392  -0.4303  -0.4213
    -0.4097  -0.4068  -0.4009  -0.3941  -0.3933  -0.3691  -0.3542  -0.3539
    -0.3514  -0.3482  -0.3436  -0.3354  -0.3156  -0.3152  -0.3004  -0.2991
    -0.2864  -0.2799  -0.2761  -0.2758  -0.2718  -0.2712  -0.2646  -0.2609
    -0.2591  -0.2578  -0.2535  -0.2442  -0.2376  -0.2244  -0.2242  -0.2018
    -0.1980  -0.1880  -0.1795  -0.1722  -0.1638  -0.1491  -0.1468  -0.1462
    -0.1351  -0.1257  -0.1234  -0.1223  -0.1184  -0.1163  -0.0861  -0.0669
    -0.0619  -0.0609  -0.0265  -0.0250  -0.0162  -0.0158  -0.0126  -0.0104
     0.0003   0.0054   0.0064   0.0213   0.0224   0.0268   0.0366   0.0410
     0.0470   0.0498   0.0520   0.0527   0.0576   0.0585   0.0768   0.0799
     0.0842   0.0863   0.0890   0.0899   0.0921   0.0929   0.0960   0.0968
     0.1007   0.1051   0.1231   0.1236   0.1246   0.1254   0.1321   0.1581
     0.1599   0.1665   0.1687   0.1690   0.1809   0.1941   0.1958   0.2171
     0.2233   0.2244   0.2294   0.2334   0.2364   0.2437   0.2445   0.2465
     0.2513   0.2606   0.2635   0.2687   0.2726   0.2890   0.2978   0.3051
     0.3583   0.3614   0.3672   0.3728   0.3733   0.3752   0.3761   0.3790
     0.3824   0.3862   0.3885   0.3910   0.3956   0.4050   0.4105   0.4132
     0.4147   0.4180   0.4265   0.4283   0.4323   0.4429   0.4553   0.4565
     0.4617   0.4744   0.4760   0.4807   0.4901   0.4964   0.4995   0.5167
     0.5355   0.5400   0.5419   0.5488   0.5505   0.5532   0.5625   0.5637
     0.5705   0.5723   0.5735   0.5749   0.5768   0.5803   0.5823   0.6043
     0.6046   0.6134   0.6168   0.6246   0.6286   0.6595   0.6609   0.6620
     0.6640   0.6695   0.6911   0.6978   0.7006   0.7025   0.7031   0.7051
     0.7074   0.7105   0.7187   0.7210   0.7286   0.7317   0.7347   0.7392
     0.7437   0.7458   0.7532   0.7557   0.7602   0.7604   0.7621   0.7635
     0.7732   0.7735   0.7815   0.7826   0.7829   0.7881   0.7993   0.8029
     0.8037   0.8063   0.8091   0.8101   0.8128   0.8144   0.8164   0.8217
     0.8287   0.8474   0.8556   0.8587   0.8599   0.8742   0.8990   0.9004
     0.9055   0.9168   0.9170   0.9183   0.9192   0.9234   0.9239   0.9366
     0.9449   0.9458   0.9470   0.9479   0.9491   0.9509   0.9603   0.9739
     0.9768   0.9785   0.9888   0.9892   0.9918   0.9983   1.0013   1.0185
     1.0195   1.0203   1.0479   1.0488   1.0559   1.0573   1.0584   1.0602
     1.0612   1.0693   1.0785   1.0814   1.0955   1.0957   1.1044   1.1107
     1.1130   1.1280   1.1318   1.1347   1.1486   1.1585   1.1646   1.1731
     1.1751   1.1778   1.1788   1.1808   1.1821   1.1839   1.1848   1.1853
     1.1865   1.1883   1.1981   1.1986   1.2016   1.2109   1.2113   1.2122
     1.2161   1.2258   1.2349   1.2422   1.2579   1.2597   1.2651   1.2668
     1.2693   1.2709   1.2722   1.2792   1.2806   1.2819   1.2829   1.2868
     1.2930   1.2962   1.2990   1.3000   1.3034   1.3107   1.3127   1.3157
     1.3170   1.3182   1.3189   1.3213   1.3311   1.3339   1.3351   1.3369
     1.3392   1.3403   1.3651   1.3657   1.3711   1.3713   1.3871   1.3900
     1.3908   1.3974   1.4031   1.4033   1.4138   1.4188   1.4220   1.4229
     1.4267   1.4299   1.4309   1.4324   1.4408   1.4415   1.4502   1.4523
     1.4538   1.4587   1.4721   1.4743   1.4747   1.4763   1.4786   1.4797
     1.4832   1.4837   1.4852   1.4861   1.4984   1.4997   1.5049   1.5058
     1.5167   1.5204   1.5244   1.5291   1.5294   1.5295   1.5325   1.5371
     1.5380   1.5392   1.5418   1.5461   1.5465   1.5472   1.5579   1.5700
     1.5705   1.5708   1.5773   1.5823   1.5956   1.5975   1.6151   1.6176
     1.6201   1.6209   1.6421   1.6429   1.6494   1.6501   1.6749   1.6753
     1.7274   1.7541   1.7590   1.7591   1.7660   1.8193   1.8396   1.8469
     1.8546   1.8641   1.8653   1.8789   1.8808   1.8825   1.8862   1.9350
     1.9356   1.9803   2.0909   2.2171   2.2209   2.2500   2.2543   2.3729
     2.3793   2.3994   2.6737   2.6763   2.8334   2.8764   2.8799   2.8803
     2.8892   2.8942   2.9222   2.9269   3.0323   3.0760   3.0814   3.1680
     3.1726   3.6272   3.6293   3.6968   3.7014   3.7526   3.7560   3.9285
     3.9318   3.9360   3.9386   4.0821   4.0887   4.1553   4.1606   4.2522
     4.2546   4.4635   4.4652   4.5124   4.6299   4.6371   4.6951   4.7545
     4.7611   4.8723   4.9332   4.9670   5.0109   5.0198   5.1062   5.1188
     5.2004   5.2756   5.3605   5.3646   5.4460   5.5227   5.5339   5.5456
     5.5522   5.5940   5.7757   5.8487   5.8658   5.9660   5.9891   6.0333
     6.0665   6.1404   6.4602   6.6538   6.6877   6.7133   6.7193   6.8099
     6.8289   6.8402   6.9437   6.9601   7.1299   7.1353   7.1693   7.1753
     7.1879   7.2132   7.2857   7.3055   7.3078   7.3994   7.4169   7.4327
     7.4605   7.4790   7.5183   7.5228   7.5458   7.7517   7.7559   7.8466
     7.8537   7.8837   7.9728   8.0883   8.0926   8.2215   8.2774   8.2836
     8.3250   8.3478   8.3627   8.4770   8.5015   8.6757   8.6856   8.7213
     8.7272   8.7706   8.7901   8.8035   8.9844   9.0090   9.0263   9.0474
     9.0786   9.1462   9.1824   9.1923   9.2232   9.2490   9.2716   9.2767
     9.2864   9.3093   9.3242   9.3588   9.3722   9.4299   9.4333   9.4485
     9.4622   9.4771   9.5111   9.5227   9.5571   9.7160   9.7479   9.8812
    10.0134

          k =-0.5000 0.0000 0.0000 (256496 PWs)   bands (ev):

   -18.1837 -15.7090 -15.6538 -15.3606 -15.3187 -15.2860 -15.0950 -14.9708
   -14.2392 -14.2142 -14.1444 -13.8747 -12.4610 -12.4383 -12.3249 -12.2401
   -11.8569 -11.8393 -11.5616 -11.5561 -11.3800 -11.2956 -10.8435 -10.7213
   -10.4739 -10.2917  -9.8190  -9.7790  -9.4986  -9.3297  -8.7043  -8.6493
    -8.5533  -8.4507  -7.5367  -7.1143  -7.1029  -7.0941  -7.0344  -6.7989
    -5.8956  -5.5901  -5.4478  -5.2200  -5.2153  -4.8993  -4.8585  -4.7159
    -4.7126  -4.7108  -4.7057  -4.5252  -4.4997  -4.4537  -4.4369  -4.4184
    -4.3272  -4.3184  -4.2759  -4.2240  -4.1944  -4.1062  -4.0388  -3.9098
    -3.8936  -3.8812  -3.8638  -3.8623  -3.7823  -3.7763  -3.6820  -3.4287
    -3.4175  -3.4107  -3.3298  -3.3293  -3.3288  -3.3268  -3.2350  -3.1152
    -3.0920  -3.0820  -3.0492  -2.8517  -2.8337  -2.8064  -2.6558  -2.6396
    -2.6240  -2.5690  -2.5228  -2.5032  -2.4973  -2.4758  -2.3932  -2.3677
    -2.2754  -2.2220  -2.2145  -2.2095  -2.2021  -2.1281  -2.1142  -1.8741
    -1.8587  -1.7880  -1.7877  -1.7875  -1.7863  -1.7852  -1.7827  -1.7593
    -1.6564  -1.6532  -1.6441  -1.5886  -1.5586  -1.5586  -1.5580  -1.5553
    -1.5113  -1.5098  -1.5084  -1.5073  -1.4120  -1.4105  -1.4002  -1.3971
    -1.3929  -1.3337  -1.3328  -1.3324  -1.3297  -1.3284  -1.3147  -1.3128
    -1.2664  -1.2661  -1.2597  -1.2580  -1.2505  -1.2497  -1.2477  -1.2447
    -1.2444  -1.2361  -1.2007  -1.1999  -1.1996  -1.1952  -1.1931  -1.1839
    -1.1758  -1.1751  -1.1750  -1.1732  -1.1121  -1.1117  -1.0910  -1.0900
    -1.0881  -1.0876  -1.0704  -1.0590  -1.0580  -1.0547  -1.0540  -1.0527
    -1.0510  -1.0375  -1.0156  -1.0153  -1.0141  -1.0133  -0.9925  -0.9910
    -0.9895  -0.9629  -0.9621  -0.9172  -0.9160  -0.8891  -0.8889  -0.8858
    -0.8848  -0.8627  -0.8589  -0.8566  -0.8564  -0.8497  -0.8489  -0.8453
    -0.8399  -0.8399  -0.8364  -0.8344  -0.8303  -0.8150  -0.8080  -0.8034
    -0.7479  -0.7468  -0.7432  -0.7430  -0.7016  -0.7005  -0.6292  -0.6194
    -0.6178  -0.6167  -0.6143  -0.5849  -0.5812  -0.5799  -0.5789  -0.5786
    -0.5775  -0.5700  -0.5582  -0.5414  -0.5389  -0.5378  -0.5351  -0.5278
    -0.5260  -0.5239  -0.5088  -0.5035  -0.5026  -0.4906  -0.4710  -0.4404
    -0.3975  -0.3796  -0.3765  -0.3699  -0.3633  -0.3627  -0.3582  -0.3502
    -0.3428  -0.3289  -0.3147  -0.3138  -0.3115  -0.3087  -0.3078  -0.2841
    -0.2798  -0.2778  -0.2771  -0.2768  -0.2758  -0.2540  -0.2410  -0.2370
    -0.2362  -0.2353  -0.2345  -0.2032  -0.2030  -0.2028  -0.2020  -0.1907
    -0.1902  -0.1829  -0.1586  -0.1583  -0.1553  -0.1549  -0.1356  -0.1246
    -0.1212  -0.1167  -0.0974  -0.0824  -0.0443  -0.0431  -0.0420  -0.0419
    -0.0377  -0.0368  -0.0347  -0.0345  -0.0183   0.0036   0.0049   0.0078
     0.0132   0.0413   0.0447   0.0661   0.0667   0.0679   0.0685   0.0690
     0.0696   0.0712   0.0713   0.0724   0.0738   0.0739   0.0755   0.1498
     0.1509   0.1524   0.1589   0.1594   0.1636   0.1637   0.1652   0.1659
     0.1669   0.1692   0.1718   0.1739   0.1746   0.1799   0.1802   0.1826
     0.1839   0.1933   0.1935   0.1937   0.2069   0.2075   0.2079   0.2082
     0.2087   0.2092   0.2104   0.2198   0.2209   0.2212   0.2215   0.2334
     0.2340   0.2451   0.2456   0.2461   0.2464   0.2598   0.2615   0.2770
     0.2796   0.3626   0.3786   0.3790   0.3812   0.3817   0.3981   0.4065
     0.4115   0.4137   0.4183   0.4187   0.4247   0.4278   0.4286   0.4308
     0.4351   0.4381   0.4383   0.4385   0.4438   0.4444   0.4495   0.4497
     0.4506   0.4576   0.4582   0.4612   0.4636   0.4655   0.4804   0.4806
     0.4905   0.4914   0.4915   0.4967   0.4975   0.5016   0.5373   0.5569
     0.5804   0.5820   0.5859   0.5864   0.5996   0.6039   0.6134   0.6150
     0.6185   0.6189   0.6214   0.6248   0.6250   0.6258   0.6261   0.6275
     0.6290   0.6311   0.6327   0.6332   0.6371   0.6409   0.6426   0.6477
     0.6627   0.6630   0.6763   0.6775   0.6782   0.6959   0.7016   0.7126
     0.7143   0.7161   0.7172   0.7224   0.7238   0.7241   0.7276   0.7280
     0.7316   0.7372   0.7385   0.7462   0.7463   0.7471   0.7584   0.7594
     0.7669   0.7676   0.7955   0.7977   0.7998   0.8004   0.8043   0.8104
     0.8181   0.8209   0.8290   0.8369   0.8576   0.8594   0.8629   0.8631
     0.8636   0.8651   0.8912   0.8989   0.9218   0.9279   0.9293   0.9307
     0.9320   0.9336   0.9348   0.9424   0.9449   0.9482   0.9484   0.9504
     0.9535   0.9586   0.9638   0.9765   0.9781   0.9809   0.9819   0.9980
     0.9989   0.9991   1.0004   1.0011   1.0021   1.0164   1.0383   1.0391
     1.0392   1.0404   1.0411   1.0992   1.1054   1.1055   1.1072   1.1081
     1.1247   1.1410   1.1411   1.1419   1.1435   1.1598   1.1603   1.1652
     1.1673   1.1691   1.1708   1.1800   1.1897   1.1899   1.2063   1.2076
     1.2084   1.2098   1.2104   1.2112   1.2154   1.2157   1.2203   1.2210
     1.2249   1.2267   1.2270   1.2284   1.2292   1.2312   1.2314   1.2368
     1.2570   1.2654   1.2672   1.2677   1.2688   1.2690   1.3032   1.3057
     1.3061   1.3071   1.3082   1.3112   1.3236   1.3263   1.3333   1.3336
     1.3341   1.3342   1.3397   1.3453   1.3457   1.3461   1.3474   1.3481
     1.3562   1.3650   1.3819   1.3917   1.3935   1.4003   1.4040   1.4073
     1.4074   1.4084   1.4085   1.4086   1.4088   1.4128   1.4155   1.4163
     1.4222   1.4223   1.4246   1.4249   1.4250   1.4269   1.4340   1.4344
     1.4347   1.4356   1.4372   1.4415   1.4417   1.4439   1.4563   1.4583
     1.4766   1.4785   1.4807   1.4819   1.4846   1.4853   1.4866   1.4874
     1.5024   1.5027   1.5073   1.5079   1.5190   1.5219   1.5228   1.5260
     1.5372   1.5404   1.5406   1.5408   1.5410   1.5499   1.5622   1.5631
     1.5656   1.5667   1.5720   1.5724   1.5726   1.5728   1.5874   1.5905
     1.5935   1.5936   1.6043   1.6049   1.6053   1.6058   1.6109   1.6161
     1.6232   1.6269   1.6618   1.6645   1.6732   1.6952   1.6983   1.6990
     1.7022   1.7052   1.7539   1.7821   1.8984   2.1210   2.1226   2.1258
     2.1288   2.3156   2.3280   2.3407   2.3505   2.3752   2.3756   2.3826
     2.3844   2.3920   2.6860   2.7064   2.7124   2.7233   2.8563   2.9210
     2.9266   2.9279   2.9909   3.2748   3.2759   3.2796   3.2797   3.5644
     3.5700   3.8325   3.8466   3.8528   3.8547   4.0098   4.0110   4.0180
     4.0193   4.1603   4.1622   4.1638   4.1684   4.2584   4.2774   4.5864
     4.7050   4.7250   4.8060   4.8325   4.8413   4.8538   4.8652   4.9139
     4.9156   4.9699   4.9892   5.1055   5.1064   5.1311   5.1372   5.1424
     5.1518   5.1596   5.1644   5.1923   5.1930   5.3003   5.3145   5.3396
     5.5217   5.6024   5.6458   5.6742   5.7125   5.7797   5.7849   6.0039
     6.0693   6.0826   6.0895   6.1065   6.1197   6.1284   6.1373   6.1438
     6.2628   6.4794   6.5339   6.5350   6.5541   6.5831   6.6105   6.6550
     7.1571   7.1688   7.1787   7.1869   7.2112   7.2197   7.2682   7.5302
     7.6751   7.6789   7.6805   7.6832   7.6847   7.6884   7.7433   7.8158
     7.9044   7.9225   7.9633   7.9710   7.9751   7.9950   8.1382   8.1465
     8.1608   8.1853   8.2337   8.2391   8.2559   8.2756   8.3191   8.3505
     8.7903   8.7914   8.8215   8.8682   8.8920   8.9124   8.9175   8.9226
     8.9393   9.0690   9.1463   9.1520   9.1590   9.1672   9.2013   9.3237
     9.3325   9.3441   9.3554   9.3662   9.4166   9.4481   9.5405   9.5979
     9.6076   9.6236   9.6344   9.6504   9.6687   9.7228   9.7348   9.8973
    10.0771

          k =-0.5000-0.2165 0.0000 (256328 PWs)   bands (ev):

   -18.1837 -15.6548 -15.6393 -15.5625 -15.3883 -15.0771 -14.8813 -14.8445
   -14.8123 -14.4918 -13.4298 -13.4062 -13.3105 -13.1192 -11.8340 -11.8332
   -11.6599 -11.6580 -11.3818 -11.3258 -11.2804 -11.2077 -11.1643 -11.1428
   -11.0255 -10.6966  -9.4911  -9.4779  -9.3509  -9.2338  -8.5654  -8.5175
    -8.5020  -8.2844  -7.8604  -7.7522  -7.6526  -7.5293  -6.3979  -5.6750
    -5.6564  -5.5025  -5.3129  -5.0960  -5.0942  -5.0883  -5.0799  -5.0441
    -4.9740  -4.9664  -4.8504  -4.8426  -4.6835  -4.6434  -4.5261  -4.2294
    -4.2182  -4.2103  -4.1279  -4.1087  -4.1073  -4.1051  -4.0825  -3.9454
    -3.9199  -3.8751  -3.7530  -3.7519  -3.7441  -3.6947  -3.5919  -3.4471
    -3.4420  -3.3986  -3.3856  -3.3701  -3.3492  -3.3325  -3.3179  -3.3108
    -3.1707  -3.0246  -2.9967  -2.9207  -2.8417  -2.7910  -2.7477  -2.5439
    -2.4888  -2.4885  -2.4874  -2.4830  -2.4331  -2.4308  -2.4254  -2.3427
    -2.1241  -2.0768  -2.0628  -2.0438  -2.0007  -1.9987  -1.9901  -1.9868
    -1.9326  -1.9174  -1.9164  -1.9055  -1.8979  -1.8627  -1.7827  -1.7239
    -1.7152  -1.7130  -1.7079  -1.7045  -1.6022  -1.5892  -1.5623  -1.5158
    -1.4777  -1.4015  -1.4014  -1.4012  -1.4010  -1.3708  -1.3689  -1.3640
    -1.3618  -1.3569  -1.3537  -1.3432  -1.3428  -1.3384  -1.3378  -1.2948
    -1.2943  -1.2927  -1.2922  -1.2904  -1.2902  -1.2842  -1.2827  -1.2796
    -1.2674  -1.2671  -1.2664  -1.2661  -1.2176  -1.2162  -1.2150  -1.2128
    -1.1727  -1.1411  -1.1385  -1.1354  -1.1129  -1.0995  -1.0993  -1.0967
    -1.0966  -1.0948  -1.0756  -1.0755  -1.0747  -1.0689  -1.0291  -1.0282
    -1.0275  -1.0273  -1.0242  -1.0241  -1.0239  -1.0224  -0.9906  -0.9864
    -0.9833  -0.9680  -0.9672  -0.9596  -0.9576  -0.9510  -0.9507  -0.9462
    -0.9450  -0.9431  -0.9425  -0.9418  -0.9404  -0.8925  -0.8050  -0.7931
    -0.7914  -0.7863  -0.7835  -0.7604  -0.7596  -0.7593  -0.7589  -0.7572
    -0.6822  -0.6797  -0.6792  -0.6759  -0.6724  -0.6705  -0.6683  -0.6679
    -0.6670  -0.6658  -0.6605  -0.6433  -0.6080  -0.6071  -0.6069  -0.6029
    -0.5971  -0.5966  -0.5941  -0.5923  -0.5778  -0.5769  -0.5695  -0.5652
    -0.4934  -0.4819  -0.4817  -0.4763  -0.4758  -0.4720  -0.4715  -0.4627
    -0.4086  -0.4057  -0.4053  -0.4026  -0.3920  -0.3564  -0.3552  -0.3543
    -0.3539  -0.3369  -0.3366  -0.3324  -0.3314  -0.3096  -0.3080  -0.3011
    -0.2976  -0.2962  -0.2959  -0.2937  -0.2863  -0.2575  -0.2530  -0.2474
    -0.2329  -0.1836  -0.1831  -0.1777  -0.1774  -0.1640  -0.1640  -0.1626
    -0.1623  -0.1488  -0.1478  -0.1469  -0.1460  -0.0858  -0.0654  -0.0636
    -0.0629  -0.0617  -0.0612  -0.0589  -0.0571  -0.0566  -0.0560  -0.0547
    -0.0536  -0.0217  -0.0208  -0.0207  -0.0201  -0.0087  -0.0082  -0.0078
    -0.0077  -0.0069  -0.0024  -0.0016  -0.0007   0.0234   0.0656   0.0671
     0.0676   0.0744   0.0909   0.0928   0.0964   0.0991   0.1390   0.1439
     0.1468   0.1524   0.1675   0.1687   0.1714   0.1718   0.1741   0.1758
     0.1803   0.1811   0.1842   0.1847   0.1861   0.1871   0.1889   0.1892
     0.1939   0.1952   0.1961   0.1965   0.1973   0.1977   0.1986   0.1988
     0.2161   0.2163   0.2170   0.2179   0.2419   0.2427   0.2429   0.2430
     0.2432   0.2519   0.2543   0.2560   0.2609   0.2651   0.3035   0.3037
[...]
     atom   48 type  1   force =     0.00002061   -0.00015842   -0.00002141
     atom   49 type  1   force =    -0.00000004   -0.00011342    0.00010762
     atom   50 type  1   force =    -0.00000991    0.00001439    0.00004408
     atom   51 type  1   force =    -0.00000239   -0.00002787    0.00003724
     atom   52 type  1   force =     0.00001155    0.00001806    0.00004849
     atom   53 type  1   force =     0.00000056    0.00006803   -0.00005259
     atom   54 type  1   force =    -0.00002007    0.00000026   -0.00002133
     atom   55 type  1   force =    -0.00000027    0.00008850   -0.00013539
     atom   56 type  1   force =     0.00002247    0.00000196   -0.00002534
     atom   57 type  1   force =     0.00000265   -0.00012873    0.00010989
     atom   58 type  1   force =    -0.00001494   -0.00011268    0.00010218
     atom   59 type  1   force =     0.00000073   -0.00010695    0.00004449
     atom   60 type  1   force =     0.00001991   -0.00011388    0.00010150
     atom   61 type  1   force =    -0.00000073    0.00024065    0.00016197
     atom   62 type  1   force =    -0.00003624    0.00014179    0.00003757
     atom   63 type  1   force =    -0.00001198    0.00007983   -0.00000918
     atom   64 type  1   force =     0.00002501    0.00013430    0.00002698
     atom   65 type  1   force =     0.00000223   -0.00024712    0.00027025
     atom   66 type  1   force =    -0.00010193   -0.00007367    0.00017082
     atom   67 type  1   force =    -0.00000923   -0.00006693   -0.00012480
     atom   68 type  1   force =     0.00009444   -0.00006253    0.00017339
     atom   69 type  1   force =    -0.00001482   -0.00007973   -0.00013501
     atom   70 type  1   force =    -0.00010568   -0.00010612   -0.00001537
     atom   71 type  1   force =     0.00000060    0.00009166   -0.00020646
     atom   72 type  1   force =     0.00008487   -0.00009514   -0.00002766
     atom   73 type  1   force =    -0.00000101    0.00005923   -0.00000439
     atom   74 type  1   force =     0.00002061    0.00026269   -0.00015092
     atom   75 type  1   force =    -0.00000479    0.00005797   -0.00002432
     atom   76 type  1   force =    -0.00002513    0.00024137   -0.00013443
     atom   77 type  1   force =    -0.00000206   -0.00013209    0.00008157
     atom   78 type  1   force =    -0.00001779   -0.00016601    0.00011619
     atom   79 type  1   force =    -0.00000284   -0.00004959   -0.00004884
     atom   80 type  1   force =     0.00001361   -0.00016646    0.00011570
     atom   81 type  1   force =    -0.00000667    0.00018076   -0.00019575
     atom   82 type  1   force =    -0.00008040   -0.00003449    0.00034168
     atom   83 type  1   force =    -0.00001605    0.00014459   -0.00004675
     atom   84 type  1   force =     0.00006335    0.00000018    0.00031989
     atom   85 type  1   force =    -0.00000909   -0.00029969    0.00064235
     atom   86 type  1   force =     0.00005391    0.00008905   -0.00023686
     atom   87 type  1   force =    -0.00001472    0.00003735    0.00024043
     atom   88 type  1   force =    -0.00008602    0.00013352   -0.00019556
     atom   89 type  1   force =    -0.00002749   -0.00003982   -0.00020775
     atom   90 type  1   force =     0.00003166    0.00001605   -0.00037962
     atom   91 type  1   force =     0.00002089    0.00021239   -0.00038531
     atom   92 type  1   force =    -0.00007120   -0.00001698   -0.00032912
     atom   93 type  1   force =    -0.00001097    0.00013181   -0.00077135
     atom   94 type  1   force =    -0.00000413    0.00009497    0.00031772
     atom   95 type  1   force =    -0.00000055   -0.00008348   -0.00047848
     atom   96 type  1   force =    -0.00000277    0.00009372    0.00029322
     atom   97 type  1   force =    -0.00000185   -0.00032915    0.00015109
     atom   98 type  1   force =    -0.00010907   -0.00006124   -0.00002978
     atom   99 type  1   force =    -0.00000573   -0.00005210    0.00003930
     atom  100 type  1   force =     0.00009737   -0.00006175   -0.00002915
     atom  101 type  2   force =     0.00005278    0.00021519    0.00063965
     atom  102 type  2   force =    -0.00008953   -0.00137513    0.00366267
     atom  103 type  2   force =    -0.00034251    0.00088983    0.00104227
     atom  104 type  2   force =     0.00143994    0.00217850    0.00113107
     atom  105 type  2   force =     0.00028806    0.00134571    0.00013153
     atom  106 type  2   force =    -0.00164807   -0.00223274   -0.00183461
     atom  107 type  2   force =     0.00006629   -0.00118216   -0.00000777
     atom  108 type  2   force =     0.00000322    0.00180019    0.00027876
     atom  109 type  2   force =    -0.00019074    0.00137163   -0.00041347
     atom  110 type  2   force =     0.00177484   -0.00220804   -0.00213873
     atom  111 type  2   force =     0.00045836    0.00095167    0.00106235
     atom  112 type  2   force =    -0.00149726    0.00235367    0.00211216
     atom  113 type  2   force =    -0.00007789   -0.00013937   -0.00021763
     atom  114 type  2   force =    -0.00019726    0.00263301   -0.00293447
     atom  115 type  2   force =    -0.00152473   -0.00030829   -0.00290308
     atom  116 type  2   force =    -0.00234868   -0.00095173   -0.00054404
     atom  117 type  2   force =    -0.00062178   -0.00302597    0.00033319
     atom  118 type  2   force =     0.00073989    0.00261565   -0.00182813
     atom  119 type  2   force =    -0.00000364    0.00091993    0.00482455
     atom  120 type  2   force =     0.00067347   -0.00139246   -0.00241463
     atom  121 type  2   force =     0.00105880   -0.00287374    0.00055188
     atom  122 type  2   force =    -0.00180019    0.00273748   -0.00170232
     atom  123 type  2   force =     0.00142093   -0.00021952   -0.00245624
     atom  124 type  2   force =     0.00252778   -0.00079396   -0.00064142
     atom  125 type  2   force =    -0.00001931   -0.00110441    0.00043041
     atom  126 type  2   force =    -0.00003773   -0.00002862   -0.00506996
     atom  127 type  2   force =     0.00006111    0.00039030   -0.00179325
     atom  128 type  2   force =    -0.00046398    0.00036549    0.00195673
     atom  129 type  2   force =    -0.00201406    0.00162423   -0.00031247
     atom  130 type  2   force =    -0.00083414   -0.00046873    0.00068750
     atom  131 type  2   force =    -0.00015938   -0.00188956    0.00101471
     atom  132 type  2   force =    -0.00010308    0.00014150    0.00032396
     atom  133 type  2   force =     0.00254661    0.00160322    0.00040086
     atom  134 type  2   force =     0.00096168   -0.00053694    0.00047108
     atom  135 type  2   force =    -0.00006313    0.00038004   -0.00151565
     atom  136 type  2   force =     0.00030157    0.00020837    0.00158499
     atom  137 type  2   force =     0.00005037    0.00136770    0.00065288
     atom  138 type  2   force =     0.00009503   -0.00025558   -0.00197865
     atom  139 type  2   force =     0.00024429    0.00040329    0.00388334
     atom  140 type  2   force =    -0.00098213   -0.00107023   -0.00055516
     atom  141 type  2   force =     0.00029057   -0.00008496    0.00000256
     atom  142 type  2   force =     0.00189007    0.00017964   -0.00054637
     atom  143 type  2   force =     0.00012846   -0.00033251   -0.00335930
     atom  144 type  2   force =     0.00009739   -0.00022893   -0.00159533
     atom  145 type  2   force =    -0.00043113   -0.00008471    0.00005060
     atom  146 type  2   force =    -0.00162233    0.00005744   -0.00064889
     atom  147 type  2   force =    -0.00031180    0.00022078    0.00398172
     atom  148 type  2   force =     0.00121874   -0.00099614   -0.00051328
     atom  149 type  2   force =    -0.00245829    0.00329031    0.00027006
     atom  150 type  3   force =    -0.00054674   -0.00034100    0.00145016
     atom  151 type  3   force =     0.00195563   -0.00288520    0.00059901

     Total force =     0.019014     Total SCF correction =     0.000438

     number of scf cycles    =  18
     number of bfgs steps    =  17

     energy   old            =  -12774.0396419463 Ry
     energy   new            =  -12774.0400884448 Ry

     CASE: energy  _new < energy  _old

     new trust radius        =       0.0114246850 bohr
     new conv_thr            =       0.0000000100 Ry


ATOMIC_POSITIONS (angstrom)
Cu       0.000483600   0.000294881   7.368944116
Cu       1.844933026   1.707197870   7.369983515
Cu       3.689512685   0.000583611   7.369178784
Cu       5.534122920   1.707167952   7.369942791
Cu       0.000515127   3.410793667   7.369386134
Cu       1.845018934   5.112720186   7.366562181
Cu       3.689539832   3.410779457   7.369033282
Cu       5.534108718   5.112735811   7.366564445
Cu       0.000545909   6.814557998   7.364543768
Cu       1.845185672   8.516197103   7.365643008
Cu       3.689561818   6.814475578   7.364661774
Cu       5.533958966   8.516190800   7.365646904
Cu       0.000512138  10.217355803   7.368375894
Cu       1.845122954  11.918808080   7.370955132
Cu       3.689575186  10.217264154   7.369224136
Cu       5.533965564  11.918792440   7.371012104
Cu       0.000488352  13.622951214   7.370187904
Cu       1.845190014  15.330467911   7.368989382
Cu       3.689526839  13.622820801   7.370618513
Cu       5.533841262  15.330508597   7.368974336
Cu       0.000645152   1.707399847   9.201378657
Cu       1.845273842  -0.000368419   9.197981741
Cu       3.689685681   1.707875594   9.201324278
Cu       5.534079491  -0.000354934   9.198020301
Cu       0.000705642   5.116463526   9.202460330
Cu       1.845198117   3.413709172   9.203265505
Cu       3.689701053   5.116146053   9.202325391
Cu       5.534204836   3.413666286   9.203160627
Cu       0.000704167   8.513791370   9.202185149
Cu       1.845231972   6.815485040   9.201325867
Cu       3.689730247   8.513062412   9.202997527
Cu       5.534232437   6.815498282   9.201287803
Cu       0.000680015  11.916257802   9.204606380
Cu       1.845332364  10.213221770   9.204990111
Cu       3.689705573  11.916516454   9.205583202
Cu       5.534129262  10.213174220   9.205071728
Cu       0.000644238  15.330119769   9.197361388
Cu       1.845300182  13.622438062   9.201514709
Cu       3.689672520  15.330275824   9.197977024
Cu       5.534080335  13.622515457   9.201446643
Cu       0.000855200  -0.003036231  11.035804398
Cu       1.845794178   1.706515214  11.038858620
Cu       3.689943159  -0.001922510  11.036145705
Cu       5.534038047   1.706590419  11.038902798
Cu       0.000879938   3.415750932  11.043206413
Cu       1.845740176   5.119757667  11.048379747
Cu       3.689944461   3.415717965  11.044203809
Cu       5.534175931   5.119643578  11.048128503
Cu       0.000957145   6.817111222  11.051658819
Cu       1.845557063   8.510071748  11.052353627
Cu       3.689999750   6.815295248  11.052684103
Cu       5.534464366   8.509954830  11.052440184
Cu       0.000998392  10.209275168  11.050187807
Cu       1.845240289  11.914430604  11.046032603
Cu       3.689963387  10.208504343  11.049949659
Cu       5.534702115  11.914672201  11.045782407
Cu       0.000943745  13.622981652  11.039856787
Cu       1.845486105  15.330382243  11.036382156
Cu       3.689905449  13.623753740  11.041263008
Cu       5.534359908  15.330341849  11.036416691
Cu       0.001057092   1.705260269  12.869353425
Cu       1.846847362  -0.003107783  12.872876084
Cu       3.690137980   1.703931438  12.874467935
Cu       5.533428488  -0.003084601  12.872898390
Cu       0.001060785   5.118162098  12.891992265
Cu       1.847498290   3.414638198  12.879181427
Cu       3.690219518   5.116552153  12.897901571
Cu       5.532717573   3.414642432  12.879412623
Cu       0.001414120   8.510155444  12.905861451
Cu       1.846679621   6.814206432  12.905635452
Cu       3.690257592   8.510337263  12.904250546
Cu       5.533918169   6.813725787  12.905565059
Cu       0.001287931  11.915914427  12.884258842
Cu       1.843725383  10.207716921  12.893026915
Cu       3.690121963  11.914292806  12.879233821
Cu       5.536836590  10.208367502  12.892167539
Cu       0.001104452  15.330008710  12.876954378
Cu       1.844006730  13.625369613  12.876137937
Cu       3.690178526  15.332502891  12.876927947
Cu       5.536359887  13.625281690  12.876161633
Cu       0.001234233   0.004481227  14.681133900
Cu       1.848926049   1.704855768  14.681896341
Cu       3.690214631  -0.000931576  14.696717955
Cu       5.531412730   1.704868631  14.681798426
Cu       0.001565304   3.403516816  14.691083699
Cu       1.847158233   5.103399454  14.720187838
Cu       3.689697827   3.401621129  14.703660504
Cu       5.533242364   5.103065777  14.720383921
Cu       0.001739912   6.804966169  14.733881577
Cu       1.842247370   8.515825117  14.731583599
Cu       3.690172159   6.813365688  14.733892764
Cu       5.538979666   8.516354139  14.728837036
Cu       0.001490880  10.220391122  14.722930055
Cu       1.843072819  11.921017790  14.691065122
Cu       3.690417412  10.221524498  14.710363782
Cu       5.537666480  11.920853767  14.691088897
Cu       0.001197854  13.626782011  14.699025753
Cu       1.846600426  15.332314289  14.688757845
Cu       3.690396774  13.621433245  14.683193222
Cu       5.533984049  15.332415230  14.688771413
C        0.000491833   0.720878651  17.590902986
C        0.000808541   2.141067545  17.613979046
C        1.230218817   0.011531048  17.590063170
C        1.229525936   2.851643431  17.630632814
C        2.458751524   0.721716346  17.589836716
C        2.458732301   2.141883120  17.599517587
C        3.689427689   0.010684684  17.581285989
C        3.689888396   2.851959321  17.592462615
C        4.920226955   0.721633238  17.589880973
C        4.920886549   2.141849778  17.595572344
C        6.148671011   0.011518383  17.590053041
C        6.150307203   2.851831141  17.624406139
C        0.001198551   4.979899582  17.702755367
C        0.001526501   6.399533754  17.720024812
C        1.230134146   4.270860059  17.671746404
C        1.231826054   7.109804446  17.715468139
C        2.460454800   4.981540759  17.656169240
C        2.460069201   6.400704603  17.694109603
C        3.690326222   4.272049997  17.617477994
C        3.690759611   7.110902970  17.681544791
C        4.920558950   4.981977695  17.642944266
C        4.921320438   6.400609071  17.679808585
C        6.150218545   4.271208169  17.662326546
C        6.148950971   7.109372188  17.705773750
C        0.001428011   9.239180439  17.681108127
C        0.001014737  10.657848163  17.628385385
C        1.231727812   8.529172245  17.696035825
C        1.232421440  11.368162746  17.610027897
C        2.462130295   9.239230361  17.670984912
C        2.461965049  10.658721367  17.644335400
C        3.690095615   8.531037190  17.682275530
C        3.689793434  11.369647342  17.638388892
C        4.918033695   9.239287265  17.668363106
C        4.917724484  10.659331536  17.643685271
C        6.148987827   8.529105960  17.692125632
C        6.147413075  11.368330081  17.610268724
C        0.000634755  13.500093987  17.553700721
C        0.000356787  14.920804146  17.577224982
C        1.232243205  12.788614822  17.575170527
C        1.230013706  15.630444095  17.581970578
C        2.460412407  13.499117852  17.604604550
C        2.460625874  14.919173123  17.594468292
C        3.689592446  12.789507063  17.625953907
C        3.689286832  15.629598752  17.599977243
C        4.918655837  13.499177117  17.604647988
C        4.917986823  14.919219916  17.594723124
C        6.147128781  12.788864145  17.575438950
C        6.148686715  15.630402682  17.582067831
C        3.591601854   7.042622544  20.789204782
O        2.816712318   7.941877888  20.777688077
O        4.367539497   6.144522814  20.804452283



     Writing output data file gc.save
     Check: negative starting charge=   -0.001556
     NEW-OLD atomic charge density approx. for the potential
     Check: negative starting charge=   -0.001555

     negative rho (up, down):  1.658E-03 0.000E+00

     total cpu time spent up to now is   141393.7 secs

     Self-consistent Calculation

     iteration #  1     ecut=    80.00 Ry     beta=0.70
     Davidson diagonalization with overlap
     ethr =  1.00E-06,  avg # of iterations =  3.7

     negative rho (up, down):  1.655E-03 0.000E+00

     total cpu time spent up to now is   142061.9 secs

     total energy              =  -12774.04034010 Ry
     Harris-Foulkes estimate   =  -12774.04057727 Ry
     estimated scf accuracy    <       0.00135493 Ry

     iteration #  2     ecut=    80.00 Ry     beta=0.70
     Davidson diagonalization with overlap
     ethr =  1.04E-07,  avg # of iterations =  2.0

     negative rho (up, down):  1.649E-03 0.000E+00

     total cpu time spent up to now is   142449.6 secs

     total energy              =  -12774.04035533 Ry
     Harris-Foulkes estimate   =  -12774.04043324 Ry
     estimated scf accuracy    <       0.00025905 Ry

     iteration #  3     ecut=    80.00 Ry     beta=0.70
     Davidson diagonalization with overlap
     ethr =  1.98E-08,  avg # of iterations =  3.0

     negative rho (up, down):  1.636E-03 0.000E+00

     total cpu time spent up to now is   142929.0 secs

     total energy              =  -12774.04036801 Ry
     Harris-Foulkes estimate   =  -12774.04041273 Ry
     estimated scf accuracy    <       0.00036875 Ry

     iteration #  4     ecut=    80.00 Ry     beta=0.70
     Davidson diagonalization with overlap
     ethr =  1.98E-08,  avg # of iterations =  2.0

     negative rho (up, down):  1.614E-03 0.000E+00

     total cpu time spent up to now is   143295.5 secs

     total energy              =  -12774.04038648 Ry
     Harris-Foulkes estimate   =  -12774.04038817 Ry
     estimated scf accuracy    <       0.00001576 Ry

     iteration #  5     ecut=    80.00 Ry     beta=0.70
     Davidson diagonalization with overlap
     ethr =  1.21E-09,  avg # of iterations =  3.0

     negative rho (up, down):  1.598E-03 0.000E+00

     total cpu time spent up to now is   143710.9 secs

     total energy              =  -12774.04038668 Ry
     Harris-Foulkes estimate   =  -12774.04038780 Ry
     estimated scf accuracy    <       0.00000876 Ry

     iteration #  6     ecut=    80.00 Ry     beta=0.70
     Davidson diagonalization with overlap
     ethr =  6.70E-10,  avg # of iterations =  1.0

     negative rho (up, down):  1.583E-03 0.000E+00

     total cpu time spent up to now is   144082.0 secs

     total energy              =  -12774.04038657 Ry
     Harris-Foulkes estimate   =  -12774.04038723 Ry
     estimated scf accuracy    <       0.00000513 Ry

     iteration #  7     ecut=    80.00 Ry     beta=0.70
     Davidson diagonalization with overlap
     ethr =  3.92E-10,  avg # of iterations =  1.8

     negative rho (up, down):  1.576E-03 0.000E+00

     total cpu time spent up to now is   144449.0 secs

     total energy              =  -12774.04038640 Ry
     Harris-Foulkes estimate   =  -12774.04038680 Ry
     estimated scf accuracy    <       0.00000182 Ry

     iteration #  8     ecut=    80.00 Ry     beta=0.70
     Davidson diagonalization with overlap
     ethr =  1.39E-10,  avg # of iterations =  2.0

     negative rho (up, down):  1.585E-03 0.000E+00

     total cpu time spent up to now is   144849.1 secs

     total energy              =  -12774.04038629 Ry
     Harris-Foulkes estimate   =  -12774.04038650 Ry
     estimated scf accuracy    <       0.00000057 Ry

     iteration #  9     ecut=    80.00 Ry     beta=0.70
     Davidson diagonalization with overlap
     ethr =  4.34E-11,  avg # of iterations =  2.0

     negative rho (up, down):  1.595E-03 0.000E+00

     total cpu time spent up to now is   145229.1 secs

     total energy              =  -12774.04038625 Ry
     Harris-Foulkes estimate   =  -12774.04038633 Ry
     estimated scf accuracy    <       0.00000031 Ry

     iteration # 10     ecut=    80.00 Ry     beta=0.70
     Davidson diagonalization with overlap
