mpirun: INFO: switching to OpenMPI runtime version 1.10.2

     Program PWSCF v.5.4.0 starts on  1Oct2017 at  0:11:55 

     This program is part of the open-source Quantum ESPRESSO suite
     for quantum simulation of materials; please cite
         "P. Giannozzi et al., J. Phys.:Condens. Matter 21 395502 (2009);
          URL http://www.quantum-espresso.org", 
     in publications or presentations arising from this work. More details at
     http://www.quantum-espresso.org/quote

     Parallel version (MPI & OpenMP), running on      28 processor cores
     Number of MPI processes:                28
     Threads/MPI process:                     1
     R & G space division:  proc/nbgrp/npool/nimage =      28
     Waiting for input...
     Reading input from standard input
Warning: card &IONS ignored
Warning: card / ignored

     Current dimensions of program PWSCF are:
     Max number of different atomic species (ntypx) = 10
     Max number of k-points (npk) =  40000
     Max angular momentum in pseudopotentials (lmaxx) =  3
     WARNING: atomic wfc #  2 for atom type 4 has zero norm
     WARNING: atomic wfc #  4 for atom type 4 has zero norm
     WARNING: atomic wfc #  5 for atom type 4 has zero norm

     -------------------------------------
     Parameters for Dispersion Correction:
     -------------------------------------
       atom      VdW radius       C_6     

        Cu         2.952        374.666
        C_h        2.744         60.710
        C          2.744         60.710
        O          2.536         24.284

     Subspace diagonalization in iterative solution of the eigenvalue problem:
     one sub-group per band group will be used
     scalapack distributed-memory algorithm (size of sub-group:  3*  3 procs)

 
     Parallelization info
     --------------------
     sticks:   dense  smooth     PW     G-vecs:    dense   smooth      PW
     Min         408     408    108                73226    73226    9928
     Max         410     410    109                73231    73231    9931
     Sum       11433   11433   3039              2050409  2050409  278033
 


     bravais-lattice index     =            0
     lattice parameter (alat)  =      13.9425  a.u.
     unit-cell volume          =   21209.0878 (a.u.)^3
     number of atoms/cell      =          151
     number of atomic types    =            4
     number of electrons       =      1308.00
     number of Kohn-Sham states=          785
     kinetic-energy cutoff     =      80.0000  Ry
     charge density cutoff     =     320.0000  Ry
     convergence threshold     =      1.0E-08
     mixing beta               =       0.7000
     number of iterations used =            8  local-TF  mixing
     Exchange-correlation      =  SLA  PW   PBX  PBC ( 1  4  3  4 0 0)

     celldm(1)=  13.942539  celldm(2)=   0.000000  celldm(3)=   0.000000
     celldm(4)=   0.000000  celldm(5)=   0.000000  celldm(6)=   0.000000

     crystal axes: (cart. coord. in units of alat)
               a(1) = (   1.000000   0.000000   0.000000 )  
               a(2) = (   0.000000   2.309401   0.000000 )  
               a(3) = (   0.000000   0.000000   3.388418 )  

     reciprocal axes: (cart. coord. in units 2 pi/alat)
               b(1) = (  1.000000  0.000000  0.000000 )  
               b(2) = (  0.000000  0.433013  0.000000 )  
               b(3) = (  0.000000  0.000000  0.295123 )  


     PseudoPot. # 1 for Cu read from file:
     /home/549/hxw549/Short/pseudopotentials/Cu.pbe-n-van_ak.UPF
     MD5 check sum: 601f7c30f7467666bec936e0661ce3e1
     Pseudo is Ultrasoft + core correction, Zval = 11.0
     Generated by new atomic code, or converted to UPF format
     Using radial grid of  867 points,  6 beta functions with: 
                l(1) =   0
                l(2) =   0
                l(3) =   1
                l(4) =   1
                l(5) =   2
                l(6) =   2
     Q(r) pseudized with  8 coefficients,  rinner =    1.400   1.400   1.400
                                                       1.400   1.400

     PseudoPot. # 2 for C  read from file:
     /home/549/hxw549/Short/pseudopotentials/C.star1s-pbe-mt_gipaw.UPF
     MD5 check sum: ef0cb3dee31bd9e4ba2a832a2c716264
     Pseudo is Norm-conserving, Zval =  5.0
     Generated by new atomic code, or converted to UPF format
     Using radial grid of 1073 points,  1 beta functions with: 
                l(1) =   0

     PseudoPot. # 3 for C  read from file:
     /home/549/hxw549/Short/pseudopotentials/C.pbe-mt_gipaw.UPF
     MD5 check sum: 5ac2f21f2c440b14befe521540822c15
     Pseudo is Norm-conserving, Zval =  4.0
     Generated by new atomic code, or converted to UPF format
     Using radial grid of 1073 points,  1 beta functions with: 
                l(1) =   0

     PseudoPot. # 4 for O  read from file:
     /home/549/hxw549/Short/pseudopotentials/O.pbe-van_gipaw.UPF
     MD5 check sum: 5ce2a047509d4f331db576c963e74b29
     Pseudo is Ultrasoft, Zval =  6.0
     Generated by new atomic code, or converted to UPF format
     Using radial grid of 1095 points,  4 beta functions with: 
                l(1) =   0
                l(2) =   0
                l(3) =   1
                l(4) =   1
     Q(r) pseudized with 0 coefficients 


     atomic species   valence    mass     pseudopotential
        Cu            11.00    63.54600     Cu( 1.00)
        C_h            5.00    12.01070     C ( 1.00)
        C              4.00    12.01070     C ( 1.00)
        O              6.00    15.99940     O ( 1.00)

     No symmetry found



   Cartesian axes

     site n.     atom                  positions (alat units)
         1           Cu  tau(   1) = (   0.0008573  -0.0018351   0.9978221  )
         2           Cu  tau(   2) = (   0.2509084   0.2265501   0.9988819  )
         3           Cu  tau(   3) = (   0.5008508  -0.0019840   0.9975683  )
         4           Cu  tau(   4) = (   0.7507462   0.2262783   0.9983867  )
         5           Cu  tau(   5) = (   0.0009226   0.4569115   0.9995359  )
         6           Cu  tau(   6) = (   0.2509466   0.6897606   1.0003884  )
         7           Cu  tau(   7) = (   0.5007722   0.4569051   0.9997958  )
         8           Cu  tau(   8) = (   0.7508337   0.6899314   1.0007366  )
         9           Cu  tau(   9) = (   0.0008211   0.9242436   1.0005631  )
        10           Cu  tau(  10) = (   0.2510407   1.1587939   0.9997695  )
        11           Cu  tau(  11) = (   0.5010675   0.9243093   1.0009642  )
        12           Cu  tau(  12) = (   0.7507832   1.1585479   1.0002867  )
        13           Cu  tau(  13) = (   0.0008076   1.3920149   0.9981651  )
        14           Cu  tau(  14) = (   0.2508641   1.6229259   0.9968872  )
        15           Cu  tau(  15) = (   0.5009303   1.3917396   0.9986134  )
        16           Cu  tau(  16) = (   0.7508151   1.6234999   0.9965118  )
        17           Cu  tau(  17) = (   0.0010768   1.8521250   0.9962205  )
        18           Cu  tau(  18) = (   0.2506674   2.0802054   0.9970792  )
        19           Cu  tau(  19) = (   0.5006451   1.8527931   0.9957352  )
        20           Cu  tau(  20) = (   0.7510969   2.0800373   0.9962109  )
        21           Cu  tau(  21) = (   0.0009471   0.2250132   1.2487253  )
        22           Cu  tau(  22) = (   0.2507882  -0.0031446   1.2497440  )
        23           Cu  tau(  23) = (   0.5007919   0.2252728   1.2491714  )
        24           Cu  tau(  24) = (   0.7507971  -0.0036897   1.2491278  )
        25           Cu  tau(  25) = (   0.0012713   0.6893980   1.2461710  )
        26           Cu  tau(  26) = (   0.2511689   0.4560768   1.2478036  )
        27           Cu  tau(  27) = (   0.5013541   0.6891833   1.2462003  )
        28           Cu  tau(  28) = (   0.7508430   0.4560683   1.2474521  )
        29           Cu  tau(  29) = (   0.0015975   1.1598104   1.2452581  )
        30           Cu  tau(  30) = (   0.2511932   0.9245903   1.2453945  )
        31           Cu  tau(  31) = (   0.5012471   1.1599306   1.2456365  )
        32           Cu  tau(  32) = (   0.7516486   0.9243255   1.2458244  )
        33           Cu  tau(  33) = (   0.0010131   1.6253539   1.2462781  )
        34           Cu  tau(  34) = (   0.2511431   1.3937977   1.2457308  )
        35           Cu  tau(  35) = (   0.5008404   1.6254812   1.2457260  )
        36           Cu  tau(  36) = (   0.7511009   1.3943200   1.2451525  )
        37           Cu  tau(  37) = (   0.0008426   2.0793482   1.2491166  )
        38           Cu  tau(  38) = (   0.2507133   1.8534255   1.2477591  )
        39           Cu  tau(  39) = (   0.5006933   2.0795606   1.2489990  )
        40           Cu  tau(  40) = (   0.7509172   1.8537366   1.2472554  )
        41           Cu  tau(  41) = (   0.0008611  -0.0043987   1.5029302  )
        42           Cu  tau(  42) = (   0.2512449   0.2256642   1.5010773  )
        43           Cu  tau(  43) = (   0.5006184  -0.0040937   1.5031608  )
        44           Cu  tau(  44) = (   0.7506508   0.2245354   1.4992095  )
        45           Cu  tau(  45) = (   0.0016362   0.4566646   1.4959563  )
        46           Cu  tau(  46) = (   0.2523890   0.6905661   1.4930847  )
        47           Cu  tau(  47) = (   0.5011624   0.4575926   1.4977523  )
        48           Cu  tau(  48) = (   0.7518349   0.6902421   1.4941960  )
        49           Cu  tau(  49) = (   0.0023347   0.9247476   1.4925255  )
        50           Cu  tau(  50) = (   0.2526869   1.1599081   1.4923416  )
        51           Cu  tau(  51) = (   0.5020293   0.9246479   1.4907170  )
        52           Cu  tau(  52) = (   0.7523795   1.1609499   1.4907313  )
        53           Cu  tau(  53) = (   0.0022775   1.3952011   1.4935895  )
        54           Cu  tau(  54) = (   0.2511571   1.6262829   1.4978436  )
        55           Cu  tau(  55) = (   0.5013820   1.3947667   1.4939515  )
        56           Cu  tau(  56) = (   0.7512738   1.6266946   1.4968330  )
        57           Cu  tau(  57) = (   0.0008850   1.8536557   1.5027652  )
        58           Cu  tau(  58) = (   0.2508739   2.0790658   1.5048008  )
        59           Cu  tau(  59) = (   0.5008476   1.8533228   1.5022434  )
        60           Cu  tau(  60) = (   0.7505503   2.0787726   1.5044290  )
        61           Cu  tau(  61) = (   0.0016980   0.2262386   1.7497375  )
        62           Cu  tau(  62) = (   0.2509798  -0.0025672   1.7582257  )
        63           Cu  tau(  63) = (   0.5004316   0.2264262   1.7510009  )
        64           Cu  tau(  64) = (   0.7505303  -0.0023169   1.7573829  )
        65           Cu  tau(  65) = (   0.0019661   0.6913147   1.7387950  )
        66           Cu  tau(  66) = (   0.2525391   0.4569089   1.7431399  )
        67           Cu  tau(  67) = (   0.5023063   0.6918415   1.7420106  )
        68           Cu  tau(  68) = (   0.7512651   0.4566422   1.7431147  )
        69           Cu  tau(  69) = (   0.0041309   1.1625029   1.7356721  )
        70           Cu  tau(  70) = (   0.2541015   0.9252915   1.7395658  )
        71           Cu  tau(  71) = (   0.5034121   1.1639708   1.7344821  )
        72           Cu  tau(  72) = (   0.7552233   0.9274694   1.7335093  )
        73           Cu  tau(  73) = (   0.0022497   1.6232892   1.7515641  )
        74           Cu  tau(  74) = (   0.2533954   1.3956478   1.7415910  )
        75           Cu  tau(  75) = (   0.5018708   1.6237189   1.7502102  )
        76           Cu  tau(  76) = (   0.7526275   1.3955884   1.7397767  )
        77           Cu  tau(  77) = (   0.0007931   2.0789532   1.7611861  )
        78           Cu  tau(  78) = (   0.2511024   1.8512109   1.7583458  )
        79           Cu  tau(  79) = (   0.5009469   2.0787117   1.7606683  )
        80           Cu  tau(  80) = (   0.7514974   1.8508067   1.7587645  )
        81           Cu  tau(  81) = (   0.0027001   0.0029980   2.0095044  )
        82           Cu  tau(  82) = (   0.2527623   0.2336652   2.0024965  )
        83           Cu  tau(  83) = (   0.4986408   0.0010217   2.0104275  )
        84           Cu  tau(  84) = (   0.7489619   0.2291224   2.0040216  )
        85           Cu  tau(  85) = (  -0.0040408   0.4547941   1.9920730  )
        86           Cu  tau(  86) = (   0.2450909   0.6829240   1.9777034  )
        87           Cu  tau(  87) = (   0.5057828   0.4610105   1.9921824  )
        88           Cu  tau(  88) = (   0.7566954   0.6902729   1.9820341  )
        89           Cu  tau(  89) = (  -0.0032760   0.9313842   1.9771744  )
        90           Cu  tau(  90) = (   0.2495046   1.1622461   1.9788034  )
        91           Cu  tau(  91) = (   0.5198945   0.9355611   1.9773492  )
        92           Cu  tau(  92) = (   0.7623623   1.1705451   1.9826590  )
        93           Cu  tau(  93) = (   0.0082718   1.3932274   1.9974148  )
        94           Cu  tau(  94) = (   0.2553816   1.6199201   2.0056436  )
        95           Cu  tau(  95) = (   0.5016980   1.3878665   1.9912681  )
        96           Cu  tau(  96) = (   0.7518046   1.6146709   2.0045172  )
        97           Cu  tau(  97) = (   0.0003802   1.8462857   2.0115053  )
        98           Cu  tau(  98) = (   0.2508654   2.0775278   2.0128486  )
        99           Cu  tau(  99) = (   0.5037438   1.8474348   2.0102532  )
       100           Cu  tau( 100) = (   0.7513138   2.0807412   2.0125075  )
       101           C   tau( 101) = (   0.0011935   0.1000454   2.4741236  )
       102           C   tau( 102) = (   0.0013404   0.2901495   2.5156341  )
       103           C   tau( 103) = (   0.1677339   0.0040837   2.4545295  )
       104           C   tau( 104) = (   0.1682026   0.3849657   2.5377422  )
       105           C   tau( 105) = (   0.3344074   0.1002286   2.4714289  )
       106           C   tau( 106) = (   0.3346996   0.2899831   2.5140076  )
       107           C   tau( 107) = (   0.5012815   0.0040445   2.4544666  )
       108           C   tau( 108) = (   0.5015968   0.3851290   2.5349016  )
       109           C   tau( 109) = (   0.6681420   0.1002381   2.4726525  )
       110           C   tau( 110) = (   0.6684547   0.2904654   2.5131399  )
       111           C   tau( 111) = (   0.8345067   0.0035993   2.4576986  )
       112           C   tau( 112) = (   0.8349029   0.3856629   2.5369630  )
       113           C   tau( 113) = (   0.0018811   0.6733068   2.5877646  )
       114           C   tau( 114) = (   0.0016679   0.8678673   2.6011207  )
       115           C   tau( 115) = (   0.1685863   0.5750921   2.5778622  )
       116           C   tau( 116) = (   0.1663861   0.9662559   2.5993949  )
       117           C   tau( 117) = (   0.3352566   0.6695179   2.5928252  )
       118           C_h tau( 118) = (   0.3355020   0.8670591   2.5834879  )
       119           C   tau( 119) = (   0.5017990   0.5752781   2.5750147  )
       120           C   tau( 120) = (   0.5035221   0.9663080   2.6054749  )
       121           C   tau( 121) = (   0.6682909   0.6736338   2.5862785  )
       122           C   tau( 122) = (   0.6682695   0.8677820   2.6039852  )
       123           C   tau( 123) = (   0.8352335   0.5773365   2.5725417  )
       124           C   tau( 124) = (   0.8349689   0.9652527   2.6001355  )
       125           C   tau( 125) = (   0.0010665   1.2552202   2.5666315  )
       126           C   tau( 126) = (   0.0012477   1.4457697   2.5284987  )
       127           C   tau( 127) = (   0.1675581   1.1585448   2.5807218  )
       128           C   tau( 128) = (   0.1679636   1.5404101   2.5050077  )
       129           C   tau( 129) = (   0.3349431   1.2542814   2.5630127  )
       130           C   tau( 130) = (   0.3347897   1.4444110   2.5243447  )
       131           C   tau( 131) = (   0.5020061   1.1584714   2.5841203  )
       132           C   tau( 132) = (   0.5013393   1.5403612   2.5043339  )
       133           C   tau( 133) = (   0.6681619   1.2552363   2.5673588  )
       134           C   tau( 134) = (   0.6680338   1.4454475   2.5275663  )
       135           C   tau( 135) = (   0.8346856   1.1586075   2.5821647  )
       136           C   tau( 136) = (   0.8345324   1.5411140   2.5071397  )
       137           C   tau( 137) = (   0.0010460   1.8278692   2.4511787  )
       138           C   tau( 138) = (   0.0010317   2.0217261   2.4342541  )
       139           C   tau( 139) = (   0.1678685   1.7310290   2.4663119  )
       140           C   tau( 140) = (   0.1675627   2.1197405   2.4349419  )
       141           C   tau( 141) = (   0.3343157   1.8275601   2.4502918  )
       142           C   tau( 142) = (   0.3343711   2.0217622   2.4360008  )
       143           C   tau( 143) = (   0.5010915   1.7307980   2.4646800  )
       144           C   tau( 144) = (   0.5010073   2.1196324   2.4373775  )
       145           C   tau( 145) = (   0.6676447   1.8274733   2.4494839  )
       146           C   tau( 146) = (   0.6675343   2.0216639   2.4345855  )
       147           C   tau( 147) = (   0.8343141   1.7313514   2.4669788  )
       148           C   tau( 148) = (   0.8342927   2.1195700   2.4359499  )
       149           C   tau( 149) = (   0.3364713   0.8554695   2.3059262  )
       150           O   tau( 150) = (   0.4663307   0.9439922   2.2440879  )
       151           O   tau( 151) = (   0.2156522   0.7576010   2.2397108  )

     number of k points=     6  gaussian smearing, width (Ry)=  0.1000
                       cart. coord. in units 2pi/alat
        k(    1) = (   0.0000000   0.0000000   0.0000000), wk =   0.2500000
        k(    2) = (   0.0000000  -0.2165064   0.0000000), wk =   0.2500000
        k(    3) = (   0.2500000   0.0000000   0.0000000), wk =   0.5000000
        k(    4) = (   0.2500000  -0.2165064   0.0000000), wk =   0.5000000
        k(    5) = (  -0.5000000   0.0000000   0.0000000), wk =   0.2500000
        k(    6) = (  -0.5000000  -0.2165064   0.0000000), wk =   0.2500000

     Dense  grid:  2050409 G-vectors     FFT dimensions: (  80, 192, 270)

     Largest allocated arrays     est. size (Mb)     dimensions
        Kohn-Sham Wavefunctions       109.85 Mb     (    9171,  785)
        NL pseudopotentials           260.99 Mb     (    9171, 1865)
        Each V/rho on FFT grid          2.34 Mb     (  153600)
        Each G-vector array             0.56 Mb     (   73230)
        G-vector shells                 0.27 Mb     (   35784)
     Largest temporary arrays     est. size (Mb)     dimensions
        Auxiliary wavefunctions       439.41 Mb     (    9171, 3140)
        Each subspace H/S matrix       16.69 Mb     (    1046, 1046)
        Each <psi_i|beta_j> matrix     22.34 Mb     (    1865,  785)
        Arrays for rho mixing          18.75 Mb     (  153600,    8)

     Initial potential from superposition of free atoms
     Check: negative starting charge=   -0.001496

     starting charge 1282.31751, renormalised to 1308.00000

     negative rho (up, down):  1.525E-03 0.000E+00
     Starting wfc are 1300 randomized atomic wfcs

     total cpu time spent up to now is      204.9 secs

     Self-consistent Calculation

     iteration #  1     ecut=    80.00 Ry     beta=0.70
     Davidson diagonalization with overlap
     c_bands:  5 eigenvalues not converged
     c_bands:  4 eigenvalues not converged
     c_bands:  3 eigenvalues not converged
     c_bands:  3 eigenvalues not converged
     ethr =  1.00E-04,  avg # of iterations = 40.7

     negative rho (up, down):  2.506E+01 0.000E+00

     total cpu time spent up to now is     4801.4 secs

     total energy              =  -10061.11180922 Ry
     Harris-Foulkes estimate   =  -18320.63797958 Ry
     estimated scf accuracy    <  212094.93008333 Ry

     iteration #  2     ecut=    80.00 Ry     beta=0.70
     Davidson diagonalization with overlap
     ethr =  1.00E-02,  avg # of iterations = 14.0

     negative rho (up, down):  3.326E+01 0.000E+00

     total cpu time spent up to now is     6884.3 secs

     total energy              =  -11906.60276508 Ry
     Harris-Foulkes estimate   =  -13852.24400379 Ry
     estimated scf accuracy    <   36528.96701615 Ry

     iteration #  3     ecut=    80.00 Ry     beta=0.70
     Davidson diagonalization with overlap
     ethr =  1.00E-02,  avg # of iterations = 19.2

     negative rho (up, down):  3.153E+01 0.000E+00

     total cpu time spent up to now is     8833.0 secs

     total energy              =  -12163.54991292 Ry
     Harris-Foulkes estimate   =  -13766.27647603 Ry
     estimated scf accuracy    <    6787.03694884 Ry

     iteration #  4     ecut=    80.00 Ry     beta=0.70
     Davidson diagonalization with overlap
     ethr =  1.00E-02,  avg # of iterations =  4.2

     negative rho (up, down):  2.182E+01 0.000E+00

     total cpu time spent up to now is     9825.2 secs

     total energy              =  -12915.02423601 Ry
     Harris-Foulkes estimate   =  -13129.05556069 Ry
     estimated scf accuracy    <     882.70836052 Ry

     iteration #  5     ecut=    80.00 Ry     beta=0.70
     Davidson diagonalization with overlap
     ethr =  1.00E-02,  avg # of iterations =  2.7

     negative rho (up, down):  1.743E+01 0.000E+00

     total cpu time spent up to now is    10321.5 secs

     total energy              =  -12912.41052179 Ry
     Harris-Foulkes estimate   =  -12972.91410452 Ry
     estimated scf accuracy    <    1188.45086062 Ry

     iteration #  6     ecut=    80.00 Ry     beta=0.70
     Davidson diagonalization with overlap
     ethr =  1.00E-02,  avg # of iterations =  2.0

     negative rho (up, down):  1.289E+01 0.000E+00

     total cpu time spent up to now is    10668.6 secs

     total energy              =  -12879.89600102 Ry
     Harris-Foulkes estimate   =  -12938.66422656 Ry
     estimated scf accuracy    <     584.41963126 Ry

     iteration #  7     ecut=    80.00 Ry     beta=0.70
     Davidson diagonalization with overlap
     ethr =  1.00E-02,  avg # of iterations =  2.0

     negative rho (up, down):  7.995E+00 0.000E+00

     total cpu time spent up to now is    11026.3 secs

     total energy              =  -12858.50704335 Ry
     Harris-Foulkes estimate   =  -12905.03909729 Ry
     estimated scf accuracy    <     417.14293148 Ry

     iteration #  8     ecut=    80.00 Ry     beta=0.70
     Davidson diagonalization with overlap
     ethr =  1.00E-02,  avg # of iterations =  2.2

     negative rho (up, down):  6.222E+00 0.000E+00

     total cpu time spent up to now is    11380.4 secs

     total energy              =  -12853.44195847 Ry
     Harris-Foulkes estimate   =  -12872.12134393 Ry
     estimated scf accuracy    <     257.72407401 Ry

     iteration #  9     ecut=    80.00 Ry     beta=0.70
     Davidson diagonalization with overlap
     ethr =  1.00E-02,  avg # of iterations =  1.0

     negative rho (up, down):  4.301E+00 0.000E+00

     total cpu time spent up to now is    11706.3 secs

     total energy              =  -12837.27937587 Ry
     Harris-Foulkes estimate   =  -12855.51366769 Ry
     estimated scf accuracy    <     188.05331109 Ry

     iteration # 10     ecut=    80.00 Ry     beta=0.70
     Davidson diagonalization with overlap
     ethr =  1.00E-02,  avg # of iterations =  1.0

     negative rho (up, down):  9.574E-01 0.000E+00

     total cpu time spent up to now is    12033.1 secs

     total energy              =  -12797.99899943 Ry
     Harris-Foulkes estimate   =  -12840.83220776 Ry
     estimated scf accuracy    <     215.51779595 Ry

     iteration # 11     ecut=    80.00 Ry     beta=0.70
     Davidson diagonalization with overlap
     ethr =  1.00E-02,  avg # of iterations =  3.0

     negative rho (up, down):  1.070E+00 0.000E+00

     total cpu time spent up to now is    12408.1 secs

     total energy              =  -12803.92906002 Ry
     Harris-Foulkes estimate   =  -12821.60531006 Ry
     estimated scf accuracy    <     531.98621738 Ry

     iteration # 12     ecut=    80.00 Ry     beta=0.70
     Davidson diagonalization with overlap
     ethr =  1.00E-02,  avg # of iterations =  1.2

     negative rho (up, down):  4.087E-01 0.000E+00

     total cpu time spent up to now is    12738.7 secs

     total energy              =  -12790.05313810 Ry
     Harris-Foulkes estimate   =  -12807.33805002 Ry
     estimated scf accuracy    <     201.00095217 Ry

     iteration # 13     ecut=    80.00 Ry     beta=0.70
     Davidson diagonalization with overlap
     ethr =  1.00E-02,  avg # of iterations =  2.8

     negative rho (up, down):  1.581E+00 0.000E+00

     total cpu time spent up to now is    13109.8 secs

     total energy              =  -12791.21232143 Ry
     Harris-Foulkes estimate   =  -12807.31836025 Ry
     estimated scf accuracy    <     109.57496800 Ry

     iteration # 14     ecut=    80.00 Ry     beta=0.70
     Davidson diagonalization with overlap
     ethr =  8.38E-03,  avg # of iterations =  2.0

     negative rho (up, down):  1.578E+00 0.000E+00

     total cpu time spent up to now is    13457.5 secs

     total energy              =  -12792.24437263 Ry
     Harris-Foulkes estimate   =  -12798.18463533 Ry
     estimated scf accuracy    <      52.83799741 Ry

     iteration # 15     ecut=    80.00 Ry     beta=0.70
     Davidson diagonalization with overlap
     ethr =  4.04E-03,  avg # of iterations =  2.0

     negative rho (up, down):  2.451E+00 0.000E+00

     total cpu time spent up to now is    13803.9 secs

     total energy              =  -12790.10080003 Ry
     Harris-Foulkes estimate   =  -12795.14848891 Ry
     estimated scf accuracy    <      32.25182741 Ry

     iteration # 16     ecut=    80.00 Ry     beta=0.70
     Davidson diagonalization with overlap
     ethr =  2.47E-03,  avg # of iterations =  1.0

     negative rho (up, down):  4.317E+00 0.000E+00

     total cpu time spent up to now is    14131.2 secs

     total energy              =  -12788.07839812 Ry
     Harris-Foulkes estimate   =  -12791.34841003 Ry
     estimated scf accuracy    <      21.73030032 Ry

     iteration # 17     ecut=    80.00 Ry     beta=0.70
     Davidson diagonalization with overlap
     ethr =  1.66E-03,  avg # of iterations =  2.0

     negative rho (up, down):  4.235E+00 0.000E+00

     total cpu time spent up to now is    14478.7 secs

     total energy              =  -12787.18073733 Ry
     Harris-Foulkes estimate   =  -12788.94907372 Ry
     estimated scf accuracy    <      13.12459539 Ry

     iteration # 18     ecut=    80.00 Ry     beta=0.70
     Davidson diagonalization with overlap
     ethr =  1.00E-03,  avg # of iterations =  6.2

     negative rho (up, down):  3.295E+00 0.000E+00

     total cpu time spent up to now is    14928.9 secs

     total energy              =  -12786.41633792 Ry
     Harris-Foulkes estimate   =  -12787.48833593 Ry
     estimated scf accuracy    <       7.57298765 Ry

     iteration # 19     ecut=    80.00 Ry     beta=0.70
     Davidson diagonalization with overlap
     ethr =  5.79E-04,  avg # of iterations =  3.0

     negative rho (up, down):  1.782E+00 0.000E+00

     total cpu time spent up to now is    15299.4 secs

     total energy              =  -12785.60438037 Ry
     Harris-Foulkes estimate   =  -12786.56447096 Ry
     estimated scf accuracy    <       7.15497372 Ry

     iteration # 20     ecut=    80.00 Ry     beta=0.70
     Davidson diagonalization with overlap
     ethr =  5.47E-04,  avg # of iterations =  4.8

     negative rho (up, down):  2.191E+00 0.000E+00

     total cpu time spent up to now is    15710.5 secs

     total energy              =  -12784.83078833 Ry
     Harris-Foulkes estimate   =  -12785.68856817 Ry
     estimated scf accuracy    <       5.93060763 Ry

     iteration # 21     ecut=    80.00 Ry     beta=0.70
     Davidson diagonalization with overlap
     ethr =  4.53E-04,  avg # of iterations =  6.8

     negative rho (up, down):  1.378E+00 0.000E+00

     total cpu time spent up to now is    16171.3 secs

     total energy              =  -12784.41700852 Ry
     Harris-Foulkes estimate   =  -12785.20190587 Ry
     estimated scf accuracy    <       9.53488536 Ry

     iteration # 22     ecut=    80.00 Ry     beta=0.70
     Davidson diagonalization with overlap
     ethr =  4.53E-04,  avg # of iterations =  5.8

     negative rho (up, down):  1.154E+00 0.000E+00

     total cpu time spent up to now is    16602.4 secs

     total energy              =  -12784.39369126 Ry
     Harris-Foulkes estimate   =  -12784.66205305 Ry
     estimated scf accuracy    <       6.17577774 Ry

     iteration # 23     ecut=    80.00 Ry     beta=0.70
     Davidson diagonalization with overlap
     ethr =  4.53E-04,  avg # of iterations =  2.0

     negative rho (up, down):  6.649E-02 0.000E+00

     total cpu time spent up to now is    16953.9 secs

     total energy              =  -12782.83817940 Ry
     Harris-Foulkes estimate   =  -12784.67211795 Ry
     estimated scf accuracy    <       4.69799006 Ry

     iteration # 24     ecut=    80.00 Ry     beta=0.70
     Davidson diagonalization with overlap
     ethr =  3.59E-04,  avg # of iterations =  6.5

     negative rho (up, down):  1.269E-01 0.000E+00

     total cpu time spent up to now is    17408.2 secs

     total energy              =  -12781.98040671 Ry
     Harris-Foulkes estimate   =  -12783.23657136 Ry
     estimated scf accuracy    <      20.01319444 Ry

     iteration # 25     ecut=    80.00 Ry     beta=0.70
     Davidson diagonalization with overlap
     ethr =  3.59E-04,  avg # of iterations =  1.3

     negative rho (up, down):  5.014E-01 0.000E+00

     total cpu time spent up to now is    17742.6 secs

     total energy              =  -12782.03103602 Ry
     Harris-Foulkes estimate   =  -12782.71334287 Ry
     estimated scf accuracy    <       4.71702196 Ry

     iteration # 26     ecut=    80.00 Ry     beta=0.70
     Davidson diagonalization with overlap
     ethr =  3.59E-04,  avg # of iterations =  4.7

     negative rho (up, down):  6.297E-01 0.000E+00

     total cpu time spent up to now is    18151.9 secs

     total energy              =  -12782.11496593 Ry
     Harris-Foulkes estimate   =  -12782.30314905 Ry
     estimated scf accuracy    <       1.51323147 Ry

     iteration # 27     ecut=    80.00 Ry     beta=0.70
     Davidson diagonalization with overlap
     ethr =  1.16E-04,  avg # of iterations =  7.2

     negative rho (up, down):  6.725E-01 0.000E+00

     total cpu time spent up to now is    18630.6 secs

     total energy              =  -12782.03961668 Ry
     Harris-Foulkes estimate   =  -12782.20486764 Ry
     estimated scf accuracy    <       1.27227201 Ry

     iteration # 28     ecut=    80.00 Ry     beta=0.70
     Davidson diagonalization with overlap
     ethr =  9.73E-05,  avg # of iterations =  9.2

     negative rho (up, down):  3.927E-01 0.000E+00

     total cpu time spent up to now is    19173.4 secs

     total energy              =  -12782.05142114 Ry
     Harris-Foulkes estimate   =  -12782.09691167 Ry
     estimated scf accuracy    <       0.56398325 Ry

     iteration # 29     ecut=    80.00 Ry     beta=0.70
     Davidson diagonalization with overlap
     ethr =  4.31E-05,  avg # of iterations =  4.0

     negative rho (up, down):  2.876E-01 0.000E+00

     total cpu time spent up to now is    19576.3 secs

     total energy              =  -12782.05573029 Ry
     Harris-Foulkes estimate   =  -12782.07411871 Ry
     estimated scf accuracy    <       0.28788133 Ry

     iteration # 30     ecut=    80.00 Ry     beta=0.70
     Davidson diagonalization with overlap
     ethr =  2.20E-05,  avg # of iterations =  8.5

     negative rho (up, down):  2.132E-01 0.000E+00

     total cpu time spent up to now is    20089.0 secs

     total energy              =  -12782.04825314 Ry
     Harris-Foulkes estimate   =  -12782.06466163 Ry
     estimated scf accuracy    <       0.12732032 Ry

     iteration # 31     ecut=    80.00 Ry     beta=0.70
     Davidson diagonalization with overlap
     c_bands:  2 eigenvalues not converged
     c_bands:  1 eigenvalues not converged
     c_bands:  2 eigenvalues not converged
     ethr =  9.73E-06,  avg # of iterations = 16.5

     negative rho (up, down):  9.923E-02 0.000E+00

     total cpu time spent up to now is    20781.7 secs

     total energy              =  -12782.04011367 Ry
     Harris-Foulkes estimate   =  -12782.05250712 Ry
     estimated scf accuracy    <       0.05084141 Ry

     iteration # 32     ecut=    80.00 Ry     beta=0.70
     Davidson diagonalization with overlap
     c_bands:  1 eigenvalues not converged
     ethr =  3.89E-06,  avg # of iterations = 16.0

     negative rho (up, down):  9.665E-02 0.000E+00

     total cpu time spent up to now is    21524.4 secs

     total energy              =  -12782.04411136 Ry
     Harris-Foulkes estimate   =  -12782.04530070 Ry
     estimated scf accuracy    <       0.00973072 Ry

     iteration # 33     ecut=    80.00 Ry     beta=0.70
     Davidson diagonalization with overlap
     ethr =  7.44E-07,  avg # of iterations =  9.3

     negative rho (up, down):  6.140E-02 0.000E+00

     total cpu time spent up to now is    22053.6 secs

     total energy              =  -12782.04311661 Ry
     Harris-Foulkes estimate   =  -12782.04507143 Ry
     estimated scf accuracy    <       0.00484847 Ry

     iteration # 34     ecut=    80.00 Ry     beta=0.70
     Davidson diagonalization with overlap
     c_bands:  1 eigenvalues not converged
     c_bands:  1 eigenvalues not converged
     ethr =  3.71E-07,  avg # of iterations = 14.2

     negative rho (up, down):  2.725E-02 0.000E+00

     total cpu time spent up to now is    22711.9 secs

     total energy              =  -12782.04237491 Ry
     Harris-Foulkes estimate   =  -12782.04337219 Ry
     estimated scf accuracy    <       0.00142557 Ry

     iteration # 35     ecut=    80.00 Ry     beta=0.70
     Davidson diagonalization with overlap
     c_bands:  1 eigenvalues not converged
     c_bands:  1 eigenvalues not converged
     ethr =  1.09E-07,  avg # of iterations = 14.0

     negative rho (up, down):  6.465E-03 0.000E+00

     total cpu time spent up to now is    23369.2 secs

     total energy              =  -12782.04208197 Ry
     Harris-Foulkes estimate   =  -12782.04253034 Ry
     estimated scf accuracy    <       0.00071867 Ry

     iteration # 36     ecut=    80.00 Ry     beta=0.70
     Davidson diagonalization with overlap
     ethr =  5.49E-08,  avg # of iterations = 13.0

     negative rho (up, down):  1.495E-03 0.000E+00

     total cpu time spent up to now is    24013.2 secs

     total energy              =  -12782.04202530 Ry
     Harris-Foulkes estimate   =  -12782.04213961 Ry
     estimated scf accuracy    <       0.00022940 Ry

     iteration # 37     ecut=    80.00 Ry     beta=0.70
     Davidson diagonalization with overlap
     ethr =  1.75E-08,  avg # of iterations =  6.8

     negative rho (up, down):  1.387E-03 0.000E+00

     total cpu time spent up to now is    24486.3 secs

     total energy              =  -12782.04205472 Ry
     Harris-Foulkes estimate   =  -12782.04204199 Ry
     estimated scf accuracy    <       0.00001994 Ry

     iteration # 38     ecut=    80.00 Ry     beta=0.70
     Davidson diagonalization with overlap
     ethr =  1.52E-09,  avg # of iterations =  6.3

     negative rho (up, down):  1.226E-03 0.000E+00

     total cpu time spent up to now is    24963.7 secs

     total energy              =  -12782.04205896 Ry
     Harris-Foulkes estimate   =  -12782.04205706 Ry
     estimated scf accuracy    <       0.00000991 Ry

     iteration # 39     ecut=    80.00 Ry     beta=0.70
     Davidson diagonalization with overlap
     ethr =  7.57E-10,  avg # of iterations =  2.3

     negative rho (up, down):  1.511E-03 0.000E+00

     total cpu time spent up to now is    25336.1 secs

     total energy              =  -12782.04206144 Ry
     Harris-Foulkes estimate   =  -12782.04205991 Ry
     estimated scf accuracy    <       0.00000400 Ry

     iteration # 40     ecut=    80.00 Ry     beta=0.70
     Davidson diagonalization with overlap
     ethr =  3.06E-10,  avg # of iterations =  4.3

     negative rho (up, down):  1.623E-03 0.000E+00

     total cpu time spent up to now is    25759.2 secs

     total energy              =  -12782.04206177 Ry
     Harris-Foulkes estimate   =  -12782.04206199 Ry
     estimated scf accuracy    <       0.00000145 Ry

     iteration # 41     ecut=    80.00 Ry     beta=0.70
     Davidson diagonalization with overlap
     ethr =  1.11E-10,  avg # of iterations =  2.0

     negative rho (up, down):  1.651E-03 0.000E+00

     total cpu time spent up to now is    26117.4 secs

     total energy              =  -12782.04206184 Ry
     Harris-Foulkes estimate   =  -12782.04206191 Ry
     estimated scf accuracy    <       0.00000028 Ry

     iteration # 42     ecut=    80.00 Ry     beta=0.70
     Davidson diagonalization with overlap
     ethr =  2.12E-11,  avg # of iterations =  3.0

     negative rho (up, down):  1.646E-03 0.000E+00

     total cpu time spent up to now is    26606.1 secs

     total energy              =  -12782.04206188 Ry
     Harris-Foulkes estimate   =  -12782.04206190 Ry
     estimated scf accuracy    <       0.00000016 Ry

     iteration # 43     ecut=    80.00 Ry     beta=0.70
     Davidson diagonalization with overlap
     ethr =  1.22E-11,  avg # of iterations =  2.0

     negative rho (up, down):  1.673E-03 0.000E+00

     total cpu time spent up to now is    26967.1 secs

     total energy              =  -12782.04206179 Ry
     Harris-Foulkes estimate   =  -12782.04206190 Ry
     estimated scf accuracy    <       0.00000007 Ry

     iteration # 44     ecut=    80.00 Ry     beta=0.70
     Davidson diagonalization with overlap
     ethr =  5.62E-12,  avg # of iterations =  3.0

     negative rho (up, down):  1.658E-03 0.000E+00

     total cpu time spent up to now is    27359.6 secs

     total energy              =  -12782.04206180 Ry
     Harris-Foulkes estimate   =  -12782.04206180 Ry
     estimated scf accuracy    <       0.00000002 Ry

     iteration # 45     ecut=    80.00 Ry     beta=0.70
     Davidson diagonalization with overlap
     ethr =  1.51E-12,  avg # of iterations =  2.0

     negative rho (up, down):  1.646E-03 0.000E+00

     total cpu time spent up to now is    27700.8 secs

     End of self-consistent calculation

          k = 0.0000 0.0000 0.0000 (256287 PWs)   bands (ev):

   -20.4790 -18.6102 -16.9118 -15.8009 -15.6208 -15.0071 -14.6285 -14.3469
   -14.2359 -13.8199 -13.7716 -13.6722 -13.6514 -13.0787 -12.9380 -12.7369
   -12.7096 -12.6620 -12.6539 -11.3182 -11.1496 -11.1104 -11.0014 -10.9208
    -9.9326  -9.4375  -9.3790  -9.2247  -9.1806  -8.5554  -8.3864  -8.2329
    -8.1526  -7.6804  -7.4867  -7.4375  -7.2799  -7.1790  -7.1668  -7.1079
    -7.0704  -7.0084  -5.9982  -5.9973  -5.8738  -5.7607  -5.6531  -5.5809
    -5.5472  -5.5242  -5.5096  -5.4757  -5.3788  -5.3331  -5.2904  -4.7657
    -4.5309  -4.5010  -4.3839  -4.3146  -4.2626  -4.2107  -4.1923  -4.0431
    -3.8469  -3.8435  -3.6874  -3.6458  -3.5568  -3.4355  -3.3091  -3.2774
    -3.2663  -3.2620  -3.2052  -3.1328  -3.0789  -3.0530  -2.9242  -2.8824
    -2.8771  -2.8702  -2.8692  -2.8602  -2.7214  -2.7017  -2.6594  -2.5905
    -2.5706  -2.5232  -2.4941  -2.4828  -2.4356  -2.4287  -2.3724  -2.3696
    -2.2216  -2.1624  -2.1608  -2.1568  -2.1287  -2.0605  -2.0587  -2.0321
    -2.0318  -2.0287  -2.0257  -2.0229  -1.8971  -1.8957  -1.8862  -1.8851
    -1.8619  -1.7550  -1.7498  -1.7298  -1.6834  -1.6531  -1.6159  -1.6104
    -1.6076  -1.6050  -1.5947  -1.5909  -1.5855  -1.5614  -1.5339  -1.5271
    -1.5162  -1.5034  -1.4862  -1.4822  -1.4554  -1.4494  -1.4357  -1.4320
    -1.4129  -1.4057  -1.4030  -1.4018  -1.3947  -1.3906  -1.3370  -1.3291
    -1.3229  -1.2947  -1.2520  -1.2276  -1.1810  -1.1783  -1.1736  -1.1682
    -1.1652  -1.1435  -1.1391  -1.1321  -1.1197  -1.0946  -1.0871  -1.0740
    -1.0674  -1.0521  -1.0331  -0.9757  -0.9421  -0.9328  -0.9304  -0.9278
    -0.9267  -0.9208  -0.9135  -0.9087  -0.9026  -0.9014  -0.8963  -0.8921
    -0.8896  -0.8810  -0.8790  -0.8723  -0.8687  -0.8584  -0.8309  -0.8241
    -0.8207  -0.7959  -0.7935  -0.7906  -0.7885  -0.7797  -0.7485  -0.7456
    -0.7382  -0.7358  -0.7347  -0.7333  -0.7310  -0.7303  -0.7288  -0.7243
    -0.7203  -0.7188  -0.7179  -0.7163  -0.7137  -0.7073  -0.6961  -0.6432
    -0.5699  -0.5677  -0.5671  -0.5657  -0.5629  -0.5369  -0.5320  -0.5168
    -0.5143  -0.5111  -0.5027  -0.4989  -0.4965  -0.4945  -0.4863  -0.4749
    -0.4672  -0.4480  -0.4466  -0.4419  -0.4373  -0.4360  -0.4315  -0.4243
    -0.4201  -0.4169  -0.3914  -0.3677  -0.3639  -0.3501  -0.3277  -0.3212
    -0.3189  -0.3085  -0.3024  -0.2988  -0.2975  -0.2945  -0.2941  -0.2890
    -0.2859  -0.2835  -0.2821  -0.2804  -0.2799  -0.2743  -0.2708  -0.2647
    -0.2643  -0.2577  -0.2394  -0.2382  -0.2191  -0.2174  -0.1804  -0.1790
    -0.1715  -0.1696  -0.1679  -0.1675  -0.1490  -0.1474  -0.1472  -0.1406
    -0.1340  -0.1308  -0.1292  -0.1277  -0.1204  -0.1190  -0.1083  -0.1057
    -0.0999  -0.0992  -0.0967  -0.0897  -0.0780  -0.0742  -0.0712  -0.0684
    -0.0647  -0.0631  -0.0461  -0.0268  -0.0195  -0.0127  -0.0073  -0.0003
     0.0013   0.0267   0.0325   0.0408   0.0508   0.0575   0.0610   0.0635
     0.0646   0.0709   0.0756   0.0799   0.0883   0.1016   0.1036   0.1100
     0.1142   0.1170   0.1227   0.1302   0.1382   0.1408   0.1506   0.1557
     0.1567   0.1603   0.1630   0.1673   0.1742   0.1753   0.1765   0.1803
     0.1832   0.1881   0.2024   0.2085   0.2210   0.2228   0.2283   0.2360
     0.2508   0.2522   0.2731   0.2746   0.2839   0.2872   0.2967   0.3030
     0.3144   0.3171   0.3253   0.3320   0.3533   0.3614   0.3663   0.3801
     0.3867   0.4011   0.4073   0.4086   0.4102   0.4200   0.4220   0.4473
     0.4499   0.4699   0.4720   0.4748   0.4761   0.4860   0.4913   0.4940
     0.5005   0.5050   0.5077   0.5150   0.5295   0.5333   0.5509   0.5550
     0.5661   0.5682   0.5762   0.5790   0.5857   0.5899   0.5952   0.5978
     0.6057   0.6142   0.6192   0.6283   0.6336   0.6387   0.6457   0.6468
     0.6497   0.6538   0.6624   0.6656   0.6668   0.6680   0.6691   0.6743
     0.6766   0.6775   0.6855   0.6870   0.6892   0.6939   0.7109   0.7145
     0.7175   0.7198   0.7232   0.7404   0.7513   0.7539   0.7631   0.7673
     0.7681   0.7711   0.7770   0.7809   0.7884   0.7887   0.7915   0.7930
     0.7948   0.7964   0.7982   0.8055   0.8147   0.8250   0.8279   0.8363
     0.8376   0.8395   0.8435   0.8514   0.8514   0.8531   0.8547   0.8593
     0.8655   0.8733   0.8755   0.8772   0.8792   0.8892   0.9087   0.9180
     0.9266   0.9284   0.9344   0.9363   0.9537   0.9606   0.9667   0.9687
     0.9730   0.9783   0.9826   0.9842   0.9993   1.0002   1.0016   1.0044
     1.0056   1.0104   1.0200   1.0280   1.0287   1.0354   1.0400   1.0408
     1.0468   1.0494   1.0506   1.0539   1.0547   1.0726   1.0836   1.0934
     1.0960   1.0997   1.1021   1.1074   1.1129   1.1155   1.1211   1.1264
     1.1289   1.1330   1.1348   1.1373   1.1444   1.1459   1.1511   1.1545
     1.1612   1.1636   1.1698   1.1732   1.1812   1.1919   1.1943   1.1985
     1.2018   1.2076   1.2088   1.2132   1.2151   1.2169   1.2187   1.2225
     1.2258   1.2297   1.2321   1.2340   1.2375   1.2398   1.2443   1.2473
     1.2571   1.2601   1.2669   1.2710   1.2754   1.2786   1.2811   1.2939
     1.3036   1.3146   1.3159   1.3176   1.3236   1.3272   1.3303   1.3424
     1.3447   1.3472   1.3523   1.3527   1.3577   1.3590   1.3644   1.3671
     1.3753   1.3809   1.3836   1.3842   1.3864   1.3894   1.3933   1.3988
     1.3998   1.4035   1.4095   1.4120   1.4157   1.4167   1.4197   1.4220
     1.4231   1.4265   1.4275   1.4352   1.4441   1.4444   1.4466   1.4497
     1.4551   1.4575   1.4595   1.4642   1.4682   1.4692   1.4830   1.4861
     1.4875   1.4920   1.5062   1.5078   1.5080   1.5105   1.5228   1.5242
     1.5270   1.5322   1.5331   1.5347   1.5367   1.5380   1.5396   1.5406
     1.5408   1.5486   1.5585   1.5609   1.5622   1.5713   1.5722   1.5748
     1.5797   1.5811   1.5828   1.5844   1.5980   1.6073   1.6124   1.6175
     1.6243   1.6271   1.6576   1.6613   1.6647   1.6738   1.6832   1.6886
     1.6956   1.6966   1.7212   1.7284   1.7332   1.7340   1.7381   1.7427
     1.7577   1.7638   1.7686   1.7909   2.0355   2.0593   2.1737   2.1815
     2.2099   2.2483   2.3042   2.3075   2.3110   2.3136   2.3164   2.3241
     2.3267   2.3297   2.4594   2.4618   2.5290   2.5300   2.5705   2.5794
     2.5971   2.6528   2.7398   2.8064   2.8169   2.8418   2.8749   3.1413
     3.3019   3.3148   3.4058   3.5697   3.5791   3.8615   3.8873   3.9185
     3.9333   3.9485   3.9544   3.9553   3.9644   4.0307   4.0501   4.0742
     4.0995   4.1096   4.1169   4.1180   4.1264   4.2180   4.2552   4.2651
     4.2808   4.4716   4.6092   4.8833   4.9762   5.1667   5.1822   5.2577
     5.2748   5.2977   5.4004   5.4385   5.4912   5.6723   5.7227   5.8701
     5.9961   6.0287   6.0485   6.2762   6.2997   6.3406   6.4538   6.4698
     6.5068   6.5518   6.5786   6.6161   6.6240   6.7529   6.7823   6.8359
     6.8611   6.9295   6.9985   7.0186   7.0512   7.0779   7.0919   7.1281
     7.1768   7.2212   7.2996   7.3273   7.4691   7.4957   7.5409   7.5903
     7.6376   7.7687   7.7806   7.8488   7.9125   8.0719   8.0933   8.1836
     8.1881   8.2280   8.2612   8.2853   8.2944   8.3710   8.4037   8.4346
     8.4466   8.4579   8.5820   8.5957   8.6405   8.6575   8.6726   8.6784
     8.7299   8.7518   8.8001   8.8232   8.8770   8.8812   8.9085   8.9325
     8.9868   9.0564   9.1044   9.1223   9.1866   9.1917   9.2497   9.3686
     9.3852   9.4347   9.5086   9.5128   9.5276   9.5503   9.5795   9.6860
     9.7169   9.7233   9.7930   9.8988   9.9415  10.1024  10.1432  10.1549
    10.2299

          k = 0.0000-0.2165 0.0000 (256176 PWs)   bands (ev):

   -20.4790 -18.6102 -16.9115 -15.8551 -15.4459 -15.2301 -14.6393 -14.2256
   -13.9278 -13.8890 -13.8494 -13.8126 -13.3831 -13.3243 -13.2811 -13.2558
   -12.2202 -12.0537 -11.9856 -11.8977 -11.7821 -11.7310 -10.2964 -10.1963
   -10.1646 -10.0344  -9.1153  -9.0276  -8.9064  -8.7424  -8.5710  -8.5404
    -7.9704  -7.8606  -7.7805  -7.7326  -7.1014  -7.0379  -6.9525  -6.6029
    -6.5848  -6.5097  -6.4977  -6.4484  -6.4316  -5.9010  -5.8213  -5.7472
    -5.7324  -5.4849  -5.3385  -5.1646  -5.0439  -4.8714  -4.8061  -4.6975
    -4.6916  -4.6711  -4.6062  -4.6012  -4.4457  -4.3375  -4.3208  -4.2642
    -4.0575  -3.7242  -3.6589  -3.6350  -3.3794  -3.3567  -3.2278  -3.1800
    -3.1667  -3.1654  -3.1524  -3.0934  -3.0052  -2.9540  -2.9192  -2.8941
    -2.8879  -2.7697  -2.7345  -2.7305  -2.6308  -2.6150  -2.5985  -2.5598
    -2.5522  -2.5359  -2.4735  -2.4521  -2.4497  -2.4436  -2.4275  -2.3312
    -2.3311  -2.2843  -2.2697  -2.2530  -2.1911  -2.1493  -2.1401  -2.0584
    -2.0509  -2.0462  -2.0006  -1.9963  -1.9818  -1.9769  -1.8595  -1.8590
    -1.8407  -1.8402  -1.7959  -1.7921  -1.7873  -1.7486  -1.7038  -1.6661
    -1.6439  -1.6337  -1.6291  -1.6111  -1.6096  -1.6029  -1.5948  -1.5912
    -1.5432  -1.5408  -1.5363  -1.5348  -1.5296  -1.5168  -1.3797  -1.3791
    -1.3611  -1.3543  -1.2875  -1.2543  -1.2423  -1.2324  -1.2167  -1.2069
    -1.2028  -1.1891  -1.1778  -1.1678  -1.1630  -1.1579  -1.1555  -1.1535
    -1.1481  -1.1431  -1.1377  -1.1232  -1.1186  -1.1046  -1.0968  -1.0898
    -1.0889  -1.0858  -1.0797  -1.0672  -1.0408  -1.0352  -0.9964  -0.9785
    -0.9684  -0.9653  -0.9620  -0.9564  -0.9481  -0.9368  -0.9303  -0.9279
    -0.9246  -0.8771  -0.8684  -0.8594  -0.8575  -0.8558  -0.8541  -0.8537
    -0.8513  -0.8135  -0.8081  -0.8061  -0.8028  -0.7972  -0.7917  -0.7858
    -0.7775  -0.7635  -0.7591  -0.7422  -0.7204  -0.7146  -0.7102  -0.6987
    -0.6952  -0.6924  -0.6914  -0.6752  -0.6681  -0.6618  -0.6464  -0.6382
    -0.6368  -0.6279  -0.6236  -0.5927  -0.5544  -0.5462  -0.5198  -0.5164
    -0.5136  -0.5123  -0.4931  -0.4908  -0.4880  -0.4865  -0.4863  -0.4841
    -0.4704  -0.4451  -0.4189  -0.4146  -0.4132  -0.4115  -0.4093  -0.4049
    -0.3937  -0.3884  -0.3881  -0.3786  -0.3778  -0.3723  -0.3692  -0.3408
    -0.3401  -0.3377  -0.3359  -0.3279  -0.3272  -0.3240  -0.3155  -0.2864
    -0.2856  -0.2675  -0.2647  -0.2497  -0.2457  -0.2125  -0.2105  -0.1971
    -0.1951  -0.1935  -0.1916  -0.1902  -0.1867  -0.1746  -0.1733  -0.1664
    -0.1553  -0.1470  -0.1412  -0.1388  -0.1368  -0.1331  -0.1302  -0.1287
    -0.1277  -0.1252  -0.1093  -0.0990  -0.0954  -0.0948  -0.0921  -0.0878
    -0.0863  -0.0833  -0.0737  -0.0512  -0.0398  -0.0380  -0.0362  -0.0338
    -0.0311  -0.0285  -0.0271  -0.0196  -0.0139  -0.0083  -0.0048   0.0199
     0.0229   0.0279   0.0301   0.0330   0.0382   0.0406   0.0437   0.0462
     0.0472   0.0601   0.0825   0.0939   0.0987   0.1037   0.1056   0.1115
     0.1173   0.1211   0.1219   0.1360   0.1381   0.1461   0.1501   0.1527
     0.1623   0.1647   0.1695   0.1761   0.1888   0.1931   0.1941   0.1961
     0.2135   0.2176   0.2234   0.2251   0.2277   0.2313   0.2380   0.2444
     0.2458   0.2596   0.2631   0.2695   0.2737   0.2825   0.2996   0.3019
     0.3068   0.3133   0.3217   0.3270   0.3289   0.3320   0.3390   0.3460
     0.3541   0.3893   0.3950   0.3953   0.4037   0.4062   0.4123   0.4390
     0.4586   0.4695   0.4871   0.4986   0.5038   0.5134   0.5159   0.5208
     0.5290   0.5372   0.5407   0.5417   0.5432   0.5438   0.5481   0.5565
     0.5621   0.5772   0.5822   0.5896   0.5927   0.5973   0.6002   0.6033
     0.6054   0.6092   0.6123   0.6143   0.6187   0.6259   0.6277   0.6344
     0.6361   0.6392   0.6395   0.6444   0.6484   0.6501   0.6521   0.6596
     0.6683   0.6708   0.6740   0.6755   0.6835   0.6871   0.6897   0.6925
     0.6933   0.6950   0.7051   0.7062   0.7100   0.7111   0.7192   0.7197
     0.7378   0.7417   0.7483   0.7497   0.7550   0.7648   0.7664   0.7761
     0.7808   0.7866   0.7888   0.7954   0.7978   0.7988   0.7997   0.8024
     0.8048   0.8080   0.8257   0.8300   0.8328   0.8483   0.8536   0.8582
     0.8636   0.8655   0.8696   0.8720   0.8760   0.8813   0.8967   0.9013
     0.9045   0.9056   0.9072   0.9127   0.9428   0.9481   0.9891   0.9922
     1.0072   1.0092   1.0116   1.0153   1.0192   1.0220   1.0256   1.0277
     1.0285   1.0316   1.0330   1.0355   1.0365   1.0415   1.0438   1.0483
     1.0548   1.0635   1.0663   1.0687   1.0691   1.0729   1.0743   1.0802
     1.0811   1.0821   1.0848   1.0864   1.0893   1.0908   1.0921   1.0984
     1.1013   1.1040   1.1056   1.1076   1.1140   1.1148   1.1241   1.1279
     1.1333   1.1380   1.1414   1.1426   1.1469   1.1493   1.1510   1.1535
     1.1554   1.1583   1.1596   1.1655   1.1921   1.1959   1.2016   1.2027
     1.2326   1.2363   1.2364   1.2526   1.2747   1.2764   1.2786   1.2843
     1.2857   1.2950   1.2964   1.3005   1.3024   1.3029   1.3060   1.3076
     1.3117   1.3120   1.3138   1.3160   1.3196   1.3214   1.3231   1.3301
     1.3310   1.3341   1.3370   1.3401   1.3435   1.3451   1.3503   1.3544
     1.3592   1.3630   1.3685   1.3702   1.3756   1.3805   1.3863   1.3872
     1.3956   1.3975   1.3995   1.4053   1.4102   1.4118   1.4142   1.4180
     1.4253   1.4265   1.4343   1.4397   1.4415   1.4425   1.4454   1.4539
     1.4646   1.4728   1.4752   1.4794   1.4823   1.4876   1.4882   1.4902
     1.4915   1.4945   1.4978   1.5047   1.5052   1.5117   1.5133   1.5333
     1.5358   1.5406   1.5438   1.5492   1.5524   1.5530   1.5562   1.5567
     1.5573   1.5653   1.5738   1.5766   1.5867   1.5877   1.5919   1.5950
     1.5976   1.6009   1.6088   1.6124   1.6196   1.6211   1.6231   1.6256
     1.6322   1.6401   1.6628   1.6748   1.6776   1.6786   1.6989   1.7300
     1.7642   1.7685   1.7886   1.7991   1.8629   1.8717   1.8724   1.8737
     1.8758   1.8990   1.9072   1.9257   1.9300   1.9333   1.9361   1.9422
     1.9520   1.9741   2.0302   2.3154   2.3191   2.3701   2.4607   2.4621
     2.5230   2.5312   2.6080   2.6108   2.6381   2.6425   2.6814   2.6922
     2.6963   2.7182   2.7973   2.8069   2.8220   2.8274   2.8900   2.9127
     3.0309   3.0342   3.2736   3.2736   3.2801   3.2839   3.3210   3.3495
     3.6848   3.7822   3.7927   4.0585   4.0618   4.1718   4.1907   4.2652
     4.2945   4.3587   4.3819   4.3914   4.4083   4.4616   4.4797   4.5161
     4.5812   4.6022   4.6745   4.7757   5.2001   5.2066   5.2340   5.2788
     5.3475   5.4446   5.4570   5.4626   5.4706   5.5778   5.5851   5.7358
     5.8762   5.9338   6.0292   6.1359   6.1748   6.3004   6.3334   6.3396
     6.3498   6.4505   6.5058   6.5828   6.6576   6.6865   6.7604   6.8291
     6.8490   6.8917   7.0496   7.0750   7.1136   7.1434   7.1511   7.2209
     7.2235   7.2500   7.2628   7.2913   7.3678   7.4201   7.4301   7.4482
     7.5055   7.7035   7.7563   7.7859   7.9112   7.9232   7.9711   8.0349
     8.1984   8.2077   8.2958   8.2997   8.4600   8.4712   8.4883   8.5016
     8.5365   8.5516   8.5778   8.6629   8.7053   8.7096   8.7718   8.7784
     8.8041   8.8375   8.8545   8.8842   8.9481   8.9622   9.0420   9.0937
     9.1601   9.2053   9.2133   9.2615   9.3247   9.3645   9.3728   9.4003
     9.4096   9.4149   9.4567   9.4729   9.5154   9.5191   9.5644   9.5857
     9.6016   9.6634   9.7815   9.8926   9.9013   9.9184   9.9953  10.0061
    10.0243

          k = 0.2500 0.0000 0.0000 (256240 PWs)   bands (ev):

   -20.4790 -18.6104 -16.8670 -15.6908 -15.4988 -15.2136 -14.7109 -14.5623
   -14.5189 -14.4488 -13.6911 -13.5373 -13.3299 -12.8514 -12.7776 -12.6788
   -12.5803 -11.9679 -11.8476 -11.7323 -11.6557 -10.9314 -10.7498 -10.3737
   -10.2475 -10.0737  -9.8030  -9.5358  -9.5000  -9.0755  -8.8330  -8.7403
    -8.3940  -7.6484  -7.4512  -7.3724  -7.2257  -7.1888  -7.0780  -7.0122
    -6.6782  -6.5559  -5.9634  -5.8291  -5.6968  -5.6598  -5.5687  -5.5088
    -5.4547  -5.3450  -5.1680  -5.1542  -5.1106  -4.9757  -4.5955  -4.5720
    -4.3305  -4.2929  -4.2497  -4.2279  -4.2080  -4.1064  -4.0814  -4.0102
    -3.9073  -3.8624  -3.8522  -3.7943  -3.7007  -3.6977  -3.6112  -3.5196
    -3.4840  -3.3870  -3.3171  -3.3082  -3.2953  -3.1581  -3.1335  -3.1268
    -3.0363  -3.0186  -2.9508  -2.9445  -2.8946  -2.8850  -2.7892  -2.7735
    -2.6701  -2.6674  -2.6458  -2.5940  -2.4830  -2.4516  -2.3868  -2.3385
    -2.2654  -2.2273  -2.1807  -2.1779  -2.0943  -2.0655  -1.9720  -1.9693
    -1.9577  -1.9467  -1.9225  -1.8222  -1.7932  -1.7893  -1.7428  -1.7116
    -1.6830  -1.6797  -1.6775  -1.6751  -1.6742  -1.6712  -1.6521  -1.6430
    -1.6377  -1.6073  -1.5841  -1.5630  -1.5163  -1.5100  -1.4914  -1.4824
    -1.4635  -1.4588  -1.4498  -1.4494  -1.4421  -1.4376  -1.4279  -1.4083
    -1.3945  -1.3851  -1.3835  -1.3791  -1.3708  -1.3587  -1.2715  -1.2354
    -1.2155  -1.2001  -1.1921  -1.1849  -1.1466  -1.1280  -1.1232  -1.1203
    -1.1165  -1.1105  -1.0980  -1.0861  -1.0772  -1.0690  -1.0624  -1.0580
    -1.0532  -1.0525  -1.0288  -1.0184  -1.0117  -1.0092  -0.9914  -0.9889
    -0.9833  -0.9755  -0.9716  -0.9557  -0.9250  -0.9176  -0.9076  -0.9005
    -0.8962  -0.8921  -0.8894  -0.8888  -0.8838  -0.8822  -0.8760  -0.8728
    -0.8717  -0.8666  -0.8593  -0.8571  -0.8526  -0.8494  -0.8459  -0.8416
    -0.8353  -0.8303  -0.8192  -0.7807  -0.7691  -0.7560  -0.7326  -0.7286
    -0.7229  -0.6950  -0.6910  -0.6871  -0.6812  -0.6701  -0.6606  -0.6517
    -0.6486  -0.6353  -0.6251  -0.6242  -0.6203  -0.6124  -0.6003  -0.5987
    -0.5894  -0.4916  -0.4828  -0.4668  -0.4619  -0.4509  -0.4495  -0.4463
    -0.4403  -0.4335  -0.4313  -0.4293  -0.4175  -0.4094  -0.4037  -0.4027
    -0.3974  -0.3823  -0.3777  -0.3694  -0.3667  -0.3628  -0.3606  -0.3552
    -0.3529  -0.3481  -0.3467  -0.3415  -0.3227  -0.2901  -0.2894  -0.2828
    -0.2738  -0.2685  -0.2659  -0.2598  -0.2554  -0.2539  -0.2462  -0.2353
    -0.2321  -0.2266  -0.2240  -0.2186  -0.1900  -0.1844  -0.1821  -0.1743
    -0.1734  -0.1686  -0.1672  -0.1633  -0.1618  -0.1455  -0.1438  -0.1365
    -0.1338  -0.1305  -0.1183  -0.1175  -0.0936  -0.0893  -0.0839  -0.0818
    -0.0787  -0.0737  -0.0685  -0.0593  -0.0585  -0.0524  -0.0489  -0.0474
    -0.0224  -0.0181  -0.0021  -0.0000   0.0027   0.0122   0.0155   0.0299
     0.0414   0.0477   0.0507   0.0669   0.0774   0.0846   0.0887   0.0900
     0.0951   0.0993   0.1049   0.1069   0.1080   0.1124   0.1250   0.1270
     0.1301   0.1315   0.1355   0.1399   0.1452   0.1481   0.1496   0.1529
     0.1596   0.1667   0.1695   0.1734   0.1864   0.2017   0.2032   0.2096
     0.2231   0.2270   0.2307   0.2354   0.2402   0.2470   0.2488   0.2519
     0.2541   0.2637   0.2715   0.2756   0.2837   0.2984   0.3319   0.3429
     0.3576   0.3636   0.3669   0.3789   0.3875   0.3943   0.3972   0.3984
     0.4001   0.4034   0.4046   0.4075   0.4099   0.4127   0.4150   0.4197
     0.4335   0.4356   0.4424   0.4443   0.4477   0.4551   0.4598   0.4749
     0.4786   0.4823   0.4904   0.4932   0.4968   0.5191   0.5285   0.5373
     0.5393   0.5477   0.5569   0.5595   0.5651   0.5676   0.5725   0.5780
     0.5832   0.5866   0.5887   0.5949   0.6014   0.6063   0.6133   0.6147
     0.6152   0.6168   0.6195   0.6212   0.6247   0.6382   0.6465   0.6563
     0.6613   0.6651   0.6678   0.6746   0.6779   0.6801   0.6851   0.6887
     0.6896   0.6962   0.7057   0.7089   0.7108   0.7175   0.7239   0.7295
     0.7367   0.7429   0.7442   0.7462   0.7477   0.7534   0.7603   0.7650
     0.7664   0.7694   0.7747   0.7798   0.7838   0.8102   0.8145   0.8173
     0.8234   0.8391   0.8489   0.8535   0.8574   0.8586   0.8624   0.8714
     0.8731   0.8783   0.8802   0.8850   0.8895   0.8968   0.8986   0.9009
     0.9034   0.9352   0.9405   0.9430   0.9509   0.9570   0.9609   0.9647
     0.9670   0.9715   0.9881   0.9896   0.9913   0.9949   0.9962   0.9980
     1.0012   1.0043   1.0096   1.0134   1.0165   1.0191   1.0228   1.0246
     1.0395   1.0489   1.0528   1.0661   1.0694   1.0788   1.0808   1.0950
     1.0971   1.1021   1.1072   1.1112   1.1130   1.1215   1.1227   1.1250
     1.1266   1.1274   1.1301   1.1343   1.1373   1.1422   1.1496   1.1527
     1.1551   1.1583   1.1618   1.1657   1.1681   1.1714   1.1758   1.1801
     1.1825   1.1850   1.1925   1.1954   1.1980   1.1995   1.2046   1.2123
     1.2181   1.2217   1.2247   1.2268   1.2306   1.2323   1.2345   1.2358
     1.2379   1.2409   1.2478   1.2518   1.2576   1.2669   1.2688   1.2787
     1.2826   1.2974   1.2993   1.3018   1.3036   1.3079   1.3197   1.3273
     1.3324   1.3348   1.3435   1.3578   1.3592   1.3617   1.3628   1.3657
     1.3682   1.3694   1.3715   1.3813   1.3825   1.3887   1.3940   1.3956
     1.3973   1.4009   1.4076   1.4098   1.4124   1.4158   1.4173   1.4194
     1.4239   1.4274   1.4296   1.4334   1.4354   1.4394   1.4470   1.4504
     1.4541   1.4569   1.4584   1.4630   1.4705   1.4763   1.4836   1.4878
     1.4896   1.4966   1.5081   1.5150   1.5206   1.5225   1.5240   1.5265
     1.5287   1.5322   1.5366   1.5375   1.5405   1.5415   1.5435   1.5481
     1.5529   1.5550   1.5588   1.5596   1.5637   1.5675   1.5742   1.5772
     1.5823   1.5862   1.5882   1.5902   1.5942   1.5967   1.6005   1.6058
     1.6090   1.6104   1.6165   1.6286   1.6309   1.6425   1.6525   1.6686
     1.6788   1.6916   1.7018   1.7273   1.7296   1.7335   1.7447   1.7546
     1.7742   1.8303   1.8444   1.8734   1.8816   1.9157   1.9334   1.9411
     2.0777   2.1396   2.1405   2.1442   2.1521   2.1797   2.1939   2.2589
     2.2769   2.3037   2.3890   2.6536   2.6665   2.6684   2.6985   3.0469
     3.0850   3.0860   3.2890   3.3062   3.3091   3.3246   3.3252   3.3443
     3.3872   3.5280   3.5466   3.6334   3.6965   3.7328   3.7562   3.7817
     3.7967   3.8057   3.8746   3.8895   3.9379   3.9657   4.0324   4.0617
     4.1374   4.2665   4.3796   4.3950   4.4100   4.6006   4.6918   4.7547
     4.8783   4.9205   4.9389   5.0061   5.1676   5.3120   5.3188   5.3461
     5.3719   5.4664   5.5024   5.5334   5.5500   5.5828   5.5945   5.6254
     5.6403   5.7025   5.7385   5.7562   5.7761   5.9248   5.9500   6.0932
     6.1098   6.1187   6.1360   6.1541   6.2935   6.4829   6.7087   6.7500
     6.7861   6.8146   6.8471   6.8681   6.9281   6.9879   7.0169   7.0858
     7.1197   7.1396   7.1685   7.1753   7.2097   7.2178   7.2514   7.3507
     7.3788   7.4171   7.5997   7.6276   7.6641   7.7046   7.7301   7.7727
     7.8370   7.9875   8.0858   8.1111   8.1647   8.1936   8.2161   8.2473
     8.2624   8.3233   8.3411   8.3713   8.3845   8.4669   8.5269   8.5383
     8.6090   8.7073   8.7310   8.8042   9.0445   9.0498   9.0525   9.0685
     9.0942   9.1812   9.2187   9.2267   9.2385   9.3020   9.3241   9.3545
     9.3819   9.4005   9.5062   9.5278   9.5376   9.5797   9.6010   9.6585
     9.6976   9.7219   9.8003   9.8078   9.8193   9.8966   9.9107   9.9226
     9.9433

          k = 0.2500-0.2165 0.0000 (256316 PWs)   bands (ev):

   -20.4790 -18.6104 -16.8668 -15.7312 -15.4188 -15.1128 -15.0006 -14.7420
   -14.2686 -14.1346 -13.8460 -13.7130 -13.2833 -12.8492 -12.8158 -12.7525
   -12.3204 -12.2287 -11.8072 -11.6828 -11.1115 -11.0230 -10.9243 -10.7757
   -10.5334 -10.1778  -9.4279  -9.3584  -9.0569  -8.9947  -8.7677  -8.7009
    -8.3094  -8.2324  -8.0842  -8.0287  -7.0763  -6.8498  -6.6628  -6.4719
    -6.3028  -6.2192  -6.1020  -6.0052  -5.9534  -5.7838  -5.7590  -5.5705
    -5.5609  -5.4575  -5.3347  -5.0380  -4.8659  -4.7193  -4.6072  -4.5386
    -4.5280  -4.5039  -4.4365  -4.2853  -4.2151  -4.2063  -4.1861  -4.1042
    -3.9194  -3.8643  -3.8109  -3.7612  -3.6382  -3.5241  -3.4997  -3.4040
    -3.3248  -3.3174  -3.2644  -3.2601  -3.2428  -3.2040  -3.1200  -3.0602
    -2.9975  -2.9821  -2.9395  -2.8600  -2.7938  -2.7797  -2.7722  -2.7685
    -2.7673  -2.7158  -2.6708  -2.6373  -2.5616  -2.5535  -2.4227  -2.3836
    -2.1875  -2.1847  -2.1708  -2.1209  -2.0886  -2.0462  -2.0437  -2.0232
    -2.0140  -1.9968  -1.8874  -1.8819  -1.8792  -1.8665  -1.8165  -1.7451
    -1.7254  -1.7120  -1.6892  -1.6879  -1.6766  -1.6347  -1.6176  -1.5930
    -1.5863  -1.5856  -1.5801  -1.5718  -1.5570  -1.5526  -1.5502  -1.5492
    -1.5463  -1.5443  -1.5392  -1.5185  -1.4943  -1.4671  -1.4495  -1.3895
    -1.3585  -1.3424  -1.3347  -1.2758  -1.2615  -1.2133  -1.2040  -1.1743
    -1.1676  -1.1587  -1.1477  -1.1459  -1.1419  -1.1373  -1.1279  -1.1223
    -1.1193  -1.1174  -1.1148  -1.1075  -1.1020  -1.0947  -1.0861  -1.0816
    -1.0788  -1.0578  -1.0500  -1.0487  -1.0428  -1.0218  -1.0136  -1.0095
    -0.9975  -0.9949  -0.9894  -0.9859  -0.9786  -0.9452  -0.9377  -0.9180
    -0.9172  -0.9037  -0.8919  -0.8828  -0.8791  -0.8761  -0.8616  -0.8541
    -0.8509  -0.8419  -0.8385  -0.8371  -0.8327  -0.8307  -0.8230  -0.8160
    -0.8026  -0.7987  -0.7957  -0.7881  -0.7694  -0.7514  -0.7409  -0.7363
    -0.7215  -0.6783  -0.6692  -0.6577  -0.6411  -0.6375  -0.6340  -0.6328
    -0.6114  -0.6015  -0.5959  -0.5891  -0.5873  -0.5851  -0.5785  -0.5728
    -0.5651  -0.5631  -0.5200  -0.5154  -0.4945  -0.4923  -0.4809  -0.4747
    -0.4549  -0.4499  -0.4468  -0.4385  -0.4265  -0.4237  -0.4138  -0.4057
    -0.3863  -0.3829  -0.3756  -0.3737  -0.3731  -0.3616  -0.3564  -0.3420
    -0.3252  -0.3089  -0.3071  -0.3023  -0.2921  -0.2893  -0.2812  -0.2785
    -0.2771  -0.2720  -0.2648  -0.2604  -0.2520  -0.2487  -0.2478  -0.2448
    -0.2360  -0.2289  -0.2236  -0.2204  -0.2120  -0.2062  -0.2003  -0.1954
    -0.1939  -0.1880  -0.1760  -0.1725  -0.1654  -0.1598  -0.1514  -0.1479
    -0.1303  -0.1285  -0.1239  -0.1220  -0.1174  -0.1105  -0.0977  -0.0823
    -0.0717  -0.0660  -0.0619  -0.0596  -0.0483  -0.0202  -0.0136   0.0067
     0.0081   0.0119   0.0142   0.0215   0.0258   0.0312   0.0377   0.0420
     0.0459   0.0483   0.0548   0.0597   0.0711   0.0764   0.0856   0.0877
     0.0921   0.0987   0.1034   0.1059   0.1099   0.1107   0.1116   0.1133
     0.1172   0.1232   0.1261   0.1297   0.1326   0.1361   0.1416   0.1439
     0.1499   0.1547   0.1727   0.1810   0.1866   0.1874   0.1955   0.1985
     0.2154   0.2174   0.2352   0.2420   0.2461   0.2530   0.2571   0.2615
     0.2718   0.2756   0.2770   0.2797   0.2849   0.2888   0.2927   0.2957
     0.3062   0.3279   0.3477   0.3566   0.3606   0.3715   0.3860   0.3918
     0.3939   0.3992   0.4052   0.4132   0.4141   0.4171   0.4281   0.4317
     0.4328   0.4385   0.4432   0.4458   0.4511   0.4544   0.4554   0.4585
     0.4840   0.4848   0.4934   0.4948   0.5048   0.5101   0.5123   0.5193
     0.5262   0.5286   0.5421   0.5484   0.5550   0.5593   0.5656   0.5724
     0.5741   0.5836   0.5902   0.5953   0.5988   0.6074   0.6101   0.6131
     0.6178   0.6214   0.6240   0.6323   0.6414   0.6461   0.6503   0.6571
     0.6925   0.6939   0.6965   0.6999   0.7074   0.7109   0.7174   0.7256
     0.7266   0.7286   0.7305   0.7319   0.7362   0.7426   0.7483   0.7590
     0.7625   0.7683   0.7695   0.7719   0.7770   0.7817   0.7832   0.7879
     0.7896   0.7911   0.7950   0.7997   0.8044   0.8059   0.8092   0.8135
     0.8173   0.8211   0.8224   0.8247   0.8293   0.8354   0.8398   0.8452
     0.8558   0.8632   0.8671   0.8693   0.8698   0.8777   0.9089   0.9123
     0.9188   0.9239   0.9337   0.9358   0.9383   0.9445   0.9487   0.9529
     0.9549   0.9567   0.9574   0.9644   0.9682   0.9707   0.9728   0.9744
     0.9776   0.9826   0.9953   0.9996   1.0024   1.0150   1.0174   1.0208
     1.0250   1.0326   1.0340   1.0363   1.0430   1.0476   1.0500   1.0598
     1.0674   1.0697   1.0781   1.0812   1.0840   1.0911   1.1079   1.1144
     1.1224   1.1260   1.1289   1.1359   1.1582   1.1629   1.1695   1.1799
     1.1899   1.1909   1.1953   1.1965   1.1998   1.2006   1.2037   1.2054
     1.2071   1.2098   1.2110   1.2127   1.2151   1.2160   1.2203   1.2256
     1.2319   1.2348   1.2399   1.2519   1.2556   1.2563   1.2608   1.2691
     1.2721   1.2747   1.2797   1.2824   1.2854   1.2884   1.2904   1.2942
     1.2977   1.3009   1.3066   1.3080   1.3117   1.3139   1.3157   1.3213
     1.3272   1.3299   1.3337   1.3357   1.3369   1.3382   1.3400   1.3485
     1.3510   1.3553   1.3576   1.3686   1.3705   1.3750   1.3762   1.3849
     1.3871   1.3948   1.3978   1.4072   1.4147   1.4185   1.4196   1.4225
     1.4337   1.4362   1.4400   1.4434   1.4442   1.4477   1.4534   1.4556
     1.4618   1.4657   1.4703   1.4719   1.4785   1.4807   1.4813   1.4870
     1.4901   1.4939   1.4962   1.4991   1.5081   1.5157   1.5182   1.5208
     1.5215   1.5239   1.5247   1.5280   1.5297   1.5336   1.5390   1.5410
     1.5447   1.5478   1.5500   1.5571   1.5589   1.5607   1.5643   1.5670
     1.5738   1.5786   1.5799   1.5863   1.5892   1.5999   1.6094   1.6126
     1.6149   1.6217   1.6275   1.6378   1.6471   1.6543   1.6553   1.6681
     1.6742   1.6879   1.6973   1.7366   1.7498   1.7612   1.7883   1.8268
     1.8372   1.8453   1.8505   1.8547   1.8604   1.8731   1.8771   1.8851
     1.8954   1.9647   2.0496   2.0830   2.2322   2.2347   2.2640   2.2673
     2.3565   2.4263   2.6885   2.6916   2.8372   2.8407   2.8760   2.8842
     2.8920   2.8958   2.9309   2.9419   3.0711   3.0874   3.0973   3.1846
     3.4969   3.5636   3.5793   3.6257   3.6447   3.7188   3.8863   3.9413
     3.9431   3.9613   3.9898   4.0969   4.1058   4.1866   4.2147   4.2703
     4.2727   4.4800   4.4840   4.5479   4.5983   4.6222   4.6786   4.7611
     4.7739   4.8060   4.8735   4.9130   4.9229   4.9804   5.0725   5.1136
     5.1757   5.2085   5.3306   5.4074   5.4121   5.4701   5.5318   5.5531
     5.5959   5.6838   5.7266   5.8559   5.8772   5.8963   5.9201   6.0631
     6.1765   6.2065   6.2848   6.5082   6.5438   6.6014   6.6871   6.7142
     6.7981   6.8157   6.8715   6.9024   6.9353   7.0320   7.0588   7.0880
     7.1414   7.2370   7.2646   7.2958   7.3237   7.3511   7.3776   7.4345
     7.4632   7.4866   7.5198   7.5435   7.6161   7.6286   7.6546   7.8109
     7.8435   7.8633   7.9073   7.9226   8.0374   8.2004   8.2197   8.3010
     8.3605   8.4147   8.4862   8.5445   8.6341   8.6420   8.6580   8.6719
     8.6947   8.7173   8.7739   8.7993   8.8605   8.8660   8.9321   8.9443
     8.9878   9.0578   9.1298   9.1790   9.2230   9.2309   9.2439   9.2805
     9.2987   9.3275   9.3435   9.3864   9.4175   9.4678   9.4764   9.4962
     9.5207   9.5704   9.6074   9.6497   9.6891   9.7101   9.9362   9.9969
    10.0165

          k =-0.5000 0.0000 0.0000 (256496 PWs)   bands (ev):

   -20.4789 -18.6105 -16.8152 -15.5407 -15.3066 -15.1831 -15.1672 -15.0845
   -14.3939 -14.2060 -14.0889 -14.0486 -12.8295 -12.5394 -12.3875 -12.3123
   -12.0288 -11.9790 -11.4754 -11.4560 -11.3380 -11.3282 -10.8219 -10.7832
   -10.7047 -10.4862  -9.8978  -9.8938  -9.6648  -9.3194  -8.7888  -8.7669
    -8.5864  -8.5648  -7.4985  -7.3582  -7.2885  -7.1247  -7.0514  -7.0264
    -7.0162  -5.8796  -5.8392  -5.4500  -5.4354  -5.3399  -5.1635  -5.1495
    -4.8873  -4.7638  -4.6702  -4.6618  -4.6522  -4.6494  -4.5163  -4.5007
    -4.4211  -4.3642  -4.3412  -4.3046  -4.2783  -4.2537  -4.2056  -4.2025
    -4.0988  -4.0834  -4.0505  -4.0445  -3.6690  -3.6603  -3.6409  -3.6320
    -3.5504  -3.4775  -3.3791  -3.2921  -3.2884  -3.2826  -3.2792  -3.2750
    -3.2288  -3.1420  -3.1158  -3.0887  -3.0484  -3.0415  -3.0325  -2.9849
    -2.5782  -2.5587  -2.5415  -2.5394  -2.5209  -2.5152  -2.5069  -2.5008
    -2.4842  -2.4441  -2.2758  -2.2511  -2.2372  -2.2273  -2.1372  -2.0234
    -1.9166  -1.9082  -1.7585  -1.7575  -1.7536  -1.7524  -1.7503  -1.7487
    -1.6696  -1.6678  -1.6658  -1.6438  -1.5400  -1.5293  -1.5286  -1.5228
    -1.5208  -1.5055  -1.4830  -1.4801  -1.4769  -1.4737  -1.4150  -1.3980
    -1.3828  -1.3689  -1.3664  -1.3397  -1.3031  -1.2989  -1.2937  -1.2908
    -1.2886  -1.2676  -1.2495  -1.2375  -1.2362  -1.2310  -1.2284  -1.2246
    -1.2201  -1.2121  -1.2095  -1.2050  -1.2004  -1.1971  -1.1816  -1.1800
    -1.1770  -1.1668  -1.1552  -1.1515  -1.1439  -1.1410  -1.1398  -1.0909
    -1.0900  -1.0819  -1.0664  -1.0601  -1.0559  -1.0529  -1.0508  -1.0461
    -1.0354  -1.0234  -1.0133  -1.0049  -0.9937  -0.9882  -0.9869  -0.9836
    -0.9775  -0.9575  -0.9569  -0.9432  -0.9390  -0.9193  -0.8830  -0.8735
    -0.8660  -0.8619  -0.8574  -0.8525  -0.8444  -0.8420  -0.8397  -0.8365
    -0.8203  -0.8060  -0.8054  -0.8035  -0.8027  -0.7971  -0.7932  -0.7920
    -0.7762  -0.7678  -0.7643  -0.7352  -0.7210  -0.7110  -0.7066  -0.6977
    -0.6945  -0.6713  -0.6695  -0.5930  -0.5904  -0.5891  -0.5874  -0.5481
    -0.5469  -0.5457  -0.5446  -0.5403  -0.5374  -0.5036  -0.4964  -0.4947
    -0.4868  -0.4834  -0.4818  -0.4807  -0.4796  -0.4765  -0.4680  -0.4588
    -0.4549  -0.4512  -0.4446  -0.3372  -0.3360  -0.3185  -0.3166  -0.3091
    -0.3070  -0.3031  -0.2961  -0.2952  -0.2924  -0.2907  -0.2889  -0.2845
    -0.2710  -0.2567  -0.2542  -0.2521  -0.2455  -0.2189  -0.2142  -0.2093
    -0.2074  -0.2059  -0.2000  -0.1908  -0.1874  -0.1811  -0.1808  -0.1782
    -0.1769  -0.1698  -0.1680  -0.1650  -0.1535  -0.1375  -0.1332  -0.1267
    -0.1263  -0.0934  -0.0922  -0.0897  -0.0887  -0.0635  -0.0380  -0.0328
    -0.0322  -0.0317  -0.0272  -0.0206  -0.0167  -0.0083  -0.0053   0.0188
     0.0257   0.0273   0.0339   0.0365   0.0592   0.0713   0.0717   0.0736
     0.0838   0.0870   0.0890   0.0909   0.0966   0.0989   0.0998   0.1016
     0.1056   0.1078   0.1510   0.1653   0.1750   0.1767   0.1818   0.1828
     0.1866   0.1904   0.1915   0.1941   0.1957   0.1980   0.2005   0.2013
     0.2022   0.2031   0.2052   0.2067   0.2096   0.2181   0.2186   0.2293
     0.2321   0.2335   0.2354   0.2378   0.2401   0.2417   0.2430   0.2477
     0.2522   0.2600   0.2663   0.2698   0.2740   0.2763   0.2804   0.3022
     0.3041   0.3057   0.3094   0.3615   0.3641   0.3835   0.3859   0.4067
     0.4102   0.4131   0.4158   0.4185   0.4264   0.4346   0.4423   0.4464
     0.4474   0.4538   0.4580   0.4660   0.4736   0.4812   0.4829   0.4843
     0.4952   0.4955   0.4971   0.4989   0.5006   0.5047   0.5098   0.5110
     0.5134   0.5160   0.5195   0.5224   0.5277   0.5740   0.5948   0.6004
     0.6049   0.6076   0.6188   0.6222   0.6227   0.6308   0.6360   0.6425
     0.6448   0.6465   0.6477   0.6496   0.6515   0.6528   0.6532   0.6572
     0.6624   0.6637   0.6681   0.6694   0.6723   0.6761   0.6794   0.6810
     0.6821   0.6872   0.7047   0.7068   0.7111   0.7152   0.7332   0.7358
     0.7379   0.7429   0.7454   0.7497   0.7527   0.7554   0.7578   0.7596
     0.7628   0.7651   0.7678   0.7704   0.7717   0.7761   0.7811   0.7858
     0.7901   0.7989   0.8076   0.8160   0.8273   0.8291   0.8364   0.8392
     0.8444   0.8466   0.8486   0.8523   0.8683   0.8777   0.8868   0.8891
     0.8941   0.9122   0.9210   0.9281   0.9325   0.9371   0.9375   0.9401
     0.9406   0.9440   0.9470   0.9489   0.9540   0.9567   0.9582   0.9662
     0.9677   0.9739   0.9785   0.9811   0.9849   0.9884   0.9971   0.9992
     1.0014   1.0037   1.0136   1.0181   1.0203   1.0254   1.0267   1.0287
     1.0385   1.0415   1.0434   1.0526   1.0555   1.0591   1.1182   1.1213
     1.1222   1.1240   1.1270   1.1326   1.1435   1.1475   1.1638   1.1682
     1.1735   1.1746   1.1786   1.1838   1.1873   1.1892   1.1980   1.2044
     1.2155   1.2178   1.2201   1.2209   1.2244   1.2254   1.2286   1.2299
     1.2335   1.2368   1.2408   1.2431   1.2465   1.2484   1.2500   1.2537
     1.2580   1.2616   1.2653   1.2680   1.2751   1.2787   1.2795   1.2821
     1.2878   1.2924   1.3073   1.3144   1.3170   1.3203   1.3246   1.3296
     1.3319   1.3351   1.3386   1.3419   1.3439   1.3455   1.3478   1.3480
     1.3485   1.3555   1.3570   1.3639   1.3657   1.3714   1.3971   1.4026
     1.4047   1.4063   1.4075   1.4086   1.4106   1.4134   1.4187   1.4190
     1.4194   1.4228   1.4273   1.4290   1.4342   1.4372   1.4389   1.4399
     1.4419   1.4443   1.4486   1.4489   1.4540   1.4554   1.4578   1.4598
     1.4603   1.4641   1.4689   1.4719   1.4757   1.4813   1.4907   1.5019
     1.5067   1.5097   1.5108   1.5142   1.5173   1.5188   1.5203   1.5216
     1.5279   1.5360   1.5413   1.5427   1.5455   1.5494   1.5507   1.5516
     1.5552   1.5597   1.5664   1.5704   1.5785   1.5849   1.5924   1.5934
     1.5953   1.5979   1.6023   1.6054   1.6121   1.6156   1.6161   1.6170
     1.6194   1.6314   1.6378   1.6445   1.6508   1.6567   1.6760   1.6831
     1.7015   1.7065   1.7119   1.7135   1.7292   1.7688   2.0972   2.1017
     2.1328   2.1391   2.3008   2.3159   2.3434   2.3543   2.3974   2.3987
     2.3996   2.4029   2.6248   2.6372   2.7115   2.7423   2.9307   2.9337
     2.9422   2.9546   3.2913   3.2957   3.3043   3.3058   3.5654   3.5772
     3.5851   3.7747   3.7860   3.8283   3.8724   3.9883   4.0041   4.0293
     4.0490   4.1342   4.1751   4.1762   4.1905   4.2276   4.2423   4.6443
     4.6534   4.6995   4.7544   4.7973   4.8092   4.9090   4.9349   4.9385
     4.9498   4.9851   5.1109   5.1184   5.1238   5.1289   5.1387   5.1465
     5.1510   5.1550   5.1732   5.1790   5.2366   5.3767   5.4323   5.5255
     5.5430   5.5499   5.5766   5.6037   5.6489   5.6680   5.6860   5.9660
     6.0090   6.0285   6.0544   6.0701   6.0847   6.0932   6.1190   6.1235
     6.1974   6.2830   6.2922   6.3434   6.4167   6.5772   6.7081   6.7492
     6.8022   6.8646   7.1332   7.1419   7.1485   7.1762   7.2616   7.2956
     7.6130   7.6473   7.6618   7.6770   7.6786   7.6823   7.7310   7.7820
     7.8915   7.9073   7.9515   7.9540   7.9975   8.0139   8.0379   8.0550
     8.0868   8.1010   8.1064   8.1618   8.2460   8.2507   8.5009   8.6647
     8.6990   8.7376   8.7576   8.7630   8.8811   8.8845   8.8953   8.9063
     9.0358   9.0502   9.0935   9.0991   9.1059   9.1898   9.2838   9.3663
     9.4030   9.4539   9.4946   9.5092   9.5417   9.5462   9.5486   9.5508
     9.5573   9.5779   9.5928   9.6122   9.6894   9.7176   9.8460   9.8714
     9.9795

          k =-0.5000-0.2165 0.0000 (256328 PWs)   bands (ev):

   -20.4789 -18.6105 -16.8151 -15.5063 -15.3728 -15.3475 -14.9365 -14.7983
   -14.7064 -14.6688 -13.6612 -13.4474 -13.3027 -13.2624 -12.2662 -12.0019
   -11.6037 -11.5447 -11.5276 -11.3971 -11.3182 -11.2488 -11.1076 -11.0968
   -10.9881 -10.9742  -9.6486  -9.6058  -9.3716  -9.3272  -8.8934  -8.5499
    -8.4386  -8.3984  -7.9192  -7.8970  -7.6888  -7.6720  -7.0437  -6.2251
    -5.9172  -5.8323  -5.6528  -5.5258  -5.4379  -5.3436  -5.2679  -5.0448
    -5.0399  -5.0284  -5.0239  -5.0168  -4.9466  -4.9419  -4.7352  -4.5532
    -4.5303  -4.2982  -4.0827  -4.0606  -4.0544  -4.0530  -4.0512  -4.0076
    -4.0047  -3.9544  -3.9451  -3.9270  -3.8561  -3.7820  -3.7293  -3.5584
    -3.5253  -3.5056  -3.5014  -3.3717  -3.3672  -3.3578  -3.3238  -3.3109
    -3.2908  -3.2175  -3.1238  -3.1176  -3.1104  -3.1054  -2.7841  -2.7197
    -2.6409  -2.6198  -2.4591  -2.4571  -2.4515  -2.4479  -2.4452  -2.4385
    -2.4164  -2.3635  -2.3500  -2.2637  -2.1306  -2.0752  -1.9532  -1.9500
    -1.9485  -1.9471  -1.9433  -1.9330  -1.9250  -1.8739  -1.8118  -1.7457
    -1.7244  -1.6809  -1.6801  -1.6775  -1.6736  -1.6670  -1.6021  -1.4744
    -1.4709  -1.4645  -1.4488  -1.4026  -1.3784  -1.3780  -1.3732  -1.3710
    -1.3694  -1.3664  -1.3336  -1.3294  -1.3176  -1.3066  -1.3066  -1.2923
    -1.2902  -1.2684  -1.2656  -1.2608  -1.2550  -1.2528  -1.2493  -1.2485
    -1.2464  -1.2380  -1.2370  -1.2356  -1.2319  -1.1899  -1.1885  -1.1624
    -1.1550  -1.1470  -1.1407  -1.1115  -1.1017  -1.0865  -1.0832  -1.0667
    -1.0617  -1.0529  -1.0521  -1.0409  -1.0378  -1.0306  -1.0245  -1.0203
    -1.0171  -1.0148  -1.0079  -1.0050  -0.9983  -0.9966  -0.9941  -0.9914
    -0.9744  -0.9700  -0.9515  -0.9480  -0.9441  -0.9389  -0.9366  -0.9316
    -0.9236  -0.9216  -0.9129  -0.9107  -0.9090  -0.9079  -0.9021  -0.8942
    -0.8097  -0.7757  -0.7656  -0.7541  -0.7489  -0.7478  -0.7450  -0.7421
    -0.7370  -0.7327  -0.7313  -0.7251  -0.6631  -0.6604  -0.6569  -0.6527
    -0.6487  -0.6445  -0.6374  -0.6339  -0.6337  -0.6311  -0.6257  -0.6177
    -0.5834  -0.5793  -0.5785  -0.5776  -0.5632  -0.5580  -0.5555  -0.5536
    -0.5499  -0.5451  -0.5157  -0.5136  -0.4395  -0.4351  -0.4315  -0.4243
    -0.4183  -0.4171  -0.4164  -0.4011  -0.3789  -0.3748  -0.3731  -0.3726
    -0.3310  -0.3300  -0.3281  -0.3243  -0.3115  -0.3073  -0.3054  -0.3019
    -0.2804  -0.2792  -0.2709  -0.2687  -0.2598  -0.2541  -0.2469  -0.2390
    -0.2148  -0.2032  -0.1874  -0.1795  -0.1713  -0.1683  -0.1573  -0.1534
    -0.1488  -0.1396  -0.1392  -0.1341  -0.1337  -0.1234  -0.1206  -0.1157
    -0.1051  -0.0634  -0.0591  -0.0568  -0.0537  -0.0479  -0.0472  -0.0457
    -0.0442  -0.0339  -0.0315  -0.0268  -0.0255  -0.0113  -0.0096  -0.0069
    -0.0048   0.0112   0.0146   0.0188   0.0210   0.0247   0.0268   0.0279
     0.0296   0.0796   0.0865   0.0875   0.0926   0.0947   0.1082   0.1440
     0.1509   0.1533   0.1624   0.1658   0.1685   0.1686   0.1704   0.1753
     0.1823   0.1849   0.1891   0.1980   0.2018   0.2065   0.2088   0.2136
     0.2166   0.2175   0.2196   0.2220   0.2263   0.2281   0.2302   0.2315
     0.2319   0.2335   0.2352   0.2364   0.2440   0.2609   0.2630   0.2679
     0.2753   0.2858   0.2877   0.2897   0.2945   0.3135   0.3182   0.3188
     0.3209   0.3304   0.3310   0.3493   0.3511   0.3595   0.3629   0.3647
     0.3672   0.4033   0.4189   0.4308   0.4337   0.4388   0.4430   0.4544
     0.4560   0.4686   0.4710   0.4804   0.4838   0.4909   0.4948   0.5084
     0.5091   0.5122   0.5138   0.5183   0.5207   0.5441   0.5561   0.5668
     0.5711   0.5726   0.5735   0.5765   0.5771   0.5785   0.5805   0.5813
     0.5830   0.5868   0.5935   0.6015   0.6067   0.6098   0.6139   0.6177
     0.6211   0.6249   0.6271   0.6313   0.6504   0.6524   0.6577   0.6620
     0.6670   0.6716   0.6758   0.6797   0.6854   0.6899   0.6915   0.6922
     0.6942   0.6982   0.7051   0.7072   0.7177   0.7190   0.7210   0.7257
     0.7314   0.7358   0.7374   0.7395   0.7423   0.7450   0.7498   0.7597
     0.7669   0.7803   0.7833   0.7868   0.7911   0.7921   0.7986   0.8014
     0.8061   0.8085   0.8172   0.8240   0.8318   0.8364   0.8372   0.8400
     0.8420   0.8447   0.8503   0.8516   0.8560   0.8606   0.8644   0.8679
     0.8800   0.8903   0.8917   0.8954   0.9047   0.9189   0.9196   0.9278
     0.9322   0.9508   0.9548   0.9609   0.9613   0.9697   0.9710   0.9765
     0.9772   0.9804   0.9807   0.9842   0.9908   1.0258   1.0297   1.0378
     1.0391   1.0412   1.0435   1.0467   1.0599   1.0781   1.0853   1.0879
     1.1005   1.1011   1.1052   1.1111   1.1160   1.1212   1.1230   1.1259
     1.1369   1.1420   1.1428   1.1458   1.1467   1.1470   1.1481   1.1498
     1.1524   1.1537   1.1567   1.1584   1.1612   1.1647   1.1664   1.1724
     1.1756   1.1793   1.1833   1.1876   1.1929   1.1940   1.1997   1.2030
     1.2040   1.2149   1.2164   1.2193   1.2206   1.2276   1.2293   1.2313
     1.2400   1.2443   1.2464   1.2478   1.2516   1.2535   1.2558   1.2679
     1.2928   1.3028   1.3037   1.3051   1.3082   1.3134   1.3152   1.3183
     1.3206   1.3212   1.3239   1.3271   1.3312   1.3319   1.3347   1.3348
     1.3379   1.3447   1.3591   1.3741   1.3826   1.3845   1.3857   1.3874
     1.3884   1.3905   1.3909   1.3939   1.3943   1.3987   1.4029   1.4052
     1.4364   1.4379   1.4422   1.4481   1.4562   1.4567   1.4602   1.4605
     1.4616   1.4637   1.4649   1.4658   1.4683   1.4697   1.4710   1.4743
     1.4760   1.4789   1.4825   1.4851   1.4860   1.4923   1.4945   1.4963
     1.4967   1.4989   1.5011   1.5039   1.5087   1.5095   1.5133   1.5164
     1.5232   1.5242   1.5366   1.5421   1.5486   1.5501   1.5527   1.5531
     1.5548   1.5646   1.5662   1.5741   1.5841   1.5907   1.5985   1.6001
     1.6046   1.6076   1.6094   1.6154   1.6369   1.6409   1.6443   1.6586
     1.6749   1.6771   1.6806   1.6821   1.6862   1.6897   1.6988   1.7047
     1.7111   1.7200   1.7252   1.7269   1.7281   1.7314   1.7660   1.8062
     1.9346   1.9411   1.9457   1.9585   2.3461   2.3492   2.4335   2.4720
     2.6573   2.6582   2.6814   2.6880   2.8576   2.8672   2.8840   2.8967
     3.1090   3.1191   3.1506   3.1972   3.5623   3.5636   3.5652   3.5701
     3.7091   3.7150   3.7346   3.7793   3.7972   4.0391   4.0421   4.0468
     4.0514   4.2406   4.2442   4.3153   4.3303   4.3346   4.3375   4.3484
     4.4152   4.5905   4.6077   4.6484   4.6664   4.7705   4.7837   4.8017
     4.8123   5.0172   5.0518   5.1349   5.1370   5.1686   5.2160   5.2202
     5.2341   5.2525   5.2909   5.3042   5.3163   5.3252   5.3470   5.3697
     5.4517   5.4716   5.5141   5.5476   5.6252   5.6990   5.7012   5.7858
     5.8179   5.8364   5.8493   5.8515   5.8718   5.8964   5.9902   5.9952
     6.3327   6.5411   6.7849   6.7884   7.0239   7.0358   7.1061   7.1091
     7.1457   7.1688   7.1779   7.1856   7.2035   7.2216   7.2265   7.2681
     7.3331   7.3420   7.4486   7.4702   7.4850   7.4887   7.5554   7.5653
     7.7148   7.7476   7.8773   7.9644   7.9905   8.0607   8.1642   8.1974
     8.2454   8.2887   8.3013   8.3466   8.3737   8.4162   8.4188   8.4325
     8.5660   8.6419   8.9224   8.9360   8.9394   8.9478   9.0004   9.0050
     9.0164   9.0369   9.0566   9.0861   9.1191   9.1373   9.1641   9.1658
     9.1904   9.1986   9.3306   9.3713   9.3779   9.3908   9.4753   9.4860
     9.5083   9.5203   9.5502   9.6282   9.7860   9.8038   9.8562   9.9224
    10.0338

     the Fermi energy is     3.4232 ev

!    total energy              =  -12782.04206182 Ry
     Harris-Foulkes estimate   =  -12782.04206180 Ry
     estimated scf accuracy    <          4.8E-09 Ry

     The total energy is the sum of the following terms:

     one-electron contribution = -100644.39697205 Ry
     hartree contribution      =   51697.12355255 Ry
     xc contribution           =   -4463.85136131 Ry
     ewald contribution        =   40635.29100977 Ry
     Dispersion Correction     =      -2.81437964 Ry
     smearing contrib. (-TS)   =      -3.39391114 Ry

     convergence has been achieved in  45 iterations

     Writing output data file gc.save
 
     init_run     :    190.31s CPU    204.02s WALL (       1 calls)
     electrons    :  25853.20s CPU  27496.15s WALL (       1 calls)

     Called by init_run:
     wfcinit      :    187.54s CPU    200.47s WALL (       1 calls)
     potinit      :      0.84s CPU      0.95s WALL (       1 calls)

     Called by electrons:
     c_bands      :  23669.16s CPU  25144.16s WALL (      45 calls)
     sum_band     :   1775.37s CPU   1881.46s WALL (      45 calls)
     v_of_rho     :      5.73s CPU      7.27s WALL (      46 calls)
     newd         :     16.02s CPU     29.68s WALL (      46 calls)
     mix_rho      :    386.88s CPU    433.72s WALL (      45 calls)

     Called by c_bands:
     init_us_2    :     84.16s CPU     85.39s WALL (     546 calls)
     cegterg      :  23326.91s CPU  24788.23s WALL (     278 calls)

     Called by sum_band:
     sum_band:bec :      5.21s CPU      5.69s WALL (     270 calls)
     addusdens    :     23.27s CPU     35.54s WALL (      45 calls)

     Called by *egterg:
     h_psi        :   8357.09s CPU   9007.54s WALL (    2010 calls)
     s_psi        :   2040.27s CPU   2053.90s WALL (    2010 calls)
     g_psi        :     22.45s CPU     22.47s WALL (    1726 calls)
     cdiaghg      :   6870.95s CPU   7210.49s WALL (    1996 calls)

     Called by h_psi:
     add_vuspsi   :   2045.20s CPU   2060.08s WALL (    2010 calls)

     General routines
     calbec       :   2794.26s CPU   2816.29s WALL (    2280 calls)
     fft          :      4.92s CPU      6.09s WALL (     597 calls)
     ffts         :    169.17s CPU    203.29s WALL (   24192 calls)
     fftw         :   4145.63s CPU   4792.13s WALL ( 1368108 calls)
     davcio       :      0.16s CPU      7.53s WALL (       6 calls)
 
     Parallel routines
     fft_scatter  :   2146.55s CPU   2452.03s WALL ( 1392897 calls)
 
     PWSCF        :     7h14m CPU        7h41m WALL

 
   This run was terminated on:   8:53:47   1Oct2017            

=------------------------------------------------------------------------------=
   JOB DONE.
=------------------------------------------------------------------------------=
