
     Program PWSCF v.5.4.0 starts on 20Apr2017 at 13: 1:54 

     This program is part of the open-source Quantum ESPRESSO suite
     for quantum simulation of materials; please cite
         "P. Giannozzi et al., J. Phys.:Condens. Matter 21 395502 (2009);
          URL http://www.quantum-espresso.org", 
     in publications or presentations arising from this work. More details at
     http://www.quantum-espresso.org/quote

     Parallel version (MPI & OpenMP), running on      56 processor cores
     Number of MPI processes:                56
     Threads/MPI process:                     1
     R & G space division:  proc/nbgrp/npool/nimage =      56
     Waiting for input...
     Reading input from standard input
Warning: card &IONS ignored
Warning: card / ignored

     Current dimensions of program PWSCF are:
     Max number of different atomic species (ntypx) = 10
     Max number of k-points (npk) =  40000
     Max angular momentum in pseudopotentials (lmaxx) =  3

     -------------------------------------
     Parameters for Dispersion Correction:
     -------------------------------------
       atom      VdW radius       C_6     

        Cu         2.952        374.666
        C_h        2.744         60.710
        C          2.744         60.710

     Subspace diagonalization in iterative solution of the eigenvalue problem:
     one sub-group per band group will be used
     scalapack distributed-memory algorithm (size of sub-group:  5*  5 procs)

 
     Parallelization info
     --------------------
     sticks:   dense  smooth     PW     G-vecs:    dense   smooth      PW
     Min         204     204     54                36612    36612    4962
     Max         205     205     55                36617    36617    4968
     Sum       11433   11433   3039              2050409  2050409  278033
 


     bravais-lattice index     =            0
     lattice parameter (alat)  =      13.9425  a.u.
     unit-cell volume          =   21209.0878 (a.u.)^3
     number of atoms/cell      =          156
     number of atomic types    =            3
     number of electrons       =      1380.00
     number of Kohn-Sham states=          828
     kinetic-energy cutoff     =      80.0000  Ry
     charge density cutoff     =     320.0000  Ry
     convergence threshold     =      1.0E-08
     mixing beta               =       0.7000
     number of iterations used =            8  local-TF  mixing
     Exchange-correlation      =  SLA  PW   PBX  PBC ( 1  4  3  4 0 0)

     celldm(1)=  13.942539  celldm(2)=   0.000000  celldm(3)=   0.000000
     celldm(4)=   0.000000  celldm(5)=   0.000000  celldm(6)=   0.000000

     crystal axes: (cart. coord. in units of alat)
               a(1) = (   1.000000   0.000000   0.000000 )  
               a(2) = (   0.000000   2.309401   0.000000 )  
               a(3) = (   0.000000   0.000000   3.388418 )  

     reciprocal axes: (cart. coord. in units 2 pi/alat)
               b(1) = (  1.000000  0.000000  0.000000 )  
               b(2) = (  0.000000  0.433013  0.000000 )  
               b(3) = (  0.000000  0.000000  0.295123 )  


     PseudoPot. # 1 for Cu read from file:
     /home/549/hxw549/Short/pseudopotentials/Cu.pbe-n-van_ak.UPF
     MD5 check sum: 601f7c30f7467666bec936e0661ce3e1
     Pseudo is Ultrasoft + core correction, Zval = 11.0
     Generated by new atomic code, or converted to UPF format
     Using radial grid of  867 points,  6 beta functions with: 
                l(1) =   0
                l(2) =   0
                l(3) =   1
                l(4) =   1
                l(5) =   2
                l(6) =   2
     Q(r) pseudized with  8 coefficients,  rinner =    1.400   1.400   1.400
                                                       1.400   1.400

     PseudoPot. # 2 for C  read from file:
     /home/549/hxw549/Short/pseudopotentials/C.star1s-pbe-mt_gipaw.UPF
     MD5 check sum: ef0cb3dee31bd9e4ba2a832a2c716264
     Pseudo is Norm-conserving, Zval =  5.0
     Generated by new atomic code, or converted to UPF format
     Using radial grid of 1073 points,  1 beta functions with: 
                l(1) =   0

     PseudoPot. # 3 for C  read from file:
     /home/549/hxw549/Short/pseudopotentials/C.pbe-mt_gipaw.UPF
     MD5 check sum: 5ac2f21f2c440b14befe521540822c15
     Pseudo is Norm-conserving, Zval =  4.0
     Generated by new atomic code, or converted to UPF format
     Using radial grid of 1073 points,  1 beta functions with: 
                l(1) =   0

     atomic species   valence    mass     pseudopotential
        Cu            11.00    63.54600     Cu( 1.00)
        C_h            5.00    12.01070     C ( 1.00)
        C              4.00    12.01070     C ( 1.00)

     No symmetry found



   Cartesian axes

     site n.     atom                  positions (alat units)
         1           Cu  tau(   1) = (  -0.0000549   0.0038944   0.8895039  )
         2           Cu  tau(   2) = (   0.2498561   0.2364069   0.8931545  )
         3           Cu  tau(   3) = (   0.4999834   0.0040272   0.8891076  )
         4           Cu  tau(   4) = (   0.7500655   0.2365774   0.8930538  )
         5           Cu  tau(   5) = (  -0.0000562   0.4680485   0.8986857  )
         6           Cu  tau(   6) = (   0.2499204   0.6979601   0.9023997  )
         7           Cu  tau(   7) = (   0.4999770   0.4680600   0.8986438  )
         8           Cu  tau(   8) = (   0.7499919   0.6979170   0.9024188  )
         9           Cu  tau(   9) = (  -0.0000103   0.9272203   0.9035556  )
        10           Cu  tau(  10) = (   0.2499589   1.1564729   0.9037066  )
        11           Cu  tau(  11) = (   0.4999145   0.9271629   0.9034395  )
        12           Cu  tau(  12) = (   0.7499463   1.1564243   0.9036188  )
        13           Cu  tau(  13) = (  -0.0001139   1.3860246   0.9027183  )
        14           Cu  tau(  14) = (   0.2498801   1.6163418   0.8986746  )
        15           Cu  tau(  15) = (   0.5000280   1.3859803   0.9024834  )
        16           Cu  tau(  16) = (   0.7500312   1.6160597   0.8985479  )
        17           Cu  tau(  17) = (   0.0000423   1.8478793   0.8927838  )
        18           Cu  tau(  18) = (   0.2500275   2.0802463   0.8891797  )
        19           Cu  tau(  19) = (   0.4998824   1.8476458   0.8930400  )
        20           Cu  tau(  20) = (   0.7499023   2.0802466   0.8892023  )
        21           Cu  tau(  21) = (  -0.0000006   0.2314407   1.1418707  )
        22           Cu  tau(  22) = (   0.2498892   0.0016921   1.1383038  )
        23           Cu  tau(  23) = (   0.4999305   0.2313254   1.1417344  )
        24           Cu  tau(  24) = (   0.7500314   0.0017233   1.1384329  )
        25           Cu  tau(  25) = (  -0.0000709   0.6957747   1.1517252  )
        26           Cu  tau(  26) = (   0.2500244   0.4632860   1.1474081  )
        27           Cu  tau(  27) = (   0.4999876   0.6957836   1.1516684  )
        28           Cu  tau(  28) = (   0.7498984   0.4632432   1.1473117  )
        29           Cu  tau(  29) = (  -0.0000630   1.1568679   1.1543012  )
        30           Cu  tau(  30) = (   0.2499277   0.9268448   1.1543638  )
        31           Cu  tau(  31) = (   0.4999724   1.1568693   1.1541867  )
        32           Cu  tau(  32) = (   0.7500027   0.9269784   1.1543223  )
        33           Cu  tau(  33) = (  -0.0000082   1.6210599   1.1470060  )
        34           Cu  tau(  34) = (   0.2498596   1.3881448   1.1514236  )
        35           Cu  tau(  35) = (   0.4999174   1.6209561   1.1473344  )
        36           Cu  tau(  36) = (   0.7500490   1.3882920   1.1514093  )
        37           Cu  tau(  37) = (  -0.0001368   2.0821940   1.1384383  )
        38           Cu  tau(  38) = (   0.2500917   1.8528039   1.1417247  )
        39           Cu  tau(  39) = (   0.5000439   2.0824138   1.1382179  )
        40           Cu  tau(  40) = (   0.7498259   1.8528944   1.1417626  )
        41           Cu  tau(  41) = (  -0.0001378   0.0006883   1.3919862  )
        42           Cu  tau(  42) = (   0.2499845   0.2287190   1.3929011  )
        43           Cu  tau(  43) = (   0.5000483   0.0010692   1.3920855  )
        44           Cu  tau(  44) = (   0.7499379   0.2286829   1.3928022  )
        45           Cu  tau(  45) = (   0.0000062   0.4584630   1.3955340  )
        46           Cu  tau(  46) = (   0.2499963   0.6914661   1.3999671  )
        47           Cu  tau(  47) = (   0.4999185   0.4580848   1.3951344  )
        48           Cu  tau(  48) = (   0.7499533   0.6912121   1.4000695  )
        49           Cu  tau(  49) = (  -0.0000360   0.9252124   1.4043059  )
        50           Cu  tau(  50) = (   0.2499282   1.1590389   1.4037961  )
        51           Cu  tau(  51) = (   0.4999469   0.9251753   1.4044409  )
        52           Cu  tau(  52) = (   0.7500253   1.1590458   1.4042624  )
        53           Cu  tau(  53) = (  -0.0000739   1.3928481   1.3993409  )
        54           Cu  tau(  54) = (   0.2500691   1.6257625   1.3946926  )
        55           Cu  tau(  55) = (   0.4999884   1.3926344   1.3994945  )
        56           Cu  tau(  56) = (   0.7498314   1.6259215   1.3947318  )
        57           Cu  tau(  57) = (  -0.0000489   1.8554057   1.3928460  )
        58           Cu  tau(  58) = (   0.2499235   2.0832681   1.3919605  )
        59           Cu  tau(  59) = (   0.4999390   1.8556516   1.3922941  )
        60           Cu  tau(  60) = (   0.7499778   2.0829845   1.3920999  )
        61           Cu  tau(  61) = (  -0.0000594   0.2275935   1.6471819  )
        62           Cu  tau(  62) = (   0.2501001   0.0001540   1.6468201  )
        63           Cu  tau(  63) = (   0.4999427   0.2275226   1.6475724  )
        64           Cu  tau(  64) = (   0.7498079   0.0002051   1.6469932  )
        65           Cu  tau(  65) = (   0.0000357   0.6849101   1.6488244  )
        66           Cu  tau(  66) = (   0.2501027   0.4550203   1.6471545  )
        67           Cu  tau(  67) = (   0.4999170   0.6842384   1.6480417  )
        68           Cu  tau(  68) = (   0.7498109   0.4548594   1.6471270  )
        69           Cu  tau(  69) = (  -0.0000527   1.1637303   1.6506847  )
        70           Cu  tau(  70) = (   0.2501509   0.9216146   1.6509466  )
        71           Cu  tau(  71) = (   0.5000517   1.1629157   1.6515761  )
        72           Cu  tau(  72) = (   0.7497688   0.9213551   1.6514686  )
        73           Cu  tau(  73) = (  -0.0001140   1.6285458   1.6471528  )
        74           Cu  tau(  74) = (   0.2500948   1.3996204   1.6478345  )
        75           Cu  tau(  75) = (   0.5000089   1.6292832   1.6462570  )
        76           Cu  tau(  76) = (   0.7498648   1.4001992   1.6480762  )
        77           Cu  tau(  77) = (  -0.0001698   2.0839327   1.6471420  )
        78           Cu  tau(  78) = (   0.2497414   1.8566981   1.6467677  )
        79           Cu  tau(  79) = (   0.5001041   2.0836196   1.6465065  )
        80           Cu  tau(  80) = (   0.7501418   1.8567086   1.6473694  )
        81           Cu  tau(  81) = (   0.0000606   0.0005566   1.9026502  )
        82           Cu  tau(  82) = (   0.2503732   0.2248242   1.9015096  )
        83           Cu  tau(  83) = (   0.4998202  -0.0005144   1.9024713  )
        84           Cu  tau(  84) = (   0.7495713   0.2246990   1.9014783  )
        85           Cu  tau(  85) = (   0.0000338   0.4467760   1.9043256  )
        86           Cu  tau(  86) = (   0.2493514   0.6728710   1.9029509  )
        87           Cu  tau(  87) = (   0.4998802   0.4455824   1.9021670  )
        88           Cu  tau(  88) = (   0.7505658   0.6721677   1.9028605  )
        89           Cu  tau(  89) = (   0.0006263   0.9184138   1.8867044  )
        90           Cu  tau(  90) = (   0.2497779   1.1671666   1.8871488  )
        91           Cu  tau(  91) = (   0.4991665   0.9167096   1.8870412  )
        92           Cu  tau(  92) = (   0.7501328   1.1676623   1.8863851  )
        93           Cu  tau(  93) = (   0.0000031   1.4129974   1.9041958  )
        94           Cu  tau(  94) = (   0.2501514   1.6381240   1.9026581  )
        95           Cu  tau(  95) = (   0.4998962   1.4122563   1.9006415  )
        96           Cu  tau(  96) = (   0.7497848   1.6384651   1.9031469  )
        97           Cu  tau(  97) = (  -0.0000327   1.8590214   1.9016926  )
        98           Cu  tau(  98) = (   0.2493588   2.0836751   1.9022804  )
        99           Cu  tau(  99) = (   0.4999181   1.8599112   1.9009201  )
       100           Cu  tau( 100) = (   0.7504827   2.0840516   1.9026399  )
       101           Cu  tau( 101) = (   0.2536675   1.3944837   2.1357621  )
       102           Cu  tau( 102) = (   0.7464037   1.3942318   2.1363374  )
       103           Cu  tau( 103) = (  -0.0004629   1.1583394   2.1209052  )
       104           Cu  tau( 104) = (   0.2505084   0.9288428   2.1206185  )
       105           Cu  tau( 105) = (   0.5002771   1.1562048   2.1193217  )
       106           Cu  tau( 106) = (   0.7495267   0.9280549   2.1199382  )
       107           Cu  tau( 107) = (  -0.0000193   0.6948418   2.1354509  )
       108           Cu  tau( 108) = (   0.4998810   0.6882222   2.1355829  )
       109           C   tau( 109) = (   0.0000991   0.0901428   2.4031502  )
       110           C   tau( 110) = (   0.0000930   0.2823830   2.4180114  )
       111           C   tau( 111) = (   0.1666773  -0.0064510   2.3996578  )
       112           C   tau( 112) = (   0.1668787   0.3782408   2.4277671  )
       113           C   tau( 113) = (   0.3333089   0.0900211   2.4026227  )
       114           C   tau( 114) = (   0.3334028   0.2822316   2.4161361  )
       115           C   tau( 115) = (   0.5000830  -0.0063283   2.3982863  )
       116           C   tau( 116) = (   0.5000767   0.3780919   2.4227795  )
       117           C   tau( 117) = (   0.6669041   0.0900346   2.4025061  )
       118           C   tau( 118) = (   0.6667952   0.2822435   2.4160878  )
       119           C   tau( 119) = (   0.8334865  -0.0064471   2.3995724  )
       120           C   tau( 120) = (   0.8332736   0.3782539   2.4277003  )
       121           C   tau( 121) = (   0.0000735   0.6670179   2.4604097  )
       122           C   tau( 122) = (   0.0001050   0.8588633   2.4907114  )
       123           C   tau( 123) = (   0.1672571   0.5698504   2.4498428  )
       124           C   tau( 124) = (   0.1665971   0.9552497   2.4963875  )
       125           C_h tau( 125) = (   0.3330385   0.6665151   2.4637668  )
       126           C   tau( 126) = (   0.3335343   0.8585536   2.4894103  )
       127           C   tau( 127) = (   0.5001160   0.5707969   2.4446470  )
       128           C   tau( 128) = (   0.5000868   0.9548012   2.4981070  )
       129           C   tau( 129) = (   0.6671111   0.6664905   2.4640110  )
       130           C   tau( 130) = (   0.6666802   0.8585370   2.4895177  )
       131           C   tau( 131) = (   0.8329626   0.5698624   2.4498385  )
       132           C   tau( 132) = (   0.8335464   0.9552517   2.4962856  )
       133           C   tau( 133) = (   0.0000911   1.2451825   2.4876213  )
       134           C   tau( 134) = (   0.0001131   1.4371710   2.4617966  )
       135           C   tau( 135) = (   0.1670675   1.1488169   2.4970265  )
       136           C   tau( 136) = (   0.1662741   1.5330753   2.4437487  )
       137           C   tau( 137) = (   0.3332653   1.2449196   2.4879988  )
       138           C   tau( 138) = (   0.3337767   1.4368407   2.4576005  )
       139           C   tau( 139) = (   0.5001230   1.1482862   2.4940804  )
       140           C   tau( 140) = (   0.5000809   1.5342903   2.4464359  )
       141           C   tau( 141) = (   0.6669118   1.2449151   2.4881715  )
       142           C   tau( 142) = (   0.6664409   1.4368275   2.4575860  )
       143           C   tau( 143) = (   0.8331701   1.1488111   2.4971678  )
       144           C   tau( 144) = (   0.8339073   1.5330595   2.4436703  )
       145           C   tau( 145) = (   0.0001003   1.8211673   2.4126494  )
       146           C   tau( 146) = (   0.0000762   2.0135533   2.4010454  )
       147           C   tau( 147) = (   0.1666886   1.7253778   2.4216854  )
       148           C   tau( 148) = (   0.1666494   2.1103073   2.3983956  )
       149           C   tau( 149) = (   0.3333114   1.8216121   2.4144844  )
       150           C   tau( 150) = (   0.3333631   2.0140026   2.4017749  )
       151           C   tau( 151) = (   0.5000809   1.7256607   2.4249251  )
       152           C   tau( 152) = (   0.5001229   2.1104737   2.3992384  )
       153           C   tau( 153) = (   0.6668851   1.8216063   2.4144419  )
       154           C   tau( 154) = (   0.6667882   2.0139890   2.4016302  )
       155           C   tau( 155) = (   0.8334653   1.7253669   2.4216510  )
       156           C   tau( 156) = (   0.8335837   2.1103089   2.3982893  )

     number of k points=     6  gaussian smearing, width (Ry)=  0.1000
                       cart. coord. in units 2pi/alat
        k(    1) = (   0.0000000   0.0000000   0.0000000), wk =   0.2500000
        k(    2) = (   0.0000000  -0.2165064   0.0000000), wk =   0.2500000
        k(    3) = (   0.2500000   0.0000000   0.0000000), wk =   0.5000000
        k(    4) = (   0.2500000  -0.2165064   0.0000000), wk =   0.5000000
        k(    5) = (  -0.5000000   0.0000000   0.0000000), wk =   0.2500000
        k(    6) = (  -0.5000000  -0.2165064   0.0000000), wk =   0.2500000

     Dense  grid:  2050409 G-vectors     FFT dimensions: (  80, 192, 270)

     Largest allocated arrays     est. size (Mb)     dimensions
        Kohn-Sham Wavefunctions        58.17 Mb     (    4604,  828)
        NL pseudopotentials           139.94 Mb     (    4604, 1992)
        Each V/rho on FFT grid          1.17 Mb     (   76800)
        Each G-vector array             0.28 Mb     (   36616)
        G-vector shells                 0.14 Mb     (   17932)
     Largest temporary arrays     est. size (Mb)     dimensions
        Auxiliary wavefunctions       232.67 Mb     (    4604, 3312)
        Each subspace H/S matrix        6.69 Mb     (     662,  662)
        Each <psi_i|beta_j> matrix     25.17 Mb     (    1992,  828)
        Arrays for rho mixing           9.38 Mb     (   76800,    8)

     Initial potential from superposition of free atoms
     Check: negative starting charge=   -0.001553

     starting charge 1354.72292, renormalised to 1380.00000

     negative rho (up, down):  1.582E-03 0.000E+00
     Starting wfc are 1356 randomized atomic wfcs

     total cpu time spent up to now is      116.6 secs

     Self-consistent Calculation

     iteration #  1     ecut=    80.00 Ry     beta=0.70
     Davidson diagonalization with overlap
     c_bands:  3 eigenvalues not converged
     c_bands:  1 eigenvalues not converged
     c_bands:  4 eigenvalues not converged
     c_bands:  4 eigenvalues not converged
     c_bands:  3 eigenvalues not converged
     ethr =  1.00E-04,  avg # of iterations = 45.3

     negative rho (up, down):  2.549E+01 0.000E+00

     total cpu time spent up to now is     2609.5 secs

     total energy              =  -10766.11763928 Ry
     Harris-Foulkes estimate   =  -19025.37759953 Ry
     estimated scf accuracy    <  214618.26304130 Ry

     iteration #  2     ecut=    80.00 Ry     beta=0.70
     Davidson diagonalization with overlap
     ethr =  1.00E-02,  avg # of iterations = 14.5

     negative rho (up, down):  3.128E+01 0.000E+00

     total cpu time spent up to now is     3746.3 secs

     total energy              =  -13080.85772286 Ry
     Harris-Foulkes estimate   =  -14667.82270910 Ry
     estimated scf accuracy    <   24956.79539445 Ry

     iteration #  3     ecut=    80.00 Ry     beta=0.70
     Davidson diagonalization with overlap
     ethr =  1.00E-02,  avg # of iterations =  6.3

     negative rho (up, down):  3.311E+01 0.000E+00

     total cpu time spent up to now is     4320.2 secs

     total energy              =  -13424.40178642 Ry
     Harris-Foulkes estimate   =  -14415.66490685 Ry
     estimated scf accuracy    <    7775.79926788 Ry

     iteration #  4     ecut=    80.00 Ry     beta=0.70
     Davidson diagonalization with overlap
     ethr =  1.00E-02,  avg # of iterations =  5.0

     negative rho (up, down):  2.686E+01 0.000E+00

     total cpu time spent up to now is     4859.4 secs

     total energy              =  -13745.23848160 Ry
     Harris-Foulkes estimate   =  -14098.74121452 Ry
     estimated scf accuracy    <    3883.56471981 Ry

     iteration #  5     ecut=    80.00 Ry     beta=0.70
     Davidson diagonalization with overlap
     ethr =  1.00E-02,  avg # of iterations =  4.0

     negative rho (up, down):  1.725E+01 0.000E+00

     total cpu time spent up to now is     5206.0 secs

     total energy              =  -13810.32731010 Ry
     Harris-Foulkes estimate   =  -13963.60304113 Ry
     estimated scf accuracy    <    1064.53331821 Ry

     iteration #  6     ecut=    80.00 Ry     beta=0.70
     Davidson diagonalization with overlap
     ethr =  1.00E-02,  avg # of iterations =  3.0

     negative rho (up, down):  1.201E+01 0.000E+00

     total cpu time spent up to now is     5446.5 secs

     total energy              =  -13796.23580546 Ry
     Harris-Foulkes estimate   =  -13849.04032797 Ry
     estimated scf accuracy    <     503.15219476 Ry

     iteration #  7     ecut=    80.00 Ry     beta=0.70
     Davidson diagonalization with overlap
     ethr =  1.00E-02,  avg # of iterations =  2.0

     negative rho (up, down):  8.426E+00 0.000E+00

     total cpu time spent up to now is     5644.0 secs

     total energy              =  -13778.40219992 Ry
     Harris-Foulkes estimate   =  -13811.32719111 Ry
     estimated scf accuracy    <     336.40919666 Ry

     iteration #  8     ecut=    80.00 Ry     beta=0.70
     Davidson diagonalization with overlap
     ethr =  1.00E-02,  avg # of iterations =  1.0

     negative rho (up, down):  6.610E+00 0.000E+00

     total cpu time spent up to now is     5827.1 secs

     total energy              =  -13762.38580164 Ry
     Harris-Foulkes estimate   =  -13783.12917472 Ry
     estimated scf accuracy    <     254.71775591 Ry

     iteration #  9     ecut=    80.00 Ry     beta=0.70
     Davidson diagonalization with overlap
     ethr =  1.00E-02,  avg # of iterations =  1.5

     negative rho (up, down):  4.278E+00 0.000E+00

     total cpu time spent up to now is     6015.6 secs

     total energy              =  -13744.77943197 Ry
     Harris-Foulkes estimate   =  -13767.08234434 Ry
     estimated scf accuracy    <     198.47115311 Ry

     iteration # 10     ecut=    80.00 Ry     beta=0.70
     Davidson diagonalization with overlap
     ethr =  1.00E-02,  avg # of iterations =  1.0

     negative rho (up, down):  8.849E-01 0.000E+00

     total cpu time spent up to now is     6197.9 secs

     total energy              =  -13711.84927328 Ry
     Harris-Foulkes estimate   =  -13747.45444059 Ry
     estimated scf accuracy    <     139.79953744 Ry

     iteration # 11     ecut=    80.00 Ry     beta=0.70
     Davidson diagonalization with overlap
     ethr =  1.00E-02,  avg # of iterations =  1.0

     negative rho (up, down):  1.249E+00 0.000E+00

     total cpu time spent up to now is     6381.3 secs

     total energy              =  -13696.33097530 Ry
     Harris-Foulkes estimate   =  -13718.34176954 Ry
     estimated scf accuracy    <     121.97776736 Ry

     iteration # 12     ecut=    80.00 Ry     beta=0.70
     Davidson diagonalization with overlap
     ethr =  8.84E-03,  avg # of iterations =  2.2

     negative rho (up, down):  1.659E+00 0.000E+00

     total cpu time spent up to now is     6580.5 secs

     total energy              =  -13692.05528220 Ry
     Harris-Foulkes estimate   =  -13707.98012489 Ry
     estimated scf accuracy    <     108.68261969 Ry

     iteration # 13     ecut=    80.00 Ry     beta=0.70
     Davidson diagonalization with overlap
     ethr =  7.88E-03,  avg # of iterations =  1.5

     negative rho (up, down):  4.053E+00 0.000E+00

     total cpu time spent up to now is     6769.2 secs

     total energy              =  -13688.88661576 Ry
     Harris-Foulkes estimate   =  -13701.33644004 Ry
     estimated scf accuracy    <      95.33672025 Ry

     iteration # 14     ecut=    80.00 Ry     beta=0.70
     Davidson diagonalization with overlap
     ethr =  6.91E-03,  avg # of iterations =  2.0

     negative rho (up, down):  5.683E+00 0.000E+00

     total cpu time spent up to now is     6965.6 secs

     total energy              =  -13689.02772981 Ry
     Harris-Foulkes estimate   =  -13694.04554711 Ry
     estimated scf accuracy    <      42.15167021 Ry

     iteration # 15     ecut=    80.00 Ry     beta=0.70
     Davidson diagonalization with overlap
     ethr =  3.05E-03,  avg # of iterations =  3.3

     negative rho (up, down):  4.890E+00 0.000E+00

     total cpu time spent up to now is     7179.6 secs

     total energy              =  -13687.92118536 Ry
     Harris-Foulkes estimate   =  -13690.32546940 Ry
     estimated scf accuracy    <      25.50478733 Ry

     iteration # 16     ecut=    80.00 Ry     beta=0.70
     Davidson diagonalization with overlap
     ethr =  1.85E-03,  avg # of iterations =  4.3

     negative rho (up, down):  5.675E+00 0.000E+00

     total cpu time spent up to now is     7411.5 secs

     total energy              =  -13685.84789670 Ry
     Harris-Foulkes estimate   =  -13688.68393475 Ry
     estimated scf accuracy    <      23.67964033 Ry

     iteration # 17     ecut=    80.00 Ry     beta=0.70
     Davidson diagonalization with overlap
     ethr =  1.72E-03,  avg # of iterations =  4.3

     negative rho (up, down):  4.813E+00 0.000E+00

     total cpu time spent up to now is     7643.5 secs

     total energy              =  -13685.81523082 Ry
     Harris-Foulkes estimate   =  -13687.09545027 Ry
     estimated scf accuracy    <      12.17235834 Ry

     iteration # 18     ecut=    80.00 Ry     beta=0.70
     Davidson diagonalization with overlap
     ethr =  8.82E-04,  avg # of iterations =  3.2

     negative rho (up, down):  3.482E+00 0.000E+00

     total cpu time spent up to now is     7856.4 secs

     total energy              =  -13684.80201095 Ry
     Harris-Foulkes estimate   =  -13686.07100327 Ry
     estimated scf accuracy    <      10.18710172 Ry

     iteration # 19     ecut=    80.00 Ry     beta=0.70
     Davidson diagonalization with overlap
     ethr =  7.38E-04,  avg # of iterations =  1.5

     negative rho (up, down):  2.200E+00 0.000E+00

     total cpu time spent up to now is     8047.7 secs

     total energy              =  -13683.78597352 Ry
     Harris-Foulkes estimate   =  -13685.00197023 Ry
     estimated scf accuracy    <      13.53828636 Ry

     iteration # 20     ecut=    80.00 Ry     beta=0.70
     Davidson diagonalization with overlap
     ethr =  7.38E-04,  avg # of iterations =  1.7

     negative rho (up, down):  2.878E+00 0.000E+00

     total cpu time spent up to now is     8239.3 secs

     total energy              =  -13682.25714523 Ry
     Harris-Foulkes estimate   =  -13684.25669207 Ry
     estimated scf accuracy    <      39.76636095 Ry

     iteration # 21     ecut=    80.00 Ry     beta=0.70
     Davidson diagonalization with overlap
     ethr =  7.38E-04,  avg # of iterations =  7.7

     negative rho (up, down):  2.048E+00 0.000E+00

     total cpu time spent up to now is     8520.6 secs

     total energy              =  -13681.66127520 Ry
     Harris-Foulkes estimate   =  -13683.20377125 Ry
     estimated scf accuracy    <      10.28619478 Ry

     iteration # 22     ecut=    80.00 Ry     beta=0.70
     Davidson diagonalization with overlap
     ethr =  7.38E-04,  avg # of iterations =  1.0

     negative rho (up, down):  5.487E-01 0.000E+00

     total cpu time spent up to now is     8705.7 secs

     total energy              =  -13680.71770664 Ry
     Harris-Foulkes estimate   =  -13681.94334976 Ry
     estimated scf accuracy    <       4.46516205 Ry

     iteration # 23     ecut=    80.00 Ry     beta=0.70
     Davidson diagonalization with overlap
     ethr =  3.24E-04,  avg # of iterations = 10.2

     negative rho (up, down):  4.793E-01 0.000E+00

     total cpu time spent up to now is     9020.6 secs

     total energy              =  -13680.00301856 Ry
     Harris-Foulkes estimate   =  -13680.92702403 Ry
     estimated scf accuracy    <       4.52260962 Ry

     iteration # 24     ecut=    80.00 Ry     beta=0.70
     Davidson diagonalization with overlap
     ethr =  3.24E-04,  avg # of iterations =  3.8

     negative rho (up, down):  1.667E-01 0.000E+00

     total cpu time spent up to now is     9243.5 secs

     total energy              =  -13679.46448688 Ry
     Harris-Foulkes estimate   =  -13680.33563713 Ry
     estimated scf accuracy    <      15.14340047 Ry

     iteration # 25     ecut=    80.00 Ry     beta=0.70
     Davidson diagonalization with overlap
     ethr =  3.24E-04,  avg # of iterations =  4.0

     negative rho (up, down):  7.896E-01 0.000E+00

     total cpu time spent up to now is     9469.7 secs

     total energy              =  -13679.55530409 Ry
     Harris-Foulkes estimate   =  -13680.06789719 Ry
     estimated scf accuracy    <       4.40361877 Ry

     iteration # 26     ecut=    80.00 Ry     beta=0.70
     Davidson diagonalization with overlap
     ethr =  3.19E-04,  avg # of iterations =  5.3

     negative rho (up, down):  7.428E-01 0.000E+00

     total cpu time spent up to now is     9711.8 secs

     total energy              =  -13679.36150722 Ry
     Harris-Foulkes estimate   =  -13679.64093367 Ry
     estimated scf accuracy    <       2.34775638 Ry

     iteration # 27     ecut=    80.00 Ry     beta=0.70
     Davidson diagonalization with overlap
     ethr =  1.70E-04,  avg # of iterations =  7.2

     negative rho (up, down):  7.566E-01 0.000E+00

     total cpu time spent up to now is     9986.1 secs

     total energy              =  -13679.22860617 Ry
     Harris-Foulkes estimate   =  -13679.48796626 Ry
     estimated scf accuracy    <       2.18405644 Ry

     iteration # 28     ecut=    80.00 Ry     beta=0.70
     Davidson diagonalization with overlap
     ethr =  1.58E-04,  avg # of iterations =  7.5

     negative rho (up, down):  5.934E-01 0.000E+00

     total cpu time spent up to now is    10268.7 secs

     total energy              =  -13679.24501828 Ry
     Harris-Foulkes estimate   =  -13679.36853608 Ry
     estimated scf accuracy    <       1.00018977 Ry

     iteration # 29     ecut=    80.00 Ry     beta=0.70
     Davidson diagonalization with overlap
     ethr =  7.25E-05,  avg # of iterations =  8.0

     negative rho (up, down):  4.482E-01 0.000E+00

     total cpu time spent up to now is    10555.0 secs

     total energy              =  -13679.28032424 Ry
     Harris-Foulkes estimate   =  -13679.30599018 Ry
     estimated scf accuracy    <       0.24220171 Ry

     iteration # 30     ecut=    80.00 Ry     beta=0.70
     Davidson diagonalization with overlap
     ethr =  1.76E-05,  avg # of iterations =  5.7

     negative rho (up, down):  3.637E-01 0.000E+00

     total cpu time spent up to now is    10807.0 secs

     total energy              =  -13679.28157143 Ry
     Harris-Foulkes estimate   =  -13679.29135053 Ry
     estimated scf accuracy    <       0.12804379 Ry

     iteration # 31     ecut=    80.00 Ry     beta=0.70
     Davidson diagonalization with overlap
     ethr =  9.28E-06,  avg # of iterations =  5.3

     negative rho (up, down):  2.270E-01 0.000E+00

     total cpu time spent up to now is    11054.4 secs

     total energy              =  -13679.27825258 Ry
     Harris-Foulkes estimate   =  -13679.28757920 Ry
     estimated scf accuracy    <       0.07304399 Ry

     iteration # 32     ecut=    80.00 Ry     beta=0.70
     Davidson diagonalization with overlap
     ethr =  5.29E-06,  avg # of iterations = 13.0

     negative rho (up, down):  1.280E-01 0.000E+00

     total cpu time spent up to now is    11431.6 secs

     total energy              =  -13679.27541750 Ry
     Harris-Foulkes estimate   =  -13679.28077804 Ry
     estimated scf accuracy    <       0.03559458 Ry

     iteration # 33     ecut=    80.00 Ry     beta=0.70
     Davidson diagonalization with overlap
     c_bands:  1 eigenvalues not converged
     c_bands:  3 eigenvalues not converged
     ethr =  2.58E-06,  avg # of iterations = 14.7

     negative rho (up, down):  2.201E-02 0.000E+00

     total cpu time spent up to now is    11841.3 secs

     total energy              =  -13679.26920070 Ry
     Harris-Foulkes estimate   =  -13679.27652423 Ry
     estimated scf accuracy    <       0.01438832 Ry

     iteration # 34     ecut=    80.00 Ry     beta=0.70
     Davidson diagonalization with overlap
     c_bands:  2 eigenvalues not converged
     ethr =  1.04E-06,  avg # of iterations = 17.8

     negative rho (up, down):  1.725E-02 0.000E+00

     total cpu time spent up to now is    12360.7 secs

     total energy              =  -13679.27075848 Ry
     Harris-Foulkes estimate   =  -13679.27224495 Ry
     estimated scf accuracy    <       0.00742027 Ry

     iteration # 35     ecut=    80.00 Ry     beta=0.70
     Davidson diagonalization with overlap
     ethr =  5.38E-07,  avg # of iterations =  6.8

     negative rho (up, down):  2.171E-02 0.000E+00

     total cpu time spent up to now is    12640.2 secs

     total energy              =  -13679.27149031 Ry
     Harris-Foulkes estimate   =  -13679.27142481 Ry
     estimated scf accuracy    <       0.00128610 Ry

     iteration # 36     ecut=    80.00 Ry     beta=0.70
     Davidson diagonalization with overlap
     ethr =  9.32E-08,  avg # of iterations =  8.0

     negative rho (up, down):  7.368E-03 0.000E+00

     total cpu time spent up to now is    12943.3 secs

     total energy              =  -13679.27132998 Ry
     Harris-Foulkes estimate   =  -13679.27162829 Ry
     estimated scf accuracy    <       0.00041064 Ry

     iteration # 37     ecut=    80.00 Ry     beta=0.70
     Davidson diagonalization with overlap
     ethr =  2.98E-08,  avg # of iterations = 10.7

     negative rho (up, down):  2.129E-03 0.000E+00

     total cpu time spent up to now is    13285.7 secs

     total energy              =  -13679.27127204 Ry
     Harris-Foulkes estimate   =  -13679.27136612 Ry
     estimated scf accuracy    <       0.00013276 Ry

     iteration # 38     ecut=    80.00 Ry     beta=0.70
     Davidson diagonalization with overlap
     c_bands:  1 eigenvalues not converged
     c_bands:  1 eigenvalues not converged
     c_bands:  2 eigenvalues not converged
     ethr =  9.62E-09,  avg # of iterations = 14.7

     negative rho (up, down):  1.801E-03 0.000E+00

     total cpu time spent up to now is    13678.2 secs

     total energy              =  -13679.27129257 Ry
     Harris-Foulkes estimate   =  -13679.27128286 Ry
     estimated scf accuracy    <       0.00004307 Ry

     iteration # 39     ecut=    80.00 Ry     beta=0.70
     Davidson diagonalization with overlap
     ethr =  3.12E-09,  avg # of iterations =  5.2

     negative rho (up, down):  1.266E-03 0.000E+00

     total cpu time spent up to now is    13930.7 secs

     total energy              =  -13679.27130003 Ry
     Harris-Foulkes estimate   =  -13679.27129763 Ry
     estimated scf accuracy    <       0.00002220 Ry

     iteration # 40     ecut=    80.00 Ry     beta=0.70
     Davidson diagonalization with overlap
     c_bands:  1 eigenvalues not converged
     ethr =  1.61E-09,  avg # of iterations =  8.5

     negative rho (up, down):  1.343E-03 0.000E+00

     total cpu time spent up to now is    14225.5 secs

     total energy              =  -13679.27130371 Ry
     Harris-Foulkes estimate   =  -13679.27130174 Ry
     estimated scf accuracy    <       0.00000404 Ry

     iteration # 41     ecut=    80.00 Ry     beta=0.70
     Davidson diagonalization with overlap
     ethr =  2.93E-10,  avg # of iterations =  2.8

     negative rho (up, down):  1.538E-03 0.000E+00

     total cpu time spent up to now is    14445.0 secs

     total energy              =  -13679.27130530 Ry
     Harris-Foulkes estimate   =  -13679.27130417 Ry
     estimated scf accuracy    <       0.00000153 Ry

     iteration # 42     ecut=    80.00 Ry     beta=0.70
     Davidson diagonalization with overlap
     ethr =  1.11E-10,  avg # of iterations =  2.8

     negative rho (up, down):  1.638E-03 0.000E+00

     total cpu time spent up to now is    14668.0 secs

     total energy              =  -13679.27130540 Ry
     Harris-Foulkes estimate   =  -13679.27130551 Ry
     estimated scf accuracy    <       0.00000097 Ry

     iteration # 43     ecut=    80.00 Ry     beta=0.70
     Davidson diagonalization with overlap
     ethr =  7.06E-11,  avg # of iterations =  2.0

     negative rho (up, down):  1.788E-03 0.000E+00

     total cpu time spent up to now is    14873.9 secs

     total energy              =  -13679.27130541 Ry
     Harris-Foulkes estimate   =  -13679.27130548 Ry
     estimated scf accuracy    <       0.00000029 Ry

     iteration # 44     ecut=    80.00 Ry     beta=0.70
     Davidson diagonalization with overlap
     ethr =  2.12E-11,  avg # of iterations =  2.5

     negative rho (up, down):  1.766E-03 0.000E+00

     total cpu time spent up to now is    15093.4 secs

     total energy              =  -13679.27130544 Ry
     Harris-Foulkes estimate   =  -13679.27130544 Ry
     estimated scf accuracy    <       0.00000010 Ry

     iteration # 45     ecut=    80.00 Ry     beta=0.70
     Davidson diagonalization with overlap
     ethr =  7.45E-12,  avg # of iterations =  2.0

     negative rho (up, down):  1.777E-03 0.000E+00

     total cpu time spent up to now is    15304.5 secs

     total energy              =  -13679.27130545 Ry
     Harris-Foulkes estimate   =  -13679.27130545 Ry
     estimated scf accuracy    <       0.00000008 Ry

     iteration # 46     ecut=    80.00 Ry     beta=0.70
     Davidson diagonalization with overlap
     ethr =  5.44E-12,  avg # of iterations =  1.3

     negative rho (up, down):  1.751E-03 0.000E+00

     total cpu time spent up to now is    15498.7 secs

     total energy              =  -13679.27130549 Ry
     Harris-Foulkes estimate   =  -13679.27130545 Ry
     estimated scf accuracy    <       0.00000002 Ry

     iteration # 47     ecut=    80.00 Ry     beta=0.70
     Davidson diagonalization with overlap
     ethr =  1.39E-12,  avg # of iterations =  2.5

     negative rho (up, down):  1.713E-03 0.000E+00

     total cpu time spent up to now is    15704.6 secs

     End of self-consistent calculation

          k = 0.0000 0.0000 0.0000 (256287 PWs)   bands (ev):

   -16.7130 -15.6178 -15.3686 -14.7811 -14.3993 -14.1903 -14.1179 -13.6468
   -13.5787 -13.4195 -13.3948 -12.8072 -12.6825 -12.4997 -12.4773 -12.4461
   -12.4236 -11.0355 -10.8953 -10.8503 -10.7530 -10.6086  -9.7049  -9.1658
    -9.1542  -8.9990  -8.9215  -8.3438  -8.1677  -7.9879  -7.9557  -7.4549
    -7.2268  -7.1364  -7.0092  -6.9324  -6.9277  -6.8772  -6.8762  -5.7241
    -5.7210  -5.4925  -5.4145  -5.3875  -5.3143  -5.2840  -5.2519  -5.2200
    -4.9691  -4.8648  -4.8005  -4.4078  -4.2202  -4.1543  -4.1154  -4.0613
    -3.9181  -3.8396  -3.7779  -3.4950  -3.3964  -3.3668  -3.3626  -3.3361
    -3.0417  -3.0241  -2.9761  -2.9512  -2.8427  -2.8180  -2.8146  -2.7943
    -2.7731  -2.6457  -2.5617  -2.4959  -2.4617  -2.4327  -2.4100  -2.3838
    -2.3832  -2.3419  -2.3208  -2.3002  -2.2920  -2.2636  -2.1566  -2.1463
    -2.0887  -2.0580  -2.0393  -1.9502  -1.8572  -1.7884  -1.7462  -1.7445
    -1.6980  -1.6932  -1.6413  -1.5869  -1.5813  -1.5288  -1.5282  -1.5183
    -1.5176  -1.5046  -1.4525  -1.4282  -1.4270  -1.3917  -1.3914  -1.3796
    -1.3670  -1.2981  -1.2754  -1.2523  -1.2369  -1.2358  -1.1610  -1.1567
    -1.1556  -1.1499  -1.1382  -1.1119  -1.1106  -1.0896  -1.0425  -1.0384
    -1.0367  -1.0342  -1.0018  -0.9789  -0.9579  -0.9575  -0.9552  -0.9327
    -0.9303  -0.9160  -0.9115  -0.9019  -0.8629  -0.8620  -0.8110  -0.8044
    -0.8009  -0.7875  -0.7400  -0.7365  -0.7062  -0.6866  -0.6705  -0.6573
    -0.6396  -0.6375  -0.6276  -0.6000  -0.5979  -0.5906  -0.5809  -0.5731
    -0.5674  -0.5624  -0.5574  -0.5237  -0.5214  -0.5052  -0.4874  -0.4795
    -0.4584  -0.4579  -0.4504  -0.4472  -0.4460  -0.4384  -0.4304  -0.4282
    -0.4252  -0.4234  -0.4064  -0.3847  -0.3777  -0.3689  -0.3637  -0.3530
    -0.3486  -0.3393  -0.3378  -0.3279  -0.3272  -0.3252  -0.3184  -0.3140
    -0.2976  -0.2829  -0.2810  -0.2797  -0.2684  -0.2649  -0.2539  -0.2535
    -0.2336  -0.2320  -0.2313  -0.2283  -0.2248  -0.2217  -0.2199  -0.2075
    -0.1978  -0.1921  -0.1542  -0.1444  -0.1365  -0.1184  -0.1113  -0.0975
    -0.0695  -0.0654  -0.0644  -0.0558  -0.0539  -0.0458  -0.0429  -0.0364
    -0.0236  -0.0209  -0.0086  -0.0070  -0.0057   0.0026   0.0105   0.0241
     0.0258   0.0266   0.0395   0.0417   0.0419   0.0782   0.0799   0.0865
     0.1110   0.1273   0.1363   0.1375   0.1432   0.1439   0.1649   0.1657
     0.1712   0.1756   0.1955   0.1963   0.1966   0.2070   0.2076   0.2093
     0.2097   0.2120   0.2157   0.2300   0.2404   0.2438   0.2508   0.2559
     0.2562   0.2598   0.2607   0.2787   0.2829   0.2924   0.2925   0.3001
     0.3157   0.3159   0.3281   0.3290   0.3291   0.3336   0.3346   0.3467
     0.3471   0.3553   0.3577   0.3649   0.3685   0.3691   0.3744   0.3745
     0.3876   0.3877   0.4093   0.4118   0.4146   0.4163   0.4208   0.4209
     0.4222   0.4230   0.4285   0.4294   0.4574   0.4620   0.4623   0.4660
     0.4864   0.4876   0.5115   0.5125   0.5137   0.5157   0.5223   0.5365
     0.5373   0.5442   0.5499   0.5508   0.5509   0.5547   0.5548   0.5768
     0.5820   0.5831   0.5871   0.5908   0.5913   0.5985   0.6115   0.6137
     0.6144   0.6210   0.6212   0.6361   0.6380   0.6416   0.6436   0.6466
     0.6477   0.6503   0.6534   0.6571   0.6703   0.6705   0.6746   0.6756
     0.6765   0.6797   0.6817   0.6931   0.7184   0.7200   0.7354   0.7518
     0.7519   0.7667   0.7715   0.7759   0.7771   0.7783   0.7827   0.8054
     0.8068   0.8269   0.8269   0.8355   0.8405   0.8411   0.8425   0.8532
     0.8543   0.8649   0.8903   0.8955   0.8966   0.8972   0.9003   0.9045
     0.9060   0.9305   0.9324   0.9406   0.9453   0.9463   0.9520   0.9593
     0.9614   0.9889   0.9910   0.9988   1.0081   1.0086   1.0138   1.0155
     1.0168   1.0197   1.0234   1.0338   1.0350   1.0379   1.0397   1.0457
     1.0672   1.0692   1.0743   1.0768   1.0806   1.0921   1.0974   1.1015
     1.1375   1.1418   1.1430   1.1528   1.1558   1.1567   1.1590   1.1629
     1.1649   1.1661   1.1722   1.1773   1.1818   1.1899   1.1905   1.1919
     1.1984   1.2015   1.2019   1.2109   1.2143   1.2216   1.2275   1.2289
     1.2333   1.2349   1.2422   1.2462   1.2493   1.2552   1.2627   1.2634
     1.2697   1.2759   1.2803   1.2836   1.2838   1.2851   1.2875   1.2894
     1.2913   1.3030   1.3147   1.3219   1.3273   1.3287   1.3299   1.3318
     1.3331   1.3347   1.3420   1.3465   1.3469   1.3529   1.3581   1.3586
     1.3622   1.3701   1.3748   1.3759   1.3797   1.3857   1.3896   1.3933
     1.3984   1.4029   1.4116   1.4315   1.4347   1.4377   1.4461   1.4493
     1.4538   1.4627   1.4654   1.4741   1.4757   1.4775   1.4821   1.4850
     1.4905   1.4912   1.4919   1.5032   1.5099   1.5137   1.5203   1.5304
     1.5325   1.5342   1.5367   1.5390   1.5452   1.5490   1.5519   1.5587
     1.5603   1.5656   1.5679   1.5696   1.5812   1.5845   1.5870   1.5975
     1.5984   1.5992   1.6065   1.6087   1.6116   1.6159   1.6192   1.6300
     1.6377   1.6382   1.6443   1.6512   1.6532   1.6594   1.6667   1.6697
     1.6717   1.6796   1.6809   1.6834   1.6859   1.6867   1.6885   1.6921
     1.6960   1.7039   1.7051   1.7117   1.7173   1.7202   1.7218   1.7232
     1.7235   1.7291   1.7323   1.7385   1.7422   1.7476   1.7479   1.7518
     1.7554   1.7602   1.7636   1.7757   1.7795   1.7897   1.7940   1.7973
     1.7995   1.8013   1.8084   1.8105   1.8219   1.8281   1.8332   1.8354
     1.8393   1.8410   1.8423   1.8486   1.8534   1.8594   1.8598   1.8701
     1.8750   1.8768   1.8789   1.8799   1.8818   1.8852   1.8885   1.8927
     1.9016   1.9039   1.9046   1.9101   1.9144   1.9162   1.9176   1.9244
     1.9272   1.9449   1.9452   1.9474   1.9482   1.9504   1.9545   1.9557
     1.9581   1.9587   1.9619   1.9770   1.9801   1.9834   1.9886   1.9908
     1.9925   1.9934   1.9950   1.9968   2.0022   2.0036   2.0060   2.0066
     2.0074   2.0080   2.0129   2.0138   2.0149   2.0265   2.0295   2.0305
     2.0332   2.0381   2.0383   2.0387   2.0422   2.0542   2.0558   2.0669
     2.0683   2.0691   2.0700   2.0723   2.0846   2.0868   2.0869   2.1122
     2.1154   2.1162   2.1289   2.1373   2.1394   2.1580   2.1606   2.1649
     2.1665   2.1913   2.1921   2.1927   2.2175   2.2218   2.2249   2.2308
     2.2349   2.2361   2.2416   2.2547   2.3018   2.3997   2.4826   2.5536
     2.5836   2.6472   2.6586   2.6622   2.7464   2.7475   2.7706   2.7785
     2.8046   2.8050   2.8163   2.8172   2.8818   2.8895   2.9187   2.9412
     2.9417   2.9907   2.9915   3.1683   3.1692   3.2154   3.2307   3.2721
     3.4149   3.5191   3.5813   3.5898   3.6480   3.8022   3.8043   3.9716
     4.0105   4.0352   4.0755   4.2070   4.2119   4.2854   4.2871   4.4677
     4.4879   4.5053   4.5079   4.5425   4.5438   4.5806   4.6055   4.6066
     4.6089   4.6106   4.9210   5.0048   5.0164   5.0325   5.0759   5.1871
     5.3260   5.4021   5.4854   5.5071   5.5426   5.5616   5.6507   5.6630
     5.7946   5.9054   6.0966   6.1162   6.2853   6.3316   6.3605   6.4691
     6.5071   6.8004   6.8090   6.8163   6.8368   6.8414   7.0391   7.0600
     7.0780   7.1721   7.2654   7.2963   7.3082   7.3862   7.3972   7.4068
     7.4071   7.4193   7.4359   7.4462   7.5240   7.6850   7.6883   7.7174
     7.8465   7.9223   7.9407   8.0085   8.0948   8.1103   8.1596   8.2732
     8.2888   8.3028   8.3041   8.5610   8.5786   8.5788   8.6403   8.6623
     8.6846   8.7070   8.7300   8.7960   8.8191   8.8560   8.9011   8.9108
     8.9254   9.0078   9.0638   9.1195   9.1353   9.1447   9.1520   9.1991
     9.2003   9.2891   9.2977   9.2991   9.3028   9.3306   9.3387   9.3498
     9.3785   9.5158   9.5654   9.6893   9.7024   9.7568   9.8101   9.8161
     9.8405   9.9557  10.0226  10.0470  10.0805  10.0817  10.0876  10.3313
    10.3767  10.4183  10.4784  10.5050  10.5140  10.5410  10.5852  10.5928
    10.6119  10.6228  10.6357  10.6441

          k = 0.0000-0.2165 0.0000 (256176 PWs)   bands (ev):

   -16.7127 -15.6594 -15.2101 -14.9831 -14.4853 -14.1126 -13.7441 -13.6679
   -13.5984 -13.5805 -13.1654 -13.0993 -13.0439 -13.0204 -11.9656 -11.7911
   -11.7520 -11.6487 -11.5580 -11.4210 -10.0152  -9.9458  -9.9254  -9.7367
    -8.8752  -8.8307  -8.6594  -8.5035  -8.3516  -8.2978  -7.7632  -7.6176
    -7.5495  -7.4935  -6.8978  -6.7020  -6.3556  -6.3470  -6.2470  -6.2402
    -6.2042  -6.1849  -5.5916  -5.4975  -5.3025  -5.2543  -4.9483  -4.8661
    -4.7918  -4.5463  -4.5030  -4.4074  -4.2973  -4.2430  -4.1939  -4.1752
    -4.1250  -4.0364  -4.0165  -4.0110  -3.3967  -3.3669  -3.2299  -3.2103
    -3.0930  -3.0738  -2.9295  -2.7407  -2.7139  -2.6746  -2.6736  -2.6529
    -2.6441  -2.5976  -2.5825  -2.5226  -2.4641  -2.4102  -2.4093  -2.3140
    -2.3022  -2.2342  -2.2176  -2.1816  -2.1503  -2.1420  -2.1071  -2.0285
    -2.0033  -1.9943  -1.9778  -1.9593  -1.9559  -1.9480  -1.9287  -1.9120
    -1.8687  -1.8617  -1.8051  -1.7336  -1.7188  -1.6422  -1.5902  -1.5678
    -1.5648  -1.5522  -1.5243  -1.5209  -1.4428  -1.3719  -1.3617  -1.3612
    -1.3426  -1.3425  -1.2415  -1.2337  -1.1926  -1.1858  -1.1759  -1.1711
    -1.1557  -1.1371  -1.1124  -1.1121  -1.0998  -1.0968  -1.0865  -1.0587
    -1.0520  -1.0329  -1.0286  -1.0253  -1.0235  -0.9785  -0.9581  -0.9474
    -0.9106  -0.9022  -0.8911  -0.8759  -0.8685  -0.8132  -0.7921  -0.7633
    -0.7532  -0.7091  -0.7079  -0.7071  -0.6996  -0.6992  -0.6931  -0.6915
    -0.6757  -0.6682  -0.6572  -0.6537  -0.6514  -0.6494  -0.6411  -0.6344
    -0.6239  -0.6112  -0.6096  -0.5857  -0.5359  -0.5346  -0.5193  -0.5143
    -0.4902  -0.4740  -0.4706  -0.4517  -0.4500  -0.4409  -0.4339  -0.4316
    -0.4285  -0.4142  -0.4063  -0.3866  -0.3737  -0.3724  -0.3660  -0.3580
    -0.3534  -0.3508  -0.3453  -0.3230  -0.3169  -0.3145  -0.3126  -0.3015
    -0.2983  -0.2644  -0.2638  -0.2635  -0.2502  -0.2423  -0.2350  -0.2341
    -0.2261  -0.2124  -0.2048  -0.1927  -0.1739  -0.1721  -0.1717  -0.1359
    -0.1131  -0.0961  -0.0919  -0.0844  -0.0832  -0.0583  -0.0577  -0.0522
    -0.0521  -0.0289  -0.0259  -0.0239  -0.0237  -0.0154  -0.0140  -0.0059
     0.0062   0.0071   0.0158   0.0160   0.0198   0.0244   0.0281   0.0368
     0.0493   0.0508   0.0624   0.0642   0.0787   0.0810   0.0926   0.1001
     0.1136   0.1234   0.1239   0.1250   0.1253   0.1276   0.1390   0.1398
     0.1529   0.1564   0.1742   0.1985   0.2061   0.2064   0.2241   0.2258
     0.2347   0.2425   0.2476   0.2489   0.2609   0.2655   0.2676   0.2697
     0.2791   0.2831   0.2935   0.2936   0.2956   0.3065   0.3086   0.3157
     0.3182   0.3185   0.3195   0.3221   0.3249   0.3270   0.3319   0.3462
     0.3505   0.3562   0.3575   0.3660   0.3681   0.3692   0.3842   0.3851
     0.3934   0.3972   0.3984   0.4066   0.4083   0.4105   0.4150   0.4175
     0.4262   0.4284   0.4397   0.4494   0.4528   0.4686   0.4735   0.4749
     0.4839   0.4892   0.4902   0.5013   0.5025   0.5092   0.5177   0.5231
     0.5246   0.5259   0.5279   0.5302   0.5385   0.5435   0.5602   0.5656
     0.5732   0.5759   0.5795   0.5822   0.5831   0.5875   0.5897   0.5970
     0.6030   0.6154   0.6174   0.6289   0.6324   0.6361   0.6372   0.6473
     0.6539   0.6578   0.6601   0.6716   0.6813   0.6817   0.6903   0.6923
     0.6953   0.6976   0.7049   0.7070   0.7088   0.7166   0.7220   0.7232
     0.7261   0.7311   0.7347   0.7484   0.7506   0.7539   0.7561   0.7679
     0.7755   0.7782   0.7867   0.8014   0.8157   0.8202   0.8339   0.8474
     0.8480   0.8524   0.8536   0.8654   0.8816   0.8887   0.8899   0.8918
     0.8974   0.9094   0.9155   0.9211   0.9291   0.9305   0.9513   0.9527
     0.9531   0.9727   0.9741   0.9897   0.9907   0.9970   1.0083   1.0203
     1.0221   1.0234   1.0362   1.0367   1.0474   1.0533   1.0537   1.0695
     1.0700   1.0857   1.0876   1.0918   1.0943   1.1029   1.1033   1.1194
     1.1284   1.1285   1.1330   1.1339   1.1367   1.1388   1.1486   1.1492
     1.1525   1.1573   1.1647   1.1679   1.1708   1.1713   1.1753   1.1778
     1.1872   1.1899   1.1924   1.2090   1.2119   1.2170   1.2187   1.2206
     1.2246   1.2277   1.2315   1.2337   1.2381   1.2447   1.2448   1.2568
     1.2585   1.2694   1.2695   1.2701   1.2730   1.2783   1.2889   1.2905
     1.2919   1.2925   1.2936   1.2956   1.3024   1.3060   1.3138   1.3177
     1.3233   1.3252   1.3278   1.3286   1.3300   1.3347   1.3392   1.3553
     1.3563   1.3564   1.3612   1.3735   1.3872   1.4002   1.4016   1.4060
     1.4072   1.4109   1.4163   1.4177   1.4327   1.4592   1.4596   1.4804
     1.4819   1.4906   1.4940   1.4955   1.4965   1.4969   1.5069   1.5087
     1.5102   1.5139   1.5151   1.5173   1.5256   1.5265   1.5289   1.5340
     1.5355   1.5372   1.5460   1.5609   1.5622   1.5636   1.5651   1.5712
     1.5740   1.5769   1.5774   1.5819   1.5857   1.5863   1.5867   1.5868
     1.5882   1.5913   1.6035   1.6050   1.6070   1.6079   1.6087   1.6139
     1.6156   1.6187   1.6198   1.6211   1.6295   1.6427   1.6437   1.6443
     1.6501   1.6572   1.6705   1.6720   1.6749   1.6777   1.6800   1.6837
     1.6916   1.6957   1.6967   1.7133   1.7144   1.7194   1.7280   1.7291
     1.7297   1.7314   1.7400   1.7494   1.7597   1.7653   1.7741   1.7761
     1.7767   1.7806   1.7811   1.7881   1.7914   1.7919   1.7962   1.8001
     1.8022   1.8044   1.8082   1.8097   1.8102   1.8182   1.8211   1.8245
     1.8256   1.8314   1.8327   1.8475   1.8482   1.8535   1.8592   1.8609
     1.8623   1.8682   1.8728   1.8769   1.8781   1.8783   1.8844   1.8875
     1.8879   1.8998   1.9019   1.9074   1.9081   1.9142   1.9181   1.9189
     1.9208   1.9256   1.9294   1.9300   1.9354   1.9368   1.9443   1.9479
     1.9568   1.9570   1.9655   1.9688   1.9735   1.9760   1.9816   1.9909
     1.9925   1.9943   1.9959   1.9978   1.9987   2.0014   2.0069   2.0096
     2.0223   2.0227   2.0287   2.0309   2.0393   2.0400   2.0458   2.0464
     2.0500   2.0522   2.0527   2.0534   2.0710   2.0730   2.0759   2.0772
     2.0817   2.0928   2.1005   2.1079   2.1133   2.1200   2.1225   2.1249
     2.1253   2.1264   2.1275   2.1305   2.1382   2.1440   2.1453   2.1506
     2.1745   2.2034   2.2266   2.2465   2.2467   2.3189   2.3431   2.3451
     2.3455   2.3688   2.3706   2.3881   2.3907   2.4013   2.4259   2.4353
     2.4504   2.4546   2.4744   2.6065   2.6109   2.6525   2.6891   2.7168
     2.7408   2.8192   2.8461   2.8892   2.9766   2.9880   3.0051   3.0324
     3.0343   3.0859   3.1593   3.1764   3.1769   3.2663   3.2677   3.2679
     3.3108   3.5119   3.5120   3.5597   3.5819   3.5824   3.7686   3.7687
     3.7895   3.8001   4.0561   4.0775   4.0961   4.1659   4.2223   4.2648
     4.3157   4.4744   4.5026   4.5336   4.5761   4.5855   4.6585   4.6618
     4.6632   4.7938   4.9971   5.0215   5.1483   5.1593   5.3740   5.4959
     5.5833   5.6091   5.6484   5.6886   5.7026   5.8036   5.8706   5.8738
     5.9675   5.9784   5.9897   6.0061   6.1121   6.2307   6.2501   6.3272
     6.3729   6.3977   6.5182   6.5498   6.5936   6.7029   6.8292   6.9554
     7.0465   7.0481   7.1966   7.1984   7.2079   7.3033   7.4767   7.5377
     7.5498   7.5959   7.6138   7.6173   7.6694   7.7279   7.7295   7.7427
     7.7508   7.7689   7.8585   8.0087   8.0170   8.1136   8.1745   8.1839
     8.1956   8.2773   8.3116   8.3172   8.4539   8.5447   8.5957   8.5968
     8.7586   8.7944   8.8544   8.8712   8.9139   8.9308   8.9465   8.9911
     9.0072   9.0344   9.0391   9.0434   9.1098   9.1201   9.1277   9.2290
     9.2916   9.2978   9.3262   9.3855   9.4614   9.4934   9.5027   9.5274
     9.7178   9.7245   9.7332   9.7334   9.8606   9.8689   9.9232   9.9257
     9.9284   9.9302   9.9384   9.9444   9.9836  10.0398  10.0948  10.1039
    10.2658  10.2777  10.2887  10.3640  10.3932  10.4582  10.4655  10.4837
    10.5734  10.6070  10.6328  10.6950

          k = 0.2500 0.0000 0.0000 (256240 PWs)   bands (ev):

   -16.6606 -15.5129 -15.2520 -15.0673 -14.5156 -14.3202 -14.2935 -14.2168
   -13.4566 -13.3116 -13.1780 -12.6249 -12.5189 -12.4780 -12.3292 -11.7085
   -11.5944 -11.4951 -11.4340 -10.6422 -10.5421 -10.1569  -9.9644  -9.7545
    -9.5860  -9.3263  -9.2801  -8.8608  -8.5973  -8.5058  -8.0598  -7.3657
    -7.1635  -7.1160  -6.9516  -6.9290  -6.8232  -6.4510  -6.3629  -5.6935
    -5.5646  -5.3804  -5.3393  -5.2532  -5.2325  -4.8343  -4.8202  -4.6961
    -4.6928  -4.6509  -4.2871  -4.2594  -4.0308  -3.9860  -3.9411  -3.8571
    -3.8499  -3.7651  -3.7411  -3.6455  -3.6183  -3.4583  -3.3780  -3.3534
    -3.3268  -3.3081  -3.2177  -3.2152  -3.1897  -3.0339  -3.0250  -2.9688
    -2.9625  -2.8511  -2.8059  -2.7614  -2.7337  -2.7257  -2.5914  -2.5755
    -2.5203  -2.5108  -2.4565  -2.3501  -2.2872  -2.2242  -2.2085  -2.1911
    -2.1739  -2.1730  -1.9953  -1.8608  -1.8412  -1.8220  -1.7937  -1.7529
    -1.7016  -1.5859  -1.5343  -1.4991  -1.4890  -1.4802  -1.4697  -1.4633
    -1.4313  -1.4191  -1.3759  -1.3332  -1.3210  -1.2862  -1.2761  -1.2320
    -1.2064  -1.1825  -1.1771  -1.1738  -1.1717  -1.1668  -1.1581  -1.1546
    -1.1166  -1.0994  -1.0829  -1.0777  -1.0478  -1.0461  -1.0439  -0.9957
    -0.9713  -0.9676  -0.9655  -0.9494  -0.9382  -0.9304  -0.9144  -0.9073
    -0.8970  -0.8854  -0.8834  -0.8442  -0.8390  -0.8114  -0.7711  -0.7513
    -0.7209  -0.7014  -0.6950  -0.6863  -0.6768  -0.6562  -0.6418  -0.6320
    -0.6259  -0.6200  -0.6152  -0.6050  -0.5943  -0.5900  -0.5788  -0.5734
    -0.5728  -0.5545  -0.5488  -0.5297  -0.5279  -0.5258  -0.5159  -0.5113
    -0.5067  -0.5055  -0.4986  -0.4859  -0.4807  -0.4617  -0.4509  -0.4463
    -0.4385  -0.4322  -0.4281  -0.4220  -0.4142  -0.4130  -0.4094  -0.4082
    -0.4030  -0.3963  -0.3838  -0.3779  -0.3732  -0.3718  -0.3688  -0.3668
    -0.3612  -0.3559  -0.3556  -0.3485  -0.3233  -0.3022  -0.2931  -0.2864
    -0.2751  -0.2736  -0.2623  -0.2525  -0.2312  -0.1964  -0.1949  -0.1861
    -0.1784  -0.1747  -0.1676  -0.1670  -0.1512  -0.1366  -0.1323  -0.1278
    -0.1238  -0.1219  -0.1104  -0.0981  -0.0695  -0.0247  -0.0180  -0.0084
    -0.0020   0.0128   0.0177   0.0198   0.0263   0.0434   0.0533   0.0555
     0.0626   0.0635   0.0722   0.0765   0.0891   0.0962   0.1036   0.1065
     0.1096   0.1131   0.1182   0.1377   0.1399   0.1412   0.1427   0.1587
     0.1666   0.1764   0.1789   0.1940   0.2073   0.2098   0.2125   0.2152
     0.2189   0.2224   0.2293   0.2320   0.2379   0.2400   0.2422   0.2518
     0.2683   0.2760   0.2792   0.2856   0.2880   0.2948   0.2965   0.3006
     0.3050   0.3082   0.3176   0.3233   0.3258   0.3262   0.3302   0.3368
     0.3459   0.3574   0.3599   0.3722   0.3769   0.3782   0.3857   0.4014
     0.4093   0.4132   0.4145   0.4184   0.4260   0.4310   0.4378   0.4395
     0.4430   0.4540   0.4586   0.4737   0.4782   0.4787   0.4916   0.4940
     0.4966   0.5048   0.5063   0.5116   0.5167   0.5238   0.5290   0.5361
     0.5439   0.5496   0.5547   0.5591   0.5702   0.5727   0.5875   0.5908
     0.5920   0.5997   0.6016   0.6035   0.6072   0.6098   0.6133   0.6157
     0.6194   0.6273   0.6295   0.6321   0.6486   0.6556   0.6579   0.6612
     0.6646   0.6677   0.6756   0.6789   0.6803   0.6815   0.6852   0.6915
     0.6981   0.7091   0.7220   0.7233   0.7408   0.7441   0.7482   0.7531
     0.7595   0.7623   0.7649   0.7810   0.7895   0.7951   0.7994   0.8060
     0.8172   0.8223   0.8317   0.8438   0.8578   0.8597   0.8637   0.8688
     0.8731   0.8780   0.8849   0.8970   0.9019   0.9039   0.9065   0.9104
     0.9161   0.9198   0.9217   0.9240   0.9270   0.9329   0.9344   0.9389
     0.9405   0.9467   0.9548   0.9560   0.9591   0.9611   0.9670   0.9717
     0.9796   0.9928   0.9986   1.0097   1.0165   1.0330   1.0373   1.0450
     1.0476   1.0507   1.0558   1.0585   1.0604   1.0642   1.0685   1.0720
     1.0772   1.0878   1.0989   1.1028   1.1031   1.1151   1.1179   1.1254
     1.1285   1.1307   1.1407   1.1452   1.1476   1.1578   1.1601   1.1655
     1.1680   1.1705   1.1837   1.1860   1.1896   1.1960   1.1986   1.2020
     1.2033   1.2146   1.2157   1.2217   1.2265   1.2305   1.2335   1.2404
     1.2436   1.2441   1.2544   1.2576   1.2588   1.2626   1.2671   1.2685
     1.2807   1.2855   1.2868   1.2925   1.2930   1.3113   1.3140   1.3182
     1.3232   1.3352   1.3419   1.3446   1.3476   1.3561   1.3581   1.3627
     1.3654   1.3764   1.3794   1.3832   1.3869   1.3901   1.4022   1.4046
     1.4131   1.4141   1.4159   1.4200   1.4344   1.4370   1.4458   1.4515
     1.4532   1.4540   1.4592   1.4622   1.4668   1.4753   1.4806   1.4836
     1.4868   1.4880   1.4930   1.5005   1.5018   1.5100   1.5127   1.5173
     1.5195   1.5218   1.5264   1.5326   1.5465   1.5533   1.5579   1.5614
     1.5718   1.5753   1.5786   1.5837   1.5883   1.5905   1.5928   1.6011
     1.6055   1.6073   1.6108   1.6155   1.6161   1.6227   1.6276   1.6302
     1.6311   1.6325   1.6431   1.6435   1.6463   1.6493   1.6497   1.6549
     1.6586   1.6602   1.6637   1.6659   1.6666   1.6705   1.6749   1.6817
     1.6890   1.6940   1.6952   1.6981   1.7015   1.7076   1.7093   1.7133
     1.7185   1.7238   1.7263   1.7273   1.7316   1.7407   1.7484   1.7506
     1.7560   1.7612   1.7689   1.7711   1.7760   1.7871   1.7941   1.7958
     1.7978   1.8009   1.8059   1.8117   1.8162   1.8192   1.8205   1.8268
     1.8307   1.8390   1.8424   1.8443   1.8502   1.8549   1.8562   1.8598
     1.8698   1.8722   1.8730   1.8753   1.8773   1.8796   1.8816   1.8830
     1.8907   1.8939   1.8986   1.9002   1.9044   1.9067   1.9119   1.9147
     1.9161   1.9207   1.9272   1.9295   1.9377   1.9500   1.9542   1.9626
     1.9635   1.9681   1.9706   1.9721   1.9741   1.9764   1.9791   1.9851
     1.9872   1.9914   1.9947   1.9960   2.0099   2.0104   2.0116   2.0142
     2.0158   2.0227   2.0239   2.0257   2.0278   2.0301   2.0363   2.0370
     2.0398   2.0425   2.0454   2.0470   2.0546   2.0559   2.0629   2.0667
     2.0697   2.0714   2.0735   2.0801   2.0813   2.0850   2.0926   2.0979
     2.0999   2.1039   2.1064   2.1081   2.1219   2.1280   2.1296   2.1465
     2.1549   2.1618   2.1664   2.1749   2.1835   2.1968   2.2043   2.2136
     2.2203   2.2341   2.2384   2.3256   2.3353   2.3412   2.3753   2.3970
     2.4019   2.4335   2.4527   2.4785   2.5248   2.5950   2.6098   2.6268
     2.6348   2.6791   2.7006   2.9749   3.0429   3.0613   3.0742   3.1074
     3.1843   3.3261   3.4745   3.5169   3.5722   3.5734   3.6092   3.6972
     3.7343   3.7682   3.8157   3.8203   3.8489   3.9985   4.0581   4.0707
     4.1416   4.1823   4.2325   4.2397   4.2546   4.2691   4.2794   4.2825
     4.2871   4.3370   4.5292   4.7136   4.7693   4.8004   4.8819   4.9143
     4.9534   5.0024   5.1099   5.1578   5.1753   5.1954   5.2142   5.3643
     5.4019   5.5888   5.5962   5.6382   5.6741   5.7131   5.7663   5.8032
     5.8371   5.8997   5.9090   5.9728   5.9938   6.1006   6.1818   6.1878
     6.2173   6.3713   6.4817   6.5009   6.5191   6.5484   6.5616   6.5867
     6.8123   6.8937   6.9808   7.0256   7.1510   7.2174   7.2513   7.2980
     7.3293   7.3317   7.3663   7.3944   7.4123   7.4459   7.4734   7.5177
     7.5225   7.5539   7.6272   7.6471   7.7741   7.8751   7.9041   7.9325
     8.0974   8.1125   8.1772   8.2241   8.2821   8.3170   8.3674   8.3940
     8.4574   8.4884   8.5209   8.6064   8.6084   8.6416   8.7396   8.7537
     8.8623   8.9592   8.9644   8.9790   9.0211   9.0396   9.0973   9.1426
     9.2199   9.3116   9.3662   9.3842   9.4086   9.4628   9.4780   9.4817
     9.5299   9.5373   9.5697   9.6121   9.6939   9.7439   9.7597   9.7719
     9.8307   9.8596   9.9616   9.9757   9.9998  10.0277  10.0711  10.0753
    10.1864  10.2308  10.3042  10.3116  10.3221  10.3688  10.3809  10.4215
    10.4996  10.5370  10.5539  10.6376

          k = 0.2500-0.2165 0.0000 (256316 PWs)   bands (ev):

   -16.6604 -15.5413 -15.2201 -14.8657 -14.8517 -14.5317 -14.0375 -13.8882
   -13.6278 -13.4600 -13.1458 -12.6307 -12.5978 -12.5036 -12.0942 -11.9889
   -11.5562 -11.3724 -10.8823 -10.7956 -10.6820 -10.4850 -10.3443  -9.9273
    -9.2454  -9.1381  -8.7832  -8.7348  -8.4457  -8.4236  -8.0726  -7.9779
    -7.8239  -7.7778  -6.7027  -6.4304  -6.2031  -6.0586  -5.9636  -5.8812
    -5.7302  -5.6617  -5.4888  -5.4401  -5.1251  -5.0760  -4.8136  -4.7413
    -4.6063  -4.4699  -4.3114  -4.2603  -4.0813  -4.0309  -4.0098  -3.9547
    -3.8825  -3.8550  -3.7581  -3.7166  -3.5886  -3.5704  -3.5139  -3.4205
    -3.2235  -3.2199  -3.1718  -3.0725  -3.0524  -2.9506  -2.9155  -2.9076
    -2.8507  -2.8115  -2.7806  -2.7759  -2.7245  -2.6767  -2.6334  -2.5333
    -2.4922  -2.4721  -2.4182  -2.3194  -2.2886  -2.2880  -2.1863  -2.1718
    -2.1401  -2.0654  -2.0081  -1.9154  -1.8953  -1.8683  -1.7713  -1.7228
    -1.6930  -1.6822  -1.5861  -1.5712  -1.5422  -1.5407  -1.5190  -1.4858
    -1.4738  -1.4078  -1.4055  -1.3588  -1.3460  -1.3321  -1.3216  -1.2934
    -1.2561  -1.2259  -1.1879  -1.1855  -1.1471  -1.1429  -1.1306  -1.1087
    -1.0960  -1.0901  -1.0821  -1.0792  -1.0779  -1.0710  -1.0628  -1.0584
    -1.0540  -0.9949  -0.9883  -0.9584  -0.9574  -0.9499  -0.9392  -0.8851
    -0.8692  -0.8410  -0.8323  -0.7785  -0.7725  -0.7519  -0.7480  -0.7188
    -0.7159  -0.7014  -0.6708  -0.6695  -0.6688  -0.6668  -0.6472  -0.6346
    -0.6320  -0.6207  -0.6181  -0.6128  -0.6069  -0.5941  -0.5914  -0.5888
    -0.5883  -0.5794  -0.5766  -0.5480  -0.5463  -0.5278  -0.5080  -0.5049
    -0.5022  -0.5003  -0.4974  -0.4907  -0.4648  -0.4570  -0.4553  -0.4457
    -0.4424  -0.4393  -0.4335  -0.4295  -0.4202  -0.4144  -0.4021  -0.3984
    -0.3853  -0.3789  -0.3705  -0.3636  -0.3620  -0.3603  -0.3576  -0.3549
    -0.3445  -0.3425  -0.3120  -0.3099  -0.2950  -0.2836  -0.2755  -0.2713
    -0.2567  -0.2503  -0.2404  -0.2318  -0.2270  -0.2225  -0.2085  -0.1992
    -0.1877  -0.1751  -0.1621  -0.1571  -0.1346  -0.1306  -0.1245  -0.1065
    -0.0959  -0.0839  -0.0811  -0.0685  -0.0659  -0.0535  -0.0426  -0.0110
    -0.0037   0.0050   0.0142   0.0257   0.0324   0.0336   0.0392   0.0433
     0.0478   0.0529   0.0576   0.0661   0.0753   0.0835   0.0950   0.1083
     0.1093   0.1155   0.1297   0.1331   0.1452   0.1511   0.1550   0.1563
     0.1580   0.1684   0.1760   0.1819   0.1836   0.1876   0.1988   0.2053
     0.2108   0.2174   0.2245   0.2292   0.2304   0.2322   0.2382   0.2469
     0.2486   0.2519   0.2601   0.2611   0.2614   0.2737   0.2777   0.2817
     0.2868   0.2970   0.3040   0.3240   0.3303   0.3323   0.3436   0.3476
     0.3576   0.3600   0.3681   0.3703   0.3759   0.3859   0.3871   0.3948
     0.4014   0.4043   0.4156   0.4188   0.4233   0.4323   0.4412   0.4442
     0.4545   0.4732   0.4817   0.4885   0.4889   0.4913   0.4932   0.4958
     0.5067   0.5107   0.5111   0.5234   0.5310   0.5321   0.5379   0.5448
     0.5462   0.5540   0.5565   0.5614   0.5662   0.5669   0.5806   0.5815
     0.5909   0.5933   0.5955   0.5988   0.6006   0.6063   0.6109   0.6275
     0.6300   0.6338   0.6372   0.6386   0.6393   0.6521   0.6587   0.6689
     0.6882   0.6906   0.6916   0.6945   0.6962   0.6978   0.6996   0.7114
     0.7152   0.7340   0.7386   0.7428   0.7484   0.7523   0.7542   0.7613
     0.7644   0.7668   0.7677   0.7773   0.7847   0.7867   0.7908   0.7923
     0.8042   0.8051   0.8082   0.8169   0.8249   0.8323   0.8447   0.8518
     0.8609   0.8702   0.8815   0.8835   0.8906   0.8947   0.9039   0.9080
     0.9117   0.9175   0.9234   0.9251   0.9278   0.9285   0.9337   0.9424
     0.9496   0.9563   0.9576   0.9592   0.9621   0.9708   0.9791   0.9875
     0.9897   0.9942   0.9964   1.0002   1.0086   1.0168   1.0233   1.0296
     1.0316   1.0347   1.0389   1.0440   1.0499   1.0593   1.0776   1.0907
     1.0961   1.1052   1.1082   1.1108   1.1131   1.1142   1.1190   1.1232
     1.1335   1.1426   1.1505   1.1540   1.1610   1.1682   1.1793   1.1831
     1.1848   1.1870   1.1955   1.1988   1.1995   1.2049   1.2055   1.2111
     1.2184   1.2220   1.2247   1.2324   1.2404   1.2427   1.2478   1.2514
     1.2603   1.2626   1.2633   1.2688   1.2715   1.2802   1.2832   1.2882
     1.2900   1.2962   1.2992   1.3016   1.3068   1.3086   1.3102   1.3168
     1.3216   1.3280   1.3400   1.3422   1.3436   1.3455   1.3479   1.3504
     1.3531   1.3555   1.3616   1.3651   1.3681   1.3784   1.3800   1.3930
     1.3953   1.3968   1.4058   1.4093   1.4241   1.4275   1.4322   1.4325
     1.4442   1.4467   1.4491   1.4534   1.4552   1.4581   1.4711   1.4764
     1.4782   1.4863   1.4882   1.4891   1.4897   1.4929   1.4951   1.5008
     1.5151   1.5186   1.5230   1.5264   1.5281   1.5298   1.5362   1.5474
     1.5534   1.5591   1.5612   1.5659   1.5693   1.5743   1.5761   1.5908
     1.5914   1.5942   1.5975   1.6059   1.6090   1.6302   1.6340   1.6350
     1.6386   1.6500   1.6561   1.6589   1.6628   1.6666   1.6712   1.6776
     1.6837   1.6845   1.6907   1.6923   1.6950   1.6973   1.7030   1.7044
     1.7050   1.7080   1.7093   1.7135   1.7205   1.7232   1.7245   1.7282
     1.7468   1.7481   1.7534   1.7571   1.7601   1.7646   1.7662   1.7677
     1.7696   1.7715   1.7732   1.7755   1.7791   1.7808   1.7818   1.7841
     1.7976   1.7985   1.8011   1.8040   1.8065   1.8068   1.8087   1.8120
     1.8153   1.8258   1.8295   1.8408   1.8421   1.8452   1.8474   1.8551
     1.8574   1.8597   1.8614   1.8676   1.8702   1.8732   1.8830   1.8883
     1.8953   1.8959   1.9011   1.9066   1.9101   1.9124   1.9158   1.9205
     1.9254   1.9313   1.9318   1.9368   1.9436   1.9489   1.9520   1.9570
     1.9591   1.9633   1.9663   1.9687   1.9707   1.9744   1.9765   1.9799
     1.9824   1.9849   1.9861   1.9951   1.9987   2.0000   2.0075   2.0125
     2.0145   2.0218   2.0237   2.0248   2.0297   2.0309   2.0323   2.0337
     2.0422   2.0446   2.0463   2.0499   2.0513   2.0525   2.0606   2.0654
     2.0711   2.0718   2.0742   2.0753   2.0774   2.0840   2.0855   2.0906
     2.0961   2.0983   2.1042   2.1072   2.1121   2.1195   2.1224   2.1370
     2.1398   2.1461   2.1472   2.1522   2.1677   2.1802   2.1885   2.2094
     2.2375   2.2540   2.2822   2.3037   2.3149   2.3269   2.3281   2.3360
     2.3482   2.3531   2.3695   2.4678   2.7001   2.7079   2.7263   2.7373
     2.7643   2.8270   2.8411   2.8511   2.9562   3.0729   3.1519   3.1576
     3.1733   3.2169   3.2819   3.3729   3.3803   3.4199   3.4595   3.4904
     3.5185   3.6771   3.7544   3.7648   3.7836   3.9790   4.1714   4.2131
     4.2256   4.2513   4.3166   4.4000   4.4184   4.4355   4.4592   4.6088
     4.6541   4.6747   4.7400   4.7403   4.7726   4.8428   4.8942   4.9181
     4.9322   4.9397   4.9969   5.0592   5.1110   5.1746   5.1888   5.2494
     5.2537   5.3343   5.3850   5.4332   5.4902   5.5652   5.5879   5.7747
     5.7887   5.8032   5.9740   6.0043   6.0454   6.0602   6.1335   6.1631
     6.3155   6.3197   6.3959   6.4286   6.5626   6.6086   6.6423   6.6522
     6.8205   6.8542   7.0114   7.0372   7.0533   7.0929   7.1466   7.3271
     7.3654   7.3890   7.4285   7.4974   7.5881   7.6112   7.6684   7.6816
     7.7078   7.7168   7.7331   7.7536   7.7808   7.9034   7.9239   7.9676
     8.0161   8.0853   8.0915   8.1414   8.3405   8.3904   8.4034   8.4884
     8.5140   8.5699   8.5961   8.6263   8.6861   8.7544   8.7912   8.8116
     8.8273   8.8714   8.8888   8.9529   9.0161   9.0855   9.0929   9.1005
     9.1559   9.1897   9.2334   9.2810   9.3188   9.3223   9.3275   9.3453
     9.4371   9.4910   9.5950   9.6143   9.6357   9.6575   9.7046   9.7253
     9.7552   9.8046   9.8395   9.8812   9.9169   9.9482  10.0255  10.0650
    10.0951  10.1029  10.1443  10.2175  10.2293  10.2921  10.3428  10.4211
    10.4446  10.4753  10.5024  10.5471

          k =-0.5000 0.0000 0.0000 (256496 PWs)   bands (ev):

   -16.5978 -15.4287 -15.1355 -14.9995 -14.9009 -14.8374 -14.1314 -13.9694
   -13.8634 -13.8329 -12.5759 -12.2712 -12.1418 -12.0702 -11.8913 -11.8375
   -11.2916 -11.2855 -11.0837 -11.0800 -10.5410 -10.5314 -10.3687 -10.1602
    -9.6998  -9.6796  -9.4380  -9.1082  -8.5331  -8.5021  -8.3461  -8.2959
    -7.1867  -7.0148  -6.9863  -6.8065  -6.7627  -6.7367  -5.6793  -5.6234
    -5.2247  -4.7263  -4.7096  -4.6974  -4.5660  -4.5116  -4.3518  -4.2540
    -4.2296  -4.1973  -4.1794  -4.1748  -4.1552  -4.1382  -4.0543  -4.0322
    -4.0087  -3.9596  -3.9381  -3.9098  -3.7967  -3.7733  -3.7604  -3.6101
    -3.5163  -3.4286  -3.2931  -3.2852  -3.1904  -3.1424  -3.0679  -2.9374
    -2.9345  -2.9038  -2.8013  -2.7974  -2.7955  -2.7942  -2.7920  -2.7883
    -2.7599  -2.7354  -2.4523  -2.4260  -2.2924  -2.2813  -2.2447  -2.1958
    -2.1832  -2.1721  -2.1333  -2.1062  -2.0514  -1.9391  -1.9220  -1.8937
    -1.8904  -1.8853  -1.8751  -1.8118  -1.3538  -1.3419  -1.3354  -1.3314
    -1.2744  -1.2657  -1.2626  -1.2593  -1.2574  -1.2539  -1.2519  -1.2145
    -1.2091  -1.2036  -1.1246  -1.0471  -1.0464  -1.0441  -1.0427  -0.9973
    -0.9932  -0.9909  -0.9877  -0.9844  -0.9741  -0.9299  -0.9248  -0.9050
    -0.8788  -0.8784  -0.8536  -0.8523  -0.8383  -0.8373  -0.8264  -0.8212
    -0.8163  -0.7967  -0.7771  -0.7755  -0.7491  -0.7483  -0.7403  -0.7385
    -0.7188  -0.7140  -0.7069  -0.7015  -0.6887  -0.6880  -0.6828  -0.6809
    -0.6718  -0.6700  -0.6662  -0.6638  -0.6189  -0.6057  -0.6033  -0.5920
    -0.5854  -0.5815  -0.5796  -0.5675  -0.5605  -0.5489  -0.5436  -0.5417
    -0.5402  -0.5203  -0.5132  -0.5021  -0.4992  -0.4939  -0.4933  -0.4788
    -0.4770  -0.4684  -0.4559  -0.4379  -0.4303  -0.4255  -0.4168  -0.4065
    -0.3995  -0.3966  -0.3763  -0.3742  -0.3720  -0.3619  -0.3612  -0.3607
    -0.3586  -0.3521  -0.3510  -0.3358  -0.3341  -0.3288  -0.3229  -0.3088
    -0.3027  -0.2982  -0.2974  -0.2942  -0.2928  -0.2811  -0.2791  -0.2374
    -0.2338  -0.1629  -0.1597  -0.1290  -0.1232  -0.1173  -0.1148  -0.1030
    -0.0914  -0.0899  -0.0756  -0.0711  -0.0653  -0.0563  -0.0551  -0.0439
    -0.0406  -0.0358  -0.0232  -0.0119  -0.0114  -0.0036  -0.0029   0.0086
     0.0143   0.0219   0.0250   0.0265   0.0383   0.0558   0.0714   0.0757
     0.0917   0.0971   0.1067   0.1219   0.1270   0.1303   0.1424   0.1425
     0.1458   0.1466   0.1713   0.1756   0.1834   0.1848   0.1981   0.2001
     0.2121   0.2316   0.2329   0.2342   0.2410   0.2524   0.2545   0.2653
     0.2665   0.2769   0.2794   0.2839   0.2982   0.3017   0.3093   0.3104
     0.3154   0.3285   0.3308   0.3396   0.3400   0.3515   0.3538   0.3555
     0.3589   0.3624   0.3630   0.3871   0.3972   0.3984   0.4109   0.4251
     0.4275   0.4346   0.4403   0.4523   0.4597   0.4628   0.4634   0.4744
     0.4789   0.4805   0.4849   0.4978   0.4995   0.5145   0.5320   0.5353
     0.5377   0.5392   0.5442   0.5555   0.5567   0.5661   0.5683   0.5690
     0.5715   0.5787   0.5853   0.5868   0.5872   0.5904   0.5941   0.5961
     0.6084   0.6164   0.6187   0.6223   0.6361   0.6382   0.6495   0.6522
     0.6751   0.6812   0.6817   0.6873   0.6946   0.6950   0.6968   0.6979
     0.6981   0.7028   0.7037   0.7087   0.7126   0.7131   0.7138   0.7238
     0.7306   0.7314   0.7330   0.7341   0.7381   0.7405   0.7432   0.7451
     0.7467   0.7509   0.7511   0.7586   0.7680   0.7688   0.7715   0.7833
     0.8002   0.8036   0.8139   0.8146   0.8262   0.8325   0.8674   0.8707
     0.8784   0.8830   0.8866   0.8923   0.9012   0.9030   0.9074   0.9092
     0.9252   0.9297   0.9358   0.9391   0.9459   0.9509   0.9528   0.9582
     0.9598   0.9613   0.9684   0.9688   0.9708   0.9857   0.9879   0.9900
     0.9905   0.9909   0.9953   0.9966   0.9973   1.0103   1.0110   1.0174
     1.0187   1.0213   1.0265   1.0492   1.0528   1.0598   1.0653   1.0710
     1.0745   1.0924   1.0931   1.0937   1.1021   1.1051   1.1070   1.1104
     1.1127   1.1230   1.1262   1.1395   1.1436   1.1448   1.1494   1.1525
     1.1530   1.1622   1.1649   1.1690   1.1702   1.1743   1.1773   1.1786
     1.1797   1.2033   1.2058   1.2086   1.2115   1.2171   1.2183   1.2204
     1.2242   1.2303   1.2314   1.2352   1.2440   1.2460   1.2481   1.2512
     1.2590   1.2621   1.2634   1.2640   1.2788   1.2803   1.2884   1.2887
     1.2926   1.2948   1.3049   1.3053   1.3313   1.3347   1.3386   1.3432
     1.3484   1.3489   1.3579   1.3588   1.3599   1.3638   1.3667   1.3670
     1.3796   1.3810   1.3853   1.3881   1.3954   1.3985   1.4147   1.4154
     1.4168   1.4345   1.4349   1.4375   1.4377   1.4439   1.4481   1.4536
     1.4591   1.4598   1.4629   1.4664   1.4694   1.4707   1.4729   1.4779
     1.4907   1.4964   1.5000   1.5004   1.5025   1.5038   1.5242   1.5259
     1.5293   1.5448   1.5508   1.5551   1.5611   1.5686   1.5706   1.5775
     1.5920   1.5945   1.6022   1.6058   1.6095   1.6144   1.6241   1.6354
     1.6369   1.6519   1.6568   1.6618   1.6620   1.6665   1.6735   1.6780
     1.6813   1.6827   1.6863   1.6872   1.6887   1.6928   1.7032   1.7043
     1.7087   1.7147   1.7185   1.7216   1.7268   1.7284   1.7288   1.7302
     1.7365   1.7400   1.7447   1.7482   1.7516   1.7531   1.7644   1.7709
     1.7733   1.7748   1.7770   1.7823   1.7833   1.7847   1.7861   1.7961
     1.8058   1.8067   1.8108   1.8118   1.8144   1.8167   1.8194   1.8229
     1.8260   1.8288   1.8294   1.8310   1.8376   1.8409   1.8416   1.8479
     1.8582   1.8662   1.8710   1.8754   1.8825   1.8872   1.8898   1.8906
     1.8922   1.8939   1.8980   1.8990   1.9044   1.9089   1.9128   1.9157
     1.9167   1.9184   1.9203   1.9211   1.9239   1.9250   1.9279   1.9286
     1.9295   1.9355   1.9416   1.9486   1.9499   1.9578   1.9603   1.9641
     1.9709   1.9712   1.9728   1.9735   1.9773   1.9858   1.9896   1.9955
     1.9970   1.9983   1.9988   2.0112   2.0150   2.0152   2.0166   2.0185
     2.0197   2.0202   2.0288   2.0298   2.0343   2.0366   2.0429   2.0442
     2.0452   2.0459   2.0572   2.0660   2.0678   2.0684   2.0771   2.0777
     2.0880   2.0913   2.0931   2.0956   2.1065   2.1068   2.1071   2.1072
     2.1140   2.1160   2.1202   2.1393   2.1523   2.1549   2.1617   2.1631
     2.1705   2.1729   2.2022   2.2029   2.2094   2.2153   2.3438   2.3467
     2.3767   2.3856   2.5301   2.5364   2.8017   2.8046   2.8467   2.8532
     2.8623   2.8635   2.8798   2.8812   2.8995   2.9039   3.3127   3.3173
     3.3578   3.3588   3.6506   3.6577   3.6703   3.6852   3.7370   3.7413
     3.7705   3.7717   3.8715   3.9015   3.9365   3.9404   4.3254   4.3854
     4.4001   4.4011   4.4138   4.5146   4.5308   4.5843   4.5958   4.6269
     4.6868   4.7255   4.7293   4.9545   5.0061   5.0604   5.2303   5.2626
     5.2670   5.2757   5.2976   5.3164   5.4238   5.4519   5.4545   5.4616
     5.4780   5.5267   5.5975   5.6016   5.6171   5.6216   5.6435   5.6666
     5.7095   5.7196   5.7257   5.7557   5.7889   5.8208   5.8818   5.8954
     5.9569   5.9742   6.2932   6.3377   6.3589   6.3896   6.4620   6.4644
     6.4923   6.4966   6.5135   6.5183   6.5964   6.6031   6.6296   6.6503
     6.8263   7.0454   7.0704   7.0810   7.1131   7.1222   7.2174   7.2356
     7.6699   7.6983   7.7106   7.7225   7.8114   7.8158   7.8557   7.8724
     8.1121   8.1215   8.1884   8.1927   8.2146   8.2205   8.2535   8.2574
     8.4059   8.4099   8.4649   8.4667   8.5024   8.5044   8.6560   8.6818
     8.7613   8.7729   8.8332   8.8423   8.8610   8.8700   9.1329   9.1428
     9.1998   9.2375   9.2643   9.2654   9.3197   9.3251   9.4091   9.4415
     9.4710   9.4733   9.4941   9.6404   9.6557   9.6652   9.6972   9.7554
     9.7740   9.8560   9.8773   9.9486   9.9579   9.9616   9.9702   9.9751
     9.9949  10.0189  10.1562  10.1647  10.1675  10.1800  10.2677  10.2728
    10.3225  10.3331  10.4368  10.4697

          k =-0.5000-0.2165 0.0000 (256328 PWs)   bands (ev):

   -16.5978 -15.4141 -15.1801 -15.1151 -14.6977 -14.5428 -14.5024 -14.4383
   -13.4108 -13.1822 -13.0867 -13.0161 -12.1174 -11.8658 -11.3958 -11.3504
   -11.2785 -11.1032 -11.0831 -10.9332 -10.8951 -10.8815 -10.7371 -10.6798
    -9.4679  -9.3838  -9.0897  -9.0867  -8.6150  -8.2654  -8.1937  -8.1197
    -7.6640  -7.6574  -7.3656  -7.3370  -5.9363  -5.7379  -5.5189  -5.3549
    -5.2230  -5.0595  -4.7789  -4.6862  -4.6703  -4.6368  -4.6072  -4.5885
    -4.5540  -4.5491  -4.4948  -4.3500  -4.3087  -4.0173  -3.8447  -3.8134
    -3.6977  -3.6370  -3.6212  -3.5996  -3.5772  -3.5613  -3.5546  -3.5356
    -3.5295  -3.5206  -3.4854  -3.4344  -3.3488  -3.2942  -3.1191  -3.1033
    -3.0939  -3.0676  -2.9218  -2.9103  -2.8221  -2.8018  -2.7938  -2.7876
    -2.6665  -2.5616  -2.5462  -2.4834  -2.3742  -2.3636  -2.0897  -2.0826
    -2.0429  -1.9648  -1.9573  -1.9566  -1.9549  -1.9538  -1.8258  -1.7727
    -1.7017  -1.6752  -1.6421  -1.6382  -1.5556  -1.5297  -1.4864  -1.4786
    -1.4675  -1.4643  -1.4243  -1.3600  -1.3356  -1.2317  -1.2282  -1.1981
    -1.1960  -1.1873  -1.1850  -1.1426  -1.1221  -1.1167  -1.0547  -1.0004
    -0.9762  -0.9742  -0.9722  -0.9024  -0.8754  -0.8724  -0.8697  -0.8681
    -0.8383  -0.8289  -0.8276  -0.8242  -0.8237  -0.8230  -0.8200  -0.8130
    -0.8119  -0.8095  -0.7842  -0.7816  -0.7777  -0.7771  -0.7576  -0.7568
    -0.7562  -0.7540  -0.7456  -0.7447  -0.7421  -0.7414  -0.7027  -0.6995
    -0.6715  -0.6351  -0.6337  -0.6297  -0.6203  -0.6025  -0.5966  -0.5890
    -0.5873  -0.5767  -0.5758  -0.5583  -0.5512  -0.5472  -0.5406  -0.5246
    -0.5240  -0.5207  -0.5195  -0.5135  -0.5090  -0.5063  -0.5035  -0.5001
    -0.4939  -0.4917  -0.4789  -0.4636  -0.4601  -0.4571  -0.4409  -0.4406
    -0.4373  -0.4351  -0.4246  -0.4163  -0.4155  -0.4151  -0.4054  -0.3831
    -0.3724  -0.3701  -0.3658  -0.3612  -0.3212  -0.3196  -0.3162  -0.3133
    -0.2609  -0.2593  -0.2513  -0.2345  -0.2306  -0.2108  -0.2088  -0.2017
    -0.2005  -0.1606  -0.1598  -0.1465  -0.1457  -0.1452  -0.1438  -0.1337
    -0.1310  -0.1222  -0.1172  -0.0989  -0.0965  -0.0864  -0.0839  -0.0785
    -0.0743  -0.0652  -0.0644  -0.0599  -0.0559   0.0137   0.0214   0.0247
     0.0403   0.0412   0.0569   0.0644   0.0659   0.0687   0.0741   0.0768
     0.0777   0.1029   0.1157   0.1184   0.1201   0.1209   0.1401   0.1591
     0.1657   0.1677   0.1679   0.1694   0.1703   0.1714   0.1762   0.2040
     0.2068   0.2149   0.2208   0.2330   0.2374   0.2393   0.2508   0.2753
     0.2880   0.3079   0.3152   0.3239   0.3263   0.3395   0.3408   0.3417
     0.3444   0.3462   0.3492   0.3562   0.3575   0.3614   0.3633   0.3648
     0.3743   0.3778   0.3879   0.4254   0.4271   0.4314   0.4325   0.4334
     0.4400   0.4410   0.4451   0.4678   0.4734   0.4772   0.4814   0.4829
     0.4853   0.4862   0.4867   0.4891   0.4906   0.4912   0.4959   0.5144
     0.5155   0.5269   0.5342   0.5381   0.5433   0.5511   0.5632   0.5665
     0.5812   0.5924   0.6009   0.6024   0.6074   0.6183   0.6258   0.6313
     0.6369   0.6385   0.6387   0.6390   0.6477   0.6575   0.6636   0.6647
     0.6668   0.6704   0.6784   0.6809   0.6930   0.6941   0.6958   0.6962
     0.6982   0.6984   0.7042   0.7062   0.7095   0.7118   0.7147   0.7157
     0.7275   0.7330   0.7382   0.7410   0.7418   0.7432   0.7448   0.7452
     0.7543   0.7555   0.7694   0.7830   0.8021   0.8059   0.8073   0.8124
     0.8176   0.8194   0.8207   0.8216   0.8267   0.8482   0.8502   0.8513
     0.8536   0.8605   0.8692   0.8720   0.8820   0.8860   0.8951   0.9043
     0.9080   0.9195   0.9361   0.9390   0.9427   0.9513   0.9606   0.9609
     0.9630   0.9683   0.9741   0.9768   0.9915   0.9916   0.9965   0.9973
     0.9992   1.0079   1.0090   1.0140   1.0145   1.0229   1.0235   1.0320
     1.0349   1.0373   1.0396   1.0481   1.0534   1.0571   1.0609   1.0671
     1.0710   1.0732   1.0803   1.0838   1.0850   1.0893   1.0985   1.1003
     1.1066   1.1071   1.1160   1.1265   1.1363   1.1388   1.1411   1.1521
     1.1580   1.1610   1.1645   1.1706   1.1735   1.1752   1.1767   1.1933
     1.2008   1.2049   1.2055   1.2065   1.2090   1.2210   1.2222   1.2248
     1.2249   1.2260   1.2320   1.2334   1.2354   1.2359   1.2486   1.2577
     1.2640   1.2665   1.2742   1.2750   1.2830   1.2845   1.2848   1.2943
     1.2999   1.3056   1.3105   1.3133   1.3170   1.3216   1.3242   1.3261
     1.3300   1.3347   1.3393   1.3402   1.3441   1.3490   1.3594   1.3602
     1.3666   1.3742   1.3789   1.3804   1.3863   1.3879   1.3890   1.3918
     1.3954   1.4051   1.4098   1.4124   1.4190   1.4248   1.4286   1.4490
     1.4548   1.4577   1.4622   1.4664   1.4704   1.4820   1.4843   1.4970
     1.5073   1.5142   1.5250   1.5330   1.5508   1.5538   1.5653   1.5694
     1.5708   1.5735   1.5782   1.5794   1.6009   1.6045   1.6066   1.6143
     1.6195   1.6207   1.6217   1.6233   1.6240   1.6270   1.6293   1.6326
     1.6340   1.6357   1.6372   1.6395   1.6428   1.6438   1.6471   1.6478
     1.6486   1.6498   1.6563   1.6613   1.6784   1.6830   1.6862   1.6874
     1.6911   1.6949   1.6993   1.7002   1.7032   1.7094   1.7136   1.7142
     1.7261   1.7265   1.7281   1.7328   1.7361   1.7363   1.7385   1.7398
     1.7419   1.7442   1.7497   1.7575   1.7761   1.7779   1.7795   1.7815
     1.7978   1.7997   1.8017   1.8076   1.8156   1.8184   1.8197   1.8200
     1.8223   1.8299   1.8311   1.8429   1.8513   1.8552   1.8598   1.8625
     1.8693   1.8765   1.8779   1.8789   1.8814   1.8851   1.8889   1.8895
     1.8938   1.9034   1.9061   1.9086   1.9222   1.9228   1.9244   1.9261
     1.9341   1.9372   1.9376   1.9397   1.9405   1.9410   1.9453   1.9457
     1.9511   1.9521   1.9529   1.9574   1.9580   1.9617   1.9675   1.9679
     1.9699   1.9710   1.9732   1.9737   1.9799   1.9809   1.9879   1.9903
     1.9919   2.0022   2.0044   2.0050   2.0081   2.0096   2.0117   2.0159
     2.0239   2.0248   2.0264   2.0316   2.0333   2.0358   2.0468   2.0477
     2.0490   2.0515   2.0631   2.0658   2.0726   2.0757   2.0911   2.0928
     2.0946   2.0965   2.1021   2.1036   2.1072   2.1076   2.1206   2.1219
     2.1251   2.1275   2.1315   2.1381   2.1709   2.1728   2.1735   2.1745
     2.1792   2.1809   2.1995   2.2024   2.2144   2.2183   2.2209   2.2348
     2.3896   2.3906   2.3932   2.3974   2.4384   2.4468   2.7038   2.7087
     2.9905   2.9977   3.0235   3.0283   3.1216   3.1251   3.1440   3.1443
     3.3443   3.3481   3.3838   3.3911   3.8292   3.8570   4.0097   4.0194
     4.0330   4.0343   4.0413   4.0451   4.1752   4.1764   4.2320   4.2654
     4.3891   4.4428   4.4843   4.5214   4.5230   4.5274   4.5302   4.6189
     4.6575   4.8070   4.8108   4.8188   4.8247   5.0036   5.0414   5.0783
     5.1360   5.1909   5.2117   5.2363   5.2379   5.2781   5.3391   5.3945
     5.3991   5.4867   5.4968   5.5633   5.5965   5.6199   5.6272   5.6321
     5.6510   5.6882   5.7367   5.7398   5.7954   5.8648   6.0308   6.0492
     6.0558   6.0636   6.1204   6.1484   6.1645   6.1819   6.3572   6.3754
     6.3959   6.4053   6.4486   6.4931   6.7664   6.7914   6.8185   6.8240
     7.1722   7.1849   7.2675   7.2705   7.4791   7.4957   7.4982   7.5082
     7.5769   7.5806   7.7241   7.7298   7.7335   7.7388   7.9359   7.9364
     7.9394   7.9397   8.0691   8.1163   8.1530   8.1932   8.1996   8.3748
     8.4072   8.4799   8.4964   8.5505   8.6019   8.6266   8.6349   8.6380
     8.6715   8.6744   8.8604   8.8886   8.9410   8.9660   9.0190   9.0201
     9.2217   9.2291   9.2810   9.3001   9.4115   9.4122   9.4141   9.4154
     9.5016   9.5043   9.5154   9.5178   9.5861   9.5913   9.6029   9.6037
     9.6207   9.6272   9.6565   9.6659   9.7192   9.7305   9.9482   9.9796
    10.0323  10.0495  10.2636  10.2711  10.2775  10.2814  10.3500  10.3599
    10.5126  10.5171  10.5285  10.5337

     the Fermi energy is     3.9154 ev

!    total energy              =  -13679.27130553 Ry
     Harris-Foulkes estimate   =  -13679.27130549 Ry
     estimated scf accuracy    <          5.1E-09 Ry

     The total energy is the sum of the following terms:

     one-electron contribution = -106321.59706279 Ry
     hartree contribution      =   54656.11867626 Ry
     xc contribution           =   -4789.50205991 Ry
     ewald contribution        =   42782.41811942 Ry
     Dispersion Correction     =      -3.10053462 Ry
     smearing contrib. (-TS)   =      -3.60844390 Ry

     convergence has been achieved in  47 iterations

     Writing output data file gc.save
 
     init_run     :    108.35s CPU    116.21s WALL (       1 calls)
     electrons    :  14620.23s CPU  15588.32s WALL (       1 calls)

     Called by init_run:
     wfcinit      :    106.08s CPU    113.55s WALL (       1 calls)
     potinit      :      0.36s CPU      0.38s WALL (       1 calls)

     Called by electrons:
     c_bands      :  13487.22s CPU  14345.23s WALL (      47 calls)
     sum_band     :    945.70s CPU   1027.14s WALL (      47 calls)
     v_of_rho     :      3.18s CPU      3.83s WALL (      48 calls)
     newd         :      9.47s CPU     15.26s WALL (      48 calls)
     mix_rho      :    174.50s CPU    196.72s WALL (      47 calls)

     Called by c_bands:
     init_us_2    :     42.44s CPU     43.05s WALL (     570 calls)
     cegterg      :  13299.30s CPU  14150.06s WALL (     290 calls)

     Called by sum_band:
     sum_band:bec :      5.84s CPU      6.49s WALL (     282 calls)
     addusdens    :      9.24s CPU     14.74s WALL (      47 calls)

     Called by *egterg:
     h_psi        :   4723.02s CPU   5097.38s WALL (    2034 calls)
     s_psi        :   1173.67s CPU   1187.84s WALL (    2034 calls)
     g_psi        :     11.74s CPU     11.74s WALL (    1738 calls)
     cdiaghg      :   4082.62s CPU   4237.06s WALL (    2020 calls)

     Called by h_psi:
     add_vuspsi   :   1183.33s CPU   1199.08s WALL (    2034 calls)

     General routines
     calbec       :   1663.16s CPU   1675.54s WALL (    2316 calls)
     fft          :      3.84s CPU      4.45s WALL (     623 calls)
     ffts         :    101.86s CPU    115.01s WALL (   26704 calls)
     fftw         :   2641.13s CPU   2940.03s WALL ( 1461626 calls)
     davcio       :      0.26s CPU      5.60s WALL (       6 calls)
 
     Parallel routines
     fft_scatter  :   1706.66s CPU   1875.29s WALL ( 1488953 calls)
 
     PWSCF        :     4h 5m CPU        4h21m WALL

 
   This run was terminated on:  17:23:47  20Apr2017            

=------------------------------------------------------------------------------=
   JOB DONE.
=------------------------------------------------------------------------------=
