
     Program BANDS v.5.4.0 starts on 10Jun2016 at 12:56:53 

     This program is part of the open-source Quantum ESPRESSO suite
     for quantum simulation of materials; please cite
         "P. Giannozzi et al., J. Phys.:Condens. Matter 21 395502 (2009);
          URL http://www.quantum-espresso.org", 
     in publications or presentations arising from this work. More details at
     http://www.quantum-espresso.org/quote

     Parallel version (MPI), running on    16 processors
     R & G space division:  proc/nbgrp/npool/nimage =      16

     Reading data from directory:
     ./1.save

   Info: using nr1, nr2, nr3 values from input

   Info: using nr1, nr2, nr3 values from input

     IMPORTANT: XC functional enforced from input :
     Exchange-correlation      =  SLA  PW   PBE  PBE ( 1  4  3  4 0 0)
     Any further DFT definition will be discarded
     Please, verify this is what you really want

               file O.pbe-rrkjus.UPF: wavefunction(s)  2S renormalized
               file H.pbe-rrkjus.UPF: wavefunction(s)  1S renormalized

     Parallelization info
     --------------------
     sticks:   dense  smooth     PW     G-vecs:    dense   smooth      PW
     Min          89      89     26                 2843     2843     438
     Max          90      90     27                 2846     2846     441
     Sum        1429    1429    421                45515    45515    7021


     negative rho (up, down):  6.577E-02 0.000E+00
     high-symmetry point:  0.0000 0.0000 0.0000   x coordinate   0.0000
     high-symmetry point:  0.5000 0.2887 0.0000   x coordinate   0.5773
     high-symmetry point:  0.6667 0.0000 0.0000   x coordinate   0.9107
     high-symmetry point:  0.3333-0.5774 0.0000   x coordinate   1.5774
     high-symmetry point:  0.0000 0.0000 0.0000   x coordinate   2.2440
     high-symmetry point:  0.0000 0.0000 0.4858   x coordinate   2.7298
     high-symmetry point:  0.5000 0.2887 0.4858   x coordinate   3.3071
     high-symmetry point:  0.6667 0.0000 0.4858   x coordinate   3.6405
     high-symmetry point:  0.3333-0.5774 0.4858   x coordinate   4.3072
     high-symmetry point:  0.0000 0.0000 0.4858   x coordinate   4.9738

     Plottable bands written to file PREFIX.dat.gnu
     Bands written to file PREFIX.dat

     BANDS        :  1m 8.55s CPU     1m18.95s WALL


   This run was terminated on:  12:58:12  10Jun2016            

=------------------------------------------------------------------------------=
   JOB DONE.
=------------------------------------------------------------------------------=
