
     Program PWSCF v.5.4.0 starts on 13Jan2017 at  4: 1:54 

     This program is part of the open-source Quantum ESPRESSO suite
     for quantum simulation of materials; please cite
         "P. Giannozzi et al., J. Phys.:Condens. Matter 21 395502 (2009);
          URL http://www.quantum-espresso.org", 
     in publications or presentations arising from this work. More details at
     http://www.quantum-espresso.org/quote

     Parallel version (MPI & OpenMP), running on      56 processor cores
     Number of MPI processes:                56
     Threads/MPI process:                     1
     R & G space division:  proc/nbgrp/npool/nimage =      56
     Waiting for input...
     Reading input from standard input
Warning: card &IONS ignored
Warning: card / ignored

     Current dimensions of program PWSCF are:
     Max number of different atomic species (ntypx) = 10
     Max number of k-points (npk) =  40000
     Max angular momentum in pseudopotentials (lmaxx) =  3
     WARNING: atomic wfc #  2 for atom type 4 has zero norm
     WARNING: atomic wfc #  4 for atom type 4 has zero norm
     WARNING: atomic wfc #  5 for atom type 4 has zero norm

     -------------------------------------
     Parameters for Dispersion Correction:
     -------------------------------------
       atom      VdW radius       C_6     

        Cu         2.952        374.666
        C_h        2.744         60.710
        C          2.744         60.710
        O          2.536         24.284

     Subspace diagonalization in iterative solution of the eigenvalue problem:
     one sub-group per band group will be used
     scalapack distributed-memory algorithm (size of sub-group:  5*  5 procs)

 
     Parallelization info
     --------------------
     sticks:   dense  smooth     PW     G-vecs:    dense   smooth      PW
     Min         204     204     54                36612    36612    4962
     Max         205     205     55                36617    36617    4968
     Sum       11433   11433   3039              2050409  2050409  278033
 


     bravais-lattice index     =            0
     lattice parameter (alat)  =      13.9425  a.u.
     unit-cell volume          =   21209.0878 (a.u.)^3
     number of atoms/cell      =          149
     number of atomic types    =            4
     number of electrons       =      1298.00
     number of Kohn-Sham states=          779
     kinetic-energy cutoff     =      80.0000  Ry
     charge density cutoff     =     320.0000  Ry
     convergence threshold     =      1.0E-08
     mixing beta               =       0.7000
     number of iterations used =            8  local-TF  mixing
     Exchange-correlation      =  SLA  PW   PBX  PBC ( 1  4  3  4 0 0)

     celldm(1)=  13.942539  celldm(2)=   0.000000  celldm(3)=   0.000000
     celldm(4)=   0.000000  celldm(5)=   0.000000  celldm(6)=   0.000000

     crystal axes: (cart. coord. in units of alat)
               a(1) = (   1.000000   0.000000   0.000000 )  
               a(2) = (   0.000000   2.309401   0.000000 )  
               a(3) = (   0.000000   0.000000   3.388418 )  

     reciprocal axes: (cart. coord. in units 2 pi/alat)
               b(1) = (  1.000000  0.000000  0.000000 )  
               b(2) = (  0.000000  0.433013  0.000000 )  
               b(3) = (  0.000000  0.000000  0.295123 )  


     PseudoPot. # 1 for Cu read from file:
     /home/549/hxw549/Short/pseudopotentials/Cu.pbe-n-van_ak.UPF
     MD5 check sum: 601f7c30f7467666bec936e0661ce3e1
     Pseudo is Ultrasoft + core correction, Zval = 11.0
     Generated by new atomic code, or converted to UPF format
     Using radial grid of  867 points,  6 beta functions with: 
                l(1) =   0
                l(2) =   0
                l(3) =   1
                l(4) =   1
                l(5) =   2
                l(6) =   2
     Q(r) pseudized with  8 coefficients,  rinner =    1.400   1.400   1.400
                                                       1.400   1.400

     PseudoPot. # 2 for C  read from file:
     /home/549/hxw549/Short/pseudopotentials/C.star1s-pbe-mt_gipaw.UPF
     MD5 check sum: ef0cb3dee31bd9e4ba2a832a2c716264
     Pseudo is Norm-conserving, Zval =  5.0
     Generated by new atomic code, or converted to UPF format
     Using radial grid of 1073 points,  1 beta functions with: 
                l(1) =   0

     PseudoPot. # 3 for C  read from file:
     /home/549/hxw549/Short/pseudopotentials/C.pbe-mt_gipaw.UPF
     MD5 check sum: 5ac2f21f2c440b14befe521540822c15
     Pseudo is Norm-conserving, Zval =  4.0
     Generated by new atomic code, or converted to UPF format
     Using radial grid of 1073 points,  1 beta functions with: 
                l(1) =   0

     PseudoPot. # 4 for O  read from file:
     /home/549/hxw549/Short/pseudopotentials/O.pbe-van_gipaw.UPF
     MD5 check sum: 5ce2a047509d4f331db576c963e74b29
     Pseudo is Ultrasoft, Zval =  6.0
     Generated by new atomic code, or converted to UPF format
     Using radial grid of 1095 points,  4 beta functions with: 
                l(1) =   0
                l(2) =   0
                l(3) =   1
                l(4) =   1
     Q(r) pseudized with 0 coefficients 


     atomic species   valence    mass     pseudopotential
        Cu            11.00    63.54600     Cu( 1.00)
        C_h            5.00    12.01070     C ( 1.00)
        C              4.00    12.01070     C ( 1.00)
        O              6.00    15.99940     O ( 1.00)

     No symmetry found



   Cartesian axes

     site n.     atom                  positions (alat units)
         1           Cu  tau(   1) = (  -0.0000267   0.0003068   0.9983929  )
         2           Cu  tau(   2) = (   0.2500036   0.2312703   0.9983145  )
         3           Cu  tau(   3) = (   0.4999803   0.0002594   0.9983489  )
         4           Cu  tau(   4) = (   0.7499895   0.2312918   0.9983342  )
         5           Cu  tau(   5) = (   0.0000225   0.4620329   0.9981170  )
         6           Cu  tau(   6) = (   0.2500219   0.6928138   0.9977793  )
         7           Cu  tau(   7) = (   0.5000145   0.4620708   0.9980771  )
         8           Cu  tau(   8) = (   0.7500464   0.6928005   0.9977795  )
         9           Cu  tau(   9) = (   0.0000444   0.9236560   0.9976799  )
        10           Cu  tau(  10) = (   0.2500468   1.1544894   0.9979087  )
        11           Cu  tau(  11) = (   0.5000294   0.9236428   0.9976663  )
        12           Cu  tau(  12) = (   0.7500113   1.1544661   0.9979233  )
        13           Cu  tau(  13) = (  -0.0000030   1.3852325   0.9982653  )
        14           Cu  tau(  14) = (   0.2500078   1.6159458   0.9985773  )
        15           Cu  tau(  15) = (   0.5000250   1.3851939   0.9983781  )
        16           Cu  tau(  16) = (   0.7499695   1.6160612   0.9985012  )
        17           Cu  tau(  17) = (   0.0000343   1.8470384   0.9985232  )
        18           Cu  tau(  18) = (   0.2499384   2.0784489   0.9984548  )
        19           Cu  tau(  19) = (   0.4999091   1.8470915   0.9984673  )
        20           Cu  tau(  20) = (   0.7499959   2.0783416   0.9983130  )
        21           Cu  tau(  21) = (   0.0000812   0.2314093   1.2467788  )
        22           Cu  tau(  22) = (   0.2500218   0.0003249   1.2465774  )
        23           Cu  tau(  23) = (   0.5000485   0.2314075   1.2466680  )
        24           Cu  tau(  24) = (   0.7500266   0.0001653   1.2463696  )
        25           Cu  tau(  25) = (   0.0001623   0.6931214   1.2464311  )
        26           Cu  tau(  26) = (   0.2501033   0.4623525   1.2466471  )
        27           Cu  tau(  27) = (   0.5001337   0.6931028   1.2464251  )
        28           Cu  tau(  28) = (   0.7501184   0.4623956   1.2466785  )
        29           Cu  tau(  29) = (   0.0001568   1.1541245   1.2464838  )
        30           Cu  tau(  30) = (   0.2501615   0.9236200   1.2463252  )
        31           Cu  tau(  31) = (   0.5001177   1.1540045   1.2466424  )
        32           Cu  tau(  32) = (   0.7501390   0.9235859   1.2463014  )
        33           Cu  tau(  33) = (   0.0000729   1.6157545   1.2468989  )
        34           Cu  tau(  34) = (   0.2501093   1.3847381   1.2469554  )
        35           Cu  tau(  35) = (   0.5000326   1.6158869   1.2468953  )
        36           Cu  tau(  36) = (   0.7500890   1.3848287   1.2468265  )
        37           Cu  tau(  37) = (   0.0000323   2.0783589   1.2463249  )
        38           Cu  tau(  38) = (   0.2500077   1.8470268   1.2466081  )
        39           Cu  tau(  39) = (   0.4999755   2.0783445   1.2462814  )
        40           Cu  tau(  40) = (   0.7500223   1.8470837   1.2465241  )
        41           Cu  tau(  41) = (   0.0002124  -0.0001420   1.4956913  )
        42           Cu  tau(  42) = (   0.2502432   0.2315683   1.4963144  )
        43           Cu  tau(  43) = (   0.5000580  -0.0001022   1.4955702  )
        44           Cu  tau(  44) = (   0.7501834   0.2311697   1.4957919  )
        45           Cu  tau(  45) = (   0.0003849   0.4627079   1.4963383  )
        46           Cu  tau(  46) = (   0.2503961   0.6934059   1.4964363  )
        47           Cu  tau(  47) = (   0.5002404   0.4626228   1.4962459  )
        48           Cu  tau(  48) = (   0.7504437   0.6934576   1.4964425  )
        49           Cu  tau(  49) = (   0.0004625   0.9237210   1.4966639  )
        50           Cu  tau(  50) = (   0.2503244   1.1534720   1.4969567  )
        51           Cu  tau(  51) = (   0.5003991   0.9233981   1.4968565  )
        52           Cu  tau(  52) = (   0.7504645   1.1536830   1.4965640  )
        53           Cu  tau(  53) = (   0.0003821   1.3842432   1.4966806  )
        54           Cu  tau(  54) = (   0.2501321   1.6156588   1.4962873  )
        55           Cu  tau(  55) = (   0.5002113   1.3843989   1.4963900  )
        56           Cu  tau(  56) = (   0.7502647   1.6157441   1.4960739  )
        57           Cu  tau(  57) = (   0.0001207   1.8471506   1.4957144  )
        58           Cu  tau(  58) = (   0.2500858   2.0782753   1.4956306  )
        59           Cu  tau(  59) = (   0.5001251   1.8473075   1.4957920  )
        60           Cu  tau(  60) = (   0.7501138   2.0783207   1.4955742  )
        61           Cu  tau(  61) = (   0.0006392   0.2308735   1.7441459  )
        62           Cu  tau(  62) = (   0.2504158  -0.0005355   1.7449106  )
        63           Cu  tau(  63) = (   0.5002246   0.2305722   1.7445406  )
        64           Cu  tau(  64) = (   0.7501913  -0.0003931   1.7446966  )
        65           Cu  tau(  65) = (   0.0011818   0.6935460   1.7465189  )
        66           Cu  tau(  66) = (   0.2510178   0.4635280   1.7463239  )
        67           Cu  tau(  67) = (   0.5006724   0.6932120   1.7469307  )
        68           Cu  tau(  68) = (   0.7502789   0.4622959   1.7447587  )
        69           Cu  tau(  69) = (   0.0010896   1.1532691   1.7478853  )
        70           Cu  tau(  70) = (   0.2510233   0.9227073   1.7481025  )
        71           Cu  tau(  71) = (   0.5006627   1.1535677   1.7464536  )
        72           Cu  tau(  72) = (   0.7510601   0.9235893   1.7472115  )
        73           Cu  tau(  73) = (   0.0004758   1.6160976   1.7450473  )
        74           Cu  tau(  74) = (   0.2502121   1.3840137   1.7461821  )
        75           Cu  tau(  75) = (   0.5003724   1.6159583   1.7442703  )
        76           Cu  tau(  76) = (   0.7510145   1.3842499   1.7454633  )
        77           Cu  tau(  77) = (   0.0002451   2.0780251   1.7451646  )
        78           Cu  tau(  78) = (   0.2501320   1.8474404   1.7447821  )
        79           Cu  tau(  79) = (   0.5002731   2.0784000   1.7451917  )
        80           Cu  tau(  80) = (   0.7504684   1.8474054   1.7447238  )
        81           Cu  tau(  81) = (   0.0005767   0.0000026   1.9903772  )
        82           Cu  tau(  82) = (   0.2505076   0.2308079   1.9897657  )
        83           Cu  tau(  83) = (   0.5003407  -0.0001971   1.9920597  )
        84           Cu  tau(  84) = (   0.7508598   0.2304463   1.9896692  )
        85           Cu  tau(  85) = (   0.0007252   0.4619078   1.9888295  )
        86           Cu  tau(  86) = (   0.2543946   0.6925846   1.9984671  )
        87           Cu  tau(  87) = (   0.5014478   0.4595729   1.9915324  )
        88           Cu  tau(  88) = (   0.7494838   0.6919755   1.9922578  )
        89           Cu  tau(  89) = (   0.0022301   0.9213544   1.9947254  )
        90           Cu  tau(  90) = (   0.2515066   1.1535075   1.9951996  )
        91           Cu  tau(  91) = (   0.5019605   0.9245193   1.9950177  )
        92           Cu  tau(  92) = (   0.7515414   1.1546013   1.9935588  )
        93           Cu  tau(  93) = (   0.0013104   1.3858691   1.9926217  )
        94           Cu  tau(  94) = (   0.2503372   1.6166014   1.9901204  )
        95           Cu  tau(  95) = (   0.5006192   1.3858005   1.9901314  )
        96           Cu  tau(  96) = (   0.7509579   1.6160844   1.9897276  )
        97           Cu  tau(  97) = (   0.0002748   1.8473145   1.9921170  )
        98           Cu  tau(  98) = (   0.2505214   2.0779375   1.9914291  )
        99           Cu  tau(  99) = (   0.5006319   1.8466210   1.9902901  )
       100           Cu  tau( 100) = (   0.7502694   2.0782754   1.9912423  )
       101           C   tau( 101) = (  -0.0007583   0.0963134   2.3862891  )
       102           C   tau( 102) = (  -0.0009641   0.2884428   2.3833147  )
       103           C   tau( 103) = (   0.1660055   0.0003785   2.3872135  )
       104           C   tau( 104) = (   0.1654608   0.3840869   2.3791849  )
       105           C   tau( 105) = (   0.3325218   0.0962801   2.3838471  )
       106           C   tau( 106) = (   0.3323993   0.2885900   2.3788628  )
       107           C   tau( 107) = (   0.4993762   0.0002074   2.3846977  )
       108           C   tau( 108) = (   0.4993768   0.3848633   2.3764734  )
       109           C   tau( 109) = (   0.6662368   0.0964118   2.3840959  )
       110           C   tau( 110) = (   0.6662787   0.2886562   2.3798869  )
       111           C   tau( 111) = (   0.8326681   0.0003019   2.3874107  )
       112           C   tau( 112) = (   0.8327915   0.3847794   2.3811008  )
       113           C   tau( 113) = (  -0.0012722   0.6735101   2.3803848  )
       114           C   tau( 114) = (  -0.0009511   0.8666962   2.3764449  )
       115           C   tau( 115) = (   0.1655204   0.5765016   2.3784056  )
       116           C   tau( 116) = (   0.1624509   0.9643662   2.3844256  )
       117           C   tau( 117) = (   0.3316218   0.6703151   2.3800734  )
       118           C   tau( 118) = (   0.3292206   0.8643671   2.4184809  )
       119           C   tau( 119) = (   0.4987612   0.5771637   2.3788923  )
       120           C   tau( 120) = (   0.5021138   0.9644200   2.4216837  )
       121           O   tau( 121) = (   0.4140165   0.9101453   2.5990232  )
       122           C   tau( 122) = (   0.6663442   0.6742083   2.3806324  )
       123           C   tau( 123) = (   0.6689595   0.8654305   2.3851659  )
       124           C   tau( 124) = (   0.8329766   0.5774622   2.3796904  )
       125           C   tau( 125) = (   0.8321191   0.9628646   2.3782389  )
       126           C   tau( 126) = (  -0.0010921   1.2520160   2.3785180  )
       127           C   tau( 127) = (  -0.0007197   1.4446627   2.3773574  )
       128           C   tau( 128) = (   0.1654289   1.1553812   2.3831881  )
       129           C   tau( 129) = (   0.1661398   1.5408122   2.3809588  )
       130           C   tau( 130) = (   0.3332591   1.2524179   2.3871897  )
       131           C   tau( 131) = (   0.3327347   1.4447081   2.3843921  )
       132           C   tau( 132) = (   0.4999577   1.1596325   2.3913607  )
       133           C   tau( 133) = (   0.4993062   1.5408861   2.3859785  )
       134           C_h tau( 134) = (   0.6656079   1.2530081   2.3829609  )
       135           C   tau( 135) = (   0.6659456   1.4454088   2.3819018  )
       136           C   tau( 136) = (   0.8327273   1.1559617   2.3795433  )
       137           C   tau( 137) = (   0.8326004   1.5410745   2.3794124  )
       138           C   tau( 138) = (  -0.0005841   1.8293317   2.3831804  )
       139           C   tau( 139) = (  -0.0006107   2.0215344   2.3872925  )
       140           C   tau( 140) = (   0.1662470   1.7330653   2.3837749  )
       141           C   tau( 141) = (   0.1660003   2.1175423   2.3879995  )
       142           C   tau( 142) = (   0.3327657   1.8291420   2.3882670  )
       143           C   tau( 143) = (   0.3327961   2.0213806   2.3890482  )
       144           C   tau( 144) = (   0.4993270   1.7331699   2.3878917  )
       145           C   tau( 145) = (   0.4993850   2.1173816   2.3892301  )
       146           C   tau( 146) = (   0.6659668   1.8291231   2.3874666  )
       147           C   tau( 147) = (   0.6659485   2.0213555   2.3883541  )
       148           C   tau( 148) = (   0.8325583   1.7332547   2.3830305  )
       149           C   tau( 149) = (   0.8327361   2.1174924   2.3876620  )

     number of k points=     6  gaussian smearing, width (Ry)=  0.1000
                       cart. coord. in units 2pi/alat
        k(    1) = (   0.0000000   0.0000000   0.0000000), wk =   0.2500000
        k(    2) = (   0.0000000  -0.2165064   0.0000000), wk =   0.2500000
        k(    3) = (   0.2500000   0.0000000   0.0000000), wk =   0.5000000
        k(    4) = (   0.2500000  -0.2165064   0.0000000), wk =   0.5000000
        k(    5) = (  -0.5000000   0.0000000   0.0000000), wk =   0.2500000
        k(    6) = (  -0.5000000  -0.2165064   0.0000000), wk =   0.2500000

     Dense  grid:  2050409 G-vectors     FFT dimensions: (  80, 192, 270)

     Largest allocated arrays     est. size (Mb)     dimensions
        Kohn-Sham Wavefunctions        54.73 Mb     (    4604,  779)
        NL pseudopotentials           130.39 Mb     (    4604, 1856)
        Each V/rho on FFT grid          1.17 Mb     (   76800)
        Each G-vector array             0.28 Mb     (   36616)
        G-vector shells                 0.14 Mb     (   17932)
     Largest temporary arrays     est. size (Mb)     dimensions
        Auxiliary wavefunctions       218.90 Mb     (    4604, 3116)
        Each subspace H/S matrix        5.92 Mb     (     623,  623)
        Each <psi_i|beta_j> matrix     22.06 Mb     (    1856,  779)
        Arrays for rho mixing           9.38 Mb     (   76800,    8)

     Initial potential from superposition of free atoms
     Check: negative starting charge=   -0.001801

     starting charge 1272.81751, renormalised to 1298.00000

     negative rho (up, down):  1.837E-03 0.000E+00
     Starting wfc are 1288 randomized atomic wfcs

     total cpu time spent up to now is      108.8 secs

     Self-consistent Calculation

     iteration #  1     ecut=    80.00 Ry     beta=0.70
     Davidson diagonalization with overlap
     c_bands:  3 eigenvalues not converged
     c_bands:  2 eigenvalues not converged
     c_bands:  4 eigenvalues not converged
     ethr =  1.00E-04,  avg # of iterations = 31.7

     negative rho (up, down):  2.538E+01 0.000E+00

     total cpu time spent up to now is     2039.6 secs

     total energy              =   -9768.09178209 Ry
     Harris-Foulkes estimate   =  -17288.16785601 Ry
     estimated scf accuracy    <  178006.96693529 Ry

     iteration #  2     ecut=    80.00 Ry     beta=0.70
     Davidson diagonalization with overlap
     ethr =  1.00E-02,  avg # of iterations = 11.3

     negative rho (up, down):  2.993E+01 0.000E+00

     total cpu time spent up to now is     2952.1 secs

     total energy              =  -12289.54030092 Ry
     Harris-Foulkes estimate   =  -13654.40348208 Ry
     estimated scf accuracy    <   22644.01187572 Ry

     iteration #  3     ecut=    80.00 Ry     beta=0.70
     Davidson diagonalization with overlap
     ethr =  1.00E-02,  avg # of iterations =  7.0

     negative rho (up, down):  3.043E+01 0.000E+00

     total cpu time spent up to now is     3491.5 secs

     total energy              =  -12462.83177633 Ry
     Harris-Foulkes estimate   =  -13394.48720555 Ry
     estimated scf accuracy    <    5952.79691248 Ry

     iteration #  4     ecut=    80.00 Ry     beta=0.70
     Davidson diagonalization with overlap
     ethr =  1.00E-02,  avg # of iterations =  5.5

     negative rho (up, down):  2.249E+01 0.000E+00

     total cpu time spent up to now is     4059.8 secs

     total energy              =  -12854.14593446 Ry
     Harris-Foulkes estimate   =  -13093.64016848 Ry
     estimated scf accuracy    <    1962.92779968 Ry

     iteration #  5     ecut=    80.00 Ry     beta=0.70
     Davidson diagonalization with overlap
     ethr =  1.00E-02,  avg # of iterations =  3.2

     negative rho (up, down):  1.716E+01 0.000E+00

     total cpu time spent up to now is     4334.2 secs

     total energy              =  -12861.69102079 Ry
     Harris-Foulkes estimate   =  -12978.35736113 Ry
     estimated scf accuracy    <    1155.74242535 Ry

     iteration #  6     ecut=    80.00 Ry     beta=0.70
     Davidson diagonalization with overlap
     ethr =  1.00E-02,  avg # of iterations =  3.0

     negative rho (up, down):  1.160E+01 0.000E+00

     total cpu time spent up to now is     4537.6 secs

     total energy              =  -12852.09655687 Ry
     Harris-Foulkes estimate   =  -12920.12859051 Ry
     estimated scf accuracy    <     545.42010568 Ry

     iteration #  7     ecut=    80.00 Ry     beta=0.70
     Davidson diagonalization with overlap
     ethr =  1.00E-02,  avg # of iterations =  2.0

     negative rho (up, down):  7.963E+00 0.000E+00

     total cpu time spent up to now is     4721.8 secs

     total energy              =  -12824.53380832 Ry
     Harris-Foulkes estimate   =  -12864.86649587 Ry
     estimated scf accuracy    <     366.00613149 Ry

     iteration #  8     ecut=    80.00 Ry     beta=0.70
     Davidson diagonalization with overlap
     ethr =  1.00E-02,  avg # of iterations =  2.0

     negative rho (up, down):  6.428E+00 0.000E+00

     total cpu time spent up to now is     4903.9 secs

     total energy              =  -12808.09493660 Ry
     Harris-Foulkes estimate   =  -12836.86021283 Ry
     estimated scf accuracy    <     483.96923942 Ry

     iteration #  9     ecut=    80.00 Ry     beta=0.70
     Davidson diagonalization with overlap
     ethr =  1.00E-02,  avg # of iterations =  1.5

     negative rho (up, down):  5.750E+00 0.000E+00

     total cpu time spent up to now is     5080.3 secs

     total energy              =  -12809.31847412 Ry
     Harris-Foulkes estimate   =  -12820.93645517 Ry
     estimated scf accuracy    <     253.99026739 Ry

     iteration # 10     ecut=    80.00 Ry     beta=0.70
     Davidson diagonalization with overlap
     ethr =  1.00E-02,  avg # of iterations =  1.0

     negative rho (up, down):  2.789E+00 0.000E+00

     total cpu time spent up to now is     5250.3 secs

     total energy              =  -12783.36371532 Ry
     Harris-Foulkes estimate   =  -12813.22575018 Ry
     estimated scf accuracy    <     150.40205501 Ry

     iteration # 11     ecut=    80.00 Ry     beta=0.70
     Davidson diagonalization with overlap
     ethr =  1.00E-02,  avg # of iterations =  2.0

     negative rho (up, down):  7.285E-01 0.000E+00

     total cpu time spent up to now is     5433.1 secs

     total energy              =  -12768.56405525 Ry
     Harris-Foulkes estimate   =  -12788.80328354 Ry
     estimated scf accuracy    <     106.54752413 Ry

     iteration # 12     ecut=    80.00 Ry     beta=0.70
     Davidson diagonalization with overlap
     ethr =  8.21E-03,  avg # of iterations =  1.0

     negative rho (up, down):  1.220E+00 0.000E+00

     total cpu time spent up to now is     5604.1 secs

     total energy              =  -12755.01450139 Ry
     Harris-Foulkes estimate   =  -12772.11899160 Ry
     estimated scf accuracy    <     146.87881547 Ry

     iteration # 13     ecut=    80.00 Ry     beta=0.70
     Davidson diagonalization with overlap
     ethr =  8.21E-03,  avg # of iterations =  2.2

     negative rho (up, down):  4.901E+00 0.000E+00

     total cpu time spent up to now is     5788.4 secs

     total energy              =  -12749.38969379 Ry
     Harris-Foulkes estimate   =  -12761.17533167 Ry
     estimated scf accuracy    <      52.75282948 Ry

     iteration # 14     ecut=    80.00 Ry     beta=0.70
     Davidson diagonalization with overlap
     ethr =  4.06E-03,  avg # of iterations =  4.8

     negative rho (up, down):  5.645E+00 0.000E+00

     total cpu time spent up to now is     6005.1 secs

     total energy              =  -12747.69650439 Ry
     Harris-Foulkes estimate   =  -12752.56482763 Ry
     estimated scf accuracy    <      39.02298017 Ry

     iteration # 15     ecut=    80.00 Ry     beta=0.70
     Davidson diagonalization with overlap
     ethr =  3.01E-03,  avg # of iterations =  2.5

     negative rho (up, down):  6.300E+00 0.000E+00

     total cpu time spent up to now is     6193.9 secs

     total energy              =  -12746.92315140 Ry
     Harris-Foulkes estimate   =  -12750.01371628 Ry
     estimated scf accuracy    <      20.47096601 Ry

     iteration # 16     ecut=    80.00 Ry     beta=0.70
     Davidson diagonalization with overlap
     ethr =  1.58E-03,  avg # of iterations =  4.2

     negative rho (up, down):  5.404E+00 0.000E+00

     total cpu time spent up to now is     6400.8 secs

     total energy              =  -12745.82093041 Ry
     Harris-Foulkes estimate   =  -12747.76322756 Ry
     estimated scf accuracy    <      16.17642672 Ry

     iteration # 17     ecut=    80.00 Ry     beta=0.70
     Davidson diagonalization with overlap
     ethr =  1.25E-03,  avg # of iterations =  3.8

     negative rho (up, down):  4.530E+00 0.000E+00

     total cpu time spent up to now is     6602.9 secs

     total energy              =  -12744.87501615 Ry
     Harris-Foulkes estimate   =  -12746.52780501 Ry
     estimated scf accuracy    <      11.48515158 Ry

     iteration # 18     ecut=    80.00 Ry     beta=0.70
     Davidson diagonalization with overlap
     ethr =  8.85E-04,  avg # of iterations =  9.2

     negative rho (up, down):  3.627E+00 0.000E+00

     total cpu time spent up to now is     6871.8 secs

     total energy              =  -12744.14581265 Ry
     Harris-Foulkes estimate   =  -12745.18064000 Ry
     estimated scf accuracy    <       8.14918119 Ry

     iteration # 19     ecut=    80.00 Ry     beta=0.70
     Davidson diagonalization with overlap
     ethr =  6.28E-04,  avg # of iterations =  2.0

     negative rho (up, down):  2.770E+00 0.000E+00

     total cpu time spent up to now is     7052.9 secs

     total energy              =  -12743.07714516 Ry
     Harris-Foulkes estimate   =  -12744.31916482 Ry
     estimated scf accuracy    <       7.89481547 Ry

     iteration # 20     ecut=    80.00 Ry     beta=0.70
     Davidson diagonalization with overlap
     ethr =  6.08E-04,  avg # of iterations =  3.3

     negative rho (up, down):  1.781E+00 0.000E+00

     total cpu time spent up to now is     7249.0 secs

     total energy              =  -12741.71599761 Ry
     Harris-Foulkes estimate   =  -12743.24669645 Ry
     estimated scf accuracy    <       9.32703684 Ry

     iteration # 21     ecut=    80.00 Ry     beta=0.70
     Davidson diagonalization with overlap
     ethr =  6.08E-04,  avg # of iterations =  2.8

     negative rho (up, down):  2.833E+00 0.000E+00

     total cpu time spent up to now is     7440.0 secs

     total energy              =  -12742.69526520 Ry
     Harris-Foulkes estimate   =  -12741.96468795 Ry
     estimated scf accuracy    <      14.43116158 Ry

     iteration # 22     ecut=    80.00 Ry     beta=0.70
     Davidson diagonalization with overlap
     ethr =  6.08E-04,  avg # of iterations =  1.7

     negative rho (up, down):  6.440E-01 0.000E+00

     total cpu time spent up to now is     7619.2 secs

     total energy              =  -12740.88165206 Ry
     Harris-Foulkes estimate   =  -12743.37404684 Ry
     estimated scf accuracy    <       6.05988218 Ry

     iteration # 23     ecut=    80.00 Ry     beta=0.70
     Davidson diagonalization with overlap
     ethr =  4.67E-04,  avg # of iterations =  9.0

     negative rho (up, down):  2.339E-01 0.000E+00

     total cpu time spent up to now is     7884.3 secs

     total energy              =  -12740.10290405 Ry
     Harris-Foulkes estimate   =  -12741.06193138 Ry
     estimated scf accuracy    <       5.54134792 Ry

     iteration # 24     ecut=    80.00 Ry     beta=0.70
     Davidson diagonalization with overlap
     ethr =  4.27E-04,  avg # of iterations =  1.7

     negative rho (up, down):  1.954E-01 0.000E+00

     total cpu time spent up to now is     8061.8 secs

     total energy              =  -12739.59222779 Ry
     Harris-Foulkes estimate   =  -12740.26223352 Ry
     estimated scf accuracy    <       3.65820436 Ry

     iteration # 25     ecut=    80.00 Ry     beta=0.70
     Davidson diagonalization with overlap
     ethr =  2.82E-04,  avg # of iterations =  2.0

     negative rho (up, down):  3.360E-01 0.000E+00

     total cpu time spent up to now is     8243.5 secs

     total energy              =  -12739.38952708 Ry
     Harris-Foulkes estimate   =  -12739.71579878 Ry
     estimated scf accuracy    <       3.13286382 Ry

     iteration # 26     ecut=    80.00 Ry     beta=0.70
     Davidson diagonalization with overlap
     ethr =  2.41E-04,  avg # of iterations =  1.7

     negative rho (up, down):  4.398E-01 0.000E+00

     total cpu time spent up to now is     8421.0 secs

     total energy              =  -12739.20139006 Ry
     Harris-Foulkes estimate   =  -12739.45834649 Ry
     estimated scf accuracy    <       2.11884582 Ry

     iteration # 27     ecut=    80.00 Ry     beta=0.70
     Davidson diagonalization with overlap
     ethr =  1.63E-04,  avg # of iterations =  2.7

     negative rho (up, down):  3.236E-01 0.000E+00

     total cpu time spent up to now is     8610.5 secs

     total energy              =  -12739.04836318 Ry
     Harris-Foulkes estimate   =  -12739.25182368 Ry
     estimated scf accuracy    <       1.56153214 Ry

     iteration # 28     ecut=    80.00 Ry     beta=0.70
     Davidson diagonalization with overlap
     c_bands:  1 eigenvalues not converged
     ethr =  1.20E-04,  avg # of iterations =  9.8

     negative rho (up, down):  1.812E-01 0.000E+00

     total cpu time spent up to now is     8885.5 secs

     total energy              =  -12738.83773715 Ry
     Harris-Foulkes estimate   =  -12739.07837639 Ry
     estimated scf accuracy    <       0.93501245 Ry

     iteration # 29     ecut=    80.00 Ry     beta=0.70
     Davidson diagonalization with overlap
     ethr =  7.20E-05,  avg # of iterations =  7.7

     negative rho (up, down):  1.147E-01 0.000E+00

     total cpu time spent up to now is     9155.5 secs

     total energy              =  -12738.79527407 Ry
     Harris-Foulkes estimate   =  -12738.91024657 Ry
     estimated scf accuracy    <       0.64403477 Ry

     iteration # 30     ecut=    80.00 Ry     beta=0.70
     Davidson diagonalization with overlap
     ethr =  4.96E-05,  avg # of iterations =  7.7

     negative rho (up, down):  1.553E-01 0.000E+00

     total cpu time spent up to now is     9417.9 secs

     total energy              =  -12738.82563134 Ry
     Harris-Foulkes estimate   =  -12738.84295361 Ry
     estimated scf accuracy    <       0.20085639 Ry

     iteration # 31     ecut=    80.00 Ry     beta=0.70
     Davidson diagonalization with overlap
     ethr =  1.55E-05,  avg # of iterations =  7.0

     negative rho (up, down):  4.317E-02 0.000E+00

     total cpu time spent up to now is     9664.8 secs

     total energy              =  -12738.82363427 Ry
     Harris-Foulkes estimate   =  -12738.83466065 Ry
     estimated scf accuracy    <       0.07373418 Ry

     iteration # 32     ecut=    80.00 Ry     beta=0.70
     Davidson diagonalization with overlap
     c_bands:  1 eigenvalues not converged
     c_bands:  1 eigenvalues not converged
     c_bands:  1 eigenvalues not converged
     ethr =  5.68E-06,  avg # of iterations = 15.0

     negative rho (up, down):  2.790E-02 0.000E+00

     total cpu time spent up to now is    10020.2 secs

     total energy              =  -12738.82606101 Ry
     Harris-Foulkes estimate   =  -12738.82806083 Ry
     estimated scf accuracy    <       0.01315994 Ry

     iteration # 33     ecut=    80.00 Ry     beta=0.70
     Davidson diagonalization with overlap
     c_bands:  1 eigenvalues not converged
     ethr =  1.01E-06,  avg # of iterations = 10.3

     negative rho (up, down):  3.174E-02 0.000E+00

     total cpu time spent up to now is    10335.4 secs

     total energy              =  -12738.82749485 Ry
     Harris-Foulkes estimate   =  -12738.82833478 Ry
     estimated scf accuracy    <       0.01017976 Ry

     iteration # 34     ecut=    80.00 Ry     beta=0.70
     Davidson diagonalization with overlap
     ethr =  7.84E-07,  avg # of iterations =  9.0

     negative rho (up, down):  2.477E-02 0.000E+00

     total cpu time spent up to now is    10614.7 secs

     total energy              =  -12738.82834087 Ry
     Harris-Foulkes estimate   =  -12738.82847164 Ry
     estimated scf accuracy    <       0.00190004 Ry

     iteration # 35     ecut=    80.00 Ry     beta=0.70
     Davidson diagonalization with overlap
     ethr =  1.46E-07,  avg # of iterations =  8.8

     negative rho (up, down):  1.892E-02 0.000E+00

     total cpu time spent up to now is    10904.4 secs

     total energy              =  -12738.82838161 Ry
     Harris-Foulkes estimate   =  -12738.82857256 Ry
     estimated scf accuracy    <       0.00079970 Ry

     iteration # 36     ecut=    80.00 Ry     beta=0.70
     Davidson diagonalization with overlap
     ethr =  6.16E-08,  avg # of iterations =  7.8

     negative rho (up, down):  1.581E-02 0.000E+00

     total cpu time spent up to now is    11167.2 secs

     total energy              =  -12738.82841033 Ry
     Harris-Foulkes estimate   =  -12738.82847093 Ry
     estimated scf accuracy    <       0.00024860 Ry

     iteration # 37     ecut=    80.00 Ry     beta=0.70
     Davidson diagonalization with overlap
     ethr =  1.92E-08,  avg # of iterations =  6.0

     negative rho (up, down):  6.215E-03 0.000E+00

     total cpu time spent up to now is    11401.5 secs

     total energy              =  -12738.82828010 Ry
     Harris-Foulkes estimate   =  -12738.82843241 Ry
     estimated scf accuracy    <       0.00009676 Ry

     iteration # 38     ecut=    80.00 Ry     beta=0.70
     Davidson diagonalization with overlap
     c_bands:  1 eigenvalues not converged
     c_bands:  1 eigenvalues not converged
     ethr =  7.45E-09,  avg # of iterations = 12.2

     negative rho (up, down):  2.977E-03 0.000E+00

     total cpu time spent up to now is    11731.3 secs

     total energy              =  -12738.82824086 Ry
     Harris-Foulkes estimate   =  -12738.82828801 Ry
     estimated scf accuracy    <       0.00002435 Ry

     iteration # 39     ecut=    80.00 Ry     beta=0.70
     Davidson diagonalization with overlap
     c_bands:  1 eigenvalues not converged
     c_bands:  1 eigenvalues not converged
     ethr =  1.88E-09,  avg # of iterations = 10.7

     negative rho (up, down):  2.865E-03 0.000E+00

     total cpu time spent up to now is    12054.0 secs

     total energy              =  -12738.82823900 Ry
     Harris-Foulkes estimate   =  -12738.82824481 Ry
     estimated scf accuracy    <       0.00001626 Ry

     iteration # 40     ecut=    80.00 Ry     beta=0.70
     Davidson diagonalization with overlap
     ethr =  1.25E-09,  avg # of iterations =  3.3

     negative rho (up, down):  2.264E-03 0.000E+00

     total cpu time spent up to now is    12260.0 secs

     total energy              =  -12738.82823832 Ry
     Harris-Foulkes estimate   =  -12738.82824077 Ry
     estimated scf accuracy    <       0.00000487 Ry

     iteration # 41     ecut=    80.00 Ry     beta=0.70
     Davidson diagonalization with overlap
     ethr =  3.75E-10,  avg # of iterations =  2.7

     negative rho (up, down):  1.894E-03 0.000E+00

     total cpu time spent up to now is    12456.5 secs

     total energy              =  -12738.82823849 Ry
     Harris-Foulkes estimate   =  -12738.82823886 Ry
     estimated scf accuracy    <       0.00000175 Ry

     iteration # 42     ecut=    80.00 Ry     beta=0.70
     Davidson diagonalization with overlap
     ethr =  1.35E-10,  avg # of iterations =  4.2

     negative rho (up, down):  2.065E-03 0.000E+00

     total cpu time spent up to now is    12679.6 secs

     total energy              =  -12738.82823865 Ry
     Harris-Foulkes estimate   =  -12738.82823870 Ry
     estimated scf accuracy    <       0.00000042 Ry

     iteration # 43     ecut=    80.00 Ry     beta=0.70
     Davidson diagonalization with overlap
     ethr =  3.22E-11,  avg # of iterations =  2.7

     negative rho (up, down):  2.090E-03 0.000E+00

     total cpu time spent up to now is    12879.6 secs

     total energy              =  -12738.82823872 Ry
     Harris-Foulkes estimate   =  -12738.82823870 Ry
     estimated scf accuracy    <       0.00000008 Ry

     iteration # 44     ecut=    80.00 Ry     beta=0.70
     Davidson diagonalization with overlap
     ethr =  6.45E-12,  avg # of iterations =  3.0

     negative rho (up, down):  2.114E-03 0.000E+00

     total cpu time spent up to now is    13102.8 secs

     total energy              =  -12738.82823872 Ry
     Harris-Foulkes estimate   =  -12738.82823873 Ry
     estimated scf accuracy    <       0.00000004 Ry

     iteration # 45     ecut=    80.00 Ry     beta=0.70
     Davidson diagonalization with overlap
     ethr =  3.43E-12,  avg # of iterations =  2.0

     negative rho (up, down):  2.114E-03 0.000E+00

     total cpu time spent up to now is    13291.4 secs

     total energy              =  -12738.82823874 Ry
     Harris-Foulkes estimate   =  -12738.82823873 Ry
     estimated scf accuracy    <       0.00000003 Ry

     iteration # 46     ecut=    80.00 Ry     beta=0.70
     Davidson diagonalization with overlap
     ethr =  2.38E-12,  avg # of iterations =  2.0

     negative rho (up, down):  2.092E-03 0.000E+00

     total cpu time spent up to now is    13480.2 secs

     total energy              =  -12738.82823876 Ry
     Harris-Foulkes estimate   =  -12738.82823874 Ry
     estimated scf accuracy    <       0.00000001 Ry

     iteration # 47     ecut=    80.00 Ry     beta=0.70
     Davidson diagonalization with overlap
     ethr =  1.07E-12,  avg # of iterations =  2.8

     negative rho (up, down):  2.092E-03 0.000E+00

     total cpu time spent up to now is    13672.7 secs

     End of self-consistent calculation

          k = 0.0000 0.0000 0.0000 (256287 PWs)   bands (ev):

   -19.1593 -17.2214 -16.2764 -15.9763 -15.3850 -15.0008 -14.8030 -14.5138
   -14.3001 -14.2395 -14.1718 -13.8895 -13.4532 -13.3560 -13.1884 -13.1467
   -13.1174 -12.5443 -11.7210 -11.5676 -11.4729 -11.3277 -10.9310 -10.3883
    -9.7952  -9.7637  -9.6748  -9.4703  -9.0307  -8.8170  -8.6744  -8.6463
    -8.0574  -7.9701  -7.8017  -7.6778  -7.6575  -7.5902  -7.5806  -7.5697
    -6.4854  -6.3920  -6.2224  -6.0769  -6.0663  -6.0210  -5.9805  -5.9088
    -5.8680  -5.5465  -5.5324  -5.3035  -4.9698  -4.9349  -4.9115  -4.7085
    -4.6441  -4.6250  -4.5072  -4.3044  -4.1462  -4.0998  -4.0396  -4.0366
    -4.0015  -3.7799  -3.6948  -3.6565  -3.5782  -3.4915  -3.4608  -3.4560
    -3.4443  -3.2964  -3.2265  -3.1888  -3.1747  -3.1364  -3.0639  -3.0588
    -3.0534  -3.0479  -2.9621  -2.9161  -2.8866  -2.8511  -2.8063  -2.7919
    -2.7776  -2.7397  -2.7286  -2.7200  -2.5833  -2.4596  -2.4310  -2.3926
    -2.3862  -2.3483  -2.2791  -2.2436  -2.2414  -2.2209  -2.2054  -2.2017
    -2.2013  -2.2010  -2.1995  -2.1334  -2.0728  -2.0722  -2.0694  -2.0688
    -2.0161  -2.0077  -1.9196  -1.8895  -1.8264  -1.7909  -1.7878  -1.7877
    -1.7798  -1.7492  -1.7431  -1.7217  -1.7084  -1.7058  -1.6879  -1.6530
    -1.6446  -1.6213  -1.6136  -1.6118  -1.6051  -1.6004  -1.5892  -1.5792
    -1.5695  -1.5648  -1.5635  -1.5021  -1.4955  -1.4802  -1.4652  -1.4596
    -1.4361  -1.4233  -1.4022  -1.3711  -1.3484  -1.3182  -1.3123  -1.3117
    -1.2972  -1.2615  -1.2602  -1.2419  -1.2396  -1.2388  -1.2162  -1.2136
    -1.1886  -1.1736  -1.1586  -1.1029  -1.0990  -1.0940  -1.0911  -1.0826
    -1.0750  -1.0724  -1.0716  -1.0707  -1.0664  -1.0651  -1.0619  -1.0525
    -1.0479  -1.0419  -1.0132  -1.0018  -0.9872  -0.9802  -0.9756  -0.9689
    -0.9685  -0.9661  -0.9299  -0.9091  -0.9072  -0.9061  -0.9051  -0.9049
    -0.9039  -0.9025  -0.9013  -0.9004  -0.8988  -0.8975  -0.8973  -0.8941
    -0.8920  -0.8913  -0.8826  -0.8796  -0.8746  -0.8544  -0.8351  -0.7402
    -0.7388  -0.7334  -0.7329  -0.7314  -0.7112  -0.7090  -0.6917  -0.6911
    -0.6709  -0.6687  -0.6607  -0.6543  -0.6511  -0.6498  -0.6375  -0.6148
    -0.6141  -0.6105  -0.6101  -0.6034  -0.6030  -0.5923  -0.5914  -0.5483
    -0.5428  -0.5411  -0.4881  -0.4879  -0.4785  -0.4772  -0.4745  -0.4736
    -0.4602  -0.4591  -0.4546  -0.4536  -0.4535  -0.4527  -0.4501  -0.4494
    -0.4345  -0.4344  -0.4284  -0.4282  -0.4261  -0.4009  -0.4003  -0.3923
    -0.3505  -0.3481  -0.3456  -0.3405  -0.3405  -0.3148  -0.3147  -0.3123
    -0.3121  -0.3031  -0.2968  -0.2950  -0.2918  -0.2917  -0.2739  -0.2715
    -0.2685  -0.2667  -0.2659  -0.2641  -0.2627  -0.2607  -0.2592  -0.2578
    -0.2520  -0.2396  -0.2395  -0.2373  -0.2361  -0.2159  -0.1745  -0.1716
    -0.1680  -0.1674  -0.1648  -0.1642  -0.1226  -0.1209  -0.1180  -0.1173
    -0.1120  -0.1117  -0.1112  -0.1106  -0.1098  -0.1023  -0.0940  -0.0888
    -0.0599  -0.0594  -0.0575  -0.0551  -0.0487  -0.0305  -0.0294  -0.0279
    -0.0248  -0.0228  -0.0177  -0.0042  -0.0032  -0.0030  -0.0027  -0.0001
     0.0010   0.0132   0.0139   0.0147   0.0148   0.0217   0.0255   0.0267
     0.0372   0.0513   0.0528   0.0835   0.0855   0.0925   0.1048   0.1151
     0.1273   0.1396   0.1476   0.1765   0.1840   0.1861   0.1871   0.1928
     0.1937   0.1965   0.2192   0.2211   0.2238   0.2239   0.2254   0.2306
     0.2351   0.2420   0.2779   0.2907   0.2920   0.2927   0.2989   0.3017
     0.3031   0.3278   0.3323   0.3337   0.3347   0.3351   0.3442   0.3647
     0.3679   0.3700   0.3801   0.3861   0.3905   0.3910   0.3937   0.4262
     0.4290   0.4416   0.4449   0.4458   0.4501   0.4503   0.4577   0.4711
     0.4733   0.4785   0.4811   0.4842   0.4856   0.4862   0.4883   0.4901
     0.4948   0.4978   0.4991   0.5013   0.5061   0.5074   0.5145   0.5154
     0.5297   0.5466   0.5566   0.5569   0.5604   0.5710   0.5798   0.5925
     0.5988   0.5995   0.6011   0.6049   0.6054   0.6061   0.6078   0.6090
     0.6177   0.6249   0.6260   0.6285   0.6313   0.6332   0.6385   0.6387
     0.6457   0.6500   0.6521   0.6695   0.6712   0.6737   0.6771   0.6847
     0.6858   0.6933   0.6982   0.7000   0.7000   0.7044   0.7058   0.7073
     0.7088   0.7174   0.7196   0.7563   0.7565   0.7660   0.7692   0.7721
     0.7736   0.7747   0.7765   0.7877   0.8059   0.8069   0.8215   0.8272
     0.8274   0.8288   0.8408   0.8415   0.8500   0.8511   0.8519   0.8535
     0.8591   0.8601   0.8720   0.8882   0.8899   0.8920   0.8931   0.8944
     0.8959   0.9100   0.9171   0.9279   0.9365   0.9369   0.9449   0.9483
     0.9488   0.9598   0.9628   0.9634   0.9635   0.9648   0.9663   0.9733
     0.9756   0.9779   0.9794   0.9803   0.9815   0.9956   0.9958   1.0086
     1.0124   1.0154   1.0160   1.0187   1.0254   1.0393   1.0505   1.0555
     1.0570   1.0590   1.0628   1.0638   1.0669   1.0699   1.0703   1.0711
     1.0715   1.0729   1.0815   1.0866   1.0897   1.0904   1.1096   1.1237
     1.1347   1.1385   1.1480   1.1523   1.1540   1.1550   1.1573   1.1587
     1.1627   1.1721   1.1780   1.1833   1.1881   1.1909   1.1915   1.1924
     1.1949   1.1966   1.1983   1.2059   1.2224   1.2240   1.2245   1.2258
     1.2270   1.2285   1.2292   1.2307   1.2367   1.2451   1.2453   1.2459
     1.2512   1.2609   1.2615   1.2622   1.2629   1.2632   1.2710   1.2736
     1.2770   1.2870   1.2959   1.3002   1.3052   1.3054   1.3075   1.3108
     1.3122   1.3270   1.3339   1.3388   1.3390   1.3430   1.3488   1.3555
     1.3652   1.3672   1.3708   1.3743   1.3748   1.3778   1.3830   1.3859
     1.3862   1.3867   1.3878   1.3893   1.3899   1.3987   1.4002   1.4013
     1.4159   1.4177   1.4180   1.4189   1.4208   1.4220   1.4318   1.4341
     1.4468   1.4587   1.4663   1.4722   1.4998   1.5081   1.5103   1.5144
     1.5265   1.5310   1.5330   1.5357   1.5404   1.5492   1.5570   1.5799
     1.5844   1.5850   1.5866   1.5934   1.5942   1.5951   1.5957   1.8476
     1.9073   2.0573   2.0631   2.0993   2.1168   2.1474   2.1553   2.1589
     2.1594   2.1700   2.1715   2.1782   2.1887   2.3335   2.3563   2.3882
     2.4148   2.4246   2.4265   2.4302   2.4366   2.5217   2.6368   2.6763
     2.6807   2.6891   2.7846   2.9693   3.1472   3.2971   3.4821   3.4856
     3.7594   3.7726   3.7926   3.8037   3.8112   3.8175   3.8657   3.9112
     3.9329   3.9519   3.9585   3.9623   3.9650   3.9670   3.9717   3.9800
     4.1309   4.1984   4.2152   4.2188   4.3082   4.3915   4.5339   4.6766
     4.7173   4.8451   5.2086   5.2516   5.3547   5.3897   5.4003   5.5850
     5.6736   5.6881   5.6960   5.7818   5.8748   5.8838   6.2367   6.3270
     6.3352   6.3599   6.3737   6.4376   6.4436   6.4585   6.4695   6.5563
     6.6496   6.6535   6.6895   6.7498   6.7668   6.7843   6.9148   6.9497
     6.9992   7.0128   7.0555   7.0579   7.1965   7.3096   7.3136   7.4639
     7.5308   7.5513   7.6571   7.6605   7.6651   7.6722   7.7026   8.0920
     8.1291   8.1544   8.1860   8.2544   8.2847   8.2884   8.2938   8.3050
     8.3131   8.3481   8.3648   8.3658   8.3815   8.4472   8.5090   8.5199
     8.6248   8.6290   8.6314   8.6408   8.7525   8.7902   8.7960   8.8023
     8.8068   8.8365   8.8443   9.0381   9.0764   9.0836   9.0884   9.0968
     9.1022   9.1643   9.2650   9.2930   9.3012   9.4824   9.5225   9.5332
     9.5962   9.6509   9.7470   9.7703   9.7819   9.8323   9.9938   9.9952
    10.0857  10.1299  10.1375

          k = 0.0000-0.2165 0.0000 (256176 PWs)   bands (ev):

   -19.1593 -17.2213 -16.2958 -15.9005 -15.5097 -15.0680 -14.5588 -14.4050
   -14.3499 -14.2850 -14.0884 -13.8564 -13.8084 -13.7589 -13.2767 -12.6406
   -12.4817 -12.3968 -12.2410 -12.1185 -11.7061 -10.7072 -10.5874 -10.4797
   -10.2844  -9.4935  -9.4624  -9.2388  -9.1466  -9.0307  -8.9804  -8.4527
    -8.3255  -8.2527  -8.1881  -7.5329  -7.4140  -7.0485  -7.0202  -6.9767
    -6.9433  -6.9001  -6.8906  -6.2387  -6.1452  -5.9384  -5.9338  -5.6383
    -5.5429  -5.3100  -5.2624  -5.1668  -5.0115  -4.9814  -4.8964  -4.8871
    -4.8525  -4.7359  -4.7055  -4.6489  -4.4960  -4.2219  -4.0533  -3.9197
    -3.7984  -3.7541  -3.5939  -3.4900  -3.4049  -3.3551  -3.3542  -3.3504
    -3.3012  -3.2867  -3.2043  -3.1489  -3.1089  -3.0972  -3.0820  -3.0768
    -2.9980  -2.9447  -2.9318  -2.9085  -2.8709  -2.8382  -2.7953  -2.7499
    -2.6955  -2.6651  -2.6301  -2.6282  -2.6276  -2.6268  -2.6058  -2.5378
    -2.5079  -2.3984  -2.3716  -2.3337  -2.2922  -2.2896  -2.2753  -2.2407
    -2.1992  -2.1962  -2.1929  -2.1683  -2.1099  -2.0630  -2.0362  -2.0361
    -2.0104  -2.0102  -1.9463  -1.9125  -1.9076  -1.8769  -1.8419  -1.8171
    -1.8166  -1.8003  -1.7988  -1.7905  -1.7904  -1.7737  -1.7703  -1.7306
    -1.7056  -1.6966  -1.6929  -1.6623  -1.6224  -1.5602  -1.5213  -1.5175
    -1.5114  -1.5098  -1.4557  -1.4386  -1.4210  -1.4199  -1.4106  -1.3668
    -1.3653  -1.3553  -1.3293  -1.3285  -1.3239  -1.3238  -1.3236  -1.3194
    -1.3011  -1.2962  -1.2812  -1.2757  -1.2733  -1.2726  -1.2619  -1.2603
    -1.2127  -1.1992  -1.1931  -1.1848  -1.1832  -1.1383  -1.1378  -1.1190
    -1.1002  -1.0998  -1.0967  -1.0966  -1.0569  -1.0543  -1.0349  -1.0344
    -1.0316  -1.0295  -1.0285  -1.0271  -0.9778  -0.9764  -0.9690  -0.9686
    -0.9608  -0.9599  -0.9501  -0.9500  -0.9445  -0.9442  -0.8864  -0.8795
    -0.8764  -0.8758  -0.8686  -0.8674  -0.8658  -0.8482  -0.8469  -0.8441
    -0.8380  -0.8290  -0.8142  -0.8047  -0.8037  -0.7996  -0.7885  -0.7069
    -0.7069  -0.7012  -0.7002  -0.6827  -0.6824  -0.6580  -0.6559  -0.6548
    -0.6544  -0.6505  -0.6504  -0.6266  -0.6241  -0.6006  -0.5922  -0.5920
    -0.5908  -0.5895  -0.5878  -0.5874  -0.5850  -0.5826  -0.5663  -0.5540
    -0.5533  -0.5341  -0.5331  -0.5331  -0.5150  -0.4984  -0.4973  -0.4964
    -0.4951  -0.4889  -0.4867  -0.4825  -0.4811  -0.4631  -0.4143  -0.4104
    -0.4092  -0.4029  -0.4026  -0.3770  -0.3744  -0.3630  -0.3525  -0.3506
    -0.3468  -0.3464  -0.3435  -0.3426  -0.3219  -0.3214  -0.3170  -0.3159
    -0.3132  -0.3012  -0.3003  -0.2983  -0.2944  -0.2942  -0.2929  -0.2925
    -0.2902  -0.2851  -0.2814  -0.2685  -0.2561  -0.2553  -0.2534  -0.2531
    -0.2296  -0.2013  -0.1908  -0.1894  -0.1880  -0.1842  -0.1812  -0.1800
    -0.1763  -0.1757  -0.1627  -0.1554  -0.1487  -0.1413  -0.1372  -0.1361
    -0.1337  -0.1278  -0.1273  -0.1250  -0.1248  -0.1234  -0.1221  -0.1130
    -0.0669  -0.0661  -0.0651  -0.0648  -0.0615  -0.0464  -0.0446  -0.0444
    -0.0413  -0.0409  -0.0351  -0.0253  -0.0218  -0.0216  -0.0173  -0.0170
    -0.0072   0.0092   0.0105   0.0260   0.0262   0.0265   0.0278   0.0431
     0.0452   0.0612   0.0615   0.0714   0.0724   0.0799   0.0841   0.0858
     0.0863   0.1004   0.1276   0.1279   0.1360   0.1372   0.1447   0.1502
     0.1522   0.1529   0.1784   0.1797   0.2124   0.2128   0.2178   0.2184
     0.2455   0.2568   0.2625   0.3235   0.3315   0.3335   0.3352   0.3395
     0.3448   0.3595   0.3622   0.3627   0.3635   0.3762   0.3912   0.3981
     0.4016   0.4033   0.4042   0.4059   0.4084   0.4090   0.4123   0.4196
     0.4258   0.4277   0.4289   0.4302   0.4327   0.4352   0.4377   0.4455
     0.4658   0.4670   0.4777   0.4782   0.4784   0.4795   0.4873   0.4874
     0.4888   0.5030   0.5064   0.5066   0.5087   0.5090   0.5099   0.5104
     0.5132   0.5288   0.5303   0.5309   0.5341   0.5350   0.5369   0.5382
     0.5387   0.5494   0.5542   0.5564   0.5958   0.5962   0.6078   0.6078
     0.6156   0.6169   0.6191   0.6200   0.6210   0.6245   0.6258   0.6300
     0.6335   0.6336   0.6346   0.6385   0.6730   0.6747   0.6755   0.6758
     0.6843   0.6913   0.6926   0.6929   0.6943   0.6978   0.7086   0.7134
     0.7252   0.7252   0.7291   0.7309   0.7337   0.7360   0.7846   0.7854
     0.8113   0.8366   0.8370   0.8413   0.8432   0.8445   0.8515   0.8528
     0.8591   0.8606   0.8613   0.8671   0.8681   0.8727   0.8731   0.8762
     0.8785   0.8851   0.8905   0.8910   0.8925   0.8937   0.8980   0.9018
     0.9102   0.9123   0.9174   0.9179   0.9179   0.9192   0.9199   0.9217
     0.9251   0.9337   0.9393   0.9406   0.9407   0.9424   0.9443   0.9459
     0.9502   0.9615   0.9625   0.9689   0.9748   0.9765   0.9790   0.9828
     0.9842   0.9889   0.9896   0.9897   0.9903   0.9911   0.9927   1.0336
     1.0416   1.0641   1.0778   1.0782   1.0788   1.0941   1.0954   1.0996
     1.1017   1.1051   1.1206   1.1212   1.1228   1.1334   1.1379   1.1421
     1.1430   1.1437   1.1458   1.1501   1.1503   1.1516   1.1525   1.1529
     1.1539   1.1549   1.1567   1.1607   1.1616   1.1709   1.1799   1.1810
     1.1831   1.1864   1.1881   1.1917   1.1938   1.2162   1.2194   1.2203
     1.2251   1.2267   1.2281   1.2284   1.2305   1.2433   1.2481   1.2513
     1.2528   1.2607   1.2624   1.2629   1.2647   1.2660   1.2682   1.2802
     1.2832   1.2842   1.2844   1.3005   1.3011   1.3037   1.3064   1.3229
     1.3250   1.3287   1.3307   1.3319   1.3328   1.3441   1.3461   1.3469
     1.3475   1.3623   1.3634   1.3752   1.3772   1.3774   1.3779   1.3964
     1.3981   1.3988   1.3991   1.4013   1.4015   1.4026   1.4028   1.4295
     1.4303   1.4352   1.4388   1.4405   1.4455   1.4505   1.4583   1.4691
     1.4706   1.4709   1.4726   1.4766   1.4831   1.4891   1.4948   1.5300
     1.5361   1.5404   1.5427   1.5850   1.6411   1.6490   1.6609   1.6729
     1.6788   1.6822   1.6984   1.7287   1.7393   1.7420   1.7421   1.7533
     1.7620   1.7655   1.7682   1.8035   1.8055   1.8264   1.8990   2.0536
     2.3276   2.3676   2.3755   2.3768   2.3940   2.4464   2.4496   2.5105
     2.5173   2.5235   2.5272   2.5348   2.5523   2.6588   2.6622   2.7179
     2.7208   2.7341   2.7389   2.8738   2.8752   3.1205   3.1213   3.1227
     3.1588   3.2781   3.3749   3.4057   3.6208   3.6323   3.7246   3.8858
     4.0287   4.0339   4.0518   4.0749   4.2426   4.2786   4.2887   4.2891
     4.3099   4.4549   4.4616   4.6408   4.6689   4.7300   4.7475   4.8986
     5.0021   5.0521   5.0741   5.1989   5.3013   5.3105   5.3126   5.3189
     5.3249   5.3935   5.5176   5.6287   5.6739   5.7367   6.1564   6.2378
     6.3692   6.3817   6.4006   6.4184   6.4187   6.4610   6.5082   6.5905
     6.6157   6.6217   6.7806   6.7932   6.9564   6.9817   6.9941   7.0263
     7.0409   7.0437   7.0758   7.0911   7.0938   7.1012   7.2636   7.3105
     7.3153   7.3715   7.4349   7.4550   7.5347   7.7245   7.7317   7.9083
     7.9193   8.0969   8.1002   8.1467   8.3016   8.3120   8.4120   8.4162
     8.4315   8.4360   8.4438   8.4633   8.5270   8.6162   8.6640   8.6685
     8.6780   8.6803   8.7111   8.7193   8.7690   8.8668   8.9114   8.9365
     8.9646   8.9961   9.0934   9.1152   9.1516   9.1902   9.3280   9.3325
     9.3422   9.3503   9.3574   9.3633   9.4210   9.4507   9.4620   9.4704
     9.4750   9.4811   9.5038   9.6299   9.6351   9.7360   9.7385   9.7942
     9.8407   9.8408  10.1751

          k = 0.2500 0.0000 0.0000 (256240 PWs)   bands (ev):

   -19.1559 -17.1868 -16.1641 -15.8953 -15.5642 -15.1709 -15.0154 -14.9638
   -14.6231 -14.0917 -13.8651 -13.6771 -13.2629 -13.1855 -13.1049 -12.8263
   -12.3659 -12.2655 -12.1707 -11.8241 -11.1931 -11.1310 -10.7587 -10.6684
   -10.3252 -10.2413  -9.9625  -9.8385  -9.5542  -9.2819  -9.1461  -8.6904
    -8.0427  -7.8480  -7.7444  -7.6213  -7.5964  -7.4809  -7.1423  -7.0208
    -6.3782  -6.2768  -6.1312  -6.0448  -5.9713  -5.8912  -5.5355  -5.4000
    -5.3648  -5.3588  -5.1840  -5.0320  -4.8101  -4.7618  -4.5793  -4.5627
    -4.5185  -4.4923  -4.4754  -4.4175  -4.3032  -4.2006  -4.1289  -4.0528
    -4.0481  -4.0069  -3.9033  -3.8956  -3.8874  -3.8549  -3.7223  -3.6884
    -3.6526  -3.6080  -3.5263  -3.4900  -3.4509  -3.3812  -3.3052  -3.2831
    -3.2123  -3.1465  -3.0795  -3.0135  -2.9953  -2.8522  -2.8489  -2.8464
    -2.7940  -2.7296  -2.6750  -2.6679  -2.6492  -2.5544  -2.4576  -2.4471
    -2.3904  -2.3643  -2.1902  -2.1586  -2.1482  -2.1448  -2.1313  -2.1268
    -2.0486  -2.0297  -1.9625  -1.9422  -1.9230  -1.8887  -1.8701  -1.8520
    -1.8510  -1.8445  -1.8430  -1.8396  -1.8233  -1.7949  -1.7828  -1.7669
    -1.7613  -1.7554  -1.7165  -1.6986  -1.6854  -1.6530  -1.6330  -1.6317
    -1.6303  -1.6285  -1.6281  -1.6257  -1.5772  -1.5707  -1.5535  -1.5518
    -1.5405  -1.5392  -1.5044  -1.4221  -1.3969  -1.3807  -1.3747  -1.3622
    -1.3255  -1.3178  -1.2997  -1.2939  -1.2926  -1.2873  -1.2780  -1.2640
    -1.2579  -1.2570  -1.2387  -1.2343  -1.2325  -1.2273  -1.2071  -1.1870
    -1.1854  -1.1831  -1.1812  -1.1758  -1.1623  -1.1608  -1.1575  -1.1389
    -1.1294  -1.1215  -1.1018  -1.0994  -1.0982  -1.0889  -1.0815  -1.0699
    -1.0625  -1.0609  -1.0530  -1.0503  -1.0458  -1.0395  -1.0314  -1.0309
    -1.0296  -1.0294  -1.0262  -1.0248  -1.0141  -1.0050  -0.9963  -0.9950
    -0.9888  -0.9672  -0.9525  -0.9512  -0.9462  -0.9035  -0.9013  -0.8663
    -0.8656  -0.8554  -0.8459  -0.8432  -0.8336  -0.8205  -0.8195  -0.8066
    -0.8044  -0.8027  -0.7983  -0.7931  -0.7897  -0.7724  -0.6575  -0.6518
    -0.6505  -0.6487  -0.6189  -0.6181  -0.6170  -0.6076  -0.6000  -0.5993
    -0.5987  -0.5980  -0.5824  -0.5775  -0.5766  -0.5758  -0.5733  -0.5556
    -0.5426  -0.5353  -0.5346  -0.5320  -0.5311  -0.5234  -0.5101  -0.5099
    -0.5076  -0.4543  -0.4492  -0.4485  -0.4468  -0.4414  -0.4385  -0.4343
    -0.4300  -0.4267  -0.4068  -0.4061  -0.3946  -0.3838  -0.3827  -0.3811
    -0.3766  -0.3456  -0.3442  -0.3431  -0.3412  -0.3335  -0.3320  -0.3293
    -0.3221  -0.3193  -0.3140  -0.3018  -0.2978  -0.2863  -0.2799  -0.2633
    -0.2536  -0.2485  -0.2476  -0.2464  -0.2365  -0.2334  -0.2306  -0.2293
    -0.2268  -0.2145  -0.2031  -0.2013  -0.2009  -0.1887  -0.1860  -0.1630
    -0.1610  -0.1601  -0.1314  -0.1174  -0.1133  -0.1123  -0.1071  -0.1056
    -0.0926  -0.0763  -0.0698  -0.0689  -0.0649  -0.0613  -0.0597  -0.0562
    -0.0496  -0.0467  -0.0462  -0.0429  -0.0418  -0.0414  -0.0392  -0.0365
    -0.0200  -0.0166  -0.0155  -0.0133  -0.0080  -0.0053   0.0082   0.0094
     0.0221   0.0277   0.0346   0.0600   0.0638   0.0649   0.0668   0.0674
     0.0698   0.0848   0.0903   0.0913   0.0923   0.0929   0.0943   0.1125
     0.1294   0.1313   0.1961   0.2026   0.2044   0.2065   0.2121   0.2201
     0.2226   0.2237   0.2254   0.2278   0.2321   0.2338   0.2355   0.2390
     0.2400   0.2466   0.2490   0.2564   0.2576   0.2580   0.2691   0.2705
     0.2759   0.2798   0.2813   0.2858   0.2870   0.2999   0.3070   0.3152
     0.3203   0.3337   0.3547   0.3562   0.3727   0.3738   0.3871   0.3929
     0.3938   0.3954   0.3980   0.4079   0.4141   0.4277   0.4300   0.4328
     0.4357   0.4359   0.4413   0.4430   0.4459   0.4477   0.4666   0.4712
     0.4742   0.4838   0.4917   0.4933   0.4956   0.4984   0.5019   0.5027
     0.5062   0.5129   0.5266   0.5296   0.5315   0.5363   0.5426   0.5453
     0.5463   0.5481   0.5587   0.5611   0.5637   0.5673   0.5686   0.5822
     0.5878   0.5906   0.6058   0.6101   0.6146   0.6166   0.6195   0.6224
     0.6265   0.6376   0.6526   0.6562   0.6741   0.6778   0.6898   0.6913
     0.6917   0.6946   0.6967   0.7022   0.7161   0.7214   0.7251   0.7272
     0.7291   0.7354   0.7407   0.7510   0.7536   0.7648   0.7700   0.7739
     0.7751   0.7828   0.7968   0.8036   0.8066   0.8074   0.8104   0.8300
     0.8308   0.8395   0.8410   0.8428   0.8447   0.8452   0.8464   0.8526
     0.8537   0.8576   0.8611   0.8772   0.8961   0.9003   0.9056   0.9057
     0.9161   0.9193   0.9258   0.9370   0.9402   0.9419   0.9431   0.9439
     0.9498   0.9519   0.9531   0.9669   0.9687   0.9693   0.9702   0.9713
     0.9727   0.9738   0.9752   0.9801   0.9832   0.9835   0.9888   0.9910
     0.9976   1.0073   1.0097   1.0139   1.0160   1.0200   1.0214   1.0263
     1.0272   1.0370   1.0412   1.0415   1.0547   1.0577   1.0590   1.0602
     1.0634   1.0727   1.0756   1.0863   1.0884   1.0923   1.0947   1.0997
     1.1061   1.1079   1.1092   1.1147   1.1267   1.1353   1.1401   1.1430
     1.1444   1.1525   1.1787   1.1850   1.1876   1.1935   1.1953   1.1976
     1.2022   1.2040   1.2053   1.2064   1.2119   1.2133   1.2219   1.2283
     1.2297   1.2311   1.2410   1.2488   1.2503   1.2512   1.2518   1.2558
     1.2606   1.2629   1.2641   1.2658   1.2687   1.2700   1.2725   1.2740
     1.2785   1.2843   1.2910   1.2992   1.3012   1.3028   1.3060   1.3091
     1.3100   1.3122   1.3148   1.3310   1.3314   1.3318   1.3519   1.3525
     1.3599   1.3627   1.3686   1.3725   1.3732   1.3740   1.3767   1.3781
     1.3801   1.3841   1.3849   1.3853   1.3912   1.3935   1.3973   1.4113
     1.4140   1.4169   1.4173   1.4198   1.4201   1.4226   1.4340   1.4341
     1.4424   1.4442   1.4507   1.4568   1.4584   1.4594   1.4653   1.4673
     1.4838   1.4966   1.5033   1.5059   1.5324   1.5569   1.5741   1.5757
     1.5789   1.5936   1.6148   1.6654   1.7087   1.7116   1.7131   1.7170
     1.7299   1.7519   1.7880   1.8111   1.9598   1.9819   2.0028   2.0277
     2.0370   2.0425   2.0631   2.1519   2.2095   2.2207   2.5108   2.5134
     2.5176   2.5225   2.9255   2.9265   2.9653   3.1417   3.1438   3.1687
     3.1690   3.2005   3.2422   3.3553   3.4159   3.4635   3.5353   3.5573
     3.5704   3.5958   3.6336   3.6611   3.6701   3.6817   3.7039   3.8169
     3.8309   3.8656   3.9313   3.9578   4.1464   4.1613   4.1790   4.2236
     4.2339   4.4171   4.6217   4.7292   4.7601   4.7824   4.9429   5.1218
     5.1720   5.1745   5.1829   5.2630   5.3181   5.4100   5.4285   5.4534
     5.4902   5.5293   5.5607   5.6025   5.6525   5.6756   5.6901   5.7010
     5.7910   5.7984   5.8786   5.9553   5.9616   5.9799   6.0092   6.1089
     6.5928   6.6243   6.6557   6.6666   6.6941   6.7121   6.7928   6.8543
     6.9507   6.9776   6.9976   7.0052   7.0141   7.0244   7.1962   7.2093
     7.2546   7.2843   7.3676   7.4895   7.5048   7.5133   7.5256   7.7335
     7.7457   7.7692   7.8358   7.9012   7.9662   7.9722   8.0165   8.0336
     8.1806   8.2208   8.2644   8.2687   8.2856   8.3004   8.3634   8.3846
     8.4121   8.4600   8.5060   8.5971   8.6019   8.8991   8.9126   8.9835
     9.0072   9.0498   9.0948   9.1303   9.1464   9.1613   9.1758   9.1989
     9.2177   9.2297   9.2656   9.3749   9.3917   9.4057   9.4133   9.4299
     9.5974   9.6602   9.6732   9.6925   9.7707   9.8557   9.8981   9.9117
     9.9253   9.9390   9.9650

          k = 0.2500-0.2165 0.0000 (256316 PWs)   bands (ev):

   -19.1559 -17.1867 -16.1832 -15.8437 -15.5173 -15.3506 -15.1332 -14.7290
   -14.4747 -14.2114 -13.9896 -13.5905 -13.3063 -13.2522 -13.0852 -12.8002
   -12.5176 -12.0729 -11.9760 -11.5447 -11.4545 -11.1821 -11.0908 -10.8669
   -10.6172  -9.8986  -9.7358  -9.4197  -9.3392  -9.1323  -9.0668  -8.7242
    -8.6579  -8.4833  -8.4355  -7.3502  -7.1270  -6.8826  -6.7309  -6.6494
    -6.5535  -6.5037  -6.3777  -6.1293  -6.0942  -5.7614  -5.7557  -5.5391
    -5.3382  -5.2054  -5.1388  -5.0189  -4.8492  -4.7305  -4.7238  -4.6443
    -4.5847  -4.5566  -4.3988  -4.3971  -4.3585  -4.3262  -4.2601  -4.2154
    -4.0970  -3.9784  -3.8892  -3.8396  -3.7740  -3.6462  -3.6285  -3.5417
    -3.5157  -3.5092  -3.4832  -3.4541  -3.3905  -3.3155  -3.2716  -3.2344
    -3.1686  -3.1307  -3.0379  -2.9871  -2.9665  -2.9601  -2.9585  -2.9193
    -2.8986  -2.7931  -2.7568  -2.6575  -2.6321  -2.4048  -2.3657  -2.3615
    -2.3294  -2.2559  -2.2308  -2.2236  -2.2182  -2.2177  -2.1894  -2.0911
    -2.0693  -2.0595  -2.0568  -2.0202  -2.0102  -1.9820  -1.9415  -1.8907
    -1.8639  -1.8624  -1.8603  -1.8479  -1.8046  -1.7998  -1.7748  -1.7722
    -1.7608  -1.7582  -1.7548  -1.7381  -1.7275  -1.7270  -1.7260  -1.7240
    -1.7173  -1.7162  -1.6338  -1.6294  -1.5785  -1.5191  -1.5158  -1.4265
    -1.4201  -1.4133  -1.3891  -1.3798  -1.3791  -1.3274  -1.3266  -1.3128
    -1.3124  -1.3087  -1.2993  -1.2982  -1.2924  -1.2891  -1.2745  -1.2735
    -1.2649  -1.2604  -1.2599  -1.2548  -1.2495  -1.2441  -1.2398  -1.2338
    -1.2246  -1.1932  -1.1821  -1.1788  -1.1759  -1.1727  -1.1647  -1.1633
    -1.1581  -1.1330  -1.1297  -1.1137  -1.0961  -1.0893  -1.0890  -1.0826
    -1.0755  -1.0728  -1.0498  -1.0457  -1.0448  -1.0260  -1.0235  -1.0118
    -1.0112  -1.0069  -1.0059  -1.0031  -0.9981  -0.9830  -0.9748  -0.9730
    -0.9565  -0.9508  -0.9207  -0.9148  -0.9121  -0.9116  -0.8977  -0.8306
    -0.8292  -0.8266  -0.8256  -0.8208  -0.8200  -0.8147  -0.7747  -0.7714
    -0.7639  -0.7625  -0.7609  -0.7556  -0.7549  -0.7452  -0.7431  -0.7046
    -0.7029  -0.6686  -0.6650  -0.6610  -0.6296  -0.6178  -0.6149  -0.6136
    -0.6128  -0.5868  -0.5844  -0.5826  -0.5738  -0.5678  -0.5540  -0.5518
    -0.5501  -0.5401  -0.5376  -0.5288  -0.5112  -0.5060  -0.4956  -0.4916
    -0.4898  -0.4842  -0.4585  -0.4581  -0.4558  -0.4446  -0.4434  -0.4346
    -0.4299  -0.4178  -0.4171  -0.4128  -0.4124  -0.4078  -0.4072  -0.4019
    -0.4007  -0.3856  -0.3818  -0.3681  -0.3670  -0.3602  -0.3426  -0.3385
    -0.3239  -0.3208  -0.3086  -0.3042  -0.2898  -0.2894  -0.2824  -0.2740
    -0.2684  -0.2669  -0.2643  -0.2601  -0.2458  -0.2338  -0.2113  -0.2037
    -0.2028  -0.1672  -0.1660  -0.1582  -0.1579  -0.1551  -0.1539  -0.1375
    -0.1371  -0.1343  -0.1195  -0.1185  -0.1108  -0.1030  -0.1003  -0.0961
    -0.0939  -0.0908  -0.0900  -0.0884  -0.0693  -0.0652  -0.0621  -0.0569
    -0.0531  -0.0525  -0.0515  -0.0512  -0.0485  -0.0480  -0.0431  -0.0386
    -0.0262  -0.0192  -0.0184  -0.0179  -0.0174   0.0143   0.0156   0.0204
     0.0239   0.0245   0.0322   0.0452   0.0491   0.0574   0.0667   0.0818
     0.0825   0.0883   0.0932   0.0978   0.1024   0.1031   0.1058   0.1087
     0.1178   0.1209   0.1263   0.1315   0.1536   0.1566   0.2160   0.2185
     0.2284   0.2298   0.2309   0.2321   0.2339   0.2366   0.2374   0.2428
     0.2433   0.2445   0.2592   0.2634   0.2693   0.2714   0.2727   0.2734
     0.2810   0.2851   0.2864   0.2919   0.3135   0.3197   0.3227   0.3298
     0.3318   0.3438   0.3478   0.3523   0.3613   0.3881   0.3914   0.3993
     0.4005   0.4040   0.4078   0.4083   0.4170   0.4194   0.4206   0.4274
     0.4292   0.4310   0.4325   0.4343   0.4391   0.4621   0.4628   0.4691
     0.4703   0.4846   0.4859   0.5163   0.5166   0.5179   0.5181   0.5378
     0.5492   0.5521   0.5548   0.5562   0.5581   0.5590   0.5638   0.5693
     0.5740   0.5760   0.5778   0.5817   0.5846   0.5963   0.6013   0.6022
     0.6064   0.6141   0.6177   0.6191   0.6219   0.6223   0.6276   0.6316
     0.6337   0.6361   0.6395   0.6418   0.6523   0.6544   0.6611   0.6619
     0.6662   0.6668   0.6680   0.6697   0.6714   0.6732   0.7050   0.7062
     0.7162   0.7189   0.7307   0.7345   0.7468   0.7574   0.7727   0.7736
     0.7745   0.7756   0.7778   0.7803   0.7808   0.7953   0.8038   0.8044
     0.8049   0.8054   0.8064   0.8072   0.8180   0.8314   0.8336   0.8347
     0.8387   0.8452   0.8486   0.8554   0.8570   0.8791   0.8795   0.8814
     0.9001   0.9047   0.9060   0.9120   0.9141   0.9157   0.9194   0.9229
     0.9247   0.9268   0.9498   0.9516   0.9556   0.9638   0.9688   0.9713
     0.9825   0.9879   0.9910   1.0001   1.0135   1.0236   1.0298   1.0307
     1.0368   1.0383   1.0401   1.0407   1.0416   1.0423   1.0447   1.0462
     1.0484   1.0557   1.0563   1.0624   1.0671   1.0701   1.0740   1.0865
     1.0900   1.1095   1.1142   1.1165   1.1186   1.1242   1.1251   1.1263
     1.1287   1.1332   1.1367   1.1393   1.1410   1.1420   1.1455   1.1499
     1.1520   1.1548   1.1569   1.1623   1.1696   1.1723   1.1730   1.1745
     1.1758   1.1769   1.1802   1.1884   1.1913   1.1954   1.1961   1.2183
     1.2210   1.2282   1.2287   1.2365   1.2429   1.2447   1.2482   1.2536
     1.2607   1.2614   1.2717   1.2754   1.2790   1.2819   1.2827   1.2841
     1.2864   1.2933   1.2975   1.2985   1.2991   1.3086   1.3105   1.3139
     1.3252   1.3294   1.3316   1.3323   1.3334   1.3348   1.3359   1.3426
     1.3432   1.3480   1.3538   1.3544   1.3584   1.3621   1.3678   1.3722
     1.3765   1.3847   1.3859   1.3881   1.3885   1.3912   1.3937   1.3940
     1.3950   1.3996   1.4039   1.4043   1.4156   1.4289   1.4290   1.4352
     1.4389   1.4451   1.4524   1.4591   1.4700   1.4755   1.4773   1.4820
     1.4999   1.5011   1.5076   1.5084   1.5331   1.5369   1.5592   1.5923
     1.6173   1.6188   1.6368   1.6794   1.7059   1.7098   1.7266   1.7295
     1.7397   1.7405   1.7440   1.7477   1.7967   1.8059   1.9738   2.0748
     2.0819   2.1066   2.1218   2.2388   2.2457   2.5320   2.5345   2.7166
     2.7350   2.7397   2.7414   2.7489   2.7583   2.7891   2.7940   2.9307
     2.9342   3.0218   3.0401   3.3427   3.4799   3.4968   3.5620   3.5849
     3.6362   3.6630   3.7786   3.7909   3.7989   3.8059   3.8997   3.9522
     3.9886   4.0224   4.0753   4.1151   4.1381   4.3242   4.3270   4.4109
     4.5063   4.5083   4.5477   4.6164   4.6286   4.6820   4.8542   4.8918
     4.8985   4.9774   5.0086   5.0344   5.1547   5.2372   5.2505   5.3554
     5.3873   5.4028   5.4070   5.4094   5.4892   5.6432   5.7091   5.7301
     5.8290   5.8593   5.8897   5.9156   5.9933   6.4138   6.5480   6.5528
     6.5928   6.6182   6.6992   6.7153   6.7997   6.8328   6.8986   7.0107
     7.0286   7.0408   7.0536   7.0660   7.0948   7.1540   7.1701   7.2062
     7.2729   7.2862   7.2955   7.3270   7.3707   7.3944   7.4006   7.6107
     7.6283   7.7462   7.7558   7.8875   7.9397   7.9580   8.0287   8.1223
     8.1446   8.1757   8.2105   8.2265   8.4235   8.5372   8.5437   8.5968
     8.6021   8.6150   8.6310   8.6663   8.6683   8.7911   8.8750   8.8978
     8.9036   8.9254   8.9443   9.0430   9.0928   9.1046   9.1239   9.1377
     9.1532   9.1729   9.2083   9.2152   9.2258   9.2909   9.3101   9.3159
     9.3708   9.4063   9.4115   9.5275   9.5975   9.6464   9.6643   9.8635
     9.9108   9.9378   9.9757

          k =-0.5000 0.0000 0.0000 (256496 PWs)   bands (ev):

   -19.1526 -17.1477 -15.9619 -15.7837 -15.6542 -15.6274 -15.3231 -14.7870
   -14.6058 -14.5457 -14.0885 -13.0952 -12.9333 -12.7764 -12.6755 -12.4867
   -12.3018 -11.9533 -11.9306 -11.8472 -11.6367 -11.2546 -11.2249 -10.9457
   -10.5886 -10.3459 -10.1965 -10.1088  -9.8013  -9.2203  -9.1291  -8.9825
    -8.9117  -7.8780  -7.6982  -7.6149  -7.4511  -7.4010  -7.3813  -6.3925
    -6.2834  -5.8990  -5.4175  -5.3705  -5.3577  -5.2467  -5.0871  -5.0274
    -4.9904  -4.9043  -4.8679  -4.8561  -4.8491  -4.8437  -4.8308  -4.8072
    -4.7453  -4.7109  -4.6820  -4.5986  -4.5032  -4.4614  -4.4379  -4.3397
    -4.1065  -4.0837  -4.0201  -4.0136  -3.9737  -3.8878  -3.7277  -3.7067
    -3.6428  -3.6120  -3.5709  -3.5183  -3.5047  -3.4714  -3.4696  -3.4662
    -3.4623  -3.4261  -3.4061  -3.1974  -3.0519  -2.9859  -2.9105  -2.8999
    -2.8273  -2.8142  -2.7711  -2.6704  -2.6514  -2.6050  -2.5926  -2.5035
    -2.4531  -2.3561  -2.3497  -2.3481  -2.3470  -2.1724  -2.0698  -1.9296
    -1.9291  -1.9284  -1.9277  -1.9272  -1.9247  -1.8916  -1.8234  -1.8026
    -1.7993  -1.7793  -1.7193  -1.7012  -1.7004  -1.7001  -1.6971  -1.6530
    -1.6522  -1.6501  -1.6500  -1.5619  -1.5539  -1.5483  -1.5377  -1.5376
    -1.5307  -1.5102  -1.4795  -1.4760  -1.4742  -1.4733  -1.4571  -1.4553
    -1.4084  -1.4075  -1.4050  -1.4030  -1.4015  -1.3920  -1.3907  -1.3902
    -1.3866  -1.3825  -1.3436  -1.3412  -1.3407  -1.3397  -1.3193  -1.3181
    -1.3178  -1.3163  -1.2703  -1.2541  -1.2537  -1.2340  -1.2331  -1.2316
    -1.2304  -1.2109  -1.2058  -1.2035  -1.2020  -1.2001  -1.1980  -1.1929
    -1.1583  -1.1575  -1.1568  -1.1558  -1.1366  -1.1346  -1.1294  -1.1058
    -1.1049  -1.0949  -1.0660  -1.0602  -1.0587  -1.0315  -1.0311  -1.0290
    -1.0282  -1.0053  -1.0020  -1.0017  -1.0000  -0.9974  -0.9915  -0.9861
    -0.9820  -0.9798  -0.9791  -0.9783  -0.9544  -0.9533  -0.9401  -0.8916
    -0.8897  -0.8894  -0.8875  -0.8451  -0.8440  -0.7708  -0.7617  -0.7613
    -0.7599  -0.7592  -0.7321  -0.7268  -0.7236  -0.7229  -0.7217  -0.7207
    -0.7160  -0.7053  -0.6891  -0.6829  -0.6816  -0.6783  -0.6740  -0.6694
    -0.6592  -0.6539  -0.6501  -0.6446  -0.6210  -0.5880  -0.5707  -0.5572
    -0.5397  -0.5245  -0.5196  -0.5068  -0.5061  -0.5026  -0.4824  -0.4700
    -0.4648  -0.4582  -0.4570  -0.4549  -0.4545  -0.4522  -0.4376  -0.4229
    -0.4183  -0.4175  -0.4167  -0.4154  -0.3803  -0.3798  -0.3782  -0.3778
    -0.3583  -0.3461  -0.3454  -0.3450  -0.3441  -0.3342  -0.3334  -0.3303
    -0.3007  -0.3005  -0.2993  -0.2986  -0.2982  -0.2866  -0.2711  -0.2679
    -0.2547  -0.2521  -0.2161  -0.1866  -0.1852  -0.1845  -0.1832  -0.1794
    -0.1781  -0.1778  -0.1756  -0.1413  -0.1389  -0.1383  -0.1337  -0.1152
    -0.1035  -0.1017  -0.0755  -0.0744  -0.0734  -0.0732  -0.0717  -0.0712
    -0.0702  -0.0698  -0.0691  -0.0688  -0.0676  -0.0658  -0.0045   0.0054
     0.0109   0.0116   0.0139   0.0194   0.0205   0.0225   0.0238   0.0251
     0.0270   0.0288   0.0302   0.0326   0.0339   0.0359   0.0368   0.0397
     0.0524   0.0529   0.0531   0.0672   0.0679   0.0681   0.0683   0.0685
     0.0698   0.0777   0.0781   0.0787   0.0794   0.0909   0.0922   0.0995
     0.1037   0.1044   0.1046   0.1071   0.1218   0.1285   0.1343   0.1350
     0.1933   0.2342   0.2357   0.2372   0.2387   0.2673   0.2687   0.2700
     0.2705   0.2821   0.2831   0.2847   0.2887   0.2914   0.2929   0.2938
     0.2961   0.2978   0.2994   0.3016   0.3024   0.3039   0.3056   0.3110
     0.3180   0.3196   0.3207   0.3228   0.3324   0.3385   0.3388   0.3468
     0.3472   0.3519   0.3532   0.3645   0.3786   0.4350   0.4381   0.4423
     0.4430   0.4488   0.4552   0.4688   0.4716   0.4722   0.4746   0.4761
     0.4777   0.4784   0.4797   0.4837   0.4842   0.4852   0.4876   0.4882
     0.4890   0.4929   0.4937   0.4959   0.4963   0.5065   0.5126   0.5224
     0.5321   0.5344   0.5358   0.5490   0.5500   0.5659   0.5676   0.5700
     0.5709   0.5798   0.5802   0.5813   0.5836   0.5840   0.5851   0.5928
     0.5977   0.6012   0.6019   0.6161   0.6178   0.6181   0.6184   0.6516
     0.6553   0.6557   0.6573   0.6592   0.6614   0.6654   0.6755   0.6782
     0.6993   0.7054   0.7118   0.7142   0.7161   0.7183   0.7185   0.7208
     0.7480   0.7609   0.7855   0.7876   0.7896   0.7902   0.7913   0.7918
     0.7956   0.7964   0.7991   0.8018   0.8037   0.8055   0.8145   0.8172
     0.8217   0.8348   0.8352   0.8376   0.8381   0.8539   0.8546   0.8555
     0.8568   0.8575   0.8580   0.8698   0.8855   0.8954   0.8966   0.8992
     0.9015   0.9237   0.9580   0.9627   0.9634   0.9648   0.9663   0.9914
     0.9948   0.9959   0.9981   0.9988   1.0087   1.0164   1.0202   1.0266
     1.0280   1.0335   1.0348   1.0417   1.0541   1.0657   1.0663   1.0669
     1.0677   1.0686   1.0738   1.0752   1.0755   1.0800   1.0838   1.0855
     1.0860   1.0868   1.0873   1.0875   1.0892   1.0912   1.1092   1.1240
     1.1265   1.1270   1.1292   1.1386   1.1433   1.1562   1.1622   1.1627
     1.1649   1.1659   1.1728   1.1801   1.1820   1.1887   1.1913   1.1918
     1.1926   1.1937   1.2009   1.2029   1.2035   1.2052   1.2094   1.2140
     1.2255   1.2348   1.2485   1.2499   1.2557   1.2611   1.2648   1.2650
     1.2660   1.2662   1.2664   1.2681   1.2718   1.2760   1.2785   1.2792
     1.2799   1.2816   1.2819   1.2828   1.2856   1.2913   1.2920   1.2925
     1.2929   1.2953   1.2986   1.3001   1.3142   1.3153   1.3304   1.3351
     1.3382   1.3394   1.3408   1.3418   1.3426   1.3437   1.3483   1.3593
     1.3643   1.3648   1.3658   1.3786   1.3794   1.3839   1.3872   1.3973
     1.3992   1.3999   1.4007   1.4078   1.4187   1.4199   1.4231   1.4236
     1.4278   1.4282   1.4291   1.4293   1.4327   1.4416   1.4485   1.4497
     1.4621   1.4632   1.4639   1.4639   1.4646   1.4732   1.4781   1.4784
     1.5190   1.5260   1.5342   1.5559   1.5574   1.5605   1.5622   1.5754
     1.7042   1.9790   1.9834   1.9889   1.9912   2.1840   2.1916   2.2059
     2.2149   2.2340   2.2344   2.2413   2.2439   2.5542   2.5744   2.5815
     2.5854   2.7717   2.7780   2.7842   2.7870   3.1291   3.1352   3.1366
     3.1372   3.3910   3.4231   3.4749   3.6986   3.7181   3.7200   3.7541
     3.8373   3.8750   3.8795   3.9057   3.9800   4.0202   4.0227   4.0247
     4.0615   4.1565   4.1766   4.3793   4.5504   4.6282   4.7099   4.7220
     4.7266   4.7422   4.7706   4.7759   4.7802   4.8384   4.9326   4.9682
     4.9698   4.9930   4.9994   5.0040   5.0065   5.0264   5.0297   5.0524
     5.0736   5.1096   5.2976   5.3840   5.4399   5.4935   5.5599   5.5934
     5.6605   5.6845   5.8965   5.9386   5.9455   5.9531   5.9652   5.9844
     6.0020   6.0103   6.0322   6.1782   6.2038   6.3944   6.4159   6.4243
     6.4395   6.4468   6.8093   7.0402   7.0550   7.0668   7.0757   7.0876
     7.0987   7.5044   7.5468   7.5506   7.5541   7.5548   7.5577   7.5755
     7.6029   7.7593   7.7673   7.8097   7.8419   7.8500   7.8509   7.9403
     8.0073   8.0180   8.0260   8.0527   8.0979   8.1080   8.1230   8.2783
     8.3356   8.4563   8.7465   8.7824   8.7868   8.7881   8.7945   8.8049
     8.8307   8.9741   8.9955   9.0085   9.0283   9.0350   9.0436   9.0790
     9.1512   9.2131   9.2170   9.3690   9.4677   9.4812   9.4841   9.4845
     9.4921   9.5012   9.5132   9.5149   9.5165   9.5300   9.6090   9.9040
     9.9171   9.9338   9.9777

          k =-0.5000-0.2165 0.0000 (256328 PWs)   bands (ev):

   -19.1526 -17.1476 -15.9373 -15.8525 -15.7291 -15.4000 -15.2168 -15.1834
   -14.7538 -13.9869 -13.8368 -13.7307 -13.3862 -12.6635 -12.4241 -12.0476
   -12.0002 -11.9401 -11.8070 -11.6810 -11.6220 -11.5759 -11.4846 -11.4602
   -11.0099 -10.0708  -9.9999  -9.7672  -9.6595  -9.2558  -8.9702  -8.8324
    -8.7707  -8.3364  -8.2008  -8.0446  -8.0335  -6.6128  -6.4241  -6.1863
    -6.0388  -5.8781  -5.6704  -5.4896  -5.4023  -5.3628  -5.3045  -5.2561
    -5.2325  -5.2315  -5.2269  -5.0950  -5.0721  -4.9660  -4.6485  -4.4669
    -4.4523  -4.3969  -4.3883  -4.3488  -4.3129  -4.2543  -4.2484  -4.2479
    -4.2431  -4.1473  -4.1241  -4.0157  -3.9790  -3.9457  -3.8926  -3.8685
    -3.8117  -3.7833  -3.7669  -3.6567  -3.6337  -3.6167  -3.5310  -3.5078
    -3.4270  -3.2160  -3.1643  -3.1207  -3.0647  -2.8891  -2.7552  -2.6371
    -2.6308  -2.6287  -2.6272  -2.5961  -2.5886  -2.5688  -2.5663  -2.5450
    -2.4739  -2.4233  -2.2469  -2.1900  -2.1548  -2.1477  -2.1430  -2.1162
    -2.0994  -2.0888  -2.0667  -2.0621  -2.0559  -2.0184  -1.9535  -1.8546
    -1.8534  -1.8518  -1.8488  -1.8088  -1.7696  -1.6807  -1.6184  -1.5778
    -1.5555  -1.5435  -1.5433  -1.5426  -1.5424  -1.5090  -1.5039  -1.5036
    -1.5009  -1.4838  -1.4825  -1.4822  -1.4820  -1.4490  -1.4358  -1.4352
    -1.4348  -1.4337  -1.4330  -1.4322  -1.4298  -1.4256  -1.4084  -1.4081
    -1.4075  -1.4071  -1.3604  -1.3582  -1.3569  -1.3546  -1.3503  -1.2869
    -1.2838  -1.2797  -1.2766  -1.2410  -1.2403  -1.2401  -1.2397  -1.2238
    -1.2220  -1.2220  -1.2210  -1.1840  -1.1756  -1.1715  -1.1702  -1.1697
    -1.1664  -1.1653  -1.1652  -1.1640  -1.1589  -1.1425  -1.1221  -1.1146
    -1.1094  -1.1088  -1.1049  -1.1026  -1.0924  -1.0920  -1.0899  -1.0881
    -1.0879  -1.0869  -1.0863  -1.0853  -1.0843  -1.0581  -0.9345  -0.9336
    -0.9327  -0.9302  -0.9035  -0.9024  -0.9021  -0.9015  -0.8541  -0.8233
    -0.8216  -0.8204  -0.8187  -0.8180  -0.8144  -0.8125  -0.8123  -0.8114
    -0.8111  -0.8072  -0.7558  -0.7501  -0.7491  -0.7482  -0.7438  -0.7396
    -0.7390  -0.7379  -0.7233  -0.7194  -0.7159  -0.7133  -0.6932  -0.6291
    -0.6254  -0.6221  -0.6195  -0.6186  -0.6179  -0.6100  -0.5529  -0.5488
    -0.5477  -0.5472  -0.5411  -0.4996  -0.4987  -0.4978  -0.4962  -0.4785
    -0.4785  -0.4775  -0.4766  -0.4577  -0.4517  -0.4479  -0.4398  -0.4390
    -0.4382  -0.4373  -0.4238  -0.4048  -0.4036  -0.3983  -0.3719  -0.3250
    -0.3247  -0.3218  -0.3209  -0.3074  -0.3068  -0.3065  -0.3061  -0.2978
    -0.2902  -0.2896  -0.2892  -0.2638  -0.2091  -0.2068  -0.2066  -0.2042
    -0.2036  -0.2029  -0.2013  -0.2010  -0.1996  -0.1982  -0.1964  -0.1836
    -0.1618  -0.1618  -0.1616  -0.1606  -0.1499  -0.1496  -0.1488  -0.1487
    -0.1454  -0.1451  -0.1438  -0.1428  -0.0770  -0.0768  -0.0754  -0.0745
    -0.0518  -0.0509  -0.0494  -0.0467  -0.0073  -0.0053   0.0006   0.0053
     0.0092   0.0264   0.0277   0.0304   0.0312   0.0320   0.0327   0.0370
     0.0385   0.0402   0.0416   0.0430   0.0435   0.0472   0.0499   0.0508
     0.0517   0.0522   0.0572   0.0572   0.0582   0.0585   0.0671   0.0732
     0.0738   0.0750   0.0792   0.1018   0.1019   0.1020   0.1023   0.1101
     0.1121   0.1124   0.1140   0.1379   0.1607   0.1617   0.1619   0.1628
     0.1935   0.1938   0.1951   0.1966   0.2232   0.2510   0.2665   0.2714
     0.2740   0.2760   0.2782   0.2790   0.2817   0.2905   0.2938   0.2944
     0.2964   0.2989   0.3075   0.3083   0.3097   0.3143   0.3148   0.3162
     0.3182   0.3184   0.3197   0.3212   0.3235   0.3292   0.3346   0.3384
     0.3453   0.3911   0.3968   0.4009   0.4028   0.4051   0.4069   0.4073
     0.4092   0.4198   0.4202   0.4205   0.4212   0.4476   0.4540   0.4574
     0.4587   0.4593   0.4607   0.4642   0.4654   0.4885   0.4930   0.5005
     0.5026   0.5038   0.5045   0.5078   0.5160   0.5174   0.5180   0.5190
     0.5194   0.5249   0.5252   0.5266   0.5285   0.5388   0.5393   0.5402
     0.5422   0.5452   0.5510   0.5572   0.5589   0.6019   0.6124   0.6172
     0.6219   0.6270   0.6294   0.6315   0.6328   0.6333   0.6342   0.6360
     0.6403   0.6411   0.6467   0.6508   0.6577   0.6780   0.6786   0.6795
     0.6798   0.6802   0.6807   0.6819   0.6834   0.6977   0.7267   0.7273
     0.7318   0.7336   0.7455   0.7607   0.7622   0.7630   0.7639   0.7665
     0.7729   0.7978   0.7983   0.7986   0.8000   0.8204   0.8232   0.8239
     0.8263   0.8745   0.8750   0.8759   0.8772   0.8860   0.8907   0.9080
     0.9091   0.9097   0.9186   0.9431   0.9540   0.9609   0.9622   0.9643
     0.9682   0.9772   0.9807   0.9840   0.9880   0.9907   0.9917   0.9941
     0.9947   0.9949   0.9950   0.9963   0.9985   0.9991   0.9996   1.0021
     1.0117   1.0129   1.0232   1.0262   1.0287   1.0293   1.0308   1.0322
     1.0336   1.0362   1.0448   1.0476   1.0483   1.0567   1.0653   1.0710
     1.0728   1.0741   1.0763   1.0789   1.0819   1.0872   1.0919   1.0935
     1.0951   1.1062   1.1287   1.1356   1.1421   1.1449   1.1457   1.1471
     1.1493   1.1578   1.1673   1.1708   1.1714   1.1725   1.1735   1.1824
     1.1897   1.1901   1.1950   1.1971   1.2051   1.2110   1.2185   1.2201
     1.2210   1.2216   1.2282   1.2297   1.2312   1.2323   1.2355   1.2360
     1.2371   1.2385   1.2773   1.2976   1.3002   1.3025   1.3032   1.3041
     1.3042   1.3044   1.3051   1.3055   1.3096   1.3149   1.3179   1.3195
     1.3234   1.3254   1.3282   1.3298   1.3326   1.3343   1.3345   1.3368
     1.3392   1.3439   1.3444   1.3446   1.3459   1.3465   1.3473   1.3543
     1.3578   1.3635   1.3651   1.3664   1.3668   1.3672   1.3990   1.3991
     1.3996   1.4005   1.4093   1.4124   1.4144   1.4158   1.4169   1.4253
     1.4285   1.4319   1.4435   1.4491   1.4512   1.4525   1.4754   1.4947
     1.5041   1.5098   1.5223   1.5229   1.5241   1.5243   1.5447   1.5514
     1.5540   1.5550   1.5585   1.5609   1.5635   1.5646   1.5663   1.5680
     1.5682   1.5695   1.7157   1.7834   1.7846   1.7878   1.8015   2.2820
     2.3015   2.3032   2.3069   2.5064   2.5084   2.5098   2.5157   2.7260
     2.7446   2.7515   2.7522   3.0187   3.0428   3.0534   3.0562   3.3735
     3.4000   3.4030   3.4038   3.4882   3.5847   3.5927   3.5961   3.6255
     3.8654   3.8785   3.8804   3.8859   4.0294   4.1748   4.1783   4.1853
     4.1897   4.2909   4.3050   4.3111   4.3310   4.5122   4.5155   4.5232
     4.5245   4.5470   4.5677   4.6334   4.6399   4.8419   4.8684   4.8989
     4.9536   5.0280   5.0640   5.1184   5.1248   5.1296   5.1431   5.1519
     5.2058   5.2254   5.2848   5.3074   5.3187   5.3280   5.3548   5.4628
     5.6399   5.6905   5.7002   5.7014   5.7038   5.7108   5.8137   5.8556
     5.8640   5.8710   6.0728   6.7167   6.7213   6.7436   6.7506   7.0017
     7.0708   7.0763   7.0851   7.0924   7.1112   7.1157   7.1198   7.1658
     7.2405   7.2556   7.2624   7.3002   7.3180   7.3206   7.3240   7.3775
     7.5039   7.5874   7.5941   7.6458   7.7081   7.9141   7.9365   7.9517
     7.9538   7.9776   8.1319   8.1752   8.1886   8.2032   8.2879   8.3611
     8.4033   8.4857   8.6080   8.8255   8.8448   8.8453   8.8492   8.8718
     8.8820   8.8841   8.8949   8.9077   8.9192   8.9205   8.9220   9.0774
     9.1283   9.1290   9.1420   9.1730   9.4037   9.4346   9.4604   9.4886
     9.4960   9.5142   9.5273   9.5416   9.5510   9.5576   9.5748   9.8021
    10.0089  10.0182  10.0607

     the Fermi energy is     3.2720 ev

!    total energy              =  -12738.82823876 Ry
     Harris-Foulkes estimate   =  -12738.82823876 Ry
     estimated scf accuracy    <          5.5E-09 Ry

     The total energy is the sum of the following terms:

     one-electron contribution = -109180.87882861 Ry
     hartree contribution      =   55952.73505722 Ry
     xc contribution           =   -4454.79658614 Ry
     ewald contribution        =   44950.48121684 Ry
     Dispersion Correction     =      -3.00103089 Ry
     smearing contrib. (-TS)   =      -3.36806718 Ry

     convergence has been achieved in  47 iterations

     Writing output data file gc.save
 
     init_run     :    100.95s CPU    108.42s WALL (       1 calls)
     electrons    :  12705.46s CPU  13564.25s WALL (       1 calls)

     Called by init_run:
     wfcinit      :     98.47s CPU    105.55s WALL (       1 calls)
     potinit      :      0.47s CPU      0.48s WALL (       1 calls)

     Called by electrons:
     c_bands      :  11623.09s CPU  12376.97s WALL (      47 calls)
     sum_band     :    888.38s CPU    963.05s WALL (      47 calls)
     v_of_rho     :      3.14s CPU      3.82s WALL (      48 calls)
     newd         :      9.39s CPU     15.89s WALL (      48 calls)
     mix_rho      :    181.27s CPU    204.26s WALL (      47 calls)

     Called by c_bands:
     init_us_2    :     39.74s CPU     40.29s WALL (     570 calls)
     cegterg      :  11447.22s CPU  12193.55s WALL (     287 calls)

     Called by sum_band:
     sum_band:bec :      5.70s CPU      6.29s WALL (     282 calls)
     addusdens    :      9.37s CPU     15.59s WALL (      47 calls)

     Called by *egterg:
     h_psi        :   4261.03s CPU   4599.61s WALL (    1849 calls)
     s_psi        :   1022.89s CPU   1034.48s WALL (    1849 calls)
     g_psi        :     10.60s CPU     10.59s WALL (    1556 calls)
     cdiaghg      :   3142.58s CPU   3262.34s WALL (    1838 calls)

     Called by h_psi:
     add_vuspsi   :   1028.29s CPU   1041.55s WALL (    1849 calls)

     General routines
     calbec       :   1490.08s CPU   1500.63s WALL (    2131 calls)
     fft          :      3.99s CPU      4.57s WALL (     623 calls)
     ffts         :    105.37s CPU    118.73s WALL (   27746 calls)
     fftw         :   2463.52s CPU   2739.10s WALL ( 1347982 calls)
     davcio       :      0.19s CPU      3.43s WALL (       6 calls)
 
     Parallel routines
     fft_scatter  :   1615.75s CPU   1770.84s WALL ( 1376351 calls)
 
     PWSCF        :     3h33m CPU        3h48m WALL

 
   This run was terminated on:   7:49:54  13Jan2017            

=------------------------------------------------------------------------------=
   JOB DONE.
=------------------------------------------------------------------------------=
