mpirun: INFO: switching to OpenMPI runtime version 1.10.2

     Program PWSCF v.5.4.0 starts on  8Sep2017 at 15: 2: 6 

     This program is part of the open-source Quantum ESPRESSO suite
     for quantum simulation of materials; please cite
         "P. Giannozzi et al., J. Phys.:Condens. Matter 21 395502 (2009);
          URL http://www.quantum-espresso.org", 
     in publications or presentations arising from this work. More details at
     http://www.quantum-espresso.org/quote

     Parallel version (MPI & OpenMP), running on      28 processor cores
     Number of MPI processes:                28
     Threads/MPI process:                     1
     R & G space division:  proc/nbgrp/npool/nimage =      28
     Waiting for input...
     Reading input from standard input
Warning: card &IONS ignored
Warning: card / ignored

     Current dimensions of program PWSCF are:
     Max number of different atomic species (ntypx) = 10
     Max number of k-points (npk) =  40000
     Max angular momentum in pseudopotentials (lmaxx) =  3
     WARNING: atomic wfc #  2 for atom type 4 has zero norm
     WARNING: atomic wfc #  4 for atom type 4 has zero norm
     WARNING: atomic wfc #  5 for atom type 4 has zero norm

     -------------------------------------
     Parameters for Dispersion Correction:
     -------------------------------------
       atom      VdW radius       C_6     

        Cu         2.952        374.666
        C_h        2.744         60.710
        C          2.744         60.710
        O          2.536         24.284
        H          1.892          4.857

     Subspace diagonalization in iterative solution of the eigenvalue problem:
     one sub-group per band group will be used
     scalapack distributed-memory algorithm (size of sub-group:  3*  3 procs)

 
     Parallelization info
     --------------------
     sticks:   dense  smooth     PW     G-vecs:    dense   smooth      PW
     Min         408     408    108                73226    73226    9928
     Max         410     410    109                73231    73231    9931
     Sum       11433   11433   3039              2050409  2050409  278033
 


     bravais-lattice index     =            0
     lattice parameter (alat)  =      13.9425  a.u.
     unit-cell volume          =   21209.0878 (a.u.)^3
     number of atoms/cell      =          136
     number of atomic types    =            5
     number of electrons       =      1226.00
     number of Kohn-Sham states=          736
     kinetic-energy cutoff     =      80.0000  Ry
     charge density cutoff     =     320.0000  Ry
     convergence threshold     =      1.0E-08
     mixing beta               =       0.7000
     number of iterations used =            8  local-TF  mixing
     Exchange-correlation      =  SLA  PW   PBE  PBE ( 1  4  3  4 0 0)

     celldm(1)=  13.942539  celldm(2)=   0.000000  celldm(3)=   0.000000
     celldm(4)=   0.000000  celldm(5)=   0.000000  celldm(6)=   0.000000

     crystal axes: (cart. coord. in units of alat)
               a(1) = (   1.000000   0.000000   0.000000 )  
               a(2) = (   0.000000   2.309401   0.000000 )  
               a(3) = (   0.000000   0.000000   3.388418 )  

     reciprocal axes: (cart. coord. in units 2 pi/alat)
               b(1) = (  1.000000  0.000000  0.000000 )  
               b(2) = (  0.000000  0.433013  0.000000 )  
               b(3) = (  0.000000  0.000000  0.295123 )  


     PseudoPot. # 1 for Cu read from file:
     /home/549/hxw549/Short/pseudopotentials/Cu.pbe-n-van_ak.UPF
     MD5 check sum: 601f7c30f7467666bec936e0661ce3e1
     Pseudo is Ultrasoft + core correction, Zval = 11.0
     Generated by new atomic code, or converted to UPF format
     Using radial grid of  867 points,  6 beta functions with: 
                l(1) =   0
                l(2) =   0
                l(3) =   1
                l(4) =   1
                l(5) =   2
                l(6) =   2
     Q(r) pseudized with  8 coefficients,  rinner =    1.400   1.400   1.400
                                                       1.400   1.400

     PseudoPot. # 2 for C  read from file:
     /home/549/hxw549/Short/pseudopotentials/C.star1s-pbe-mt_gipaw.UPF
     MD5 check sum: ef0cb3dee31bd9e4ba2a832a2c716264
     Pseudo is Norm-conserving, Zval =  5.0
     Generated by new atomic code, or converted to UPF format
     Using radial grid of 1073 points,  1 beta functions with: 
                l(1) =   0

     PseudoPot. # 3 for C  read from file:
     /home/549/hxw549/Short/pseudopotentials/C.pbe-mt_gipaw.UPF
     MD5 check sum: 5ac2f21f2c440b14befe521540822c15
     Pseudo is Norm-conserving, Zval =  4.0
     Generated by new atomic code, or converted to UPF format
     Using radial grid of 1073 points,  1 beta functions with: 
                l(1) =   0

     PseudoPot. # 4 for O  read from file:
     /home/549/hxw549/Short/pseudopotentials/O.pbe-van_gipaw.UPF
     MD5 check sum: 5ce2a047509d4f331db576c963e74b29
     Pseudo is Ultrasoft, Zval =  6.0
     Generated by new atomic code, or converted to UPF format
     Using radial grid of 1095 points,  4 beta functions with: 
                l(1) =   0
                l(2) =   0
                l(3) =   1
                l(4) =   1
     Q(r) pseudized with 0 coefficients 


     PseudoPot. # 5 for H  read from file:
     /home/549/hxw549/Short/pseudopotentials/H.pbe-van_ak.UPF
     MD5 check sum: 077eb6d537518a38cb46c6de387227b7
     Pseudo is Ultrasoft, Zval =  1.0
     Generated by new atomic code, or converted to UPF format
     Using radial grid of  615 points,  1 beta functions with: 
                l(1) =   0
     Q(r) pseudized with  8 coefficients,  rinner =    0.800

     atomic species   valence    mass     pseudopotential
        Cu            11.00    63.54600     Cu( 1.00)
        C_h            5.00    12.01070     C ( 1.00)
        C              4.00    12.01070     C ( 1.00)
        O              6.00    15.99940     O ( 1.00)
        H              1.00     1.00783     H ( 1.00)

      2 Sym. Ops. (no inversion) found



   Cartesian axes

     site n.     atom                  positions (alat units)
         1           Cu  tau(   1) = (   0.0000000  -0.0001124   1.0011868  )
         2           Cu  tau(   2) = (   0.2499898   0.2314890   1.0028858  )
         3           Cu  tau(   3) = (   0.5000000  -0.0001538   1.0011207  )
         4           Cu  tau(   4) = (   0.7500102   0.2314890   1.0028858  )
         5           Cu  tau(   5) = (   0.0000000   0.4622551   1.0053524  )
         6           Cu  tau(   6) = (   0.2500088   0.6924579   1.0058364  )
         7           Cu  tau(   7) = (   0.5000000   0.4622629   1.0051606  )
         8           Cu  tau(   8) = (   0.7499912   0.6924579   1.0058364  )
         9           Cu  tau(   9) = (   0.0000000   0.9231945   1.0037099  )
        10           Cu  tau(  10) = (   0.2501144   1.1547114   1.0017292  )
        11           Cu  tau(  11) = (   0.5000000   0.9229888   1.0040738  )
        12           Cu  tau(  12) = (   0.7498856   1.1547114   1.0017292  )
        13           Cu  tau(  13) = (   0.0000000   1.3863962   1.0012899  )
        14           Cu  tau(  14) = (   0.2500136   1.6173447   1.0021190  )
        15           Cu  tau(  15) = (   0.5000000   1.3867257   1.0015878  )
        16           Cu  tau(  16) = (   0.7499864   1.6173447   1.0021190  )
        17           Cu  tau(  17) = (   0.0000000   1.8473422   1.0020731  )
        18           Cu  tau(  18) = (   0.2500067   2.0777255   1.0012575  )
        19           Cu  tau(  19) = (   0.5000000   1.8472488   1.0019769  )
        20           Cu  tau(  20) = (   0.7499933   2.0777255   1.0012575  )
        21           Cu  tau(  21) = (   0.0000000   0.2290971   1.2510133  )
        22           Cu  tau(  22) = (   0.2500654  -0.0010279   1.2492517  )
        23           Cu  tau(  23) = (   0.5000000   0.2291363   1.2509787  )
        24           Cu  tau(  24) = (   0.7499346  -0.0010279   1.2492517  )
        25           Cu  tau(  25) = (   0.0000000   0.6932770   1.2534390  )
        26           Cu  tau(  26) = (   0.2500647   0.4607032   1.2532007  )
        27           Cu  tau(  27) = (   0.5000000   0.6927500   1.2537658  )
        28           Cu  tau(  28) = (   0.7499353   0.4607032   1.2532007  )
        29           Cu  tau(  29) = (   0.0000000   1.1559961   1.2495084  )
        30           Cu  tau(  30) = (   0.2500511   0.9251246   1.2516105  )
        31           Cu  tau(  31) = (   0.5000000   1.1560617   1.2496092  )
        32           Cu  tau(  32) = (   0.7499489   0.9251246   1.2516105  )
        33           Cu  tau(  33) = (   0.0000000   1.6169015   1.2499722  )
        34           Cu  tau(  34) = (   0.2500720   1.3863550   1.2492996  )
        35           Cu  tau(  35) = (   0.5000000   1.6173459   1.2506856  )
        36           Cu  tau(  36) = (   0.7499280   1.3863550   1.2492996  )
        37           Cu  tau(  37) = (   0.0000000   2.0785906   1.2492456  )
        38           Cu  tau(  38) = (   0.2500782   1.8481473   1.2503424  )
        39           Cu  tau(  39) = (   0.5000000   2.0786197   1.2492262  )
        40           Cu  tau(  40) = (   0.7499218   1.8481473   1.2503424  )
        41           Cu  tau(  41) = (   0.0000000  -0.0018773   1.5009156  )
        42           Cu  tau(  42) = (   0.2502427   0.2272264   1.5012140  )
        43           Cu  tau(  43) = (   0.5000000  -0.0019371   1.5013637  )
        44           Cu  tau(  44) = (   0.7497573   0.2272264   1.5012140  )
        45           Cu  tau(  45) = (   0.0000000   0.4594394   1.5003477  )
        46           Cu  tau(  46) = (   0.2502570   0.6942932   1.5009157  )
        47           Cu  tau(  47) = (   0.5000000   0.4586584   1.5016837  )
        48           Cu  tau(  48) = (   0.7497430   0.6942932   1.5009157  )
        49           Cu  tau(  49) = (   0.0000000   0.9268538   1.5010944  )
        50           Cu  tau(  50) = (   0.2498040   1.1568891   1.5005333  )
        51           Cu  tau(  51) = (   0.5000000   0.9268357   1.5007380  )
        52           Cu  tau(  52) = (   0.7501960   1.1568891   1.5005333  )
        53           Cu  tau(  53) = (   0.0000000   1.3863456   1.5003872  )
        54           Cu  tau(  54) = (   0.2501219   1.6169806   1.4997659  )
        55           Cu  tau(  55) = (   0.5000000   1.3861347   1.5004185  )
        56           Cu  tau(  56) = (   0.7498781   1.6169806   1.4997659  )
        57           Cu  tau(  57) = (   0.0000000   1.8484356   1.4996601  )
        58           Cu  tau(  58) = (   0.2501193   2.0791885   1.5009757  )
        59           Cu  tau(  59) = (   0.5000000   1.8497941   1.5008599  )
        60           Cu  tau(  60) = (   0.7498807   2.0791885   1.5009757  )
        61           Cu  tau(  61) = (   0.0000000   0.2272141   1.7507006  )
        62           Cu  tau(  62) = (   0.2502201  -0.0034017   1.7557585  )
        63           Cu  tau(  63) = (   0.5000000   0.2232551   1.7551867  )
        64           Cu  tau(  64) = (   0.7497799  -0.0034017   1.7557585  )
        65           Cu  tau(  65) = (   0.0000000   0.6930571   1.7454147  )
        66           Cu  tau(  66) = (   0.2511988   0.4604074   1.7460219  )
        67           Cu  tau(  67) = (   0.5000000   0.6943777   1.7466636  )
        68           Cu  tau(  68) = (   0.7488012   0.4604074   1.7460219  )
        69           Cu  tau(  69) = (   0.0000000   1.1589833   1.7543557  )
        70           Cu  tau(  70) = (   0.2498986   0.9284865   1.7514360  )
        71           Cu  tau(  71) = (   0.5000000   1.1581142   1.7531021  )
        72           Cu  tau(  72) = (   0.7501014   0.9284865   1.7514360  )
        73           Cu  tau(  73) = (   0.0000000   1.6180631   1.7507280  )
        74           Cu  tau(  74) = (   0.2497278   1.3878292   1.7524236  )
        75           Cu  tau(  75) = (   0.5000000   1.6185358   1.7501560  )
        76           Cu  tau(  76) = (   0.7502722   1.3878292   1.7524236  )
        77           Cu  tau(  77) = (   0.0000000   2.0767807   1.7530692  )
        78           Cu  tau(  78) = (   0.2506793   1.8476229   1.7502174  )
        79           Cu  tau(  79) = (   0.5000000   2.0808455   1.7577646  )
        80           Cu  tau(  80) = (   0.7493207   1.8476229   1.7502174  )
        81           Cu  tau(  81) = (   0.0000000  -0.0012284   2.0022710  )
        82           Cu  tau(  82) = (   0.2496273   0.2339959   1.9924918  )
        83           Cu  tau(  83) = (   0.5000000  -0.0044412   2.0226497  )
        84           Cu  tau(  84) = (   0.7503727   0.2339959   1.9924918  )
        85           Cu  tau(  85) = (   0.0000000   0.4635570   1.9910147  )
        86           Cu  tau(  86) = (   0.2506563   0.6918608   1.9912023  )
        87           Cu  tau(  87) = (   0.5000000   0.4630711   1.9929706  )
        88           Cu  tau(  88) = (   0.7493437   0.6918608   1.9912023  )
        89           Cu  tau(  89) = (   0.0000000   0.9209914   1.9923815  )
        90           Cu  tau(  90) = (   0.2486433   1.1594323   2.0034163  )
        91           Cu  tau(  91) = (   0.5000000   0.9237114   1.9939278  )
        92           Cu  tau(  92) = (   0.7513567   1.1594323   2.0034163  )
        93           Cu  tau(  93) = (   0.0000000   1.3927493   2.0020949  )
        94           Cu  tau(  94) = (   0.2515934   1.6194884   2.0009081  )
        95           Cu  tau(  95) = (   0.5000000   1.3906810   1.9975250  )
        96           Cu  tau(  96) = (   0.7484066   1.6194884   2.0009081  )
        97           Cu  tau(  97) = (   0.0000000   1.8437997   2.0030740  )
        98           Cu  tau(  98) = (   0.2472165   2.0727862   2.0006750  )
        99           Cu  tau(  99) = (   0.5000000   1.8474924   2.0031450  )
       100           Cu  tau( 100) = (   0.7527835   2.0727862   2.0006750  )
       101           C   tau( 101) = (   0.0000000   0.0909116   2.3757143  )
       102           C   tau( 102) = (   0.0000000   0.2860842   2.3844548  )
       103           C   tau( 103) = (   0.1667206  -0.0023221   2.3640252  )
       104           C   tau( 104) = (   0.1664100   0.3825093   2.3845947  )
       105           C   tau( 105) = (   0.3323314   0.0914664   2.3568410  )
       106           C   tau( 106) = (   0.3327992   0.2862247   2.3713917  )
       107           C   tau( 107) = (   0.5000000  -0.0021686   2.3289559  )
       108           C   tau( 108) = (   0.5000000   0.3827790   2.3739144  )
       109           C   tau( 109) = (   0.6676686   0.0914664   2.3568410  )
       110           C   tau( 110) = (   0.6672008   0.2862247   2.3713917  )
       111           C   tau( 111) = (   0.8332794  -0.0023221   2.3640252  )
       112           C   tau( 112) = (   0.8335900   0.3825093   2.3845947  )
       113           C   tau( 113) = (   0.0000000   0.6729687   2.3904796  )
       114           C   tau( 114) = (   0.0000000   0.8667256   2.3839038  )
       115           C   tau( 115) = (   0.1664436   0.5763749   2.3885814  )
       116           C   tau( 116) = (   0.1666136   0.9632494   2.3785655  )
       117           C   tau( 117) = (   0.3331423   0.6729953   2.3846639  )
       118           C   tau( 118) = (   0.3331577   0.8667554   2.3808818  )
       119           C   tau( 119) = (   0.5000000   0.5763623   2.3826941  )
       120           C   tau( 120) = (   0.5000000   0.9631968   2.3749681  )
       121           C   tau( 121) = (   0.6668577   0.6729953   2.3846639  )
       122           C   tau( 122) = (   0.6668423   0.8667554   2.3808818  )
       123           C   tau( 123) = (   0.8335564   0.5763749   2.3885814  )
       124           C   tau( 124) = (   0.8333864   0.9632494   2.3785655  )
       125           C   tau( 125) = (   0.0000000   1.2526117   2.3627777  )
       126           C   tau( 126) = (   0.1665410   1.1586079   2.3669448  )
       127           C   tau( 127) = (   0.3335017   1.2516977   2.3567510  )
       128           C_h tau( 128) = (   0.5000000   1.1584676   2.3662578  )
       129           C   tau( 129) = (   0.6664983   1.2516977   2.3567510  )
       130           C   tau( 130) = (   0.8334590   1.1586079   2.3669448  )
       131           H   tau( 131) = (   0.1664277  -0.1503820   2.3577150  )
       132           H   tau( 132) = (   0.5000000  -0.1496242   2.3442672  )
       133           H   tau( 133) = (   0.8335723  -0.1503820   2.3577150  )
       134           H   tau( 134) = (   0.0000000   1.4008679   2.3643044  )
       135           H   tau( 135) = (   0.3334167   1.3998201   2.3514427  )
       136           H   tau( 136) = (   0.6665833   1.3998201   2.3514427  )

     number of k points=     6  gaussian smearing, width (Ry)=  0.1000
                       cart. coord. in units 2pi/alat
        k(    1) = (   0.0000000   0.0000000   0.0000000), wk =   0.2500000
        k(    2) = (   0.0000000  -0.2165064   0.0000000), wk =   0.2500000
        k(    3) = (   0.2500000   0.0000000   0.0000000), wk =   0.5000000
        k(    4) = (   0.2500000  -0.2165064   0.0000000), wk =   0.5000000
        k(    5) = (  -0.5000000   0.0000000   0.0000000), wk =   0.2500000
        k(    6) = (  -0.5000000  -0.2165064   0.0000000), wk =   0.2500000

     Dense  grid:  2050409 G-vectors     FFT dimensions: (  80, 192, 270)

     Largest allocated arrays     est. size (Mb)     dimensions
        Kohn-Sham Wavefunctions       102.99 Mb     (    9171,  736)
        NL pseudopotentials           256.93 Mb     (    9171, 1836)
        Each V/rho on FFT grid          2.34 Mb     (  153600)
        Each G-vector array             0.56 Mb     (   73230)
        G-vector shells                 0.27 Mb     (   35784)
     Largest temporary arrays     est. size (Mb)     dimensions
        Auxiliary wavefunctions       411.98 Mb     (    9171, 2944)
        Each subspace H/S matrix       14.68 Mb     (     981,  981)
        Each <psi_i|beta_j> matrix     20.62 Mb     (    1836,  736)
        Arrays for rho mixing          18.75 Mb     (  153600,    8)

     Initial potential from superposition of free atoms
     Check: negative starting charge=   -0.002209

     starting charge 1209.81748, renormalised to 1226.00000

     negative rho (up, down):  2.238E-03 0.000E+00
     Starting wfc are 1146 randomized atomic wfcs

     total cpu time spent up to now is      178.6 secs

     Self-consistent Calculation

     iteration #  1     ecut=    80.00 Ry     beta=0.70
     Davidson diagonalization with overlap
     ethr =  1.00E-04,  avg # of iterations = 20.0

     negative rho (up, down):  2.826E+01 0.000E+00

     total cpu time spent up to now is     3168.9 secs

     total energy              =   -8325.93052072 Ry
     Harris-Foulkes estimate   =  -14976.61182272 Ry
     estimated scf accuracy    <  146359.82951937 Ry

     iteration #  2     ecut=    80.00 Ry     beta=0.70
     Davidson diagonalization with overlap
     c_bands:  2 eigenvalues not converged
     ethr =  1.00E-02,  avg # of iterations = 15.7

     negative rho (up, down):  2.054E+01 0.000E+00

     total cpu time spent up to now is     4876.3 secs

     total energy              =  -12557.55729561 Ry
     Harris-Foulkes estimate   =  -13144.74689630 Ry
     estimated scf accuracy    <    1765.21677876 Ry

     iteration #  3     ecut=    80.00 Ry     beta=0.70
     Davidson diagonalization with overlap
     ethr =  1.00E-02,  avg # of iterations =  4.7

     negative rho (up, down):  1.671E+01 0.000E+00

     total cpu time spent up to now is     5508.0 secs

     total energy              =  -12642.77043297 Ry
     Harris-Foulkes estimate   =  -12715.16274358 Ry
     estimated scf accuracy    <     913.48657489 Ry

     iteration #  4     ecut=    80.00 Ry     beta=0.70
     Davidson diagonalization with overlap
     ethr =  1.00E-02,  avg # of iterations =  3.8

     negative rho (up, down):  1.554E+01 0.000E+00

     total cpu time spent up to now is     5965.1 secs

     total energy              =  -12637.55878444 Ry
     Harris-Foulkes estimate   =  -12672.15099697 Ry
     estimated scf accuracy    <     968.14323811 Ry

     iteration #  5     ecut=    80.00 Ry     beta=0.70
     Davidson diagonalization with overlap
     ethr =  1.00E-02,  avg # of iterations =  3.2

     negative rho (up, down):  1.035E+01 0.000E+00

     total cpu time spent up to now is     6320.2 secs

     total energy              =  -12615.70364373 Ry
     Harris-Foulkes estimate   =  -12659.79896209 Ry
     estimated scf accuracy    <     309.21326365 Ry

     iteration #  6     ecut=    80.00 Ry     beta=0.70
     Davidson diagonalization with overlap
     ethr =  1.00E-02,  avg # of iterations =  3.5

     negative rho (up, down):  8.260E+00 0.000E+00

     total cpu time spent up to now is     6693.4 secs

     total energy              =  -12595.09119048 Ry
     Harris-Foulkes estimate   =  -12638.56466800 Ry
     estimated scf accuracy    <     708.42264730 Ry

     iteration #  7     ecut=    80.00 Ry     beta=0.70
     Davidson diagonalization with overlap
     ethr =  1.00E-02,  avg # of iterations =  2.7

     negative rho (up, down):  6.585E+00 0.000E+00

     total cpu time spent up to now is     7034.3 secs

     total energy              =  -12598.11969205 Ry
     Harris-Foulkes estimate   =  -12621.28131763 Ry
     estimated scf accuracy    <     321.82134086 Ry

     iteration #  8     ecut=    80.00 Ry     beta=0.70
     Davidson diagonalization with overlap
     ethr =  1.00E-02,  avg # of iterations =  1.3

     negative rho (up, down):  3.008E+00 0.000E+00

     total cpu time spent up to now is     7343.9 secs

     total energy              =  -12565.47017561 Ry
     Harris-Foulkes estimate   =  -12601.90943769 Ry
     estimated scf accuracy    <     232.70100044 Ry

     iteration #  9     ecut=    80.00 Ry     beta=0.70
     Davidson diagonalization with overlap
     ethr =  1.00E-02,  avg # of iterations =  1.5

     negative rho (up, down):  1.284E+00 0.000E+00

     total cpu time spent up to now is     7657.3 secs

     total energy              =  -12548.80488821 Ry
     Harris-Foulkes estimate   =  -12569.87689133 Ry
     estimated scf accuracy    <     135.91938431 Ry

     iteration # 10     ecut=    80.00 Ry     beta=0.70
     Davidson diagonalization with overlap
     ethr =  1.00E-02,  avg # of iterations =  1.0

     negative rho (up, down):  5.116E+00 0.000E+00

     total cpu time spent up to now is     7962.2 secs

     total energy              =  -12522.91777606 Ry
     Harris-Foulkes estimate   =  -12552.77273760 Ry
     estimated scf accuracy    <     103.94749649 Ry

     iteration # 11     ecut=    80.00 Ry     beta=0.70
     Davidson diagonalization with overlap
     ethr =  8.48E-03,  avg # of iterations =  2.2

     negative rho (up, down):  6.858E+00 0.000E+00

     total cpu time spent up to now is     8286.6 secs

     total energy              =  -12518.35449431 Ry
     Harris-Foulkes estimate   =  -12526.42395047 Ry
     estimated scf accuracy    <      97.65263826 Ry

     iteration # 12     ecut=    80.00 Ry     beta=0.70
     Davidson diagonalization with overlap
     ethr =  7.97E-03,  avg # of iterations =  1.2

     negative rho (up, down):  8.171E+00 0.000E+00

     total cpu time spent up to now is     8591.4 secs

     total energy              =  -12517.34029562 Ry
     Harris-Foulkes estimate   =  -12522.03373393 Ry
     estimated scf accuracy    <      56.66284357 Ry

     iteration # 13     ecut=    80.00 Ry     beta=0.70
     Davidson diagonalization with overlap
     ethr =  4.62E-03,  avg # of iterations =  1.0

     negative rho (up, down):  4.505E+00 0.000E+00

     total cpu time spent up to now is     8894.1 secs

     total energy              =  -12515.47278570 Ry
     Harris-Foulkes estimate   =  -12519.57696813 Ry
     estimated scf accuracy    <      29.96876467 Ry

     iteration # 14     ecut=    80.00 Ry     beta=0.70
     Davidson diagonalization with overlap
     ethr =  2.44E-03,  avg # of iterations =  2.8

     negative rho (up, down):  4.653E+00 0.000E+00

     total cpu time spent up to now is     9234.4 secs

     total energy              =  -12511.21248009 Ry
     Harris-Foulkes estimate   =  -12519.63214868 Ry
     estimated scf accuracy    <     142.35139977 Ry

     iteration # 15     ecut=    80.00 Ry     beta=0.70
     Davidson diagonalization with overlap
     ethr =  2.44E-03,  avg # of iterations =  3.0

     negative rho (up, down):  4.521E+00 0.000E+00

     total cpu time spent up to now is     9576.7 secs

     total energy              =  -12514.58059993 Ry
     Harris-Foulkes estimate   =  -12515.61984593 Ry
     estimated scf accuracy    <      13.91867847 Ry

     iteration # 16     ecut=    80.00 Ry     beta=0.70
     Davidson diagonalization with overlap
     ethr =  1.14E-03,  avg # of iterations =  3.5

     negative rho (up, down):  3.773E+00 0.000E+00

     total cpu time spent up to now is     9925.9 secs

     total energy              =  -12514.03059015 Ry
     Harris-Foulkes estimate   =  -12514.93157946 Ry
     estimated scf accuracy    <       9.97954240 Ry

     iteration # 17     ecut=    80.00 Ry     beta=0.70
     Davidson diagonalization with overlap
     ethr =  8.14E-04,  avg # of iterations =  3.7

     negative rho (up, down):  1.917E+00 0.000E+00

     total cpu time spent up to now is    10279.1 secs

     total energy              =  -12512.22961430 Ry
     Harris-Foulkes estimate   =  -12514.25325974 Ry
     estimated scf accuracy    <       9.81993653 Ry

     iteration # 18     ecut=    80.00 Ry     beta=0.70
     Davidson diagonalization with overlap
     ethr =  8.01E-04,  avg # of iterations =  4.7

     negative rho (up, down):  9.070E-01 0.000E+00

     total cpu time spent up to now is    10654.3 secs

     total energy              =  -12511.89310111 Ry
     Harris-Foulkes estimate   =  -12512.54919819 Ry
     estimated scf accuracy    <       8.31015238 Ry

     iteration # 19     ecut=    80.00 Ry     beta=0.70
     Davidson diagonalization with overlap
     ethr =  6.78E-04,  avg # of iterations =  3.5

     negative rho (up, down):  9.791E-01 0.000E+00

     total cpu time spent up to now is    11005.2 secs

     total energy              =  -12510.41057307 Ry
     Harris-Foulkes estimate   =  -12512.16812935 Ry
     estimated scf accuracy    <       6.66074843 Ry

     iteration # 20     ecut=    80.00 Ry     beta=0.70
     Davidson diagonalization with overlap
     ethr =  5.43E-04,  avg # of iterations =  5.3

     negative rho (up, down):  1.020E+00 0.000E+00

     total cpu time spent up to now is    11400.0 secs

     total energy              =  -12510.37530959 Ry
     Harris-Foulkes estimate   =  -12510.76669890 Ry
     estimated scf accuracy    <      22.45585926 Ry

     iteration # 21     ecut=    80.00 Ry     beta=0.70
     Davidson diagonalization with overlap
     ethr =  5.43E-04,  avg # of iterations =  1.3

     negative rho (up, down):  3.503E-01 0.000E+00

     total cpu time spent up to now is    11710.1 secs

     total energy              =  -12509.13435045 Ry
     Harris-Foulkes estimate   =  -12510.40847958 Ry
     estimated scf accuracy    <      16.47771347 Ry

     iteration # 22     ecut=    80.00 Ry     beta=0.70
     Davidson diagonalization with overlap
     ethr =  5.43E-04,  avg # of iterations =  3.7

     negative rho (up, down):  5.798E-01 0.000E+00

     total cpu time spent up to now is    12065.2 secs

     total energy              =  -12508.97676935 Ry
     Harris-Foulkes estimate   =  -12509.39891245 Ry
     estimated scf accuracy    <       8.00901860 Ry

     iteration # 23     ecut=    80.00 Ry     beta=0.70
     Davidson diagonalization with overlap
     ethr =  5.43E-04,  avg # of iterations =  2.2

     negative rho (up, down):  7.233E-01 0.000E+00

     total cpu time spent up to now is    12392.8 secs

     total energy              =  -12508.82653700 Ry
     Harris-Foulkes estimate   =  -12509.11130976 Ry
     estimated scf accuracy    <       8.76150695 Ry

     iteration # 24     ecut=    80.00 Ry     beta=0.70
     Davidson diagonalization with overlap
     ethr =  5.43E-04,  avg # of iterations =  4.2

     negative rho (up, down):  6.589E-01 0.000E+00

     total cpu time spent up to now is    12751.9 secs

     total energy              =  -12508.50483599 Ry
     Harris-Foulkes estimate   =  -12508.89816578 Ry
     estimated scf accuracy    <       6.45650801 Ry

     iteration # 25     ecut=    80.00 Ry     beta=0.70
     Davidson diagonalization with overlap
     ethr =  5.27E-04,  avg # of iterations =  8.7

     negative rho (up, down):  3.865E-01 0.000E+00

     total cpu time spent up to now is    13203.8 secs

     total energy              =  -12508.56053880 Ry
     Harris-Foulkes estimate   =  -12508.69206152 Ry
     estimated scf accuracy    <       1.10240170 Ry

     iteration # 26     ecut=    80.00 Ry     beta=0.70
     Davidson diagonalization with overlap
     ethr =  8.99E-05,  avg # of iterations =  8.2

     negative rho (up, down):  3.130E-01 0.000E+00

     total cpu time spent up to now is    13674.4 secs

     total energy              =  -12508.56729170 Ry
     Harris-Foulkes estimate   =  -12508.61032523 Ry
     estimated scf accuracy    <       0.30182763 Ry

     iteration # 27     ecut=    80.00 Ry     beta=0.70
     Davidson diagonalization with overlap
     ethr =  2.46E-05,  avg # of iterations =  8.7

     negative rho (up, down):  1.862E-01 0.000E+00

     total cpu time spent up to now is    14169.1 secs

     total energy              =  -12508.58108457 Ry
     Harris-Foulkes estimate   =  -12508.59759311 Ry
     estimated scf accuracy    <       0.07720164 Ry

     iteration # 28     ecut=    80.00 Ry     beta=0.70
     Davidson diagonalization with overlap
     c_bands:  1 eigenvalues not converged
     c_bands:  1 eigenvalues not converged
     ethr =  6.30E-06,  avg # of iterations = 14.8

     negative rho (up, down):  1.328E-01 0.000E+00

     total cpu time spent up to now is    14793.0 secs

     total energy              =  -12508.58613204 Ry
     Harris-Foulkes estimate   =  -12508.58800229 Ry
     estimated scf accuracy    <       0.01293387 Ry

     iteration # 29     ecut=    80.00 Ry     beta=0.70
     Davidson diagonalization with overlap
     c_bands:  2 eigenvalues not converged
     ethr =  1.05E-06,  avg # of iterations = 15.3

     negative rho (up, down):  1.149E-01 0.000E+00

     total cpu time spent up to now is    15433.0 secs

     total energy              =  -12508.58676082 Ry
     Harris-Foulkes estimate   =  -12508.58743400 Ry
     estimated scf accuracy    <       0.00833419 Ry

     iteration # 30     ecut=    80.00 Ry     beta=0.70
     Davidson diagonalization with overlap
     ethr =  6.80E-07,  avg # of iterations =  7.8

     negative rho (up, down):  5.864E-02 0.000E+00

     total cpu time spent up to now is    15884.1 secs

     total energy              =  -12508.58585922 Ry
     Harris-Foulkes estimate   =  -12508.58726645 Ry
     estimated scf accuracy    <       0.00343844 Ry

     iteration # 31     ecut=    80.00 Ry     beta=0.70
     Davidson diagonalization with overlap
     ethr =  2.80E-07,  avg # of iterations = 10.7

     negative rho (up, down):  3.980E-02 0.000E+00

     total cpu time spent up to now is    16418.9 secs

     total energy              =  -12508.58564608 Ry
     Harris-Foulkes estimate   =  -12508.58600579 Ry
     estimated scf accuracy    <       0.00138540 Ry

     iteration # 32     ecut=    80.00 Ry     beta=0.70
     Davidson diagonalization with overlap
     ethr =  1.13E-07,  avg # of iterations =  8.7

     negative rho (up, down):  1.143E-02 0.000E+00

     total cpu time spent up to now is    16882.6 secs

     total energy              =  -12508.58510411 Ry
     Harris-Foulkes estimate   =  -12508.58569894 Ry
     estimated scf accuracy    <       0.00069062 Ry

     iteration # 33     ecut=    80.00 Ry     beta=0.70
     Davidson diagonalization with overlap
     ethr =  5.63E-08,  avg # of iterations = 11.2

     negative rho (up, down):  3.970E-03 0.000E+00

     total cpu time spent up to now is    17438.5 secs

     total energy              =  -12508.58506546 Ry
     Harris-Foulkes estimate   =  -12508.58514798 Ry
     estimated scf accuracy    <       0.00015033 Ry

     iteration # 34     ecut=    80.00 Ry     beta=0.70
     Davidson diagonalization with overlap
     c_bands:  1 eigenvalues not converged
     ethr =  1.23E-08,  avg # of iterations = 11.2

     negative rho (up, down):  3.592E-03 0.000E+00

     total cpu time spent up to now is    17981.0 secs

     total energy              =  -12508.58508583 Ry
     Harris-Foulkes estimate   =  -12508.58507736 Ry
     estimated scf accuracy    <       0.00006912 Ry

     iteration # 35     ecut=    80.00 Ry     beta=0.70
     Davidson diagonalization with overlap
     ethr =  5.64E-09,  avg # of iterations =  5.8

     negative rho (up, down):  2.498E-03 0.000E+00

     total cpu time spent up to now is    18403.6 secs

     total energy              =  -12508.58507891 Ry
     Harris-Foulkes estimate   =  -12508.58509038 Ry
     estimated scf accuracy    <       0.00001794 Ry

     iteration # 36     ecut=    80.00 Ry     beta=0.70
     Davidson diagonalization with overlap
     ethr =  1.46E-09,  avg # of iterations =  4.5

     negative rho (up, down):  2.600E-03 0.000E+00

     total cpu time spent up to now is    18808.1 secs

     total energy              =  -12508.58508368 Ry
     Harris-Foulkes estimate   =  -12508.58508164 Ry
     estimated scf accuracy    <       0.00000654 Ry

     iteration # 37     ecut=    80.00 Ry     beta=0.70
     Davidson diagonalization with overlap
     ethr =  5.33E-10,  avg # of iterations =  2.7

     negative rho (up, down):  2.668E-03 0.000E+00

     total cpu time spent up to now is    19161.9 secs

     total energy              =  -12508.58508406 Ry
     Harris-Foulkes estimate   =  -12508.58508434 Ry
     estimated scf accuracy    <       0.00000225 Ry

     iteration # 38     ecut=    80.00 Ry     beta=0.70
     Davidson diagonalization with overlap
     ethr =  1.83E-10,  avg # of iterations =  2.8

     negative rho (up, down):  2.614E-03 0.000E+00

     total cpu time spent up to now is    19517.8 secs

     total energy              =  -12508.58508422 Ry
     Harris-Foulkes estimate   =  -12508.58508427 Ry
     estimated scf accuracy    <       0.00000039 Ry

     iteration # 39     ecut=    80.00 Ry     beta=0.70
     Davidson diagonalization with overlap
     ethr =  3.18E-11,  avg # of iterations =  3.0

     negative rho (up, down):  2.502E-03 0.000E+00

     total cpu time spent up to now is    19926.4 secs

     total energy              =  -12508.58508442 Ry
     Harris-Foulkes estimate   =  -12508.58508429 Ry
     estimated scf accuracy    <       0.00000023 Ry

     iteration # 40     ecut=    80.00 Ry     beta=0.70
     Davidson diagonalization with overlap
     ethr =  1.86E-11,  avg # of iterations =  3.0

     negative rho (up, down):  2.419E-03 0.000E+00

     total cpu time spent up to now is    20286.9 secs

     total energy              =  -12508.58508461 Ry
     Harris-Foulkes estimate   =  -12508.58508444 Ry
     estimated scf accuracy    <       0.00000009 Ry

     iteration # 41     ecut=    80.00 Ry     beta=0.70
     Davidson diagonalization with overlap
     ethr =  7.24E-12,  avg # of iterations =  3.0

     negative rho (up, down):  2.417E-03 0.000E+00

     total cpu time spent up to now is    20654.2 secs

     total energy              =  -12508.58508463 Ry
     Harris-Foulkes estimate   =  -12508.58508462 Ry
     estimated scf accuracy    <       0.00000003 Ry

     iteration # 42     ecut=    80.00 Ry     beta=0.70
     Davidson diagonalization with overlap
     ethr =  2.15E-12,  avg # of iterations =  2.8

     negative rho (up, down):  2.445E-03 0.000E+00

     total cpu time spent up to now is    20994.6 secs

     End of self-consistent calculation

          k = 0.0000 0.0000 0.0000 (256287 PWs)   bands (ev):

   -17.4381 -16.5086 -15.6700 -14.9755 -14.8820 -14.4993 -14.3301 -14.1357
   -13.5067 -13.4572 -12.7147 -12.2764 -12.2485 -10.9948 -10.8570 -10.2009
    -9.8197  -9.6485  -9.0760  -9.0336  -8.3167  -8.1400  -8.1073  -7.7555
    -7.6406  -7.0177  -6.9932  -6.5689  -6.5057  -6.3596  -6.0785  -6.0381
    -6.0187  -5.8276  -5.7834  -5.6792  -5.3361  -5.1122  -4.9412  -4.9090
    -4.7428  -4.6671  -4.5418  -4.5215  -4.3776  -4.0367  -4.0221  -3.9572
    -3.9502  -3.8637  -3.7184  -3.6815  -3.6040  -3.5949  -3.5698  -3.5628
    -3.5591  -3.5558  -3.5428  -3.5208  -3.3807  -3.3441  -3.2704  -3.2107
    -3.1790  -3.1348  -3.0855  -3.0227  -2.9204  -2.9013  -2.8962  -2.8269
    -2.7615  -2.7578  -2.7447  -2.7085  -2.7067  -2.7041  -2.7022  -2.6915
    -2.6347  -2.5835  -2.5813  -2.5755  -2.5742  -2.5208  -2.4725  -2.4360
    -2.4048  -2.3458  -2.3307  -2.3038  -2.2994  -2.2928  -2.2808  -2.2406
    -2.2335  -2.2142  -2.2069  -2.1985  -2.1867  -2.1478  -2.1353  -2.1314
    -2.1306  -2.1097  -2.0960  -2.0888  -2.0747  -2.0677  -2.0661  -2.0132
    -2.0090  -2.0066  -1.9773  -1.9595  -1.9432  -1.9111  -1.8762  -1.8596
    -1.8477  -1.8328  -1.8199  -1.8064  -1.7795  -1.7701  -1.7684  -1.7538
    -1.7441  -1.7297  -1.7230  -1.7178  -1.6615  -1.6143  -1.6122  -1.6042
    -1.5981  -1.5973  -1.5943  -1.5921  -1.5893  -1.5860  -1.5844  -1.5821
    -1.5743  -1.5649  -1.5640  -1.5579  -1.5461  -1.5151  -1.5030  -1.5020
    -1.4953  -1.4836  -1.4808  -1.4765  -1.4520  -1.4316  -1.4283  -1.4244
    -1.4207  -1.4181  -1.4178  -1.4144  -1.4085  -1.4080  -1.4062  -1.4048
    -1.4040  -1.4001  -1.4001  -1.3977  -1.3880  -1.3839  -1.3461  -1.3004
    -1.2573  -1.2494  -1.2418  -1.2414  -1.2403  -1.2261  -1.2052  -1.2024
    -1.1905  -1.1818  -1.1706  -1.1686  -1.1673  -1.1632  -1.1554  -1.1314
    -1.1282  -1.1212  -1.1190  -1.1183  -1.1156  -1.1131  -1.1064  -1.0596
    -1.0516  -1.0458  -1.0282  -1.0049  -1.0010  -0.9978  -0.9952  -0.9950
    -0.9817  -0.9798  -0.9775  -0.9697  -0.9666  -0.9654  -0.9628  -0.9624
    -0.9619  -0.9605  -0.9535  -0.9509  -0.9490  -0.9478  -0.9325  -0.9089
    -0.9056  -0.8793  -0.8712  -0.8622  -0.8608  -0.8595  -0.8510  -0.8331
    -0.8313  -0.8278  -0.8266  -0.8210  -0.8166  -0.8116  -0.8064  -0.8044
    -0.7943  -0.7933  -0.7919  -0.7865  -0.7850  -0.7844  -0.7780  -0.7763
    -0.7726  -0.7726  -0.7613  -0.7584  -0.7494  -0.7452  -0.7363  -0.7139
    -0.6943  -0.6885  -0.6875  -0.6843  -0.6838  -0.6607  -0.6499  -0.6386
    -0.6368  -0.6296  -0.6262  -0.6243  -0.6230  -0.6219  -0.6218  -0.6025
    -0.5979  -0.5855  -0.5822  -0.5799  -0.5728  -0.5695  -0.5623  -0.5487
    -0.5458  -0.5401  -0.5368  -0.5356  -0.5237  -0.5207  -0.5183  -0.5180
    -0.5152  -0.5102  -0.5099  -0.5074  -0.5041  -0.5037  -0.4937  -0.4799
    -0.4779  -0.4676  -0.4653  -0.4490  -0.4360  -0.4272  -0.4042  -0.3987
    -0.3971  -0.3846  -0.3740  -0.3485  -0.3418  -0.3371  -0.3285  -0.3220
    -0.3143  -0.3118  -0.3050  -0.3029  -0.2953  -0.2943  -0.2905  -0.2880
    -0.2788  -0.2697  -0.2332  -0.2329  -0.2324  -0.2246  -0.2167  -0.2118
    -0.2101  -0.1967  -0.1924  -0.1908  -0.1882  -0.1854  -0.1715  -0.1543
    -0.1454  -0.1403  -0.1358  -0.1319  -0.1256  -0.1230  -0.0958  -0.0933
    -0.0915  -0.0811  -0.0775  -0.0721  -0.0655  -0.0634  -0.0598  -0.0558
    -0.0544  -0.0479  -0.0414  -0.0406  -0.0393  -0.0334  -0.0298  -0.0270
    -0.0241  -0.0219  -0.0192  -0.0162  -0.0127  -0.0086  -0.0055   0.0004
     0.0225   0.0304   0.0335   0.0353   0.0394   0.0407   0.0429   0.0682
     0.0736   0.0778   0.0785   0.0820   0.0852   0.0869   0.0896   0.0920
     0.1039   0.1070   0.1128   0.1163   0.1181   0.1193   0.1224   0.1272
     0.1276   0.1303   0.1437   0.1447   0.1557   0.1582   0.1595   0.1676
     0.1681   0.1755   0.1758   0.1796   0.1829   0.1875   0.1922   0.1952
     0.2077   0.2340   0.2380   0.2434   0.2478   0.2482   0.2516   0.2593
     0.2612   0.2833   0.2879   0.2949   0.2984   0.3078   0.3080   0.3167
     0.3206   0.3226   0.3279   0.3284   0.3293   0.3412   0.3439   0.3494
     0.3514   0.3567   0.3579   0.3670   0.3677   0.3749   0.3750   0.3890
     0.3936   0.4078   0.4125   0.4129   0.4180   0.4247   0.4335   0.4362
     0.4397   0.4421   0.4449   0.4479   0.4479   0.4507   0.4539   0.4605
     0.4624   0.4639   0.4698   0.4720   0.4785   0.4847   0.4884   0.4990
     0.5037   0.5097   0.5113   0.5137   0.5209   0.5257   0.5271   0.5337
     0.5406   0.5408   0.5439   0.5454   0.5464   0.5499   0.5505   0.5553
     0.5640   0.5666   0.5671   0.5924   0.5940   0.6016   0.6050   0.6240
     0.6253   0.6283   0.6333   0.6371   0.6374   0.6385   0.6410   0.6496
     0.6511   0.6617   0.6641   0.6685   0.6695   0.6768   0.6797   0.6848
     0.6866   0.6899   0.6909   0.6995   0.7012   0.7094   0.7112   0.7122
     0.7130   0.7143   0.7212   0.7220   0.7314   0.7326   0.7351   0.7391
     0.7401   0.7417   0.7421   0.7434   0.7486   0.7531   0.7571   0.7653
     0.7723   0.7781   0.7793   0.7824   0.7876   0.7927   0.8034   0.8048
     0.8131   0.8213   0.8251   0.8330   0.8349   0.8377   0.8399   0.8437
     0.8466   0.8482   0.8510   0.8561   0.8586   0.8618   0.8625   0.8679
     0.8697   0.8735   0.8809   0.8810   0.8829   0.8953   0.8961   0.8974
     0.9006   0.9065   0.9127   0.9129   0.9149   0.9214   0.9243   0.9438
     0.9498   0.9819   0.9874   0.9910   0.9963   0.9982   1.0039   1.0077
     1.0163   1.0322   1.0419   1.0532   1.0578   1.0587   1.0697   1.0757
     1.0764   1.0782   1.0866   1.3255   1.3830   1.4354   1.4644   1.5066
     1.5267   1.5803   1.6214   1.6300   1.6390   1.6411   1.6435   1.6492
     1.6600   1.6992   1.7182   1.8323   1.8567   1.8914   1.8929   1.9012
     1.9061   1.9336   1.9369   2.1419   2.1468   2.1533   2.2346   2.5770
     2.8512   2.9083   2.9534   3.0409   3.2064   3.2325   3.2577   3.2859
     3.2876   3.2993   3.3358   3.3634   3.3732   3.4069   3.4153   3.4353
     3.4469   3.4541   3.4966   3.5468   3.6558   3.6650   3.7393   3.7474
     3.8474   4.1162   4.2185   4.3561   4.5071   4.7056   4.7207   4.7690
     5.0396   5.0564   5.1197   5.2033   5.2690   5.3404   5.3878   5.4189
     5.6178   5.6709   5.7623   5.8159   5.8806   5.9137   5.9218   6.0132
     6.0278   6.1192   6.1400   6.1704   6.1827   6.2198   6.3241   6.3903
     6.4163   6.4642   6.5132   6.5932   6.7816   6.7942   6.8062   6.8303
     7.0000   7.0696   7.0835   7.1161   7.1400   7.1749   7.2122   7.3361
     7.3630   7.4698   7.5075   7.5399   7.5923   7.7455   7.7519   7.7774
     7.7855   7.7866   7.8293   7.8720   7.9079   7.9559   7.9873   8.0091
     8.0473   8.1047   8.1577   8.1835   8.2156   8.2327   8.2456   8.2487
     8.2830   8.3040   8.3202   8.3733   8.4061   8.4403   8.5145   8.5888
     8.5982   8.6521   8.7648   8.7670   8.8005   8.9724   9.0006   9.0256
     9.0287   9.0385   9.1305   9.1557   9.2504   9.2657   9.3214   9.4138

          k = 0.0000-0.2165 0.0000 (256176 PWs)   bands (ev):

   -17.4381 -16.5086 -15.6700 -14.9755 -14.8820 -14.4993 -14.3301 -14.1357
   -13.5068 -13.4572 -12.7147 -12.2764 -12.2485 -10.9948 -10.8570 -10.2010
    -9.8197  -9.6486  -9.0760  -9.0335  -8.3164  -8.1400  -8.1073  -7.7553
    -7.6406  -7.0176  -6.9932  -6.5058  -6.4450  -6.4265  -6.3593  -6.0603
    -5.8286  -5.7834  -5.6655  -5.4295  -5.3832  -5.3516  -5.1562  -4.9419
    -4.8367  -4.7343  -4.4502  -4.3484  -4.2844  -4.0357  -3.9284  -3.8623
    -3.8474  -3.8462  -3.8410  -3.8298  -3.6795  -3.6715  -3.6034  -3.6011
    -3.5795  -3.5687  -3.5416  -3.3810  -3.2680  -3.1618  -3.1397  -3.1384
    -3.1292  -3.1279  -3.1245  -3.0930  -3.0449  -3.0164  -2.9570  -2.8267
    -2.8148  -2.8060  -2.7923  -2.7343  -2.7239  -2.7054  -2.6900  -2.6865
    -2.6742  -2.5905  -2.5434  -2.5432  -2.5162  -2.5162  -2.4963  -2.4379
    -2.4099  -2.3857  -2.3449  -2.3245  -2.3067  -2.3032  -2.3010  -2.2998
    -2.2780  -2.2732  -2.2491  -2.2422  -2.2208  -2.2041  -2.1942  -2.1806
    -2.1711  -2.0485  -2.0266  -2.0211  -2.0145  -1.9741  -1.9439  -1.9345
    -1.9330  -1.8767  -1.8734  -1.8697  -1.8591  -1.8412  -1.8382  -1.8324
    -1.8300  -1.8279  -1.8251  -1.8209  -1.7989  -1.7949  -1.7879  -1.7793
    -1.7748  -1.7738  -1.7617  -1.7597  -1.7397  -1.7139  -1.6949  -1.6930
    -1.6479  -1.6459  -1.6115  -1.6085  -1.6053  -1.6049  -1.5932  -1.5753
    -1.5594  -1.5520  -1.5467  -1.5456  -1.5396  -1.5385  -1.5286  -1.4950
    -1.4879  -1.4828  -1.4814  -1.4797  -1.4739  -1.4737  -1.4729  -1.4701
    -1.4492  -1.4440  -1.4016  -1.3999  -1.3935  -1.3839  -1.3837  -1.3721
    -1.3616  -1.3607  -1.3529  -1.3393  -1.3283  -1.3196  -1.3181  -1.3170
    -1.3042  -1.2716  -1.2226  -1.2214  -1.2042  -1.2009  -1.1913  -1.1904
    -1.1754  -1.1718  -1.1611  -1.1604  -1.1598  -1.1580  -1.1446  -1.1431
    -1.1173  -1.1123  -1.1059  -1.1022  -1.1005  -1.1000  -1.0965  -1.0925
    -1.0897  -1.0711  -1.0624  -1.0607  -1.0594  -1.0446  -1.0256  -1.0191
    -1.0178  -1.0176  -1.0140  -1.0076  -1.0072  -0.9854  -0.9816  -0.9577
    -0.9559  -0.9328  -0.9310  -0.9259  -0.9076  -0.9059  -0.8932  -0.8875
    -0.8782  -0.8668  -0.8666  -0.8625  -0.8582  -0.8553  -0.8506  -0.8481
    -0.8444  -0.8293  -0.8248  -0.8206  -0.8193  -0.8152  -0.8121  -0.8115
    -0.8078  -0.8026  -0.7956  -0.7919  -0.7810  -0.7763  -0.7752  -0.7645
    -0.7629  -0.7417  -0.7223  -0.7114  -0.7081  -0.7056  -0.7024  -0.7018
    -0.6987  -0.6940  -0.6762  -0.6730  -0.6686  -0.6609  -0.6573  -0.6507
    -0.6492  -0.6477  -0.6471  -0.6431  -0.6367  -0.6366  -0.6321  -0.6060
    -0.5964  -0.5884  -0.5875  -0.5787  -0.5782  -0.5648  -0.5639  -0.5595
    -0.5529  -0.5443  -0.5402  -0.5364  -0.5349  -0.5336  -0.5330  -0.5148
    -0.5038  -0.5013  -0.4962  -0.4943  -0.4928  -0.4733  -0.4690  -0.4681
    -0.4674  -0.4522  -0.4509  -0.4473  -0.4466  -0.4386  -0.4325  -0.4209
    -0.4068  -0.3988  -0.3900  -0.3847  -0.3710  -0.3657  -0.3611  -0.3601
    -0.3564  -0.3439  -0.3420  -0.3117  -0.3062  -0.2993  -0.2969  -0.2842
    -0.2722  -0.2433  -0.2333  -0.2091  -0.1994  -0.1923  -0.1823  -0.1760
    -0.1757  -0.1653  -0.1615  -0.1487  -0.1484  -0.1374  -0.1360  -0.1331
    -0.1299  -0.1240  -0.1208  -0.1118  -0.1041  -0.1035  -0.1029  -0.0945
    -0.0920  -0.0894  -0.0861  -0.0859  -0.0827  -0.0760  -0.0641  -0.0542
    -0.0499  -0.0449  -0.0443  -0.0410  -0.0365  -0.0363  -0.0359  -0.0324
    -0.0270  -0.0169  -0.0148  -0.0117  -0.0111  -0.0065  -0.0031   0.0026
     0.0070   0.0125   0.0145   0.0179   0.0180   0.0202   0.0217   0.0292
     0.0381   0.0416   0.0540   0.0711   0.0772   0.0858   0.0873   0.0883
     0.0941   0.0956   0.0988   0.1006   0.1105   0.1123   0.1127   0.1141
     0.1165   0.1280   0.1368   0.1514   0.1534   0.1601   0.1623   0.1669
     0.1703   0.1724   0.1763   0.1803   0.1892   0.1978   0.2003   0.2011
     0.2125   0.2150   0.2185   0.2258   0.2420   0.2632   0.2666   0.3108
     0.3124   0.3179   0.3186   0.3236   0.3276   0.3279   0.3292   0.3361
     0.3394   0.3433   0.3451   0.3469   0.3489   0.3528   0.3554   0.3589
     0.3610   0.3668   0.3707   0.3748   0.3771   0.3814   0.3843   0.3898
     0.3904   0.3940   0.3944   0.3979   0.3998   0.4038   0.4103   0.4158
     0.4161   0.4166   0.4172   0.4191   0.4248   0.4250   0.4288   0.4422
     0.4428   0.4502   0.4560   0.4594   0.4599   0.4630   0.4651   0.4656
     0.4704   0.4705   0.4752   0.4761   0.4794   0.5063   0.5118   0.5162
     0.5579   0.5599   0.5609   0.5722   0.5741   0.5783   0.5786   0.5961
     0.5987   0.5996   0.6019   0.6098   0.6116   0.6121   0.6148   0.6160
     0.6191   0.6265   0.6284   0.6288   0.6354   0.6375   0.6382   0.6400
     0.6404   0.6436   0.6480   0.6555   0.6556   0.6602   0.6641   0.6647
     0.6695   0.6696   0.6790   0.6898   0.6942   0.6972   0.6984   0.7031
     0.7038   0.7075   0.7132   0.7191   0.7238   0.7247   0.7302   0.7317
     0.7369   0.7398   0.7454   0.7468   0.7510   0.7545   0.7590   0.7665
     0.7724   0.7815   0.7834   0.7850   0.7917   0.8012   0.8045   0.8078
     0.8131   0.8154   0.8158   0.8199   0.8210   0.8224   0.8274   0.8384
     0.8432   0.8497   0.8537   0.8588   0.8638   0.8696   0.8748   0.8770
     0.8781   0.8797   0.8808   0.8856   0.8872   0.9073   0.9101   0.9160
     0.9167   0.9188   0.9230   0.9386   0.9401   0.9426   0.9500   0.9533
     0.9556   0.9568   0.9645   0.9727   0.9842   1.0053   1.0253   1.0284
     1.0291   1.0793   1.1298   1.1534   1.1668   1.1696   1.1805   1.1891
     1.1980   1.2039   1.2150   1.2305   1.2377   1.2392   1.2479   1.2483
     1.2568   1.2795   1.2818   1.5439   1.6140   1.8019   1.8160   1.8750
     1.8822   1.9143   1.9322   1.9879   1.9935   2.0100   2.0227   2.0362
     2.1061   2.1341   2.1358   2.1445   2.1546   2.2184   2.2394   2.3526
     2.3582   2.5529   2.5973   2.5974   2.6130   2.7404   2.9181   2.9576
     3.0605   3.1048   3.1432   3.4404   3.4738   3.5243   3.5787   3.7155
     3.7580   3.7703   3.7759   3.7837   3.8315   3.9287   4.0432   4.1877
     4.2850   4.3929   4.3936   4.4816   4.5474   4.6544   4.6857   4.7835
     4.7867   4.8120   4.8181   4.8896   5.0302   5.1239   5.3075   5.6599
     5.6698   5.7263   5.8050   5.8329   5.8739   5.9284   5.9828   6.0279
     6.0943   6.1185   6.1265   6.2089   6.2823   6.2909   6.4421   6.4728
     6.4898   6.5162   6.5331   6.5394   6.5676   6.5867   6.6025   6.7352
     6.8023   6.8168   6.8211   6.8588   6.9253   6.9883   7.0912   7.2205
     7.2281   7.5143   7.5364   7.6250   7.6578   7.7735   7.7810   7.7965
     7.8408   7.8931   7.8983   7.9484   8.0039   8.0964   8.1042   8.1257
     8.1296   8.1432   8.1919   8.2093   8.2142   8.2743   8.3276   8.3502
     8.4044   8.4346   8.4944   8.5833   8.6519   8.6987   8.7557   8.7697
     8.8095   8.8182   8.8413   8.8606   8.8663   8.8970   8.9122   8.9143
     9.0373   9.1190   9.1527   9.1635   9.1980   9.2231   9.2318   9.2810

          k = 0.2500 0.0000 0.0000 (256240 PWs)   bands (ev):

   -17.3899 -16.4134 -15.7907 -15.4689 -15.1013 -14.4239 -14.0305 -13.8648
   -13.3358 -13.1049 -12.5706 -12.4485 -11.6436 -11.4354 -11.1879 -10.4745
   -10.0931  -9.8485  -9.5917  -9.2914  -8.5507  -8.2741  -7.8325  -7.3561
    -7.2617  -7.0343  -6.7844  -6.3895  -6.3465  -6.0022  -5.8660  -5.8620
    -5.7516  -5.5795  -5.5290  -5.2024  -5.0558  -5.0133  -4.9573  -4.9294
    -4.7622  -4.5779  -4.5617  -4.5531  -4.5214  -4.3957  -4.3811  -4.3479
    -4.3179  -4.1857  -4.1405  -3.9618  -3.9290  -3.8915  -3.7853  -3.7527
    -3.6187  -3.5736  -3.5594  -3.5270  -3.4837  -3.4205  -3.3530  -3.3483
    -3.2791  -3.1912  -3.1725  -3.1477  -2.9525  -2.9488  -2.9000  -2.8714
    -2.6858  -2.6602  -2.6523  -2.6375  -2.6330  -2.5658  -2.4834  -2.4714
    -2.4529  -2.4066  -2.3879  -2.3681  -2.3605  -2.3592  -2.3524  -2.3485
    -2.3449  -2.3310  -2.3171  -2.3075  -2.2841  -2.2443  -2.2145  -2.2081
    -2.2028  -2.1923  -2.1643  -2.1410  -2.1398  -2.1378  -2.1348  -2.1249
    -2.1104  -2.0974  -2.0643  -2.0614  -2.0583  -2.0543  -2.0111  -1.9349
    -1.9203  -1.8947  -1.8780  -1.8707  -1.8550  -1.8222  -1.8153  -1.8098
    -1.8037  -1.7961  -1.7933  -1.7698  -1.7531  -1.7494  -1.7442  -1.7367
    -1.7348  -1.7254  -1.7054  -1.6979  -1.6941  -1.6880  -1.6809  -1.6776
    -1.6696  -1.6646  -1.6447  -1.6336  -1.6283  -1.6086  -1.6024  -1.5860
    -1.5807  -1.5783  -1.5704  -1.5682  -1.5662  -1.5602  -1.5564  -1.5514
    -1.5509  -1.5450  -1.5401  -1.5388  -1.5360  -1.5343  -1.5302  -1.5233
    -1.5122  -1.5024  -1.4737  -1.4587  -1.4524  -1.4204  -1.4184  -1.4135
    -1.3743  -1.3733  -1.3643  -1.3555  -1.3521  -1.3377  -1.3312  -1.3285
    -1.3231  -1.3176  -1.3129  -1.3080  -1.3055  -1.2973  -1.2885  -1.2064
    -1.1796  -1.1754  -1.1712  -1.1642  -1.1468  -1.1370  -1.1316  -1.1299
    -1.1179  -1.1153  -1.1115  -1.1062  -1.1015  -1.1003  -1.0944  -1.0881
    -1.0796  -1.0594  -1.0560  -1.0516  -1.0487  -1.0419  -1.0404  -1.0248
    -1.0241  -1.0183  -1.0167  -1.0080  -0.9674  -0.9638  -0.9602  -0.9578
    -0.9513  -0.9480  -0.9463  -0.9441  -0.9217  -0.9174  -0.9065  -0.9047
    -0.9044  -0.8905  -0.8665  -0.8637  -0.8603  -0.8583  -0.8516  -0.8481
    -0.8458  -0.8350  -0.8276  -0.8225  -0.8132  -0.8102  -0.8077  -0.7990
    -0.7972  -0.7798  -0.7666  -0.7641  -0.7614  -0.7573  -0.7493  -0.7474
    -0.7456  -0.7423  -0.7231  -0.7214  -0.7150  -0.7054  -0.6978  -0.6826
    -0.6802  -0.6778  -0.6603  -0.6407  -0.6380  -0.6360  -0.6306  -0.6235
    -0.6080  -0.6032  -0.5981  -0.5876  -0.5870  -0.5807  -0.5783  -0.5781
    -0.5672  -0.5619  -0.5614  -0.5593  -0.5566  -0.5534  -0.5519  -0.5494
    -0.5432  -0.5379  -0.5343  -0.5300  -0.5258  -0.5224  -0.5115  -0.5075
    -0.4982  -0.4913  -0.4855  -0.4785  -0.4588  -0.4559  -0.4510  -0.4487
    -0.4424  -0.4396  -0.4295  -0.4279  -0.4250  -0.4234  -0.4205  -0.3991
    -0.3863  -0.3808  -0.3281  -0.3188  -0.3153  -0.3119  -0.3068  -0.3004
    -0.2975  -0.2934  -0.2905  -0.2851  -0.2843  -0.2817  -0.2776  -0.2730
    -0.2706  -0.2691  -0.2666  -0.2625  -0.2600  -0.2547  -0.2471  -0.2387
    -0.2365  -0.2357  -0.2276  -0.2199  -0.2172  -0.2110  -0.2073  -0.1992
    -0.1757  -0.1645  -0.1546  -0.1495  -0.1439  -0.1382  -0.1305  -0.1286
    -0.1238  -0.1207  -0.1055  -0.0991  -0.0933  -0.0922  -0.0869  -0.0810
    -0.0771  -0.0740  -0.0711  -0.0687  -0.0671  -0.0573  -0.0503  -0.0471
    -0.0429  -0.0426  -0.0355  -0.0251  -0.0186  -0.0181  -0.0140  -0.0121
    -0.0087   0.0047   0.0115   0.0132   0.0154   0.0184   0.0257   0.0300
     0.0350   0.0365   0.0412   0.0427   0.0499   0.0569   0.0683   0.0712
     0.0801   0.0814   0.0875   0.0906   0.0956   0.0999   0.1013   0.1130
     0.1292   0.1367   0.1468   0.1597   0.1667   0.1682   0.1728   0.1771
     0.1810   0.1853   0.1902   0.1957   0.2008   0.2058   0.2104   0.2142
     0.2165   0.2195   0.2243   0.2447   0.2491   0.2530   0.2582   0.2611
     0.2670   0.2702   0.2798   0.2904   0.2942   0.3015   0.3100   0.3134
     0.3165   0.3190   0.3211   0.3221   0.3245   0.3268   0.3282   0.3317
     0.3422   0.3487   0.3744   0.3791   0.3805   0.3900   0.3956   0.4000
     0.4108   0.4122   0.4174   0.4191   0.4261   0.4276   0.4311   0.4317
     0.4348   0.4379   0.4440   0.4446   0.4475   0.4481   0.4518   0.4540
     0.4573   0.4637   0.4657   0.4665   0.4692   0.4708   0.4812   0.4876
     0.4907   0.4961   0.4967   0.4992   0.5015   0.5079   0.5142   0.5196
     0.5201   0.5270   0.5329   0.5380   0.5404   0.5416   0.5436   0.5494
     0.5519   0.5557   0.5611   0.5658   0.5680   0.5742   0.5834   0.5862
     0.5910   0.6084   0.6163   0.6177   0.6189   0.6258   0.6276   0.6369
     0.6417   0.6544   0.6625   0.6691   0.6719   0.6754   0.6804   0.6847
     0.6872   0.6885   0.6898   0.6974   0.7048   0.7074   0.7123   0.7163
     0.7177   0.7200   0.7239   0.7276   0.7277   0.7315   0.7346   0.7359
     0.7422   0.7446   0.7505   0.7525   0.7569   0.7590   0.7617   0.7632
     0.7775   0.7801   0.7822   0.7860   0.7884   0.7941   0.7970   0.8064
     0.8095   0.8105   0.8182   0.8249   0.8277   0.8307   0.8388   0.8468
     0.8474   0.8505   0.8535   0.8561   0.8569   0.8586   0.8611   0.8641
     0.8676   0.8687   0.8714   0.8719   0.8853   0.8879   0.8937   0.8974
     0.9004   0.9026   0.9061   0.9110   0.9139   0.9163   0.9199   0.9239
     0.9341   0.9362   0.9394   0.9473   0.9513   0.9708   0.9745   0.9885
     0.9999   1.0084   1.0132   1.0482   1.0516   1.0541   1.0619   1.0816
     1.1199   1.1739   1.1902   1.1933   1.2124   1.2184   1.2407   1.2640
     1.4584   1.4662   1.4873   1.5032   1.5154   1.5311   1.5972   1.6560
     1.7232   1.9132   1.9704   1.9858   1.9899   2.0925   2.2777   2.4072
     2.4136   2.4379   2.6194   2.6305   2.6498   2.6501   2.6787   2.7296
     2.8320   2.9106   2.9437   3.0187   3.0683   3.0775   3.1197   3.1291
     3.1570   3.1940   3.2452   3.2683   3.2939   3.3338   3.4077   3.4958
     3.5625   3.6849   3.7110   3.7463   3.9605   4.1557   4.2140   4.2475
     4.3420   4.4764   4.4979   4.6383   4.6608   4.6837   4.7638   4.8740
     4.9078   4.9246   4.9406   4.9591   4.9686   5.0441   5.1148   5.1761
     5.1891   5.2709   5.3445   5.3622   5.4273   5.4414   5.4595   5.4890
     5.5876   6.0575   6.0850   6.1237   6.1640   6.1802   6.2162   6.3341
     6.3956   6.4102   6.4618   6.4753   6.4816   6.4995   6.5178   6.6572
     6.7199   6.7859   6.8543   6.8930   6.9741   7.0005   7.0062   7.1202
     7.1499   7.2082   7.2679   7.3957   7.4453   7.4870   7.5122   7.5217
     7.5378   7.5925   7.6823   7.7249   7.7351   7.8003   7.8436   7.9206
     7.9651   8.0234   8.0492   8.0659   8.1903   8.2595   8.3834   8.4101
     8.4155   8.4448   8.4597   8.5365   8.5719   8.5896   8.6064   8.6416
     8.6593   8.6738   8.7505   8.7591   8.8098   8.8321   8.8602   8.8872
     8.9463   8.9700   9.0024   9.1189   9.1455   9.1905   9.2916   9.3008

          k = 0.2500-0.2165 0.0000 (256316 PWs)   bands (ev):

   -17.3899 -16.4134 -15.7907 -15.4689 -15.1013 -14.4239 -14.0305 -13.8648
   -13.3358 -13.1049 -12.5706 -12.4485 -11.6436 -11.4354 -11.1879 -10.4745
   -10.0931  -9.8485  -9.5917  -9.2914  -8.5507  -8.2738  -7.8323  -7.3560
    -7.2617  -7.0342  -6.7845  -6.3475  -6.2675  -6.2472  -5.9987  -5.7524
    -5.5774  -5.5258  -5.2702  -5.2202  -5.1884  -5.0554  -5.0271  -4.9304
    -4.9015  -4.8831  -4.7030  -4.5610  -4.3520  -4.3208  -4.3039  -4.2149
    -4.1267  -4.1056  -4.0188  -4.0066  -3.9550  -3.9394  -3.8921  -3.8079
    -3.6389  -3.5846  -3.5429  -3.5236  -3.4916  -3.4578  -3.4544  -3.4007
    -3.2727  -3.1929  -3.1545  -2.9516  -2.8738  -2.8605  -2.8004  -2.7548
    -2.7453  -2.7237  -2.7221  -2.7114  -2.6261  -2.5706  -2.5668  -2.5633
    -2.5154  -2.4348  -2.4187  -2.3943  -2.3730  -2.3667  -2.3657  -2.3309
    -2.3005  -2.2843  -2.2774  -2.2706  -2.2659  -2.2625  -2.2553  -2.2418
    -2.2337  -2.2323  -2.2302  -2.2256  -2.2204  -2.2048  -2.1619  -2.1399
    -2.1308  -2.0328  -2.0287  -1.9667  -1.9405  -1.9042  -1.8933  -1.8920
    -1.8568  -1.8399  -1.8372  -1.8363  -1.8215  -1.8206  -1.8115  -1.8047
    -1.7995  -1.7964  -1.7954  -1.7888  -1.7822  -1.7779  -1.7754  -1.7641
    -1.7554  -1.7520  -1.7452  -1.7415  -1.7345  -1.7034  -1.6948  -1.6879
    -1.6840  -1.6741  -1.6709  -1.6700  -1.6621  -1.6372  -1.6125  -1.6073
    -1.6029  -1.6019  -1.5928  -1.5810  -1.5778  -1.5558  -1.5546  -1.5460
    -1.5351  -1.5298  -1.5250  -1.5232  -1.5200  -1.5171  -1.5159  -1.5053
    -1.4926  -1.4843  -1.4786  -1.4578  -1.4358  -1.4234  -1.4207  -1.4166
    -1.3968  -1.3542  -1.3456  -1.3424  -1.3341  -1.3329  -1.3269  -1.3214
    -1.2916  -1.2857  -1.2781  -1.2769  -1.2684  -1.2633  -1.2602  -1.2528
    -1.2187  -1.2129  -1.1965  -1.1811  -1.1769  -1.1702  -1.1574  -1.1368
    -1.1274  -1.1255  -1.1218  -1.1213  -1.1022  -1.1012  -1.0913  -1.0767
    -1.0744  -1.0677  -1.0614  -1.0516  -1.0491  -1.0435  -1.0272  -1.0120
    -1.0041  -0.9920  -0.9818  -0.9802  -0.9757  -0.9735  -0.9587  -0.9558
    -0.9518  -0.9429  -0.9395  -0.9382  -0.9327  -0.9315  -0.9219  -0.9198
    -0.9188  -0.9123  -0.9078  -0.8937  -0.8812  -0.8804  -0.8642  -0.8518
    -0.8472  -0.8343  -0.8332  -0.8241  -0.8199  -0.8094  -0.8062  -0.7992
    -0.7966  -0.7868  -0.7834  -0.7803  -0.7749  -0.7605  -0.7497  -0.7264
    -0.7229  -0.6898  -0.6835  -0.6783  -0.6760  -0.6753  -0.6726  -0.6689
    -0.6579  -0.6547  -0.6402  -0.6362  -0.6339  -0.6293  -0.6238  -0.6181
    -0.6127  -0.6066  -0.6000  -0.5946  -0.5925  -0.5869  -0.5847  -0.5743
    -0.5736  -0.5708  -0.5687  -0.5650  -0.5584  -0.5578  -0.5560  -0.5493
    -0.5467  -0.5417  -0.5368  -0.5359  -0.5335  -0.5315  -0.5050  -0.5013
    -0.4959  -0.4930  -0.4893  -0.4814  -0.4700  -0.4628  -0.4405  -0.4384
    -0.4344  -0.4297  -0.4221  -0.4196  -0.4180  -0.4163  -0.4035  -0.4005
    -0.3975  -0.3905  -0.3838  -0.3727  -0.3646  -0.3605  -0.3107  -0.3021
    -0.2972  -0.2954  -0.2936  -0.2856  -0.2818  -0.2772  -0.2762  -0.2730
    -0.2635  -0.2589  -0.2579  -0.2511  -0.2469  -0.2434  -0.2400  -0.2375
    -0.2272  -0.2255  -0.2190  -0.2106  -0.2016  -0.1974  -0.1936  -0.1895
    -0.1853  -0.1759  -0.1711  -0.1635  -0.1537  -0.1502  -0.1377  -0.1246
    -0.1222  -0.1175  -0.1151  -0.1142  -0.1010  -0.0946  -0.0925  -0.0898
    -0.0862  -0.0824  -0.0777  -0.0753  -0.0604  -0.0563  -0.0535  -0.0490
    -0.0404  -0.0368  -0.0042  -0.0019   0.0000   0.0029   0.0185   0.0217
     0.0245   0.0269   0.0314   0.0349   0.0404   0.0463   0.0500   0.0538
     0.0550   0.0596   0.0721   0.0761   0.0809   0.0821   0.0836   0.0911
     0.0958   0.0986   0.0996   0.1023   0.1034   0.1101   0.1166   0.1189
     0.1222   0.1270   0.1280   0.1343   0.1391   0.1405   0.1411   0.1454
     0.1478   0.1507   0.1534   0.1618   0.1788   0.1856   0.1900   0.1920
     0.1960   0.2154   0.2190   0.2294   0.2421   0.2516   0.2537   0.2552
     0.2586   0.2595   0.2611   0.2704   0.2799   0.2803   0.2829   0.2854
     0.2862   0.2876   0.2899   0.3022   0.3108   0.3156   0.3202   0.3267
     0.3286   0.3359   0.3423   0.3485   0.3527   0.3556   0.3603   0.3628
     0.3752   0.3850   0.3921   0.3946   0.3986   0.4050   0.4124   0.4194
     0.4238   0.4300   0.4359   0.4416   0.4458   0.4563   0.4680   0.4700
     0.4752   0.4789   0.4976   0.5045   0.5094   0.5138   0.5158   0.5167
     0.5173   0.5199   0.5215   0.5233   0.5254   0.5309   0.5324   0.5360
     0.5363   0.5445   0.5476   0.5535   0.5586   0.5612   0.5740   0.5813
     0.5872   0.5907   0.5946   0.5949   0.5995   0.6013   0.6046   0.6049
     0.6133   0.6153   0.6191   0.6218   0.6259   0.6283   0.6312   0.6339
     0.6384   0.6435   0.6476   0.6486   0.6527   0.6548   0.6556   0.6604
     0.6631   0.6733   0.6790   0.6809   0.6963   0.6971   0.7014   0.7057
     0.7070   0.7103   0.7158   0.7237   0.7265   0.7346   0.7369   0.7390
     0.7491   0.7551   0.7580   0.7605   0.7622   0.7630   0.7687   0.7716
     0.7800   0.7811   0.7833   0.7875   0.7977   0.7997   0.8020   0.8046
     0.8087   0.8111   0.8133   0.8188   0.8209   0.8228   0.8242   0.8300
     0.8321   0.8342   0.8395   0.8419   0.8475   0.8532   0.8617   0.8646
     0.8657   0.8681   0.8704   0.8726   0.8729   0.8780   0.8832   0.8843
     0.8857   0.8947   0.9051   0.9064   0.9117   0.9243   0.9301   0.9322
     0.9350   0.9456   0.9510   0.9555   0.9579   0.9732   0.9785   0.9801
     0.9831   0.9882   1.0132   1.0271   1.0751   1.0916   1.1081   1.1295
     1.1574   1.1807   1.1862   1.2036   1.2081   1.2218   1.2306   1.2608
     1.3044   1.3375   1.5452   1.5527   1.5774   1.5838   1.6677   1.7182
     1.9867   2.0144   2.0431   2.1588   2.1687   2.1971   2.2173   2.2233
     2.2310   2.2440   2.2766   2.3291   2.4089   2.4452   2.4698   2.5658
     2.9474   2.9702   3.0100   3.0262   3.0705   3.1768   3.2277   3.2616
     3.2774   3.3078   3.3725   3.4160   3.4858   3.5180   3.5678   3.5933
     3.6462   3.7982   3.8151   3.8872   3.9049   3.9800   4.0756   4.0932
     4.1394   4.2878   4.3745   4.4470   4.5665   4.5886   4.6462   4.7202
     4.7573   4.8332   4.8548   4.8971   4.9131   4.9656   5.0799   5.1896
     5.2125   5.3045   5.3249   5.3852   5.4274   5.5680   5.8369   5.9665
     5.9912   6.0312   6.1082   6.1455   6.2315   6.2623   6.2981   6.3483
     6.3624   6.4082   6.4498   6.5370   6.5653   6.6133   6.6416   6.6604
     6.7140   6.7688   6.7816   6.7884   6.8641   6.8861   6.9424   6.9728
     7.1257   7.1463   7.2019   7.2674   7.3571   7.3860   7.4600   7.5919
     7.6105   7.6285   7.7378   7.8952   7.9128   7.9589   7.9742   8.0311
     8.0425   8.0593   8.0687   8.0968   8.1572   8.2034   8.2606   8.2700
     8.3070   8.3669   8.3939   8.4489   8.5314   8.5377   8.5819   8.6336
     8.6565   8.6587   8.6791   8.7209   8.7257   8.7329   8.7772   8.8098
     8.8318   8.9218   8.9394   9.0604   9.0664   9.0829   9.1164   9.2204

          k =-0.5000 0.0000 0.0000 (256496 PWs)   bands (ev):

   -17.3333 -16.2489 -16.0366 -15.6757 -15.1443 -14.7576 -13.8678 -13.5190
   -12.8356 -12.5649 -12.3366 -12.1774 -12.0979 -11.9901 -11.4036 -10.8445
   -10.1203  -9.9096  -9.8148  -9.4379  -8.7349  -8.5891  -8.1494  -7.6908
    -6.5409  -6.3182  -6.0507  -5.8625  -5.8621  -5.8591  -5.8298  -5.5121
    -5.3997  -5.3565  -5.3559  -5.3508  -5.2771  -5.2399  -5.0425  -5.0319
    -4.9102  -4.7965  -4.7837  -4.5835  -4.5263  -4.5186  -4.4419  -4.3244
    -4.2615  -4.2452  -4.2114  -4.1146  -4.1128  -3.9843  -3.9777  -3.9730
    -3.9693  -3.9596  -3.8673  -3.7430  -3.5241  -3.3754  -3.3079  -3.2623
    -3.2173  -3.2065  -3.1898  -3.1783  -3.0913  -3.0274  -2.9521  -2.8827
    -2.8630  -2.8359  -2.8264  -2.7395  -2.4389  -2.4365  -2.4364  -2.4336
    -2.4300  -2.4285  -2.4155  -2.3770  -2.3447  -2.3277  -2.3107  -2.2149
    -2.2130  -2.2105  -2.2083  -2.1632  -2.1579  -2.1563  -2.1557  -2.1531
    -2.1243  -2.0686  -2.0655  -2.0508  -2.0468  -2.0041  -1.9823  -1.9814
    -1.9738  -1.9688  -1.9540  -1.9303  -1.9299  -1.9224  -1.9199  -1.9188
    -1.9060  -1.9054  -1.9046  -1.8984  -1.8822  -1.8641  -1.8613  -1.8597
    -1.8390  -1.8307  -1.8290  -1.8242  -1.8225  -1.7971  -1.7643  -1.7630
    -1.7572  -1.7455  -1.7448  -1.7394  -1.7372  -1.7239  -1.7163  -1.7063
    -1.7023  -1.6957  -1.6948  -1.6777  -1.6723  -1.6689  -1.6682  -1.6431
    -1.6400  -1.6368  -1.6170  -1.6143  -1.6055  -1.5800  -1.5749  -1.5700
    -1.5437  -1.5421  -1.5384  -1.5342  -1.5203  -1.5133  -1.5089  -1.5027
    -1.5022  -1.4998  -1.4896  -1.4886  -1.4791  -1.4764  -1.4689  -1.4675
    -1.4510  -1.4175  -1.4086  -1.4056  -1.3984  -1.3973  -1.3611  -1.3577
    -1.2732  -1.2715  -1.2699  -1.2694  -1.2442  -1.2412  -1.2379  -1.2379
    -1.2337  -1.2299  -1.2176  -1.2041  -1.1951  -1.1930  -1.1855  -1.1806
    -1.1773  -1.1732  -1.1708  -1.1706  -1.1454  -1.1412  -1.1295  -1.1239
    -1.0799  -1.0306  -1.0292  -1.0253  -1.0238  -1.0212  -1.0032  -1.0025
    -0.9922  -0.9922  -0.9808  -0.9757  -0.9709  -0.9705  -0.9494  -0.9453
    -0.9393  -0.9358  -0.9345  -0.9175  -0.9004  -0.8978  -0.8950  -0.8920
    -0.8823  -0.8744  -0.8624  -0.8617  -0.8589  -0.8559  -0.8466  -0.8454
    -0.8440  -0.8423  -0.8352  -0.8163  -0.8145  -0.8099  -0.8086  -0.7777
    -0.7710  -0.7692  -0.7641  -0.7112  -0.7076  -0.7047  -0.7039  -0.6981
    -0.6973  -0.6949  -0.6899  -0.6623  -0.6603  -0.6532  -0.6459  -0.6243
    -0.6239  -0.6085  -0.5991  -0.5976  -0.5967  -0.5939  -0.5925  -0.5902
    -0.5889  -0.5884  -0.5865  -0.5828  -0.5816  -0.5440  -0.5342  -0.5180
    -0.5113  -0.5057  -0.5054  -0.4971  -0.4955  -0.4934  -0.4903  -0.4873
    -0.4862  -0.4854  -0.4843  -0.4807  -0.4764  -0.4741  -0.4740  -0.4688
    -0.4678  -0.4572  -0.4567  -0.4536  -0.4535  -0.4511  -0.4500  -0.4434
    -0.4434  -0.4403  -0.4382  -0.4379  -0.4333  -0.4249  -0.4246  -0.4167
    -0.4149  -0.4136  -0.4134  -0.4025  -0.3991  -0.3840  -0.3812  -0.3532
    -0.3430  -0.2934  -0.2893  -0.2852  -0.2839  -0.2587  -0.2522  -0.2512
    -0.2471  -0.2439  -0.2398  -0.2397  -0.2330  -0.2328  -0.2233  -0.2231
    -0.2218  -0.2190  -0.2131  -0.2083  -0.2029  -0.2020  -0.2002  -0.2000
    -0.1930  -0.1920  -0.1875  -0.1857  -0.1850  -0.1791  -0.1719  -0.1712
    -0.1613  -0.1574  -0.1534  -0.1444  -0.1073  -0.0869  -0.0825  -0.0746
    -0.0725  -0.0723  -0.0576  -0.0520  -0.0514  -0.0482  -0.0482  -0.0475
    -0.0436  -0.0431  -0.0355  -0.0344  -0.0323  -0.0285  -0.0267  -0.0257
    -0.0243  -0.0226  -0.0225  -0.0127  -0.0081  -0.0020  -0.0018   0.0148
     0.0161   0.0170   0.0360   0.0363   0.0456   0.0507   0.0597   0.0612
     0.0624   0.0668   0.0687   0.0716   0.0723   0.0762   0.0809   0.0814
     0.0941   0.0947   0.0958   0.0973   0.0982   0.1071   0.1207   0.1297
     0.1394   0.1416   0.1425   0.1435   0.1508   0.1597   0.1640   0.1698
     0.1823   0.1889   0.1916   0.2008   0.2083   0.2232   0.2341   0.2389
     0.2470   0.2493   0.2648   0.2651   0.2665   0.2688   0.2699   0.2730
     0.2751   0.2768   0.2820   0.2837   0.2861   0.3003   0.3023   0.3108
     0.3137   0.3203   0.3211   0.3343   0.3349   0.3356   0.3356   0.3377
     0.3391   0.3538   0.3658   0.3744   0.3840   0.3843   0.4030   0.4245
     0.4376   0.4379   0.4428   0.4465   0.4492   0.4526   0.4694   0.4752
     0.4753   0.4861   0.4896   0.4912   0.5031   0.5062   0.5063   0.5115
     0.5275   0.5337   0.5369   0.5376   0.5422   0.5431   0.5491   0.5516
     0.5526   0.5567   0.5583   0.5623   0.5631   0.5638   0.5663   0.5666
     0.5695   0.5726   0.5773   0.5790   0.5792   0.6026   0.6036   0.6049
     0.6057   0.6120   0.6241   0.6278   0.6387   0.6387   0.6435   0.6436
     0.6564   0.6589   0.6660   0.6671   0.6721   0.6727   0.6740   0.6745
     0.6753   0.6761   0.6802   0.6878   0.6918   0.6991   0.7200   0.7218
     0.7256   0.7261   0.7354   0.7404   0.7423   0.7453   0.7470   0.7482
     0.7486   0.7516   0.7550   0.7562   0.7591   0.7598   0.7602   0.7641
     0.7643   0.7653   0.7673   0.7697   0.7697   0.7737   0.7772   0.7807
     0.7836   0.7841   0.7922   0.7945   0.8091   0.8137   0.8143   0.8176
     0.8254   0.8300   0.8400   0.8422   0.8446   0.8470   0.8495   0.8516
     0.8547   0.8602   0.8635   0.8665   0.8740   0.8760   0.8764   0.8780
     0.8960   0.8983   0.9013   0.9025   0.9032   0.9068   0.9070   0.9095
     0.9172   0.9243   0.9258   0.9307   0.9379   0.9410   0.9416   0.9422
     0.9435   0.9449   0.9549   0.9589   0.9972   0.9981   1.0011   1.0152
     1.0304   1.0348   1.0385   1.0402   1.4441   1.4509   1.4537   1.4580
     1.6114   1.6221   1.6846   1.6971   1.7084   1.7174   1.7183   1.7231
     1.9332   1.9992   2.0144   2.0185   2.0868   2.2554   2.2567   2.2567
     2.2656   2.3034   2.6105   2.6176   2.6387   2.6436   2.9229   2.9294
     3.1083   3.1176   3.1501   3.1737   3.3008   3.3317   3.3533   3.3553
     3.4122   3.4915   3.5115   3.5369   3.5568   3.6010   3.7580   4.0600
     4.0723   4.1196   4.1568   4.1937   4.2557   4.2567   4.2684   4.3391
     4.3908   4.3956   4.4371   4.4482   4.4544   4.4635   4.4864   4.4975
     4.5096   4.5599   4.5652   4.6576   4.7513   4.7820   4.8863   4.9191
     4.9335   4.9726   5.0154   5.0721   5.3510   5.3655   5.4091   5.4232
     5.4374   5.4826   5.4881   5.5068   5.7483   5.7508   5.8360   5.9479
     6.0066   6.0671   6.4600   6.4783   6.5205   6.5550   6.6267   6.6377
     6.9128   6.9540   7.0164   7.0250   7.0455   7.0483   7.0677   7.0803
     7.1861   7.2448   7.2668   7.2683   7.3134   7.3267   7.3619   7.3709
     7.3741   7.4166   7.4368   7.4426   7.4995   7.5055   7.5792   7.6343
     7.7827   7.9080   7.9439   7.9717   8.1566   8.1785   8.2457   8.2585
     8.3169   8.4356   8.4388   8.4412   8.4702   8.4767   8.5041   8.5381
     8.6877   8.6891   8.7025   8.7817   8.8422   8.8454   8.8950   8.9242
     8.9335   8.9519   8.9536   8.9669   8.9939   9.0047   9.0772   9.1595

          k =-0.5000-0.2165 0.0000 (256328 PWs)   bands (ev):

   -17.3333 -16.2489 -16.0366 -15.6757 -15.1443 -14.7575 -13.8679 -13.5190
   -12.8356 -12.5649 -12.3366 -12.1774 -12.0978 -11.9901 -11.4036 -10.8445
   -10.1203  -9.9096  -9.8148  -9.4380  -8.7349  -8.5891  -8.1491  -7.6903
    -6.5409  -6.3179  -6.0537  -5.8639  -5.8337  -5.7518  -5.7396  -5.7170
    -5.7169  -5.5116  -5.2883  -5.2775  -5.0435  -5.0328  -4.8671  -4.8045
    -4.8006  -4.7604  -4.7446  -4.7417  -4.7101  -4.6956  -4.5943  -4.5658
    -4.3703  -4.3405  -4.2258  -4.2077  -4.1133  -4.0824  -3.9676  -3.8817
    -3.8471  -3.7732  -3.7356  -3.6956  -3.4235  -3.3502  -3.2232  -3.1637
    -3.1466  -3.1342  -3.1293  -3.1210  -3.1184  -3.1097  -3.0618  -2.9922
    -2.9822  -2.7550  -2.6573  -2.6435  -2.6341  -2.6339  -2.6077  -2.5887
    -2.5515  -2.5209  -2.3654  -2.3606  -2.3552  -2.3526  -2.3436  -2.2611
    -2.1868  -2.1676  -2.1494  -2.1415  -2.0781  -2.0561  -2.0515  -2.0500
    -2.0486  -2.0413  -2.0218  -2.0088  -2.0045  -2.0007  -1.9975  -1.9945
    -1.9523  -1.9513  -1.9491  -1.9398  -1.9361  -1.9351  -1.9349  -1.9324
    -1.9257  -1.9234  -1.9215  -1.9190  -1.9144  -1.8719  -1.8718  -1.8688
    -1.8670  -1.8275  -1.8191  -1.7996  -1.7975  -1.7933  -1.7518  -1.7503
    -1.7502  -1.7491  -1.7337  -1.7320  -1.7290  -1.7221  -1.7149  -1.6985
    -1.6951  -1.6873  -1.6865  -1.6856  -1.6823  -1.6810  -1.6787  -1.6747
    -1.6712  -1.6245  -1.6218  -1.6189  -1.6097  -1.6087  -1.6059  -1.6047
    -1.6026  -1.5997  -1.5982  -1.5978  -1.5906  -1.5858  -1.5828  -1.5512
    -1.4536  -1.4489  -1.4443  -1.4390  -1.4118  -1.4117  -1.4103  -1.4096
    -1.3649  -1.3516  -1.3415  -1.3376  -1.3366  -1.3295  -1.3267  -1.3246
    -1.3228  -1.3210  -1.3197  -1.3013  -1.2651  -1.2649  -1.2612  -1.2584
    -1.2577  -1.2532  -1.2469  -1.2438  -1.2370  -1.2365  -1.2209  -1.2195
    -1.1743  -1.1522  -1.1377  -1.1374  -1.1272  -1.1187  -1.1092  -1.1046
    -1.0704  -1.0661  -1.0623  -1.0614  -1.0312  -1.0152  -1.0151  -1.0130
    -1.0049  -0.9988  -0.9983  -0.9904  -0.9904  -0.9724  -0.9637  -0.9568
    -0.9567  -0.9528  -0.9507  -0.9505  -0.9140  -0.9139  -0.8995  -0.8851
    -0.8468  -0.8455  -0.8413  -0.8298  -0.8291  -0.8211  -0.8200  -0.8171
    -0.8160  -0.8095  -0.8058  -0.8046  -0.7941  -0.7463  -0.7421  -0.7325
    -0.7234  -0.7229  -0.7222  -0.7175  -0.7160  -0.7148  -0.7141  -0.7121
    -0.7085  -0.6846  -0.6839  -0.6825  -0.6809  -0.6773  -0.6733  -0.6693
    -0.6686  -0.6584  -0.6575  -0.6549  -0.6537  -0.6024  -0.6021  -0.5916
    -0.5897  -0.5797  -0.5777  -0.5633  -0.5619  -0.5326  -0.5289  -0.5188
    -0.5136  -0.5083  -0.5041  -0.4921  -0.4919  -0.4896  -0.4880  -0.4865
    -0.4849  -0.4794  -0.4763  -0.4754  -0.4736  -0.4707  -0.4669  -0.4661
    -0.4639  -0.4624  -0.4622  -0.4607  -0.4581  -0.4536  -0.4506  -0.4459
    -0.4440  -0.4400  -0.4336  -0.4201  -0.4194  -0.4189  -0.4177  -0.4089
    -0.4068  -0.4033  -0.4032  -0.3962  -0.3893  -0.3609  -0.3552  -0.3545
    -0.3536  -0.3419  -0.3282  -0.3233  -0.3187  -0.3182  -0.3139  -0.2513
    -0.2475  -0.2460  -0.2431  -0.2393  -0.2336  -0.2288  -0.2231  -0.2188
    -0.2150  -0.2109  -0.2097  -0.2044  -0.1990  -0.1979  -0.1978  -0.1953
    -0.1876  -0.1866  -0.1838  -0.1811  -0.1803  -0.1763  -0.1499  -0.1282
    -0.1249  -0.1190  -0.1148  -0.1141  -0.1108  -0.1107  -0.1025  -0.1022
    -0.1006  -0.1004  -0.0790  -0.0766  -0.0765  -0.0702  -0.0652  -0.0641
    -0.0608  -0.0594  -0.0418  -0.0377  -0.0369  -0.0278  -0.0237  -0.0173
    -0.0158  -0.0119  -0.0062  -0.0039  -0.0037  -0.0020   0.0065   0.0066
     0.0085   0.0090   0.0110   0.0147   0.0209   0.0257   0.0278   0.0344
     0.0447   0.0489   0.0605   0.0630   0.0698   0.0827   0.0917   0.1010
     0.1065   0.1066   0.1154   0.1168   0.1179   0.1179   0.1209   0.1254
     0.1278   0.1373   0.1533   0.1536   0.1578   0.1591   0.1591   0.1600
     0.1608   0.1659   0.1754   0.1760   0.1948   0.2082   0.2105   0.2183
     0.2233   0.2407   0.2426   0.2443   0.2447   0.2560   0.2743   0.2752
     0.2814   0.2828   0.2958   0.3002   0.3075   0.3120   0.3547   0.3555
     0.3570   0.3581   0.3667   0.3781   0.3834   0.3865   0.3923   0.3957
     0.4079   0.4111   0.4167   0.4278   0.4316   0.4385   0.4395   0.4432
     0.4467   0.4595   0.4624   0.4625   0.4666   0.4715   0.4725   0.4736
     0.4739   0.4754   0.4768   0.4780   0.4821   0.4834   0.4839   0.4905
     0.4908   0.4972   0.4989   0.5067   0.5079   0.5129   0.5213   0.5226
     0.5263   0.5285   0.5385   0.5394   0.5407   0.5453   0.5512   0.5554
     0.5565   0.5647   0.5665   0.5698   0.5735   0.5766   0.6026   0.6090
     0.6094   0.6134   0.6175   0.6213   0.6226   0.6267   0.6356   0.6374
     0.6424   0.6424   0.6515   0.6531   0.6551   0.6748   0.6777   0.6794
     0.6877   0.6913   0.6951   0.6982   0.6990   0.7018   0.7067   0.7089
     0.7116   0.7122   0.7149   0.7160   0.7167   0.7178   0.7501   0.7528
     0.7647   0.7658   0.7660   0.7748   0.7756   0.7758   0.7815   0.7826
     0.7832   0.7832   0.7861   0.7873   0.7927   0.7957   0.8022   0.8040
     0.8086   0.8125   0.8149   0.8160   0.8172   0.8185   0.8185   0.8211
     0.8244   0.8275   0.8284   0.8309   0.8330   0.8368   0.8431   0.8449
     0.8513   0.8518   0.8692   0.8723   0.8811   0.8814   0.8899   0.8901
     0.8922   0.8958   0.9019   0.9064   0.9091   0.9132   0.9151   0.9211
     0.9283   0.9349   0.9513   0.9565   0.9652   0.9806   0.9952   1.0000
     1.0000   1.0030   1.0220   1.0232   1.0289   1.0333   1.0392   1.0396
     1.0426   1.0429   1.0483   1.0484   1.0728   1.0834   1.2556   1.2605
     1.2671   1.2691   1.7126   1.7304   1.7947   1.7964   1.8159   1.9324
     1.9889   1.9995   2.0882   2.1866   2.1929   2.2040   2.2340   2.2742
     2.4868   2.4991   2.5381   2.5943   2.8788   2.8839   2.8858   2.8889
     3.0583   3.0663   3.1083   3.1093   3.3470   3.3663   3.3665   3.3696
     3.4272   3.5972   3.6222   3.6457   3.6538   3.6587   3.7013   3.8096
     3.8539   3.9429   3.9467   3.9636   3.9708   4.0451   4.1131   4.1294
     4.1709   4.3574   4.3822   4.4652   4.5621   4.5651   4.5750   4.5876
     4.6467   4.6506   4.6590   4.6917   4.7084   4.7728   4.7960   4.8120
     4.8398   4.9995   5.1516   5.1567   5.1633   5.1672   5.2670   5.3140
     5.3981   5.4179   5.8012   6.0451   6.1871   6.2492   6.2693   6.2819
     6.4200   6.4503   6.4624   6.5043   6.5232   6.5686   6.5860   6.5952
     6.6163   6.6505   6.7370   6.7516   6.7833   6.7896   6.8005   6.8060
     6.9201   6.9698   7.0135   7.0597   7.2904   7.3181   7.3833   7.4153
     7.4465   7.5394   7.6509   7.6566   7.6887   7.7049   7.8380   7.8790
     8.0583   8.2071   8.2277   8.2407   8.2531   8.2895   8.2968   8.3027
     8.3141   8.3702   8.3783   8.3824   8.3912   8.4480   8.4662   8.4860
     8.5320   8.5666   8.5710   8.5800   8.5905   8.6271   8.7555   8.7721
     8.7857   8.8158   8.9376   8.9924   9.0237   9.0941   9.2312   9.2539

     the Fermi energy is     2.7497 ev

!    total energy              =  -12508.58508462 Ry
     Harris-Foulkes estimate   =  -12508.58508464 Ry
     estimated scf accuracy    <          7.4E-09 Ry

     The total energy is the sum of the following terms:

     one-electron contribution = -109878.37806607 Ry
     hartree contribution      =   56252.02467317 Ry
     xc contribution           =   -4388.20104960 Ry
     ewald contribution        =   45512.06102141 Ry
     Dispersion Correction     =      -2.78481823 Ry
     smearing contrib. (-TS)   =      -3.30684530 Ry

     convergence has been achieved in  42 iterations

     Writing output data file gc.save
 
     init_run     :    164.93s CPU    177.70s WALL (       1 calls)
     electrons    :  19491.89s CPU  20816.76s WALL (       1 calls)

     Called by init_run:
     wfcinit      :    161.29s CPU    172.92s WALL (       1 calls)
     potinit      :      1.52s CPU      1.58s WALL (       1 calls)

     Called by electrons:
     c_bands      :  17511.36s CPU  18689.56s WALL (      42 calls)
     sum_band     :   1570.02s CPU   1655.97s WALL (      42 calls)
     v_of_rho     :      5.41s CPU      6.82s WALL (      43 calls)
     newd         :     14.99s CPU     27.65s WALL (      43 calls)
     mix_rho      :    390.19s CPU    436.52s WALL (      42 calls)

     Called by c_bands:
     init_us_2    :     77.12s CPU     78.40s WALL (     510 calls)
     cegterg      :  17198.76s CPU  18363.82s WALL (     253 calls)

     Called by sum_band:
     sum_band:bec :      4.34s CPU      4.88s WALL (     252 calls)
     addusdens    :     21.48s CPU     32.75s WALL (      42 calls)

     Called by *egterg:
     h_psi        :   6738.14s CPU   7266.57s WALL (    1653 calls)
     s_psi        :   1615.82s CPU   1626.39s WALL (    1653 calls)
     g_psi        :     17.54s CPU     17.56s WALL (    1394 calls)
     cdiaghg      :   4584.69s CPU   4829.50s WALL (    1647 calls)

     Called by h_psi:
     add_vuspsi   :   1619.46s CPU   1631.07s WALL (    1653 calls)

     General routines
     calbec       :   2258.54s CPU   2276.46s WALL (    1905 calls)
     fft          :      5.79s CPU      6.75s WALL (     558 calls)
     ffts         :    170.17s CPU    203.76s WALL (   24357 calls)
     fftw         :   3476.32s CPU   4002.38s WALL ( 1112732 calls)
     davcio       :      0.26s CPU     10.58s WALL (       6 calls)
 
     Parallel routines
     fft_scatter  :   1870.50s CPU   2122.01s WALL ( 1137647 calls)
 
     PWSCF        :     5h27m CPU        5h50m WALL

 
   This run was terminated on:  20:52:14   8Sep2017            

=------------------------------------------------------------------------------=
   JOB DONE.
=------------------------------------------------------------------------------=
