
     Program PWSCF v.5.4.0 starts on 30Dec2016 at 10:41:22 

     This program is part of the open-source Quantum ESPRESSO suite
     for quantum simulation of materials; please cite
         "P. Giannozzi et al., J. Phys.:Condens. Matter 21 395502 (2009);
          URL http://www.quantum-espresso.org", 
     in publications or presentations arising from this work. More details at
     http://www.quantum-espresso.org/quote

     Parallel version (MPI & OpenMP), running on      64 processor cores
     Number of MPI processes:                64
     Threads/MPI process:                     1
     R & G space division:  proc/nbgrp/npool/nimage =      64
     Waiting for input...
     Reading input from standard input
Warning: card &IONS ignored
Warning: card / ignored

     Current dimensions of program PWSCF are:
     Max number of different atomic species (ntypx) = 10
     Max number of k-points (npk) =  40000
     Max angular momentum in pseudopotentials (lmaxx) =  3
     WARNING: atomic wfc #  2 for atom type 4 has zero norm
     WARNING: atomic wfc #  4 for atom type 4 has zero norm
     WARNING: atomic wfc #  5 for atom type 4 has zero norm

     -------------------------------------
     Parameters for Dispersion Correction:
     -------------------------------------
       atom      VdW radius       C_6     

        Cu         2.952        374.666
        C_h        2.744         60.710
        C          2.744         60.710
        O          2.536         24.284

     Subspace diagonalization in iterative solution of the eigenvalue problem:
     one sub-group per band group will be used
     scalapack distributed-memory algorithm (size of sub-group:  5*  5 procs)

 
     Parallelization info
     --------------------
     sticks:   dense  smooth     PW     G-vecs:    dense   smooth      PW
     Min         178     178     47                32032    32032    4341
     Max         179     179     48                32043    32043    4347
     Sum       11433   11433   3039              2050409  2050409  278033
 


     bravais-lattice index     =            0
     lattice parameter (alat)  =      13.9425  a.u.
     unit-cell volume          =   21209.0878 (a.u.)^3
     number of atoms/cell      =          149
     number of atomic types    =            4
     number of electrons       =      1298.00
     number of Kohn-Sham states=          779
     kinetic-energy cutoff     =      80.0000  Ry
     charge density cutoff     =     320.0000  Ry
     convergence threshold     =      1.0E-08
     mixing beta               =       0.7000
     number of iterations used =            8  local-TF  mixing
     Exchange-correlation      =  SLA  PW   PBX  PBC ( 1  4  3  4 0 0)

     celldm(1)=  13.942539  celldm(2)=   0.000000  celldm(3)=   0.000000
     celldm(4)=   0.000000  celldm(5)=   0.000000  celldm(6)=   0.000000

     crystal axes: (cart. coord. in units of alat)
               a(1) = (   1.000000   0.000000   0.000000 )  
               a(2) = (   0.000000   2.309401   0.000000 )  
               a(3) = (   0.000000   0.000000   3.388418 )  

     reciprocal axes: (cart. coord. in units 2 pi/alat)
               b(1) = (  1.000000  0.000000  0.000000 )  
               b(2) = (  0.000000  0.433013  0.000000 )  
               b(3) = (  0.000000  0.000000  0.295123 )  


     PseudoPot. # 1 for Cu read from file:
     /home/549/hxw549/Short/pseudopotentials/Cu.pbe-n-van_ak.UPF
     MD5 check sum: 601f7c30f7467666bec936e0661ce3e1
     Pseudo is Ultrasoft + core correction, Zval = 11.0
     Generated by new atomic code, or converted to UPF format
     Using radial grid of  867 points,  6 beta functions with: 
                l(1) =   0
                l(2) =   0
                l(3) =   1
                l(4) =   1
                l(5) =   2
                l(6) =   2
     Q(r) pseudized with  8 coefficients,  rinner =    1.400   1.400   1.400
                                                       1.400   1.400

     PseudoPot. # 2 for C  read from file:
     /home/549/hxw549/Short/pseudopotentials/C.star1s-pbe-mt_gipaw.UPF
     MD5 check sum: ef0cb3dee31bd9e4ba2a832a2c716264
     Pseudo is Norm-conserving, Zval =  5.0
     Generated by new atomic code, or converted to UPF format
     Using radial grid of 1073 points,  1 beta functions with: 
                l(1) =   0

     PseudoPot. # 3 for C  read from file:
     /home/549/hxw549/Short/pseudopotentials/C.pbe-mt_gipaw.UPF
     MD5 check sum: 5ac2f21f2c440b14befe521540822c15
     Pseudo is Norm-conserving, Zval =  4.0
     Generated by new atomic code, or converted to UPF format
     Using radial grid of 1073 points,  1 beta functions with: 
                l(1) =   0

     PseudoPot. # 4 for O  read from file:
     /home/549/hxw549/Short/pseudopotentials/O.pbe-van_gipaw.UPF
     MD5 check sum: 5ce2a047509d4f331db576c963e74b29
     Pseudo is Ultrasoft, Zval =  6.0
     Generated by new atomic code, or converted to UPF format
     Using radial grid of 1095 points,  4 beta functions with: 
                l(1) =   0
                l(2) =   0
                l(3) =   1
                l(4) =   1
     Q(r) pseudized with 0 coefficients 


     atomic species   valence    mass     pseudopotential
        Cu            11.00    63.54600     Cu( 1.00)
        C_h            5.00    12.01070     C ( 1.00)
        C              4.00    12.01070     C ( 1.00)
        O              6.00    15.99940     O ( 1.00)

     No symmetry found



   Cartesian axes

     site n.     atom                  positions (alat units)
         1           Cu  tau(   1) = (  -0.0000267   0.0003068   0.9983929  )
         2           Cu  tau(   2) = (   0.2500036   0.2312703   0.9983145  )
         3           Cu  tau(   3) = (   0.4999803   0.0002594   0.9983489  )
         4           Cu  tau(   4) = (   0.7499895   0.2312918   0.9983342  )
         5           Cu  tau(   5) = (   0.0000225   0.4620329   0.9981170  )
         6           Cu  tau(   6) = (   0.2500219   0.6928138   0.9977793  )
         7           Cu  tau(   7) = (   0.5000145   0.4620708   0.9980771  )
         8           Cu  tau(   8) = (   0.7500464   0.6928005   0.9977795  )
         9           Cu  tau(   9) = (   0.0000444   0.9236560   0.9976799  )
        10           Cu  tau(  10) = (   0.2500468   1.1544894   0.9979087  )
        11           Cu  tau(  11) = (   0.5000294   0.9236428   0.9976663  )
        12           Cu  tau(  12) = (   0.7500113   1.1544661   0.9979233  )
        13           Cu  tau(  13) = (  -0.0000030   1.3852325   0.9982653  )
        14           Cu  tau(  14) = (   0.2500078   1.6159458   0.9985773  )
        15           Cu  tau(  15) = (   0.5000250   1.3851939   0.9983781  )
        16           Cu  tau(  16) = (   0.7499695   1.6160612   0.9985012  )
        17           Cu  tau(  17) = (   0.0000343   1.8470384   0.9985232  )
        18           Cu  tau(  18) = (   0.2499384   2.0784489   0.9984548  )
        19           Cu  tau(  19) = (   0.4999091   1.8470915   0.9984673  )
        20           Cu  tau(  20) = (   0.7499959   2.0783416   0.9983130  )
        21           Cu  tau(  21) = (   0.0000812   0.2314093   1.2467788  )
        22           Cu  tau(  22) = (   0.2500218   0.0003249   1.2465774  )
        23           Cu  tau(  23) = (   0.5000485   0.2314075   1.2466680  )
        24           Cu  tau(  24) = (   0.7500266   0.0001653   1.2463696  )
        25           Cu  tau(  25) = (   0.0001623   0.6931214   1.2464311  )
        26           Cu  tau(  26) = (   0.2501033   0.4623525   1.2466471  )
        27           Cu  tau(  27) = (   0.5001337   0.6931028   1.2464251  )
        28           Cu  tau(  28) = (   0.7501184   0.4623956   1.2466785  )
        29           Cu  tau(  29) = (   0.0001568   1.1541245   1.2464838  )
        30           Cu  tau(  30) = (   0.2501615   0.9236200   1.2463252  )
        31           Cu  tau(  31) = (   0.5001177   1.1540045   1.2466424  )
        32           Cu  tau(  32) = (   0.7501390   0.9235859   1.2463014  )
        33           Cu  tau(  33) = (   0.0000729   1.6157545   1.2468989  )
        34           Cu  tau(  34) = (   0.2501093   1.3847381   1.2469554  )
        35           Cu  tau(  35) = (   0.5000326   1.6158869   1.2468953  )
        36           Cu  tau(  36) = (   0.7500890   1.3848287   1.2468265  )
        37           Cu  tau(  37) = (   0.0000323   2.0783589   1.2463249  )
        38           Cu  tau(  38) = (   0.2500077   1.8470268   1.2466081  )
        39           Cu  tau(  39) = (   0.4999755   2.0783445   1.2462814  )
        40           Cu  tau(  40) = (   0.7500223   1.8470837   1.2465241  )
        41           Cu  tau(  41) = (   0.0002124  -0.0001420   1.4956913  )
        42           Cu  tau(  42) = (   0.2502432   0.2315683   1.4963144  )
        43           Cu  tau(  43) = (   0.5000580  -0.0001022   1.4955702  )
        44           Cu  tau(  44) = (   0.7501834   0.2311697   1.4957919  )
        45           Cu  tau(  45) = (   0.0003849   0.4627079   1.4963383  )
        46           Cu  tau(  46) = (   0.2503961   0.6934059   1.4964363  )
        47           Cu  tau(  47) = (   0.5002404   0.4626228   1.4962459  )
        48           Cu  tau(  48) = (   0.7504437   0.6934576   1.4964425  )
        49           Cu  tau(  49) = (   0.0004625   0.9237210   1.4966639  )
        50           Cu  tau(  50) = (   0.2503244   1.1534720   1.4969567  )
        51           Cu  tau(  51) = (   0.5003991   0.9233981   1.4968565  )
        52           Cu  tau(  52) = (   0.7504645   1.1536830   1.4965640  )
        53           Cu  tau(  53) = (   0.0003821   1.3842432   1.4966806  )
        54           Cu  tau(  54) = (   0.2501321   1.6156588   1.4962873  )
        55           Cu  tau(  55) = (   0.5002113   1.3843989   1.4963900  )
        56           Cu  tau(  56) = (   0.7502647   1.6157441   1.4960739  )
        57           Cu  tau(  57) = (   0.0001207   1.8471506   1.4957144  )
        58           Cu  tau(  58) = (   0.2500858   2.0782753   1.4956306  )
        59           Cu  tau(  59) = (   0.5001251   1.8473075   1.4957920  )
        60           Cu  tau(  60) = (   0.7501138   2.0783207   1.4955742  )
        61           Cu  tau(  61) = (   0.0006392   0.2308735   1.7441459  )
        62           Cu  tau(  62) = (   0.2504158  -0.0005355   1.7449106  )
        63           Cu  tau(  63) = (   0.5002246   0.2305722   1.7445406  )
        64           Cu  tau(  64) = (   0.7501913  -0.0003931   1.7446966  )
        65           Cu  tau(  65) = (   0.0011818   0.6935460   1.7465189  )
        66           Cu  tau(  66) = (   0.2510178   0.4635280   1.7463239  )
        67           Cu  tau(  67) = (   0.5006724   0.6932120   1.7469307  )
        68           Cu  tau(  68) = (   0.7502789   0.4622959   1.7447587  )
        69           Cu  tau(  69) = (   0.0010896   1.1532691   1.7478853  )
        70           Cu  tau(  70) = (   0.2510233   0.9227073   1.7481025  )
        71           Cu  tau(  71) = (   0.5006627   1.1535677   1.7464536  )
        72           Cu  tau(  72) = (   0.7510601   0.9235893   1.7472115  )
        73           Cu  tau(  73) = (   0.0004758   1.6160976   1.7450473  )
        74           Cu  tau(  74) = (   0.2502121   1.3840137   1.7461821  )
        75           Cu  tau(  75) = (   0.5003724   1.6159583   1.7442703  )
        76           Cu  tau(  76) = (   0.7510145   1.3842499   1.7454633  )
        77           Cu  tau(  77) = (   0.0002451   2.0780251   1.7451646  )
        78           Cu  tau(  78) = (   0.2501320   1.8474404   1.7447821  )
        79           Cu  tau(  79) = (   0.5002731   2.0784000   1.7451917  )
        80           Cu  tau(  80) = (   0.7504684   1.8474054   1.7447238  )
        81           Cu  tau(  81) = (   0.0005767   0.0000026   1.9903772  )
        82           Cu  tau(  82) = (   0.2505076   0.2308079   1.9897657  )
        83           Cu  tau(  83) = (   0.5003407  -0.0001971   1.9920597  )
        84           Cu  tau(  84) = (   0.7508598   0.2304463   1.9896692  )
        85           Cu  tau(  85) = (   0.0007252   0.4619078   1.9888295  )
        86           Cu  tau(  86) = (   0.2543946   0.6925846   1.9984671  )
        87           Cu  tau(  87) = (   0.5014478   0.4595729   1.9915324  )
        88           Cu  tau(  88) = (   0.7494838   0.6919755   1.9922578  )
        89           Cu  tau(  89) = (   0.0022301   0.9213544   1.9947254  )
        90           Cu  tau(  90) = (   0.2515066   1.1535075   1.9951996  )
        91           Cu  tau(  91) = (   0.5019605   0.9245193   1.9950177  )
        92           Cu  tau(  92) = (   0.7515414   1.1546013   1.9935588  )
        93           Cu  tau(  93) = (   0.0013104   1.3858691   1.9926217  )
        94           Cu  tau(  94) = (   0.2503372   1.6166014   1.9901204  )
        95           Cu  tau(  95) = (   0.5006192   1.3858005   1.9901314  )
        96           Cu  tau(  96) = (   0.7509579   1.6160844   1.9897276  )
        97           Cu  tau(  97) = (   0.0002748   1.8473145   1.9921170  )
        98           Cu  tau(  98) = (   0.2505214   2.0779375   1.9914291  )
        99           Cu  tau(  99) = (   0.5006319   1.8466210   1.9902901  )
       100           Cu  tau( 100) = (   0.7502694   2.0782754   1.9912423  )
       101           C   tau( 101) = (  -0.0007583   0.0963134   2.3862891  )
       102           C   tau( 102) = (  -0.0009641   0.2884428   2.3833147  )
       103           C   tau( 103) = (   0.1660055   0.0003785   2.3872135  )
       104           C   tau( 104) = (   0.1654608   0.3840869   2.3791849  )
       105           C   tau( 105) = (   0.3325218   0.0962801   2.3838471  )
       106           C   tau( 106) = (   0.3323993   0.2885900   2.3788628  )
       107           C   tau( 107) = (   0.4993762   0.0002074   2.3846977  )
       108           C   tau( 108) = (   0.4993768   0.3848633   2.3764734  )
       109           C   tau( 109) = (   0.6662368   0.0964118   2.3840959  )
       110           C   tau( 110) = (   0.6662787   0.2886562   2.3798869  )
       111           C   tau( 111) = (   0.8326681   0.0003019   2.3874107  )
       112           C   tau( 112) = (   0.8327915   0.3847794   2.3811008  )
       113           C   tau( 113) = (  -0.0012722   0.6735101   2.3803848  )
       114           C   tau( 114) = (  -0.0009511   0.8666962   2.3764449  )
       115           C   tau( 115) = (   0.1655204   0.5765016   2.3784056  )
       116           C   tau( 116) = (   0.1624509   0.9643662   2.3844256  )
       117           C   tau( 117) = (   0.3316218   0.6703151   2.3800734  )
       118           C   tau( 118) = (   0.3292206   0.8643671   2.4184809  )
       119           C   tau( 119) = (   0.4987612   0.5771637   2.3788923  )
       120           C_h tau( 120) = (   0.5021138   0.9644200   2.4216837  )
       121           O   tau( 121) = (   0.4140165   0.9101453   2.5990232  )
       122           C   tau( 122) = (   0.6663442   0.6742083   2.3806324  )
       123           C   tau( 123) = (   0.6689595   0.8654305   2.3851659  )
       124           C   tau( 124) = (   0.8329766   0.5774622   2.3796904  )
       125           C   tau( 125) = (   0.8321191   0.9628646   2.3782389  )
       126           C   tau( 126) = (  -0.0010921   1.2520160   2.3785180  )
       127           C   tau( 127) = (  -0.0007197   1.4446627   2.3773574  )
       128           C   tau( 128) = (   0.1654289   1.1553812   2.3831881  )
       129           C   tau( 129) = (   0.1661398   1.5408122   2.3809588  )
       130           C   tau( 130) = (   0.3332591   1.2524179   2.3871897  )
       131           C   tau( 131) = (   0.3327347   1.4447081   2.3843921  )
       132           C   tau( 132) = (   0.4999577   1.1596325   2.3913607  )
       133           C   tau( 133) = (   0.4993062   1.5408861   2.3859785  )
       134           C   tau( 134) = (   0.6656079   1.2530081   2.3829609  )
       135           C   tau( 135) = (   0.6659456   1.4454088   2.3819018  )
       136           C   tau( 136) = (   0.8327273   1.1559617   2.3795433  )
       137           C   tau( 137) = (   0.8326004   1.5410745   2.3794124  )
       138           C   tau( 138) = (  -0.0005841   1.8293317   2.3831804  )
       139           C   tau( 139) = (  -0.0006107   2.0215344   2.3872925  )
       140           C   tau( 140) = (   0.1662470   1.7330653   2.3837749  )
       141           C   tau( 141) = (   0.1660003   2.1175423   2.3879995  )
       142           C   tau( 142) = (   0.3327657   1.8291420   2.3882670  )
       143           C   tau( 143) = (   0.3327961   2.0213806   2.3890482  )
       144           C   tau( 144) = (   0.4993270   1.7331699   2.3878917  )
       145           C   tau( 145) = (   0.4993850   2.1173816   2.3892301  )
       146           C   tau( 146) = (   0.6659668   1.8291231   2.3874666  )
       147           C   tau( 147) = (   0.6659485   2.0213555   2.3883541  )
       148           C   tau( 148) = (   0.8325583   1.7332547   2.3830305  )
       149           C   tau( 149) = (   0.8327361   2.1174924   2.3876620  )

     number of k points=     6  gaussian smearing, width (Ry)=  0.1000
                       cart. coord. in units 2pi/alat
        k(    1) = (   0.0000000   0.0000000   0.0000000), wk =   0.2500000
        k(    2) = (   0.0000000  -0.2165064   0.0000000), wk =   0.2500000
        k(    3) = (   0.2500000   0.0000000   0.0000000), wk =   0.5000000
        k(    4) = (   0.2500000  -0.2165064   0.0000000), wk =   0.5000000
        k(    5) = (  -0.5000000   0.0000000   0.0000000), wk =   0.2500000
        k(    6) = (  -0.5000000  -0.2165064   0.0000000), wk =   0.2500000

     Dense  grid:  2050409 G-vectors     FFT dimensions: (  80, 192, 270)

     Largest allocated arrays     est. size (Mb)     dimensions
        Kohn-Sham Wavefunctions        47.59 Mb     (    4004,  779)
        NL pseudopotentials           113.39 Mb     (    4004, 1856)
        Each V/rho on FFT grid          1.17 Mb     (   76800)
        Each G-vector array             0.24 Mb     (   32034)
        G-vector shells                 0.12 Mb     (   15554)
     Largest temporary arrays     est. size (Mb)     dimensions
        Auxiliary wavefunctions       190.38 Mb     (    4004, 3116)
        Each subspace H/S matrix        5.92 Mb     (     623,  623)
        Each <psi_i|beta_j> matrix     22.06 Mb     (    1856,  779)
        Arrays for rho mixing           9.38 Mb     (   76800,    8)

     Initial potential from superposition of free atoms
     Check: negative starting charge=   -0.001800

     starting charge 1272.81751, renormalised to 1298.00000

     negative rho (up, down):  1.836E-03 0.000E+00
     Starting wfc are 1288 randomized atomic wfcs

     total cpu time spent up to now is       94.5 secs

     Self-consistent Calculation

     iteration #  1     ecut=    80.00 Ry     beta=0.70
     Davidson diagonalization with overlap
     c_bands:  1 eigenvalues not converged
     c_bands:  2 eigenvalues not converged
     c_bands:  1 eigenvalues not converged
     c_bands:  3 eigenvalues not converged
     c_bands:  1 eigenvalues not converged
     ethr =  1.00E-04,  avg # of iterations = 35.5

     negative rho (up, down):  2.561E+01 0.000E+00

     total cpu time spent up to now is     1937.7 secs

     total energy              =   -9738.09956434 Ry
     Harris-Foulkes estimate   =  -17298.11138123 Ry
     estimated scf accuracy    <  178771.12097669 Ry

     iteration #  2     ecut=    80.00 Ry     beta=0.70
     Davidson diagonalization with overlap
     ethr =  1.00E-02,  avg # of iterations = 12.0

     negative rho (up, down):  2.999E+01 0.000E+00

     total cpu time spent up to now is     2780.7 secs

     total energy              =  -12267.61219142 Ry
     Harris-Foulkes estimate   =  -13661.26867252 Ry
     estimated scf accuracy    <   23022.31146478 Ry

     iteration #  3     ecut=    80.00 Ry     beta=0.70
     Davidson diagonalization with overlap
     ethr =  1.00E-02,  avg # of iterations =  7.0

     negative rho (up, down):  3.047E+01 0.000E+00

     total cpu time spent up to now is     3276.5 secs

     total energy              =  -12462.10655931 Ry
     Harris-Foulkes estimate   =  -13399.70617412 Ry
     estimated scf accuracy    <    5955.45349154 Ry

     iteration #  4     ecut=    80.00 Ry     beta=0.70
     Davidson diagonalization with overlap
     ethr =  1.00E-02,  avg # of iterations =  5.3

     negative rho (up, down):  2.237E+01 0.000E+00

     total cpu time spent up to now is     3789.8 secs

     total energy              =  -12858.32661276 Ry
     Harris-Foulkes estimate   =  -13094.22442333 Ry
     estimated scf accuracy    <    1862.59230365 Ry

     iteration #  5     ecut=    80.00 Ry     beta=0.70
     Davidson diagonalization with overlap
     ethr =  1.00E-02,  avg # of iterations =  3.2

     negative rho (up, down):  1.686E+01 0.000E+00

     total cpu time spent up to now is     4036.8 secs

     total energy              =  -12861.35629476 Ry
     Harris-Foulkes estimate   =  -12973.40043872 Ry
     estimated scf accuracy    <    1079.75943521 Ry

     iteration #  6     ecut=    80.00 Ry     beta=0.70
     Davidson diagonalization with overlap
     ethr =  1.00E-02,  avg # of iterations =  3.0

     negative rho (up, down):  1.161E+01 0.000E+00

     total cpu time spent up to now is     4224.6 secs

     total energy              =  -12847.78082030 Ry
     Harris-Foulkes estimate   =  -12916.40954989 Ry
     estimated scf accuracy    <     560.63439887 Ry

     iteration #  7     ecut=    80.00 Ry     beta=0.70
     Davidson diagonalization with overlap
     ethr =  1.00E-02,  avg # of iterations =  2.0

     negative rho (up, down):  8.312E+00 0.000E+00

     total cpu time spent up to now is     4390.1 secs

     total energy              =  -12825.88518708 Ry
     Harris-Foulkes estimate   =  -12867.77571028 Ry
     estimated scf accuracy    <     408.95879544 Ry

     iteration #  8     ecut=    80.00 Ry     beta=0.70
     Davidson diagonalization with overlap
     ethr =  1.00E-02,  avg # of iterations =  2.0

     negative rho (up, down):  6.862E+00 0.000E+00

     total cpu time spent up to now is     4551.5 secs

     total energy              =  -12812.56739452 Ry
     Harris-Foulkes estimate   =  -12841.45068612 Ry
     estimated scf accuracy    <     453.57961581 Ry

     iteration #  9     ecut=    80.00 Ry     beta=0.70
     Davidson diagonalization with overlap
     ethr =  1.00E-02,  avg # of iterations =  2.0

     negative rho (up, down):  5.449E+00 0.000E+00

     total cpu time spent up to now is     4712.5 secs

     total energy              =  -12807.30026367 Ry
     Harris-Foulkes estimate   =  -12823.55216174 Ry
     estimated scf accuracy    <     194.23661444 Ry

     iteration # 10     ecut=    80.00 Ry     beta=0.70
     Davidson diagonalization with overlap
     ethr =  1.00E-02,  avg # of iterations =  1.0

     negative rho (up, down):  1.130E+00 0.000E+00

     total cpu time spent up to now is     4860.4 secs

     total energy              =  -12768.73068737 Ry
     Harris-Foulkes estimate   =  -12809.21458615 Ry
     estimated scf accuracy    <     140.15851623 Ry

     iteration # 11     ecut=    80.00 Ry     beta=0.70
     Davidson diagonalization with overlap
     ethr =  1.00E-02,  avg # of iterations =  3.5

     negative rho (up, down):  7.915E-01 0.000E+00

     total cpu time spent up to now is     5038.4 secs

     total energy              =  -12765.13966817 Ry
     Harris-Foulkes estimate   =  -12777.27460524 Ry
     estimated scf accuracy    <     311.14038082 Ry

     iteration # 12     ecut=    80.00 Ry     beta=0.70
     Davidson diagonalization with overlap
     ethr =  1.00E-02,  avg # of iterations =  1.5

     negative rho (up, down):  3.675E-01 0.000E+00

     total cpu time spent up to now is     5193.1 secs

     total energy              =  -12760.78929663 Ry
     Harris-Foulkes estimate   =  -12770.45650776 Ry
     estimated scf accuracy    <      98.88446825 Ry

     iteration # 13     ecut=    80.00 Ry     beta=0.70
     Davidson diagonalization with overlap
     ethr =  7.62E-03,  avg # of iterations =  2.0

     negative rho (up, down):  2.638E+00 0.000E+00

     total cpu time spent up to now is     5352.9 secs

     total energy              =  -12748.71518204 Ry
     Harris-Foulkes estimate   =  -12766.74909011 Ry
     estimated scf accuracy    <     104.18769856 Ry

     iteration # 14     ecut=    80.00 Ry     beta=0.70
     Davidson diagonalization with overlap
     ethr =  7.62E-03,  avg # of iterations =  2.0

     negative rho (up, down):  5.263E+00 0.000E+00

     total cpu time spent up to now is     5514.5 secs

     total energy              =  -12748.48586379 Ry
     Harris-Foulkes estimate   =  -12754.82542804 Ry
     estimated scf accuracy    <      42.82853783 Ry

     iteration # 15     ecut=    80.00 Ry     beta=0.70
     Davidson diagonalization with overlap
     ethr =  3.30E-03,  avg # of iterations =  2.5

     negative rho (up, down):  4.648E+00 0.000E+00

     total cpu time spent up to now is     5680.0 secs

     total energy              =  -12746.77461584 Ry
     Harris-Foulkes estimate   =  -12750.09001083 Ry
     estimated scf accuracy    <      21.87016786 Ry

     iteration # 16     ecut=    80.00 Ry     beta=0.70
     Davidson diagonalization with overlap
     ethr =  1.68E-03,  avg # of iterations =  4.8

     negative rho (up, down):  5.692E+00 0.000E+00

     total cpu time spent up to now is     5874.9 secs

     total energy              =  -12745.46385969 Ry
     Harris-Foulkes estimate   =  -12747.76844056 Ry
     estimated scf accuracy    <      18.05065765 Ry

     iteration # 17     ecut=    80.00 Ry     beta=0.70
     Davidson diagonalization with overlap
     ethr =  1.39E-03,  avg # of iterations =  3.8

     negative rho (up, down):  4.904E+00 0.000E+00

     total cpu time spent up to now is     6057.3 secs

     total energy              =  -12745.22234776 Ry
     Harris-Foulkes estimate   =  -12746.63734307 Ry
     estimated scf accuracy    <      11.33972106 Ry

     iteration # 18     ecut=    80.00 Ry     beta=0.70
     Davidson diagonalization with overlap
     ethr =  8.74E-04,  avg # of iterations =  5.0

     negative rho (up, down):  4.437E+00 0.000E+00

     total cpu time spent up to now is     6253.7 secs

     total energy              =  -12744.37119163 Ry
     Harris-Foulkes estimate   =  -12745.56662356 Ry
     estimated scf accuracy    <       9.59208332 Ry

     iteration # 19     ecut=    80.00 Ry     beta=0.70
     Davidson diagonalization with overlap
     ethr =  7.39E-04,  avg # of iterations =  5.5

     negative rho (up, down):  2.587E+00 0.000E+00

     total cpu time spent up to now is     6460.3 secs

     total energy              =  -12743.20142590 Ry
     Harris-Foulkes estimate   =  -12744.59682210 Ry
     estimated scf accuracy    <       9.17037274 Ry

     iteration # 20     ecut=    80.00 Ry     beta=0.70
     Davidson diagonalization with overlap
     ethr =  7.07E-04,  avg # of iterations =  2.7

     negative rho (up, down):  1.486E+00 0.000E+00

     total cpu time spent up to now is     6629.9 secs

     total energy              =  -12742.24297141 Ry
     Harris-Foulkes estimate   =  -12743.38278796 Ry
     estimated scf accuracy    <       9.52452446 Ry

     iteration # 21     ecut=    80.00 Ry     beta=0.70
     Davidson diagonalization with overlap
     ethr =  7.07E-04,  avg # of iterations =  4.5

     negative rho (up, down):  1.513E+00 0.000E+00

     total cpu time spent up to now is     6819.7 secs

     total energy              =  -12740.96586007 Ry
     Harris-Foulkes estimate   =  -12742.65812222 Ry
     estimated scf accuracy    <       9.47369748 Ry

     iteration # 22     ecut=    80.00 Ry     beta=0.70
     Davidson diagonalization with overlap
     ethr =  7.07E-04,  avg # of iterations =  5.8

     negative rho (up, down):  1.318E+00 0.000E+00

     total cpu time spent up to now is     7026.6 secs

     total energy              =  -12740.66694297 Ry
     Harris-Foulkes estimate   =  -12741.23064852 Ry
     estimated scf accuracy    <       8.70963618 Ry

     iteration # 23     ecut=    80.00 Ry     beta=0.70
     Davidson diagonalization with overlap
     ethr =  6.71E-04,  avg # of iterations =  2.0

     negative rho (up, down):  6.265E-01 0.000E+00

     total cpu time spent up to now is     7187.1 secs

     total energy              =  -12739.44281568 Ry
     Harris-Foulkes estimate   =  -12740.76224549 Ry
     estimated scf accuracy    <       4.88021033 Ry

     iteration # 24     ecut=    80.00 Ry     beta=0.70
     Davidson diagonalization with overlap
     ethr =  3.76E-04,  avg # of iterations =  9.2

     negative rho (up, down):  6.111E-01 0.000E+00

     total cpu time spent up to now is     7433.0 secs

     total energy              =  -12739.14395510 Ry
     Harris-Foulkes estimate   =  -12739.53927876 Ry
     estimated scf accuracy    <       3.50557032 Ry

     iteration # 25     ecut=    80.00 Ry     beta=0.70
     Davidson diagonalization with overlap
     ethr =  2.70E-04,  avg # of iterations =  2.2

     negative rho (up, down):  8.932E-01 0.000E+00

     total cpu time spent up to now is     7595.3 secs

     total energy              =  -12738.85423174 Ry
     Harris-Foulkes estimate   =  -12739.24557308 Ry
     estimated scf accuracy    <       1.76417574 Ry

     iteration # 26     ecut=    80.00 Ry     beta=0.70
     Davidson diagonalization with overlap
     ethr =  1.36E-04,  avg # of iterations =  8.7

     negative rho (up, down):  9.266E-01 0.000E+00

     total cpu time spent up to now is     7846.0 secs

     total energy              =  -12738.78802792 Ry
     Harris-Foulkes estimate   =  -12738.91519486 Ry
     estimated scf accuracy    <       0.95230905 Ry

     iteration # 27     ecut=    80.00 Ry     beta=0.70
     Davidson diagonalization with overlap
     ethr =  7.34E-05,  avg # of iterations =  6.7

     negative rho (up, down):  6.589E-01 0.000E+00

     total cpu time spent up to now is     8069.2 secs

     total energy              =  -12738.71095962 Ry
     Harris-Foulkes estimate   =  -12738.82451125 Ry
     estimated scf accuracy    <       0.41737026 Ry

     iteration # 28     ecut=    80.00 Ry     beta=0.70
     Davidson diagonalization with overlap
     ethr =  3.22E-05,  avg # of iterations =  7.5

     negative rho (up, down):  2.248E-01 0.000E+00

     total cpu time spent up to now is     8322.9 secs

     total energy              =  -12738.70307615 Ry
     Harris-Foulkes estimate   =  -12738.74588511 Ry
     estimated scf accuracy    <       0.21355295 Ry

     iteration # 29     ecut=    80.00 Ry     beta=0.70
     Davidson diagonalization with overlap
     c_bands:  3 eigenvalues not converged
     ethr =  1.65E-05,  avg # of iterations = 16.7

     negative rho (up, down):  1.454E-01 0.000E+00

     total cpu time spent up to now is     8679.4 secs

     total energy              =  -12738.70619586 Ry
     Harris-Foulkes estimate   =  -12738.72633235 Ry
     estimated scf accuracy    <       0.14121657 Ry

     iteration # 30     ecut=    80.00 Ry     beta=0.70
     Davidson diagonalization with overlap
     c_bands:  1 eigenvalues not converged
     ethr =  1.09E-05,  avg # of iterations =  9.5

     negative rho (up, down):  1.876E-01 0.000E+00

     total cpu time spent up to now is     8938.1 secs

     total energy              =  -12738.71663474 Ry
     Harris-Foulkes estimate   =  -12738.71467945 Ry
     estimated scf accuracy    <       0.02976999 Ry

     iteration # 31     ecut=    80.00 Ry     beta=0.70
     Davidson diagonalization with overlap
     ethr =  2.29E-06,  avg # of iterations =  9.5

     negative rho (up, down):  6.810E-02 0.000E+00

     total cpu time spent up to now is     9233.6 secs

     total energy              =  -12738.71459234 Ry
     Harris-Foulkes estimate   =  -12738.72110024 Ry
     estimated scf accuracy    <       0.01684250 Ry

     iteration # 32     ecut=    80.00 Ry     beta=0.70
     Davidson diagonalization with overlap
     c_bands:  2 eigenvalues not converged
     ethr =  1.30E-06,  avg # of iterations = 17.2

     negative rho (up, down):  6.046E-02 0.000E+00

     total cpu time spent up to now is     9611.4 secs

     total energy              =  -12738.71590025 Ry
     Harris-Foulkes estimate   =  -12738.71636109 Ry
     estimated scf accuracy    <       0.00429617 Ry

     iteration # 33     ecut=    80.00 Ry     beta=0.70
     Davidson diagonalization with overlap
     c_bands:  1 eigenvalues not converged
     ethr =  3.31E-07,  avg # of iterations =  9.8

     negative rho (up, down):  5.706E-02 0.000E+00

     total cpu time spent up to now is     9875.5 secs

     total energy              =  -12738.71611825 Ry
     Harris-Foulkes estimate   =  -12738.71619237 Ry
     estimated scf accuracy    <       0.00142610 Ry

     iteration # 34     ecut=    80.00 Ry     beta=0.70
     Davidson diagonalization with overlap
     ethr =  1.10E-07,  avg # of iterations =  4.7

     negative rho (up, down):  3.734E-02 0.000E+00

     total cpu time spent up to now is    10074.7 secs

     total energy              =  -12738.71571725 Ry
     Harris-Foulkes estimate   =  -12738.71620217 Ry
     estimated scf accuracy    <       0.00070289 Ry

     iteration # 35     ecut=    80.00 Ry     beta=0.70
     Davidson diagonalization with overlap
     c_bands:  1 eigenvalues not converged
     ethr =  5.42E-08,  avg # of iterations = 10.3

     negative rho (up, down):  1.724E-02 0.000E+00

     total cpu time spent up to now is    10345.2 secs

     total energy              =  -12738.71520900 Ry
     Harris-Foulkes estimate   =  -12738.71576208 Ry
     estimated scf accuracy    <       0.00046509 Ry

     iteration # 36     ecut=    80.00 Ry     beta=0.70
     Davidson diagonalization with overlap
     c_bands:  1 eigenvalues not converged
     c_bands:  1 eigenvalues not converged
     ethr =  3.58E-08,  avg # of iterations = 14.2

     negative rho (up, down):  8.936E-03 0.000E+00

     total cpu time spent up to now is    10680.8 secs

     total energy              =  -12738.71509549 Ry
     Harris-Foulkes estimate   =  -12738.71524586 Ry
     estimated scf accuracy    <       0.00008780 Ry

     iteration # 37     ecut=    80.00 Ry     beta=0.70
     Davidson diagonalization with overlap
     ethr =  6.76E-09,  avg # of iterations =  5.7

     negative rho (up, down):  4.592E-03 0.000E+00

     total cpu time spent up to now is    10899.7 secs

     total energy              =  -12738.71504064 Ry
     Harris-Foulkes estimate   =  -12738.71510539 Ry
     estimated scf accuracy    <       0.00003271 Ry

     iteration # 38     ecut=    80.00 Ry     beta=0.70
     Davidson diagonalization with overlap
     c_bands:  1 eigenvalues not converged
     ethr =  2.52E-09,  avg # of iterations =  7.3

     negative rho (up, down):  2.358E-03 0.000E+00

     total cpu time spent up to now is    11139.0 secs

     total energy              =  -12738.71502615 Ry
     Harris-Foulkes estimate   =  -12738.71504442 Ry
     estimated scf accuracy    <       0.00000613 Ry

     iteration # 39     ecut=    80.00 Ry     beta=0.70
     Davidson diagonalization with overlap
     c_bands:  2 eigenvalues not converged
     c_bands:  1 eigenvalues not converged
     ethr =  4.72E-10,  avg # of iterations = 10.3

     negative rho (up, down):  2.207E-03 0.000E+00

     total cpu time spent up to now is    11427.4 secs

     total energy              =  -12738.71502688 Ry
     Harris-Foulkes estimate   =  -12738.71502697 Ry
     estimated scf accuracy    <       0.00000180 Ry

     iteration # 40     ecut=    80.00 Ry     beta=0.70
     Davidson diagonalization with overlap
     ethr =  1.39E-10,  avg # of iterations =  3.7

     negative rho (up, down):  2.060E-03 0.000E+00

     total cpu time spent up to now is    11622.5 secs

     total energy              =  -12738.71502688 Ry
     Harris-Foulkes estimate   =  -12738.71502711 Ry
     estimated scf accuracy    <       0.00000040 Ry

     iteration # 41     ecut=    80.00 Ry     beta=0.70
     Davidson diagonalization with overlap
     ethr =  3.11E-11,  avg # of iterations =  3.0

     negative rho (up, down):  2.084E-03 0.000E+00

     total cpu time spent up to now is    11808.9 secs

     total energy              =  -12738.71502685 Ry
     Harris-Foulkes estimate   =  -12738.71502693 Ry
     estimated scf accuracy    <       0.00000016 Ry

     iteration # 42     ecut=    80.00 Ry     beta=0.70
     Davidson diagonalization with overlap
     ethr =  1.22E-11,  avg # of iterations =  2.8

     negative rho (up, down):  2.118E-03 0.000E+00

     total cpu time spent up to now is    11983.4 secs

     total energy              =  -12738.71502678 Ry
     Harris-Foulkes estimate   =  -12738.71502686 Ry
     estimated scf accuracy    <       0.00000005 Ry

     iteration # 43     ecut=    80.00 Ry     beta=0.70
     Davidson diagonalization with overlap
     ethr =  4.07E-12,  avg # of iterations =  3.0

     negative rho (up, down):  2.091E-03 0.000E+00

     total cpu time spent up to now is    12172.3 secs

     total energy              =  -12738.71502681 Ry
     Harris-Foulkes estimate   =  -12738.71502679 Ry
     estimated scf accuracy    <       0.00000001 Ry

     iteration # 44     ecut=    80.00 Ry     beta=0.70
     Davidson diagonalization with overlap
     ethr =  8.33E-13,  avg # of iterations =  3.0

     negative rho (up, down):  2.083E-03 0.000E+00

     total cpu time spent up to now is    12380.6 secs

     End of self-consistent calculation

          k = 0.0000 0.0000 0.0000 (256287 PWs)   bands (ev):

   -20.8532 -16.4121 -16.1395 -16.0095 -15.2315 -15.0252 -14.8273 -14.4169
   -14.2822 -14.1758 -14.1476 -13.9869 -13.4334 -13.3007 -13.1585 -13.1099
   -13.0971 -12.9190 -11.6960 -11.5687 -11.4163 -11.3840 -11.2155 -10.4302
    -9.8644  -9.7253  -9.6376  -9.5525  -9.0385  -8.8908  -8.7142  -8.6279
    -8.1809  -7.9977  -7.8571  -7.6977  -7.6270  -7.5901  -7.5522  -7.5451
    -6.5625  -6.4751  -6.2572  -6.0668  -6.0483  -5.9779  -5.9250  -5.8993
    -5.8738  -5.5181  -5.5146  -5.3514  -5.0878  -4.9292  -4.8615  -4.7417
    -4.6651  -4.6115  -4.5434  -4.3994  -4.1768  -4.1399  -4.0351  -4.0178
    -4.0157  -3.9428  -3.7193  -3.5880  -3.5644  -3.4878  -3.4384  -3.4342
    -3.4336  -3.3714  -3.2628  -3.2123  -3.1907  -3.0617  -3.0487  -3.0374
    -3.0347  -3.0319  -3.0152  -2.8937  -2.8603  -2.8381  -2.8085  -2.7669
    -2.7633  -2.7402  -2.7272  -2.6590  -2.5750  -2.4170  -2.4159  -2.3714
    -2.3682  -2.2894  -2.2739  -2.2230  -2.2204  -2.1923  -2.1810  -2.1807
    -2.1806  -2.1800  -2.1177  -2.1090  -2.0642  -2.0520  -2.0505  -2.0486
    -2.0480  -1.9865  -1.8928  -1.8701  -1.8137  -1.8052  -1.7687  -1.7668
    -1.7639  -1.7631  -1.7139  -1.7020  -1.6980  -1.6874  -1.6838  -1.6282
    -1.6241  -1.6069  -1.5958  -1.5921  -1.5912  -1.5854  -1.5627  -1.5594
    -1.5442  -1.5433  -1.5411  -1.4978  -1.4650  -1.4576  -1.4448  -1.4316
    -1.4111  -1.3883  -1.3815  -1.3688  -1.3405  -1.3275  -1.2925  -1.2912
    -1.2795  -1.2407  -1.2394  -1.2205  -1.2182  -1.1986  -1.1955  -1.1925
    -1.1699  -1.1437  -1.1388  -1.0900  -1.0788  -1.0739  -1.0702  -1.0608
    -1.0520  -1.0514  -1.0499  -1.0498  -1.0457  -1.0454  -1.0409  -1.0341
    -1.0272  -1.0216  -1.0035  -0.9808  -0.9671  -0.9624  -0.9547  -0.9486
    -0.9478  -0.9455  -0.9157  -0.8881  -0.8875  -0.8853  -0.8843  -0.8833
    -0.8827  -0.8826  -0.8811  -0.8793  -0.8780  -0.8768  -0.8766  -0.8734
    -0.8721  -0.8706  -0.8703  -0.8566  -0.8553  -0.8318  -0.8146  -0.7194
    -0.7180  -0.7158  -0.7121  -0.7114  -0.6908  -0.6883  -0.6710  -0.6704
    -0.6519  -0.6486  -0.6433  -0.6364  -0.6297  -0.6285  -0.6168  -0.5973
    -0.5933  -0.5901  -0.5892  -0.5835  -0.5823  -0.5770  -0.5714  -0.5708
    -0.5221  -0.5205  -0.4673  -0.4671  -0.4575  -0.4563  -0.4539  -0.4532
    -0.4402  -0.4383  -0.4345  -0.4332  -0.4326  -0.4321  -0.4293  -0.4287
    -0.4186  -0.4137  -0.4136  -0.4062  -0.4033  -0.3896  -0.3801  -0.3796
    -0.3297  -0.3272  -0.3260  -0.3198  -0.3197  -0.2940  -0.2939  -0.2918
    -0.2914  -0.2850  -0.2762  -0.2744  -0.2711  -0.2709  -0.2581  -0.2494
    -0.2475  -0.2463  -0.2447  -0.2435  -0.2422  -0.2403  -0.2390  -0.2387
    -0.2308  -0.2189  -0.2188  -0.2166  -0.2154  -0.1957  -0.1568  -0.1498
    -0.1473  -0.1471  -0.1441  -0.1421  -0.1069  -0.1011  -0.0968  -0.0962
    -0.0950  -0.0914  -0.0908  -0.0900  -0.0894  -0.0862  -0.0763  -0.0736
    -0.0412  -0.0389  -0.0372  -0.0342  -0.0280  -0.0169  -0.0096  -0.0077
    -0.0051  -0.0042   0.0031   0.0066   0.0169   0.0178   0.0179   0.0185
     0.0218   0.0252   0.0343   0.0350   0.0356   0.0358   0.0396   0.0465
     0.0533   0.0614   0.0738   0.0768   0.1055   0.1074   0.1235   0.1363
     0.1390   0.1506   0.1608   0.1701   0.1905   0.2065   0.2077   0.2084
     0.2140   0.2147   0.2173   0.2422   0.2430   0.2447   0.2462   0.2514
     0.2533   0.2573   0.2597   0.2987   0.3125   0.3130   0.3198   0.3211
     0.3229   0.3249   0.3486   0.3531   0.3547   0.3556   0.3564   0.3771
     0.3886   0.3922   0.3938   0.4053   0.4077   0.4122   0.4131   0.4149
     0.4391   0.4529   0.4589   0.4658   0.4675   0.4711   0.4712   0.4731
     0.4812   0.4941   0.5013   0.5016   0.5051   0.5062   0.5070   0.5091
     0.5109   0.5133   0.5161   0.5206   0.5270   0.5276   0.5284   0.5338
     0.5377   0.5397   0.5673   0.5774   0.5777   0.5813   0.5917   0.6190
     0.6192   0.6211   0.6224   0.6254   0.6258   0.6264   0.6269   0.6287
     0.6392   0.6454   0.6490   0.6514   0.6523   0.6530   0.6593   0.6594
     0.6691   0.6721   0.6803   0.6922   0.6932   0.6946   0.6989   0.7050
     0.7064   0.7140   0.7189   0.7207   0.7207   0.7243   0.7266   0.7278
     0.7301   0.7389   0.7420   0.7631   0.7774   0.7781   0.7891   0.7921
     0.7940   0.7946   0.7958   0.7970   0.8243   0.8274   0.8362   0.8423
     0.8459   0.8480   0.8485   0.8619   0.8623   0.8714   0.8724   0.8737
     0.8745   0.8800   0.8926   0.9088   0.9104   0.9127   0.9132   0.9139
     0.9152   0.9317   0.9388   0.9484   0.9525   0.9573   0.9580   0.9691
     0.9808   0.9834   0.9838   0.9843   0.9849   0.9857   0.9891   0.9938
     0.9969   0.9994   1.0001   1.0006   1.0016   1.0162   1.0165   1.0284
     1.0333   1.0356   1.0366   1.0397   1.0459   1.0505   1.0736   1.0765
     1.0767   1.0833   1.0835   1.0852   1.0859   1.0898   1.0916   1.0919
     1.0926   1.0929   1.0944   1.1031   1.1076   1.1086   1.1277   1.1478
     1.1571   1.1585   1.1717   1.1729   1.1749   1.1758   1.1778   1.1804
     1.1825   1.1932   1.1985   1.2086   1.2091   1.2112   1.2120   1.2131
     1.2155   1.2159   1.2190   1.2266   1.2387   1.2442   1.2452   1.2460
     1.2473   1.2494   1.2502   1.2509   1.2521   1.2654   1.2661   1.2669
     1.2722   1.2793   1.2823   1.2823   1.2834   1.2840   1.2917   1.2939
     1.2982   1.3036   1.3165   1.3261   1.3262   1.3275   1.3285   1.3318
     1.3352   1.3478   1.3547   1.3595   1.3597   1.3637   1.3663   1.3756
     1.3857   1.3878   1.3902   1.3950   1.3956   1.4046   1.4062   1.4065
     1.4070   1.4074   1.4081   1.4088   1.4107   1.4199   1.4215   1.4221
     1.4313   1.4383   1.4388   1.4395   1.4402   1.4420   1.4521   1.4550
     1.4646   1.4861   1.4869   1.4929   1.5224   1.5287   1.5324   1.5352
     1.5419   1.5518   1.5536   1.5562   1.5580   1.5633   1.5778   1.6006
     1.6055   1.6061   1.6066   1.6088   1.6149   1.6158   1.6164   1.8682
     1.9281   2.0684   2.0861   2.1129   2.1407   2.1590   2.1791   2.1796
     2.1802   2.1888   2.1980   2.2005   2.2088   2.3216   2.3801   2.3961
     2.4428   2.4466   2.4472   2.4497   2.4575   2.5028   2.6976   2.6982
     2.7046   2.7128   2.9801   3.0096   3.1662   3.2708   3.5007   3.5077
     3.7696   3.7963   3.8174   3.8284   3.8306   3.8350   3.8842   3.9184
     3.9443   3.9786   3.9811   3.9811   3.9853   3.9861   3.9913   3.9997
     4.0842   4.2295   4.2372   4.2395   4.2782   4.4134   4.5748   4.7385
     4.8678   4.8894   5.0002   5.2721   5.3833   5.3901   5.4213   5.5753
     5.7020   5.7110   5.7125   5.7427   5.9056   5.9263   6.2864   6.3434
     6.3561   6.3841   6.4217   6.4617   6.4645   6.4806   6.4966   6.5784
     6.5884   6.6773   6.7027   6.7592   6.7711   6.7983   6.8197   6.9583
     7.0226   7.0271   7.0546   7.0744   7.0782   7.3143   7.3328   7.4157
     7.5520   7.5591   7.6736   7.6766   7.6829   7.6855   7.6992   8.0208
     8.1165   8.1336   8.1939   8.2335   8.2442   8.3077   8.3096   8.3110
     8.3196   8.3359   8.3806   8.3881   8.4004   8.4208   8.5288   8.5380
     8.5478   8.6409   8.6496   8.6521   8.6577   8.8006   8.8152   8.8175
     8.8235   8.8425   8.8454   8.9106   9.0552   9.0926   9.1030   9.1092
     9.1219   9.1310   9.2512   9.2687   9.3132   9.3233   9.3287   9.4657
     9.5511   9.5543   9.5814   9.6840   9.7295   9.7748   9.8016   9.8204
    10.0154  10.0162  10.1246

          k = 0.0000-0.2165 0.0000 (256176 PWs)   bands (ev):

   -20.8532 -16.3627 -16.2933 -15.7305 -15.5861 -15.0014 -14.4570 -14.3720
   -14.3478 -14.2612 -14.0936 -13.8664 -13.7495 -13.7099 -13.5133 -12.6056
   -12.4590 -12.3352 -12.2469 -12.1302 -12.0876 -10.7329 -10.6019 -10.4692
   -10.4040  -9.5442  -9.4759  -9.3446  -9.1444  -9.0252  -8.9864  -8.4666
    -8.3745  -8.2528  -8.1888  -7.6335  -7.4700  -7.1164  -7.0089  -6.9618
    -6.9333  -6.8728  -6.8678  -6.2587  -6.1611  -5.9143  -5.9133  -5.7301
    -5.5940  -5.3142  -5.1957  -5.1734  -5.0132  -4.9613  -4.9145  -4.8681
    -4.8584  -4.7567  -4.6532  -4.6395  -4.4973  -4.4049  -4.1024  -4.0350
    -3.9064  -3.7579  -3.6341  -3.5877  -3.3646  -3.3377  -3.3328  -3.3318
    -3.3228  -3.2706  -3.2052  -3.1120  -3.0968  -3.0835  -3.0621  -3.0570
    -2.9874  -2.9152  -2.8998  -2.8809  -2.8533  -2.8160  -2.7817  -2.7496
    -2.6399  -2.6240  -2.6172  -2.6096  -2.6068  -2.6066  -2.6056  -2.5552
    -2.5304  -2.3849  -2.3669  -2.2820  -2.2796  -2.2713  -2.2691  -2.1963
    -2.1823  -2.1755  -2.1738  -2.1452  -2.1364  -2.0266  -2.0155  -2.0153
    -1.9897  -1.9895  -1.9386  -1.8909  -1.8890  -1.8263  -1.8182  -1.7965
    -1.7955  -1.7795  -1.7779  -1.7698  -1.7696  -1.7529  -1.7496  -1.7204
    -1.6881  -1.6758  -1.6721  -1.6161  -1.5999  -1.5806  -1.5001  -1.4966
    -1.4897  -1.4891  -1.4247  -1.4111  -1.4069  -1.4000  -1.3989  -1.3620
    -1.3460  -1.3445  -1.3118  -1.3069  -1.3040  -1.3031  -1.3025  -1.2987
    -1.2909  -1.2717  -1.2612  -1.2549  -1.2535  -1.2519  -1.2435  -1.2379
    -1.2057  -1.1792  -1.1735  -1.1631  -1.1628  -1.1205  -1.1170  -1.1161
    -1.0794  -1.0790  -1.0761  -1.0758  -1.0360  -1.0341  -1.0144  -1.0136
    -1.0115  -1.0086  -1.0077  -1.0064  -0.9578  -0.9560  -0.9510  -0.9479
    -0.9468  -0.9400  -0.9385  -0.9245  -0.9238  -0.9228  -0.9056  -0.8589
    -0.8555  -0.8484  -0.8479  -0.8471  -0.8400  -0.8292  -0.8255  -0.8244
    -0.8196  -0.8083  -0.8013  -0.7840  -0.7831  -0.7780  -0.7701  -0.6861
    -0.6860  -0.6804  -0.6795  -0.6619  -0.6616  -0.6422  -0.6352  -0.6339
    -0.6335  -0.6297  -0.6296  -0.6192  -0.6060  -0.6031  -0.5717  -0.5712
    -0.5700  -0.5693  -0.5676  -0.5667  -0.5640  -0.5625  -0.5334  -0.5326
    -0.5315  -0.5136  -0.5123  -0.5123  -0.5002  -0.4774  -0.4768  -0.4756
    -0.4743  -0.4673  -0.4659  -0.4617  -0.4606  -0.4540  -0.4347  -0.3896
    -0.3894  -0.3823  -0.3820  -0.3594  -0.3561  -0.3529  -0.3318  -0.3313
    -0.3257  -0.3252  -0.3232  -0.3227  -0.3020  -0.2996  -0.2966  -0.2953
    -0.2946  -0.2851  -0.2818  -0.2784  -0.2776  -0.2739  -0.2736  -0.2722
    -0.2718  -0.2648  -0.2605  -0.2585  -0.2354  -0.2352  -0.2325  -0.2323
    -0.2015  -0.1798  -0.1694  -0.1684  -0.1679  -0.1669  -0.1610  -0.1599
    -0.1555  -0.1548  -0.1459  -0.1390  -0.1288  -0.1207  -0.1170  -0.1156
    -0.1129  -0.1071  -0.1066  -0.1038  -0.1035  -0.1026  -0.1012  -0.0861
    -0.0529  -0.0463  -0.0451  -0.0443  -0.0437  -0.0297  -0.0239  -0.0230
    -0.0220  -0.0201  -0.0143  -0.0090  -0.0008  -0.0007   0.0023   0.0054
     0.0168   0.0295   0.0312   0.0461   0.0471   0.0471   0.0486   0.0582
     0.0664   0.0737   0.0820   0.0827   0.0921   0.0939   0.1044   0.1060
     0.1069   0.1077   0.1484   0.1487   0.1565   0.1576   0.1655   0.1708
     0.1727   0.1736   0.1942   0.1992   0.2014   0.2311   0.2360   0.2384
     0.2460   0.2664   0.2776   0.3190   0.3531   0.3546   0.3552   0.3558
     0.3626   0.3651   0.3812   0.3830   0.3839   0.3853   0.4135   0.4194
     0.4219   0.4237   0.4243   0.4270   0.4291   0.4299   0.4333   0.4387
     0.4459   0.4466   0.4485   0.4505   0.4529   0.4553   0.4570   0.4601
     0.4696   0.4865   0.4879   0.4981   0.4990   0.4996   0.5003   0.5081
     0.5081   0.5124   0.5272   0.5273   0.5298   0.5304   0.5306   0.5311
     0.5329   0.5356   0.5497   0.5513   0.5518   0.5548   0.5560   0.5574
     0.5589   0.5593   0.5678   0.5718   0.5770   0.6164   0.6184   0.6285
     0.6286   0.6370   0.6382   0.6391   0.6413   0.6447   0.6467   0.6509
     0.6526   0.6546   0.6547   0.6550   0.6579   0.6939   0.6954   0.6966
     0.6971   0.7033   0.7135   0.7140   0.7141   0.7153   0.7190   0.7300
     0.7340   0.7458   0.7461   0.7490   0.7542   0.7547   0.7557   0.8058
     0.8062   0.8548   0.8595   0.8607   0.8633   0.8650   0.8654   0.8726
     0.8759   0.8810   0.8817   0.8878   0.8889   0.8901   0.8949   0.8964
     0.8978   0.9026   0.9085   0.9119   0.9133   0.9142   0.9149   0.9209
     0.9281   0.9334   0.9384   0.9386   0.9387   0.9400   0.9408   0.9426
     0.9460   0.9520   0.9544   0.9613   0.9614   0.9633   0.9655   0.9658
     0.9673   0.9819   0.9832   0.9875   0.9964   0.9977   0.9997   1.0021
     1.0033   1.0096   1.0102   1.0103   1.0109   1.0119   1.0135   1.0537
     1.0620   1.0867   1.0987   1.0996   1.1011   1.1140   1.1192   1.1206
     1.1226   1.1235   1.1376   1.1414   1.1423   1.1531   1.1585   1.1604
     1.1640   1.1658   1.1663   1.1702   1.1718   1.1726   1.1730   1.1733
     1.1742   1.1749   1.1766   1.1814   1.1824   1.1904   1.1988   1.2013
     1.2043   1.2054   1.2067   1.2102   1.2133   1.2354   1.2402   1.2407
     1.2439   1.2474   1.2489   1.2492   1.2509   1.2635   1.2698   1.2706
     1.2721   1.2816   1.2830   1.2832   1.2855   1.2860   1.2882   1.3005
     1.3041   1.3046   1.3051   1.3211   1.3217   1.3245   1.3261   1.3438
     1.3455   1.3506   1.3509   1.3518   1.3534   1.3647   1.3667   1.3671
     1.3679   1.3829   1.3842   1.3951   1.3980   1.3982   1.3987   1.4163
     1.4173   1.4197   1.4200   1.4223   1.4225   1.4232   1.4235   1.4396
     1.4503   1.4515   1.4596   1.4599   1.4658   1.4714   1.4819   1.4901
     1.4913   1.4918   1.4933   1.4974   1.5039   1.5099   1.5155   1.5354
     1.5613   1.5616   1.5628   1.5845   1.6661   1.6680   1.6933   1.6956
     1.7029   1.7040   1.7180   1.7454   1.7604   1.7626   1.7637   1.7706
     1.7858   1.7868   1.7889   1.8226   1.8244   1.8263   2.0697   2.0960
     2.3456   2.3875   2.3956   2.3970   2.3989   2.4676   2.4705   2.5354
     2.5414   2.5431   2.5467   2.5545   2.5625   2.6790   2.6832   2.7352
     2.7447   2.7540   2.7590   2.8944   2.8960   3.1154   3.1420   3.1421
     3.1760   3.2402   3.4037   3.4231   3.6433   3.6514   3.9043   3.9413
     4.0455   4.0538   4.0914   4.0999   4.1925   4.3035   4.3061   4.3088
     4.3119   4.4725   4.4845   4.6685   4.6878   4.7428   4.7682   4.8333
     5.0355   5.0709   5.0751   5.1359   5.3296   5.3331   5.3345   5.3370
     5.4005   5.4081   5.6390   5.6426   5.7314   5.7856   5.8053   6.2906
     6.3926   6.4009   6.4255   6.4309   6.4358   6.4591   6.5342   6.5745
     6.6413   6.6472   6.8026   6.8074   6.9680   6.9999   7.0134   7.0475
     7.0511   7.0621   7.0879   7.1055   7.1143   7.1175   7.2474   7.3249
     7.3464   7.3892   7.4187   7.4490   7.5520   7.7040   7.7510   7.7536
     7.8605   8.0940   8.1203   8.1285   8.3048   8.3323   8.3367   8.4304
     8.4393   8.4450   8.4531   8.4571   8.4667   8.5276   8.6836   8.6867
     8.6903   8.7009   8.7340   8.7395   8.7492   8.8009   8.8508   8.9306
     8.9481   8.9861   9.0018   9.1232   9.1354   9.1775   9.2231   9.2800
     9.3511   9.3551   9.3635   9.3673   9.3713   9.3894   9.4556   9.4742
     9.4855   9.4916   9.4993   9.5101   9.5608   9.6553   9.6596   9.7596
     9.7611   9.8318   9.8618

          k = 0.2500 0.0000 0.0000 (256240 PWs)   bands (ev):

   -20.8522 -16.3188 -16.0317 -15.9391 -15.4195 -15.1176 -15.0218 -14.9173
   -14.7439 -14.1176 -13.9551 -13.5269 -13.2434 -13.1616 -13.0736 -13.0224
   -12.3534 -12.2490 -12.1150 -12.0435 -11.2678 -11.0790 -10.7961 -10.7046
   -10.3600 -10.2830  -9.9791  -9.9267  -9.5563  -9.2956  -9.1937  -8.7278
    -8.1219  -7.9060  -7.8503  -7.6008  -7.5719  -7.4829  -7.1451  -7.1040
    -6.4144  -6.3347  -6.1168  -6.0127  -5.9608  -5.8691  -5.5646  -5.4623
    -5.3461  -5.3410  -5.2868  -5.0025  -4.9056  -4.7680  -4.5996  -4.5518
    -4.5083  -4.4917  -4.4552  -4.4344  -4.3604  -4.1954  -4.0403  -4.0314
    -4.0292  -3.9953  -3.9307  -3.8754  -3.8699  -3.8543  -3.6827  -3.6697
    -3.6399  -3.6056  -3.5632  -3.4503  -3.4267  -3.3760  -3.3084  -3.2632
    -3.2404  -3.1930  -3.0905  -3.0580  -2.9652  -2.9003  -2.8285  -2.8276
    -2.8002  -2.7518  -2.6926  -2.6492  -2.6399  -2.5475  -2.4767  -2.4294
    -2.3792  -2.3630  -2.2347  -2.1286  -2.1282  -2.1127  -2.1107  -2.1093
    -2.0277  -2.0034  -1.9855  -1.9279  -1.9197  -1.8733  -1.8592  -1.8310
    -1.8302  -1.8228  -1.8222  -1.8115  -1.8024  -1.7740  -1.7601  -1.7488
    -1.7433  -1.7372  -1.7186  -1.6773  -1.6710  -1.6323  -1.6139  -1.6119
    -1.6095  -1.6080  -1.6073  -1.6064  -1.5556  -1.5512  -1.5326  -1.5310
    -1.5195  -1.5188  -1.4569  -1.4012  -1.3657  -1.3595  -1.3416  -1.3187
    -1.3054  -1.2957  -1.2909  -1.2732  -1.2718  -1.2666  -1.2544  -1.2498
    -1.2396  -1.2368  -1.2140  -1.2117  -1.2112  -1.2040  -1.1939  -1.1716
    -1.1646  -1.1624  -1.1577  -1.1566  -1.1513  -1.1412  -1.1398  -1.1215
    -1.1044  -1.0901  -1.0817  -1.0784  -1.0778  -1.0705  -1.0602  -1.0472
    -1.0422  -1.0409  -1.0355  -1.0311  -1.0237  -1.0180  -1.0109  -1.0098
    -1.0088  -1.0071  -1.0054  -1.0040  -0.9933  -0.9852  -0.9751  -0.9715
    -0.9650  -0.9571  -0.9317  -0.9304  -0.9259  -0.8827  -0.8806  -0.8599
    -0.8449  -0.8440  -0.8245  -0.8234  -0.8151  -0.7996  -0.7993  -0.7858
    -0.7833  -0.7819  -0.7778  -0.7723  -0.7694  -0.7517  -0.6409  -0.6313
    -0.6293  -0.6279  -0.5999  -0.5974  -0.5957  -0.5876  -0.5792  -0.5783
    -0.5778  -0.5770  -0.5597  -0.5567  -0.5553  -0.5539  -0.5481  -0.5374
    -0.5186  -0.5145  -0.5139  -0.5119  -0.5109  -0.5090  -0.4894  -0.4891
    -0.4869  -0.4503  -0.4286  -0.4284  -0.4277  -0.4250  -0.4206  -0.4177
    -0.4093  -0.4058  -0.3861  -0.3856  -0.3823  -0.3711  -0.3623  -0.3612
    -0.3587  -0.3526  -0.3236  -0.3232  -0.3209  -0.3196  -0.3103  -0.3094
    -0.3033  -0.2990  -0.2924  -0.2831  -0.2791  -0.2648  -0.2593  -0.2525
    -0.2301  -0.2277  -0.2272  -0.2254  -0.2230  -0.2107  -0.2098  -0.2085
    -0.2075  -0.1925  -0.1829  -0.1805  -0.1802  -0.1680  -0.1653  -0.1425
    -0.1404  -0.1394  -0.1262  -0.0975  -0.0926  -0.0915  -0.0885  -0.0851
    -0.0750  -0.0712  -0.0501  -0.0480  -0.0464  -0.0409  -0.0392  -0.0355
    -0.0289  -0.0267  -0.0259  -0.0233  -0.0220  -0.0208  -0.0188  -0.0156
     0.0013   0.0050   0.0052   0.0071   0.0120   0.0148   0.0290   0.0309
     0.0441   0.0489   0.0557   0.0722   0.0843   0.0853   0.0876   0.0880
     0.0902   0.1007   0.1074   0.1122   0.1126   0.1136   0.1151   0.1173
     0.1497   0.1513   0.2127   0.2229   0.2247   0.2264   0.2309   0.2363
     0.2419   0.2441   0.2459   0.2467   0.2525   0.2530   0.2550   0.2597
     0.2608   0.2624   0.2689   0.2772   0.2784   0.2792   0.2865   0.2912
     0.2923   0.2980   0.3014   0.3064   0.3078   0.3177   0.3256   0.3341
     0.3393   0.3525   0.3709   0.3769   0.3824   0.3938   0.3947   0.4029
     0.4135   0.4144   0.4157   0.4190   0.4277   0.4355   0.4484   0.4513
     0.4533   0.4564   0.4567   0.4631   0.4649   0.4667   0.4683   0.4879
     0.4915   0.4996   0.5081   0.5149   0.5156   0.5185   0.5222   0.5229
     0.5265   0.5279   0.5353   0.5480   0.5515   0.5524   0.5573   0.5638
     0.5660   0.5673   0.5689   0.5803   0.5817   0.5847   0.5880   0.5896
     0.6017   0.6085   0.6105   0.6297   0.6309   0.6359   0.6375   0.6415
     0.6435   0.6475   0.6600   0.6743   0.6772   0.6952   0.6996   0.7119
     0.7124   0.7154   0.7172   0.7225   0.7366   0.7384   0.7426   0.7463
     0.7504   0.7513   0.7611   0.7660   0.7743   0.7752   0.7858   0.7930
     0.7949   0.7963   0.8061   0.8194   0.8265   0.8281   0.8288   0.8303
     0.8509   0.8521   0.8615   0.8637   0.8651   0.8661   0.8679   0.8737
     0.8754   0.8782   0.8823   0.9070   0.9186   0.9223   0.9240   0.9264
     0.9273   0.9403   0.9411   0.9529   0.9609   0.9626   0.9635   0.9644
     0.9704   0.9726   0.9727   0.9851   0.9895   0.9903   0.9909   0.9911
     0.9928   0.9940   0.9967   1.0000   1.0028   1.0040   1.0069   1.0117
     1.0179   1.0253   1.0306   1.0326   1.0348   1.0408   1.0414   1.0468
     1.0479   1.0533   1.0619   1.0625   1.0753   1.0777   1.0787   1.0809
     1.0833   1.0907   1.0964   1.1069   1.1094   1.1110   1.1182   1.1233
     1.1270   1.1287   1.1299   1.1372   1.1467   1.1556   1.1610   1.1632
     1.1644   1.1696   1.2016   1.2062   1.2080   1.2138   1.2163   1.2192
     1.2230   1.2246   1.2257   1.2265   1.2337   1.2353   1.2457   1.2495
     1.2504   1.2518   1.2610   1.2698   1.2704   1.2721   1.2726   1.2765
     1.2821   1.2834   1.2857   1.2863   1.2894   1.2910   1.2935   1.2943
     1.3016   1.3050   1.3123   1.3194   1.3217   1.3235   1.3292   1.3300
     1.3313   1.3325   1.3389   1.3517   1.3521   1.3526   1.3724   1.3732
     1.3796   1.3825   1.3890   1.3930   1.3941   1.3947   1.3966   1.3986
     1.3999   1.4047   1.4055   1.4060   1.4106   1.4142   1.4169   1.4333
     1.4357   1.4376   1.4380   1.4400   1.4411   1.4425   1.4547   1.4549
     1.4616   1.4670   1.4714   1.4784   1.4793   1.4855   1.4861   1.4894
     1.5045   1.5175   1.5243   1.5292   1.5532   1.5756   1.5948   1.5961
     1.5991   1.6144   1.6374   1.6934   1.7280   1.7316   1.7340   1.7365
     1.7505   1.7718   1.8088   1.8805   1.9054   2.0023   2.0231   2.0505
     2.0591   2.0637   2.0725   2.1686   2.2291   2.2411   2.5309   2.5357
     2.5388   2.5414   2.9463   2.9472   2.9826   3.1464   3.1641   3.1727
     3.1898   3.1905   3.2651   3.2967   3.4459   3.4747   3.5637   3.5729
     3.6037   3.6151   3.6743   3.6840   3.6945   3.7021   3.7279   3.8484
     3.8506   3.9504   3.9560   4.0110   4.1723   4.1834   4.1924   4.2494
     4.3853   4.4348   4.6216   4.7422   4.7749   4.8084   4.9060   5.1535
     5.1937   5.1954   5.2045   5.2777   5.3340   5.4290   5.4483   5.4725
     5.5209   5.5473   5.5847   5.6078   5.6649   5.6958   5.7107   5.7228
     5.7807   5.8155   5.8225   5.9624   5.9803   5.9863   6.0238   6.1633
     6.5054   6.6535   6.6750   6.6805   6.7230   6.7346   6.7686   6.8684
     6.8945   6.9819   7.0123   7.0178   7.0280   7.0411   7.1252   7.2402
     7.2679   7.2998   7.3287   7.4884   7.5179   7.5260   7.5394   7.6194
     7.7596   7.7695   7.7942   7.8568   7.9651   7.9900   8.0269   8.0404
     8.1635   8.2244   8.2483   8.2888   8.2896   8.2947   8.3677   8.3779
     8.3940   8.4167   8.4983   8.5861   8.6215   8.6314   8.9206   8.9349
     9.0128   9.0159   9.1111   9.1309   9.1481   9.1681   9.1815   9.1896
     9.2273   9.2402   9.2548   9.3717   9.3960   9.4112   9.4191   9.4262
     9.4679   9.5680   9.6177   9.6900   9.6977   9.7178   9.8283   9.8501
     9.8636   9.8816   9.9178

          k = 0.2500-0.2165 0.0000 (256316 PWs)   bands (ev):

   -20.8522 -16.2716 -16.1938 -15.6715 -15.5377 -15.2469 -15.1904 -14.6762
   -14.5599 -14.1760 -14.0498 -13.6136 -13.3002 -13.1980 -13.0930 -12.7370
   -12.6583 -12.1257 -12.0384 -11.5569 -11.4209 -11.2152 -11.1432 -10.9435
   -10.6550  -9.9165  -9.8012  -9.4957  -9.3870  -9.1315  -9.0818  -8.7157
    -8.6807  -8.5104  -8.4600  -7.5366  -7.1931  -6.9515  -6.7193  -6.6272
    -6.5429  -6.4887  -6.3659  -6.1371  -6.0931  -5.7382  -5.7357  -5.6437
    -5.3680  -5.2966  -5.1209  -4.9596  -4.8420  -4.7963  -4.7054  -4.7032
    -4.6037  -4.5558  -4.3833  -4.3765  -4.3558  -4.3149  -4.2164  -4.1920
    -4.1446  -3.9604  -3.9204  -3.8204  -3.7781  -3.6445  -3.6101  -3.5698
    -3.5119  -3.4892  -3.4863  -3.4412  -3.3964  -3.3087  -3.2404  -3.1934
    -3.1514  -3.1324  -3.0872  -2.9820  -2.9487  -2.9397  -2.9387  -2.9368
    -2.8767  -2.8198  -2.7412  -2.7011  -2.6458  -2.4989  -2.3474  -2.3445
    -2.3403  -2.2724  -2.2136  -2.2024  -2.1975  -2.1974  -2.1544  -2.1267
    -2.0564  -2.0387  -2.0383  -2.0001  -1.9946  -1.9721  -1.9053  -1.8572
    -1.8427  -1.8418  -1.8413  -1.8089  -1.7819  -1.7792  -1.7571  -1.7529
    -1.7400  -1.7374  -1.7255  -1.7194  -1.7074  -1.7060  -1.7053  -1.7048
    -1.6968  -1.6954  -1.6129  -1.6087  -1.5839  -1.4978  -1.4973  -1.4032
    -1.3961  -1.3938  -1.3593  -1.3586  -1.3468  -1.3067  -1.3056  -1.2958
    -1.2918  -1.2915  -1.2788  -1.2779  -1.2712  -1.2667  -1.2543  -1.2521
    -1.2440  -1.2430  -1.2395  -1.2314  -1.2286  -1.2220  -1.2190  -1.2130
    -1.2086  -1.1613  -1.1587  -1.1568  -1.1520  -1.1475  -1.1439  -1.1425
    -1.1360  -1.1110  -1.1087  -1.0919  -1.0713  -1.0685  -1.0669  -1.0573
    -1.0536  -1.0513  -1.0257  -1.0249  -1.0196  -1.0053  -1.0029  -0.9929
    -0.9906  -0.9880  -0.9853  -0.9844  -0.9799  -0.9716  -0.9541  -0.9524
    -0.9439  -0.9313  -0.9143  -0.8997  -0.8940  -0.8912  -0.8907  -0.8243
    -0.8094  -0.8059  -0.8055  -0.8000  -0.7993  -0.7988  -0.7540  -0.7504
    -0.7419  -0.7415  -0.7361  -0.7346  -0.7275  -0.7238  -0.7216  -0.6836
    -0.6821  -0.6496  -0.6448  -0.6416  -0.6129  -0.5970  -0.5942  -0.5927
    -0.5923  -0.5639  -0.5618  -0.5593  -0.5525  -0.5480  -0.5463  -0.5310
    -0.5299  -0.5184  -0.5145  -0.5087  -0.4969  -0.4860  -0.4795  -0.4749
    -0.4724  -0.4692  -0.4482  -0.4374  -0.4370  -0.4238  -0.4232  -0.4113
    -0.4090  -0.3969  -0.3965  -0.3923  -0.3919  -0.3890  -0.3858  -0.3814
    -0.3804  -0.3699  -0.3647  -0.3611  -0.3465  -0.3461  -0.3277  -0.3189
    -0.3068  -0.3012  -0.2941  -0.2850  -0.2721  -0.2687  -0.2683  -0.2556
    -0.2481  -0.2460  -0.2434  -0.2396  -0.2384  -0.2076  -0.1980  -0.1828
    -0.1826  -0.1462  -0.1450  -0.1373  -0.1372  -0.1343  -0.1334  -0.1207
    -0.1163  -0.1156  -0.0984  -0.0980  -0.0921  -0.0835  -0.0795  -0.0760
    -0.0743  -0.0710  -0.0698  -0.0679  -0.0551  -0.0446  -0.0414  -0.0364
    -0.0323  -0.0321  -0.0309  -0.0302  -0.0282  -0.0277  -0.0226  -0.0189
    -0.0121   0.0015   0.0022   0.0029   0.0034   0.0317   0.0359   0.0364
     0.0446   0.0454   0.0519   0.0568   0.0708   0.0715   0.0880   0.1006
     0.1026   0.1035   0.1111   0.1143   0.1230   0.1234   0.1255   0.1294
     0.1385   0.1419   0.1468   0.1502   0.1742   0.1776   0.2227   0.2371
     0.2405   0.2502   0.2510   0.2518   0.2539   0.2563   0.2580   0.2607
     0.2637   0.2652   0.2697   0.2785   0.2842   0.2902   0.2925   0.2935
     0.3023   0.3047   0.3065   0.3105   0.3204   0.3330   0.3411   0.3428
     0.3505   0.3534   0.3656   0.3668   0.3772   0.3793   0.4121   0.4158
     0.4211   0.4241   0.4282   0.4288   0.4389   0.4399   0.4414   0.4476
     0.4496   0.4512   0.4526   0.4546   0.4565   0.4718   0.4836   0.4856
     0.4906   0.4963   0.5057   0.5068   0.5375   0.5383   0.5390   0.5394
     0.5709   0.5733   0.5749   0.5769   0.5776   0.5798   0.5825   0.5852
     0.5939   0.5956   0.5971   0.6008   0.6052   0.6076   0.6168   0.6204
     0.6224   0.6293   0.6359   0.6387   0.6406   0.6426   0.6431   0.6507
     0.6537   0.6547   0.6600   0.6604   0.6641   0.6729   0.6816   0.6825
     0.6831   0.6875   0.6878   0.6890   0.6903   0.6920   0.6931   0.7258
     0.7287   0.7382   0.7399   0.7518   0.7628   0.7740   0.7792   0.7939
     0.7944   0.7962   0.7963   0.8009   0.8013   0.8099   0.8245   0.8251
     0.8261   0.8263   0.8271   0.8275   0.8381   0.8461   0.8535   0.8549
     0.8559   0.8652   0.8668   0.8730   0.8763   0.8988   0.9002   0.9012
     0.9240   0.9262   0.9283   0.9316   0.9348   0.9365   0.9396   0.9403
     0.9454   0.9475   0.9686   0.9731   0.9746   0.9846   0.9885   0.9905
     1.0003   1.0083   1.0110   1.0290   1.0325   1.0368   1.0504   1.0513
     1.0567   1.0581   1.0603   1.0609   1.0622   1.0628   1.0633   1.0659
     1.0670   1.0756   1.0767   1.0804   1.0878   1.0906   1.0917   1.1059
     1.1101   1.1277   1.1354   1.1371   1.1431   1.1448   1.1467   1.1479
     1.1494   1.1537   1.1577   1.1610   1.1621   1.1632   1.1679   1.1712
     1.1729   1.1748   1.1760   1.1799   1.1890   1.1932   1.1942   1.1951
     1.1953   1.1964   1.1983   1.2090   1.2118   1.2161   1.2168   1.2382
     1.2418   1.2484   1.2495   1.2536   1.2642   1.2678   1.2691   1.2760
     1.2816   1.2819   1.2942   1.2950   1.2992   1.3026   1.3035   1.3045
     1.3072   1.3128   1.3183   1.3192   1.3210   1.3296   1.3314   1.3361
     1.3467   1.3504   1.3523   1.3532   1.3542   1.3553   1.3568   1.3634
     1.3641   1.3702   1.3745   1.3750   1.3806   1.3837   1.3925   1.3935
     1.3970   1.4052   1.4064   1.4088   1.4093   1.4126   1.4146   1.4147
     1.4162   1.4200   1.4247   1.4250   1.4345   1.4496   1.4498   1.4559
     1.4596   1.4687   1.4734   1.4796   1.4923   1.4964   1.4990   1.5126
     1.5205   1.5219   1.5286   1.5292   1.5543   1.5587   1.5956   1.6173
     1.6377   1.6402   1.6563   1.7147   1.7264   1.7338   1.7469   1.7497
     1.7606   1.7611   1.7630   1.7723   1.8199   1.8238   1.9187   2.0957
     2.0998   2.1287   2.1353   2.2600   2.2617   2.5523   2.5553   2.7234
     2.7587   2.7613   2.7626   2.7723   2.7787   2.8080   2.8161   2.9491
     2.9552   3.0320   3.0612   3.2043   3.5133   3.5157   3.5889   3.6011
     3.6627   3.6767   3.8079   3.8133   3.8195   3.8250   3.9666   3.9726
     4.0294   4.0429   4.1327   4.1357   4.3441   4.3454   4.3691   4.4518
     4.5259   4.5303   4.6291   4.6441   4.6799   4.6933   4.7991   4.9094
     4.9215   5.0052   5.0212   5.0489   5.1065   5.2493   5.2697   5.3554
     5.4126   5.4216   5.4284   5.4333   5.4518   5.5564   5.7327   5.7383
     5.8663   5.8805   5.9131   5.9372   5.9689   6.3494   6.5568   6.5670
     6.6191   6.6225   6.7135   6.7292   6.8000   6.8438   6.8982   7.0358
     7.0454   7.0505   7.0704   7.0758   7.0924   7.1328   7.1839   7.1928
     7.2932   7.3060   7.3137   7.3188   7.3850   7.4127   7.4150   7.5846
     7.6438   7.7415   7.7639   7.7884   7.9154   7.9680   7.9822   8.0668
     8.1499   8.1693   8.2063   8.2364   8.2860   8.4659   8.5647   8.5696
     8.6211   8.6235   8.6247   8.6354   8.6851   8.6869   8.8749   8.9033
     8.9151   8.9248   8.9322   8.9902   9.0956   9.1112   9.1182   9.1521
     9.1768   9.1900   9.2098   9.2263   9.2394   9.2441   9.2910   9.3153
     9.3368   9.3789   9.4110   9.4702   9.5294   9.5638   9.6491   9.6588
     9.6946   9.9124   9.9303

          k =-0.5000 0.0000 0.0000 (256496 PWs)   bands (ev):

   -20.8513 -16.1721 -15.8751 -15.7201 -15.6510 -15.5838 -15.3715 -14.7339
   -14.6014 -14.5007 -14.3374 -13.2120 -12.9184 -12.7274 -12.7077 -12.4996
   -12.1536 -11.9529 -11.8543 -11.8358 -11.8059 -11.2826 -11.2128 -10.9266
   -10.7627 -10.3625 -10.3026 -10.1718  -9.7847  -9.2338  -9.1711  -9.0149
    -8.9697  -7.9338  -7.7439  -7.6673  -7.4550  -7.3903  -7.3806  -6.6250
    -6.3214  -5.9389  -5.7447  -5.3400  -5.3380  -5.2705  -5.1568  -5.0319
    -4.8663  -4.8498  -4.8345  -4.8341  -4.8317  -4.8244  -4.7655  -4.7548
    -4.7417  -4.6941  -4.6106  -4.5921  -4.5126  -4.4173  -4.4008  -4.3546
    -4.1086  -4.0581  -4.0475  -3.9947  -3.9924  -3.8589  -3.7918  -3.6791
    -3.6453  -3.5915  -3.5812  -3.4787  -3.4663  -3.4591  -3.4492  -3.4486
    -3.4475  -3.4255  -3.3893  -3.3631  -3.0657  -2.9740  -2.9054  -2.8644
    -2.8333  -2.8070  -2.7853  -2.7091  -2.6522  -2.6263  -2.5973  -2.4963
    -2.4633  -2.3534  -2.3370  -2.3281  -2.3245  -2.2885  -1.9939  -1.9088
    -1.9083  -1.9075  -1.9066  -1.9065  -1.9039  -1.8809  -1.8173  -1.7982
    -1.7800  -1.7750  -1.7218  -1.6809  -1.6798  -1.6798  -1.6783  -1.6322
    -1.6320  -1.6296  -1.6290  -1.5596  -1.5479  -1.5303  -1.5171  -1.5165
    -1.5078  -1.4891  -1.4685  -1.4562  -1.4546  -1.4532  -1.4373  -1.4350
    -1.4291  -1.3875  -1.3861  -1.3830  -1.3818  -1.3720  -1.3703  -1.3679
    -1.3653  -1.3623  -1.3359  -1.3210  -1.3199  -1.3190  -1.3083  -1.2972
    -1.2969  -1.2958  -1.2948  -1.2335  -1.2329  -1.2136  -1.2123  -1.2107
    -1.2097  -1.1879  -1.1841  -1.1827  -1.1807  -1.1796  -1.1776  -1.1753
    -1.1386  -1.1373  -1.1359  -1.1349  -1.1292  -1.1154  -1.1139  -1.0941
    -1.0850  -1.0840  -1.0495  -1.0394  -1.0380  -1.0105  -1.0102  -1.0083
    -1.0075  -0.9832  -0.9810  -0.9798  -0.9786  -0.9772  -0.9754  -0.9706
    -0.9614  -0.9601  -0.9582  -0.9574  -0.9430  -0.9334  -0.9299  -0.8709
    -0.8696  -0.8687  -0.8675  -0.8244  -0.8233  -0.7488  -0.7409  -0.7404
    -0.7396  -0.7388  -0.7168  -0.7062  -0.7029  -0.7023  -0.7010  -0.7003
    -0.6925  -0.6896  -0.6676  -0.6605  -0.6597  -0.6581  -0.6553  -0.6486
    -0.6415  -0.6305  -0.6304  -0.6264  -0.6071  -0.5628  -0.5415  -0.5382
    -0.5096  -0.5040  -0.5013  -0.4861  -0.4854  -0.4845  -0.4663  -0.4480
    -0.4394  -0.4383  -0.4361  -0.4345  -0.4338  -0.4318  -0.4199  -0.3993
    -0.3974  -0.3967  -0.3960  -0.3941  -0.3624  -0.3591  -0.3584  -0.3573
    -0.3562  -0.3251  -0.3246  -0.3241  -0.3233  -0.3134  -0.3126  -0.2887
    -0.2800  -0.2797  -0.2785  -0.2778  -0.2676  -0.2657  -0.2549  -0.2403
    -0.2351  -0.2271  -0.1845  -0.1651  -0.1640  -0.1637  -0.1624  -0.1587
    -0.1575  -0.1562  -0.1546  -0.1190  -0.1177  -0.1161  -0.1127  -0.0839
    -0.0814  -0.0548  -0.0538  -0.0529  -0.0526  -0.0510  -0.0504  -0.0498
    -0.0497  -0.0484  -0.0483  -0.0475  -0.0471   0.0047   0.0187   0.0257
     0.0317   0.0325   0.0355   0.0402   0.0412   0.0431   0.0446   0.0458
     0.0479   0.0501   0.0519   0.0537   0.0556   0.0567   0.0583   0.0622
     0.0719   0.0737   0.0738   0.0880   0.0885   0.0889   0.0890   0.0894
     0.0900   0.0984   0.0989   0.0992   0.1002   0.1115   0.1130   0.1242
     0.1244   0.1251   0.1254   0.1331   0.1411   0.1532   0.1550   0.1738
     0.2204   0.2550   0.2564   0.2578   0.2594   0.2815   0.2886   0.2902
     0.2913   0.2955   0.3032   0.3047   0.3056   0.3091   0.3136   0.3143
     0.3146   0.3163   0.3199   0.3213   0.3231   0.3235   0.3259   0.3271
     0.3340   0.3394   0.3403   0.3409   0.3512   0.3564   0.3596   0.3599
     0.3679   0.3681   0.3729   0.3779   0.3972   0.4078   0.4559   0.4594
     0.4632   0.4638   0.4686   0.4764   0.4892   0.4913   0.4943   0.4966
     0.4983   0.4989   0.4999   0.5018   0.5044   0.5048   0.5068   0.5084
     0.5090   0.5100   0.5119   0.5147   0.5160   0.5189   0.5243   0.5390
     0.5424   0.5551   0.5555   0.5648   0.5724   0.5803   0.5882   0.5902
     0.5922   0.5941   0.6007   0.6015   0.6019   0.6043   0.6053   0.6061
     0.6148   0.6179   0.6234   0.6243   0.6368   0.6381   0.6401   0.6409
     0.6725   0.6760   0.6764   0.6781   0.6795   0.6799   0.6839   0.6949
     0.6975   0.7160   0.7314   0.7342   0.7361   0.7378   0.7392   0.7402
     0.7416   0.7636   0.7779   0.8070   0.8086   0.8112   0.8120   0.8124
     0.8130   0.8173   0.8212   0.8229   0.8232   0.8243   0.8275   0.8357
     0.8380   0.8553   0.8560   0.8583   0.8589   0.8717   0.8753   0.8763
     0.8768   0.8784   0.8790   0.8793   0.9037   0.9132   0.9185   0.9197
     0.9204   0.9333   0.9697   0.9836   0.9840   0.9851   0.9854   1.0083
     1.0162   1.0171   1.0184   1.0195   1.0338   1.0358   1.0385   1.0468
     1.0484   1.0505   1.0630   1.0640   1.0808   1.0834   1.0864   1.0874
     1.0882   1.0893   1.0931   1.0952   1.0962   1.0970   1.1044   1.1057
     1.1067   1.1070   1.1077   1.1081   1.1085   1.1112   1.1288   1.1417
     1.1473   1.1478   1.1494   1.1537   1.1761   1.1777   1.1829   1.1840
     1.1850   1.1855   1.1945   1.2009   1.2032   1.2102   1.2119   1.2126
     1.2131   1.2142   1.2228   1.2237   1.2244   1.2269   1.2331   1.2353
     1.2425   1.2537   1.2697   1.2704   1.2756   1.2832   1.2857   1.2867
     1.2871   1.2871   1.2874   1.2879   1.2929   1.2964   1.2999   1.3006
     1.3018   1.3020   1.3027   1.3035   1.3101   1.3119   1.3125   1.3127
     1.3132   1.3137   1.3196   1.3204   1.3347   1.3361   1.3484   1.3577
     1.3599   1.3603   1.3607   1.3625   1.3628   1.3646   1.3677   1.3797
     1.3841   1.3852   1.3863   1.3982   1.3999   1.4030   1.4084   1.4148
     1.4200   1.4208   1.4214   1.4246   1.4400   1.4406   1.4433   1.4444
     1.4485   1.4490   1.4497   1.4500   1.4511   1.4626   1.4697   1.4708
     1.4820   1.4839   1.4847   1.4847   1.4854   1.4940   1.4963   1.4986
     1.5281   1.5482   1.5528   1.5766   1.5781   1.5810   1.5829   1.5970
     1.6233   1.9989   2.0068   2.0085   2.0101   2.2026   2.2114   2.2277
     2.2349   2.2544   2.2553   2.2624   2.2634   2.5696   2.5962   2.6034
     2.6066   2.7860   2.8024   2.8049   2.8075   3.1339   3.1559   3.1567
     3.1578   3.2193   3.4439   3.4551   3.7343   3.7394   3.7397   3.7570
     3.8939   3.8957   3.8996   3.9095   4.0404   4.0428   4.0455   4.0514
     4.1715   4.1851   4.3664   4.4835   4.5608   4.6564   4.7241   4.7440
     4.7510   4.7548   4.7954   4.7974   4.8467   4.8646   4.9888   4.9901
     5.0147   5.0175   5.0214   5.0264   5.0472   5.0487   5.0746   5.0784
     5.1221   5.1351   5.1546   5.3956   5.5051   5.5160   5.5201   5.6238
     5.6673   5.7070   5.8113   5.9564   5.9605   5.9738   5.9806   6.0055
     6.0259   6.0275   6.0329   6.1479   6.2874   6.3848   6.4331   6.4421
     6.4474   6.4601   6.4630   7.0495   7.0690   7.0763   7.0887   7.1057
     7.1105   7.3498   7.5548   7.5702   7.5737   7.5751   7.5775   7.5880
     7.5910   7.6561   7.7829   7.7973   7.8455   7.8688   7.8702   7.8736
     7.9886   8.0330   8.0416   8.0472   8.1078   8.1241   8.1327   8.1499
     8.2893   8.3813   8.7394   8.7821   8.7935   8.8013   8.8069   8.8099
     8.8139   8.9413   8.9908   9.0136   9.0485   9.0533   9.0583   9.0688
     9.0806   9.2309   9.2343   9.2921   9.3967   9.4701   9.4916   9.5005
     9.5083   9.5163   9.5190   9.5216   9.5229   9.5241   9.5260   9.5592
     9.7036   9.9071   9.9187

          k =-0.5000-0.2165 0.0000 (256328 PWs)   bands (ev):

   -20.8513 -16.1609 -15.8624 -15.8281 -15.7088 -15.3161 -15.2213 -15.1315
   -14.9153 -14.0002 -13.8203 -13.6951 -13.6096 -12.7621 -12.2269 -12.0318
   -12.0217 -11.8430 -11.7965 -11.6528 -11.6047 -11.5706 -11.4728 -11.4403
   -11.4237 -10.1236 -10.0015  -9.8247  -9.7495  -9.3279  -8.9475  -8.8138
    -8.7963  -8.3473  -8.3131  -8.0499  -8.0231  -6.7610  -6.6570  -6.2877
    -5.9866  -5.9128  -5.7516  -5.5044  -5.4571  -5.3406  -5.2810  -5.2126
    -5.2108  -5.2105  -5.2079  -5.0626  -5.0405  -5.0307  -4.6284  -4.4557
    -4.4146  -4.3741  -4.3608  -4.3183  -4.2622  -4.2464  -4.2285  -4.2273
    -4.2262  -4.2051  -4.1322  -3.9944  -3.9728  -3.8880  -3.8806  -3.8457
    -3.7995  -3.7540  -3.7275  -3.6675  -3.6171  -3.6030  -3.5398  -3.5077
    -3.4915  -3.3270  -3.1864  -3.1091  -3.0845  -2.9308  -2.7976  -2.6477
    -2.6094  -2.6086  -2.6074  -2.6071  -2.5762  -2.5516  -2.5471  -2.5397
    -2.5036  -2.3909  -2.2580  -2.1761  -2.1335  -2.1278  -2.1269  -2.1057
    -2.0851  -2.0744  -2.0568  -2.0421  -2.0344  -2.0290  -1.9868  -1.8339
    -1.8325  -1.8310  -1.8281  -1.7890  -1.7658  -1.6990  -1.6163  -1.5493
    -1.5317  -1.5228  -1.5225  -1.5218  -1.5216  -1.4895  -1.4853  -1.4828
    -1.4815  -1.4695  -1.4627  -1.4616  -1.4613  -1.4598  -1.4151  -1.4144
    -1.4140  -1.4129  -1.4123  -1.4116  -1.4091  -1.4057  -1.3877  -1.3873
    -1.3867  -1.3863  -1.3462  -1.3371  -1.3360  -1.3354  -1.3349  -1.2764
    -1.2622  -1.2582  -1.2570  -1.2204  -1.2196  -1.2191  -1.2188  -1.2077
    -1.2017  -1.2005  -1.1992  -1.1755  -1.1578  -1.1497  -1.1496  -1.1481
    -1.1470  -1.1446  -1.1445  -1.1437  -1.1426  -1.1180  -1.1073  -1.1040
    -1.0887  -1.0883  -1.0841  -1.0818  -1.0718  -1.0715  -1.0697  -1.0676
    -1.0672  -1.0660  -1.0655  -1.0648  -1.0639  -1.0409  -0.9141  -0.9127
    -0.9119  -0.9096  -0.8908  -0.8819  -0.8813  -0.8808  -0.8781  -0.8011
    -0.8002  -0.7991  -0.7980  -0.7962  -0.7931  -0.7919  -0.7914  -0.7911
    -0.7902  -0.7873  -0.7449  -0.7295  -0.7289  -0.7276  -0.7249  -0.7199
    -0.7181  -0.7176  -0.7093  -0.6983  -0.6952  -0.6923  -0.6906  -0.6060
    -0.6030  -0.6013  -0.5998  -0.5983  -0.5968  -0.5923  -0.5739  -0.5282
    -0.5278  -0.5270  -0.5257  -0.4784  -0.4776  -0.4771  -0.4760  -0.4580
    -0.4575  -0.4567  -0.4560  -0.4320  -0.4306  -0.4269  -0.4210  -0.4190
    -0.4183  -0.4174  -0.4165  -0.3853  -0.3802  -0.3786  -0.3677  -0.3042
    -0.3039  -0.3011  -0.3002  -0.2867  -0.2861  -0.2857  -0.2852  -0.2699
    -0.2696  -0.2688  -0.2680  -0.1920  -0.1866  -0.1864  -0.1840  -0.1831
    -0.1824  -0.1820  -0.1804  -0.1795  -0.1787  -0.1774  -0.1758  -0.1411
    -0.1411  -0.1409  -0.1403  -0.1292  -0.1288  -0.1282  -0.1281  -0.1255
    -0.1249  -0.1231  -0.1228  -0.0593  -0.0562  -0.0556  -0.0546  -0.0399
    -0.0308  -0.0291  -0.0279  -0.0208   0.0142   0.0181   0.0247   0.0259
     0.0279   0.0440   0.0487   0.0509   0.0518   0.0522   0.0536   0.0569
     0.0585   0.0603   0.0610   0.0638   0.0648   0.0670   0.0707   0.0717
     0.0723   0.0746   0.0763   0.0780   0.0782   0.0790   0.0794   0.0941
     0.0945   0.0951   0.0967   0.1225   0.1226   0.1227   0.1230   0.1284
     0.1311   0.1324   0.1338   0.1390   0.1815   0.1817   0.1826   0.1836
     0.2134   0.2140   0.2155   0.2160   0.2445   0.2779   0.2853   0.2917
     0.2943   0.2961   0.2978   0.2983   0.3004   0.3062   0.3145   0.3152
     0.3161   0.3181   0.3262   0.3291   0.3298   0.3363   0.3367   0.3375
     0.3384   0.3393   0.3419   0.3431   0.3462   0.3472   0.3509   0.3595
     0.3687   0.4071   0.4145   0.4223   0.4240   0.4246   0.4261   0.4280
     0.4288   0.4326   0.4408   0.4411   0.4412   0.4422   0.4665   0.4744
     0.4796   0.4804   0.4817   0.4827   0.4851   0.4862   0.5015   0.5202
     0.5229   0.5248   0.5262   0.5280   0.5378   0.5389   0.5392   0.5399
     0.5411   0.5459   0.5461   0.5474   0.5490   0.5531   0.5587   0.5608
     0.5635   0.5651   0.5685   0.5752   0.5782   0.5798   0.6109   0.6343
     0.6419   0.6482   0.6510   0.6522   0.6536   0.6540   0.6551   0.6562
     0.6620   0.6632   0.6648   0.6699   0.6816   0.6922   0.6991   0.6993
     0.7007   0.7009   0.7015   0.7027   0.7035   0.7046   0.7138   0.7457
     0.7548   0.7549   0.7586   0.7815   0.7825   0.7831   0.7849   0.7894
     0.8027   0.8104   0.8185   0.8191   0.8196   0.8205   0.8424   0.8440
     0.8459   0.8465   0.8882   0.8956   0.8963   0.8969   0.8979   0.9285
     0.9295   0.9297   0.9310   0.9533   0.9807   0.9816   0.9836   0.9839
     0.9957   0.9982   1.0011   1.0069   1.0095   1.0111   1.0118   1.0154
     1.0155   1.0157   1.0162   1.0185   1.0193   1.0199   1.0221   1.0246
     1.0262   1.0457   1.0468   1.0493   1.0502   1.0514   1.0518   1.0533
     1.0538   1.0573   1.0624   1.0688   1.0689   1.0712   1.0830   1.0904
     1.0953   1.0956   1.0966   1.0987   1.1041   1.1059   1.1122   1.1147
     1.1158   1.1190   1.1452   1.1610   1.1626   1.1648   1.1661   1.1667
     1.1679   1.1716   1.1850   1.1915   1.1927   1.1932   1.1937   1.2035
     1.2100   1.2106   1.2152   1.2167   1.2293   1.2310   1.2392   1.2409
     1.2417   1.2419   1.2501   1.2505   1.2510   1.2522   1.2561   1.2567
     1.2581   1.2589   1.2940   1.3128   1.3207   1.3235   1.3237   1.3247
     1.3250   1.3252   1.3259   1.3263   1.3339   1.3356   1.3390   1.3435
     1.3447   1.3460   1.3479   1.3509   1.3542   1.3548   1.3551   1.3588
     1.3611   1.3620   1.3650   1.3656   1.3661   1.3670   1.3682   1.3768
     1.3781   1.3795   1.3853   1.3864   1.3872   1.3880   1.4179   1.4198
     1.4207   1.4207   1.4226   1.4326   1.4351   1.4359   1.4372   1.4462
     1.4502   1.4530   1.4636   1.4696   1.4726   1.4729   1.4908   1.5111
     1.5267   1.5293   1.5431   1.5437   1.5449   1.5450   1.5568   1.5721
     1.5744   1.5760   1.5779   1.5830   1.5851   1.5855   1.5867   1.5880
     1.5890   1.5895   1.6273   1.8036   1.8069   1.8081   1.8104   2.3029
     2.3224   2.3240   2.3257   2.5250   2.5300   2.5304   2.5345   2.7316
     2.7696   2.7725   2.7727   3.0024   3.0706   3.0744   3.0756   3.2355
     3.4232   3.4236   3.4247   3.4369   3.6113   3.6146   3.6168   3.6279
     3.8983   3.8994   3.9008   3.9041   4.1955   4.1961   4.2005   4.2023
     4.3065   4.3247   4.3282   4.3407   4.5293   4.5335   4.5420   4.5450
     4.5583   4.5669   4.5732   4.6445   4.8544   4.8634   4.8825   4.9400
     4.9985   5.0428   5.0511   5.1184   5.1425   5.1486   5.1522   5.1685
     5.2551   5.2710   5.2787   5.3236   5.3368   5.3406   5.3486   5.4439
     5.6059   5.7128   5.7175   5.7204   5.7231   5.7278   5.7340   5.8395
     5.8805   5.8871   5.8881   6.7168   6.7429   6.7621   6.7662   6.8061
     7.0528   7.0965   7.1003   7.1078   7.1167   7.1340   7.1358   7.1515
     7.2390   7.2717   7.2788   7.2845   7.3338   7.3403   7.3430   7.3477
     7.4843   7.6047   7.6113   7.6205   7.7510   7.8800   7.9492   7.9633
     7.9706   7.9815   8.0067   8.1843   8.2056   8.2126   8.2183   8.3527
     8.4076   8.4156   8.4270   8.6765   8.8636   8.8675   8.8689   8.8728
     8.8987   8.9016   8.9053   8.9103   8.9380   8.9396   8.9440   8.9469
     9.1379   9.1383   9.1420   9.1519   9.3570   9.4021   9.4167   9.4384
     9.5063   9.5161   9.5383   9.5535   9.5553   9.5707   9.5736   9.6822
     9.7942   9.8935  10.0186

     the Fermi energy is     3.2928 ev

!    total energy              =  -12738.71502682 Ry
     Harris-Foulkes estimate   =  -12738.71502681 Ry
     estimated scf accuracy    <          5.5E-09 Ry

     The total energy is the sum of the following terms:

     one-electron contribution = -109170.41751941 Ry
     hartree contribution      =   55948.14293281 Ry
     xc contribution           =   -4454.76129105 Ry
     ewald contribution        =   44944.67964103 Ry
     Dispersion Correction     =      -3.00103089 Ry
     smearing contrib. (-TS)   =      -3.35775932 Ry

     convergence has been achieved in  44 iterations

     Writing output data file gc.save
 
     init_run     :     88.95s CPU     94.27s WALL (       1 calls)
     electrons    :  11533.67s CPU  12286.27s WALL (       1 calls)

     Called by init_run:
     wfcinit      :     86.11s CPU     91.10s WALL (       1 calls)
     potinit      :      0.42s CPU      0.44s WALL (       1 calls)

     Called by electrons:
     c_bands      :  10658.35s CPU  11331.09s WALL (      44 calls)
     sum_band     :    699.24s CPU    743.41s WALL (      44 calls)
     v_of_rho     :      2.85s CPU      3.71s WALL (      45 calls)
     newd         :      7.54s CPU     13.18s WALL (      45 calls)
     mix_rho      :    165.55s CPU    194.81s WALL (      44 calls)

     Called by c_bands:
     init_us_2    :     35.91s CPU     36.59s WALL (     534 calls)
     cegterg      :  10497.46s CPU  11163.91s WALL (     269 calls)

     Called by sum_band:
     sum_band:bec :      5.48s CPU      6.25s WALL (     264 calls)
     addusdens    :      8.20s CPU     13.25s WALL (      44 calls)

     Called by *egterg:
     h_psi        :   3419.86s CPU   3608.27s WALL (    1976 calls)
     s_psi        :    926.57s CPU    950.08s WALL (    1976 calls)
     g_psi        :      9.86s CPU      9.90s WALL (    1701 calls)
     cdiaghg      :   3481.00s CPU   3647.32s WALL (    1965 calls)

     Called by h_psi:
     add_vuspsi   :    925.89s CPU    948.24s WALL (    1976 calls)

     General routines
     calbec       :   1295.27s CPU   1313.96s WALL (    2240 calls)
     fft          :      3.98s CPU      4.71s WALL (     584 calls)
     ffts         :     92.21s CPU    115.29s WALL (   24023 calls)
     fftw         :   1653.64s CPU   1836.39s WALL ( 1285812 calls)
     davcio       :      0.40s CPU      3.37s WALL (       6 calls)
 
     Parallel routines
     fft_scatter  :    921.48s CPU    972.36s WALL ( 1310419 calls)
 
     PWSCF        :     3h13m CPU        3h26m WALL

 
   This run was terminated on:  14: 7:53  30Dec2016            

=------------------------------------------------------------------------------=
   JOB DONE.
=------------------------------------------------------------------------------=
