mpirun: INFO: switching to OpenMPI runtime version 1.10.2

     Program PWSCF v.5.4.0 starts on  1Oct2017 at  0:20:25 

     This program is part of the open-source Quantum ESPRESSO suite
     for quantum simulation of materials; please cite
         "P. Giannozzi et al., J. Phys.:Condens. Matter 21 395502 (2009);
          URL http://www.quantum-espresso.org", 
     in publications or presentations arising from this work. More details at
     http://www.quantum-espresso.org/quote

     Parallel version (MPI & OpenMP), running on      28 processor cores
     Number of MPI processes:                28
     Threads/MPI process:                     1
     R & G space division:  proc/nbgrp/npool/nimage =      28
     Waiting for input...
     Reading input from standard input
Warning: card &IONS ignored
Warning: card / ignored

     Current dimensions of program PWSCF are:
     Max number of different atomic species (ntypx) = 10
     Max number of k-points (npk) =  40000
     Max angular momentum in pseudopotentials (lmaxx) =  3
     WARNING: atomic wfc #  2 for atom type 4 has zero norm
     WARNING: atomic wfc #  4 for atom type 4 has zero norm
     WARNING: atomic wfc #  5 for atom type 4 has zero norm

     -------------------------------------
     Parameters for Dispersion Correction:
     -------------------------------------
       atom      VdW radius       C_6     

        Cu         2.952        374.666
        C_h        2.744         60.710
        C          2.744         60.710
        O          2.536         24.284

     Subspace diagonalization in iterative solution of the eigenvalue problem:
     one sub-group per band group will be used
     scalapack distributed-memory algorithm (size of sub-group:  3*  3 procs)

 
     Parallelization info
     --------------------
     sticks:   dense  smooth     PW     G-vecs:    dense   smooth      PW
     Min         408     408    108                73226    73226    9928
     Max         410     410    109                73231    73231    9931
     Sum       11433   11433   3039              2050409  2050409  278033
 


     bravais-lattice index     =            0
     lattice parameter (alat)  =      13.9425  a.u.
     unit-cell volume          =   21209.0878 (a.u.)^3
     number of atoms/cell      =          150
     number of atomic types    =            4
     number of electrons       =      1302.00
     number of Kohn-Sham states=          781
     kinetic-energy cutoff     =      80.0000  Ry
     charge density cutoff     =     320.0000  Ry
     convergence threshold     =      1.0E-08
     mixing beta               =       0.7000
     number of iterations used =            8  local-TF  mixing
     Exchange-correlation      =  SLA  PW   PBX  PBC ( 1  4  3  4 0 0)

     celldm(1)=  13.942539  celldm(2)=   0.000000  celldm(3)=   0.000000
     celldm(4)=   0.000000  celldm(5)=   0.000000  celldm(6)=   0.000000

     crystal axes: (cart. coord. in units of alat)
               a(1) = (   1.000000   0.000000   0.000000 )  
               a(2) = (   0.000000   2.309401   0.000000 )  
               a(3) = (   0.000000   0.000000   3.388418 )  

     reciprocal axes: (cart. coord. in units 2 pi/alat)
               b(1) = (  1.000000  0.000000  0.000000 )  
               b(2) = (  0.000000  0.433013  0.000000 )  
               b(3) = (  0.000000  0.000000  0.295123 )  


     PseudoPot. # 1 for Cu read from file:
     /home/549/hxw549/Short/pseudopotentials/Cu.pbe-n-van_ak.UPF
     MD5 check sum: 601f7c30f7467666bec936e0661ce3e1
     Pseudo is Ultrasoft + core correction, Zval = 11.0
     Generated by new atomic code, or converted to UPF format
     Using radial grid of  867 points,  6 beta functions with: 
                l(1) =   0
                l(2) =   0
                l(3) =   1
                l(4) =   1
                l(5) =   2
                l(6) =   2
     Q(r) pseudized with  8 coefficients,  rinner =    1.400   1.400   1.400
                                                       1.400   1.400

     PseudoPot. # 2 for C  read from file:
     /home/549/hxw549/Short/pseudopotentials/C.star1s-pbe-mt_gipaw.UPF
     MD5 check sum: ef0cb3dee31bd9e4ba2a832a2c716264
     Pseudo is Norm-conserving, Zval =  5.0
     Generated by new atomic code, or converted to UPF format
     Using radial grid of 1073 points,  1 beta functions with: 
                l(1) =   0

     PseudoPot. # 3 for C  read from file:
     /home/549/hxw549/Short/pseudopotentials/C.pbe-mt_gipaw.UPF
     MD5 check sum: 5ac2f21f2c440b14befe521540822c15
     Pseudo is Norm-conserving, Zval =  4.0
     Generated by new atomic code, or converted to UPF format
     Using radial grid of 1073 points,  1 beta functions with: 
                l(1) =   0

     PseudoPot. # 4 for O  read from file:
     /home/549/hxw549/Short/pseudopotentials/O.pbe-van_gipaw.UPF
     MD5 check sum: 5ce2a047509d4f331db576c963e74b29
     Pseudo is Ultrasoft, Zval =  6.0
     Generated by new atomic code, or converted to UPF format
     Using radial grid of 1095 points,  4 beta functions with: 
                l(1) =   0
                l(2) =   0
                l(3) =   1
                l(4) =   1
     Q(r) pseudized with 0 coefficients 


     atomic species   valence    mass     pseudopotential
        Cu            11.00    63.54600     Cu( 1.00)
        C_h            5.00    12.01070     C ( 1.00)
        C              4.00    12.01070     C ( 1.00)
        O              6.00    15.99940     O ( 1.00)

     No symmetry found



   Cartesian axes

     site n.     atom                  positions (alat units)
         1           Cu  tau(   1) = (   0.0007746  -0.0017263   0.9974341  )
         2           Cu  tau(   2) = (   0.2507737   0.2258138   0.9973260  )
         3           Cu  tau(   3) = (   0.5008760  -0.0022365   0.9966779  )
         4           Cu  tau(   4) = (   0.7508471   0.2263841   0.9980016  )
         5           Cu  tau(   5) = (   0.0008392   0.4565406   0.9985792  )
         6           Cu  tau(   6) = (   0.2509427   0.6897855   0.9999657  )
         7           Cu  tau(   7) = (   0.5008379   0.4568514   0.9990575  )
         8           Cu  tau(   8) = (   0.7507194   0.6897031   0.9999838  )
         9           Cu  tau(   9) = (   0.0006685   0.9241902   1.0001491  )
        10           Cu  tau(  10) = (   0.2508199   1.1585893   0.9994315  )
        11           Cu  tau(  11) = (   0.5008540   0.9240586   1.0006399  )
        12           Cu  tau(  12) = (   0.7507433   1.1584370   0.9997064  )
        13           Cu  tau(  13) = (   0.0007724   1.3915619   0.9981007  )
        14           Cu  tau(  14) = (   0.2507485   1.6225299   0.9965829  )
        15           Cu  tau(  15) = (   0.5008122   1.3916616   0.9979961  )
        16           Cu  tau(  16) = (   0.7508119   1.6227756   0.9965609  )
        17           Cu  tau(  17) = (   0.0009883   1.8518082   0.9959401  )
        18           Cu  tau(  18) = (   0.2507237   2.0803995   0.9968330  )
        19           Cu  tau(  19) = (   0.5006394   1.8518782   0.9959625  )
        20           Cu  tau(  20) = (   0.7509541   2.0796587   0.9956860  )
        21           Cu  tau(  21) = (   0.0010190   0.2258085   1.2493909  )
        22           Cu  tau(  22) = (   0.2504775  -0.0015663   1.2511192  )
        23           Cu  tau(  23) = (   0.5007592   0.2244625   1.2474139  )
        24           Cu  tau(  24) = (   0.7511204  -0.0032534   1.2489893  )
        25           Cu  tau(  25) = (   0.0011318   0.6883266   1.2442935  )
        26           Cu  tau(  26) = (   0.2506634   0.4550101   1.2457739  )
        27           Cu  tau(  27) = (   0.5010434   0.6889459   1.2455869  )
        28           Cu  tau(  28) = (   0.7513247   0.4551755   1.2463317  )
        29           Cu  tau(  29) = (   0.0009417   1.1597158   1.2443880  )
        30           Cu  tau(  30) = (   0.2512312   0.9241298   1.2444880  )
        31           Cu  tau(  31) = (   0.5007499   1.1593901   1.2450686  )
        32           Cu  tau(  32) = (   0.7508296   0.9240397   1.2450130  )
        33           Cu  tau(  33) = (   0.0007793   1.6243336   1.2463775  )
        34           Cu  tau(  34) = (   0.2504282   1.3930798   1.2451551  )
        35           Cu  tau(  35) = (   0.5008090   1.6252398   1.2451280  )
        36           Cu  tau(  36) = (   0.7512192   1.3936504   1.2446248  )
        37           Cu  tau(  37) = (   0.0010877   2.0797516   1.2492188  )
        38           Cu  tau(  38) = (   0.2507223   1.8528469   1.2475014  )
        39           Cu  tau(  39) = (   0.5004398   2.0799192   1.2488390  )
        40           Cu  tau(  40) = (   0.7508180   1.8531203   1.2475507  )
        41           Cu  tau(  41) = (   0.0016658  -0.0022985   1.5045196  )
        42           Cu  tau(  42) = (   0.2503972   0.2291600   1.5050437  )
        43           Cu  tau(  43) = (   0.5000117  -0.0022562   1.5036487  )
        44           Cu  tau(  44) = (   0.7517889   0.2249026   1.5000298  )
        45           Cu  tau(  45) = (   0.0021806   0.4573907   1.4979107  )
        46           Cu  tau(  46) = (   0.2515336   0.6876551   1.4914913  )
        47           Cu  tau(  47) = (   0.5009200   0.4538841   1.4935295  )
        48           Cu  tau(  48) = (   0.7528141   0.6875879   1.4907110  )
        49           Cu  tau(  49) = (   0.0033450   0.9232828   1.4888842  )
        50           Cu  tau(  50) = (   0.2503503   1.1598614   1.4909692  )
        51           Cu  tau(  51) = (   0.5011269   0.9241898   1.4909779  )
        52           Cu  tau(  52) = (   0.7519249   1.1613568   1.4891627  )
        53           Cu  tau(  53) = (   0.0011131   1.3942307   1.4938872  )
        54           Cu  tau(  54) = (   0.2503927   1.6255964   1.4976503  )
        55           Cu  tau(  55) = (   0.5006234   1.3972544   1.4901219  )
        56           Cu  tau(  56) = (   0.7512735   1.6255407   1.4977139  )
        57           Cu  tau(  57) = (   0.0005637   1.8528289   1.5024635  )
        58           Cu  tau(  58) = (   0.2506219   2.0792198   1.5045906  )
        59           Cu  tau(  59) = (   0.5009250   1.8529925   1.5021785  )
        60           Cu  tau(  60) = (   0.7508082   2.0800280   1.5044375  )
        61           Cu  tau(  61) = (   0.0038475   0.2303557   1.7544175  )
        62           Cu  tau(  62) = (   0.2510972  -0.0016110   1.7589938  )
        63           Cu  tau(  63) = (   0.4999193   0.2298937   1.7528921  )
        64           Cu  tau(  64) = (   0.7511849   0.0002495   1.7583826  )
        65           Cu  tau(  65) = (   0.0060098   0.6915091   1.7456589  )
        66           Cu  tau(  66) = (   0.2526343   0.4668484   1.7573948  )
        67           Cu  tau(  67) = (   0.5044723   0.6882987   1.7340652  )
        68           Cu  tau(  68) = (   0.7534858   0.4575929   1.7448602  )
        69           Cu  tau(  69) = (   0.0030806   1.1601133   1.7386452  )
        70           Cu  tau(  70) = (   0.2518379   0.9215057   1.7366438  )
        71           Cu  tau(  71) = (   0.5015939   1.1634386   1.7317629  )
        72           Cu  tau(  72) = (   0.7569360   0.9256709   1.7318463  )
        73           Cu  tau(  73) = (   0.0006284   1.6228987   1.7514313  )
        74           Cu  tau(  74) = (   0.2495296   1.3943295   1.7430802  )
        75           Cu  tau(  75) = (   0.5008934   1.6219922   1.7510664  )
        76           Cu  tau(  76) = (   0.7524006   1.3939441   1.7423004  )
        77           Cu  tau(  77) = (   0.0004462   2.0792281   1.7605390  )
        78           Cu  tau(  78) = (   0.2505914   1.8507081   1.7580746  )
        79           Cu  tau(  79) = (   0.5012530   2.0794473   1.7601117  )
        80           Cu  tau(  80) = (   0.7509891   1.8507123   1.7576061  )
        81           Cu  tau(  81) = (   0.0008286   0.0033963   2.0092933  )
        82           Cu  tau(  82) = (   0.2531685   0.2321805   2.0065704  )
        83           Cu  tau(  83) = (   0.5029616   0.0032808   2.0095555  )
        84           Cu  tau(  84) = (   0.7539833   0.2369850   2.0035455  )
        85           Cu  tau(  85) = (   0.0065270   0.4656567   2.0017021  )
        86           Cu  tau(  86) = (   0.2464865   0.6933756   2.0151552  )
        87           Cu  tau(  87) = (   0.5030727   0.4630537   1.9968478  )
        88           Cu  tau(  88) = (   0.7554598   0.6904527   1.9839067  )
        89           Cu  tau(  89) = (  -0.0046798   0.9283144   1.9874394  )
        90           Cu  tau(  90) = (   0.2487659   1.1590837   1.9772863  )
        91           Cu  tau(  91) = (   0.5151132   0.9293281   1.9559442  )
        92           Cu  tau(  92) = (   0.7550174   1.1625438   1.9831995  )
        93           Cu  tau(  93) = (   0.0028197   1.3884207   1.9964466  )
        94           Cu  tau(  94) = (   0.2520994   1.6161203   2.0043589  )
        95           Cu  tau(  95) = (   0.5000456   1.3851001   1.9926923  )
        96           Cu  tau(  96) = (   0.7493302   1.6156245   2.0040319  )
        97           Cu  tau(  97) = (   0.0005987   1.8456515   2.0105564  )
        98           Cu  tau(  98) = (   0.2507723   2.0792808   2.0122620  )
        99           Cu  tau(  99) = (   0.5009208   1.8468742   2.0092992  )
       100           Cu  tau( 100) = (   0.7514130   2.0792294   2.0116684  )
       101           C   tau( 101) = (   0.0000041   0.1004607   2.4706174  )
       102           C   tau( 102) = (   0.0000464   0.2911966   2.5077514  )
       103           C   tau( 103) = (   0.1667510   0.0039812   2.4555312  )
       104           C   tau( 104) = (   0.1667002   0.3869974   2.5272644  )
       105           C   tau( 105) = (   0.3333424   0.1007420   2.4699883  )
       106           C   tau( 106) = (   0.3334363   0.2919992   2.5051734  )
       107           C   tau( 107) = (   0.5000066   0.0039836   2.4560683  )
       108           C   tau( 108) = (   0.4999469   0.3882212   2.5232037  )
       109           C   tau( 109) = (   0.6666958   0.1005847   2.4714172  )
       110           C   tau( 110) = (   0.6665358   0.2920099   2.5054082  )
       111           C   tau( 111) = (   0.8332310   0.0038601   2.4560699  )
       112           C   tau( 112) = (   0.8332509   0.3869252   2.5270840  )
       113           C   tau( 113) = (  -0.0001934   0.6737688   2.5777695  )
       114           C   tau( 114) = (  -0.0001856   0.8672651   2.5944491  )
       115           C   tau( 115) = (   0.1667594   0.5776866   2.5647008  )
       116           C   tau( 116) = (   0.1666435   0.9646073   2.6006922  )
       117           C   tau( 117) = (   0.3331110   0.6740993   2.5851705  )
       118           C_h tau( 118) = (   0.3329710   0.8670446   2.6096596  )
       119           C   tau( 119) = (   0.4997466   0.5783682   2.5647021  )
       120           C   tau( 120) = (   0.4999838   0.9653277   2.6122075  )
       121           C   tau( 121) = (   0.6664953   0.6742678   2.5820520  )
       122           C   tau( 122) = (   0.6663998   0.8673954   2.6037964  )
       123           C   tau( 123) = (   0.8331008   0.5776885   2.5641855  )
       124           C   tau( 124) = (   0.8332477   0.9647019   2.5973254  )
       125           C   tau( 125) = (   0.0000710   1.2537597   2.5618756  )
       126           C   tau( 126) = (   0.0001158   1.4445822   2.5252882  )
       127           C   tau( 127) = (   0.1668448   1.1579586   2.5811571  )
       128           C   tau( 128) = (   0.1667803   1.5400959   2.5059542  )
       129           C   tau( 129) = (   0.3335356   1.2546126   2.5695193  )
       130           C   tau( 130) = (   0.3335027   1.4444043   2.5269442  )
       131           C   tau( 131) = (   0.5000824   1.1587316   2.5904068  )
       132           C   tau( 132) = (   0.5000760   1.5393962   2.5038670  )
       133           C   tau( 133) = (   0.6665019   1.2546303   2.5687975  )
       134           C   tau( 134) = (   0.6665495   1.4443316   2.5269178  )
       135           C   tau( 135) = (   0.8334671   1.1581306   2.5807843  )
       136           C   tau( 136) = (   0.8333255   1.5402118   2.5066151  )
       137           C   tau( 137) = (   0.0000004   1.8277352   2.4539580  )
       138           C   tau( 138) = (  -0.0000015   2.0216453   2.4380816  )
       139           C   tau( 139) = (   0.1667979   1.7311224   2.4699837  )
       140           C   tau( 140) = (   0.1667608   2.1194820   2.4391038  )
       141           C   tau( 141) = (   0.3334638   1.8277274   2.4563194  )
       142           C   tau( 142) = (   0.3334790   2.0215976   2.4405198  )
       143           C   tau( 143) = (   0.4999842   1.7306087   2.4686680  )
       144           C   tau( 144) = (   0.5000116   2.1195299   2.4408306  )
       145           C   tau( 145) = (   0.6666293   1.8276257   2.4559927  )
       146           C   tau( 146) = (   0.6665863   2.0215855   2.4403438  )
       147           C   tau( 147) = (   0.8331931   1.7310805   2.4699489  )
       148           C   tau( 148) = (   0.8332380   2.1195278   2.4386194  )
       149           C   tau( 149) = (   0.3726381   0.8371666   2.1777400  )
       150           O   tau( 150) = (   0.4493068   0.9396855   2.2775618  )

     number of k points=     6  gaussian smearing, width (Ry)=  0.1000
                       cart. coord. in units 2pi/alat
        k(    1) = (   0.0000000   0.0000000   0.0000000), wk =   0.2500000
        k(    2) = (   0.0000000  -0.2165064   0.0000000), wk =   0.2500000
        k(    3) = (   0.2500000   0.0000000   0.0000000), wk =   0.5000000
        k(    4) = (   0.2500000  -0.2165064   0.0000000), wk =   0.5000000
        k(    5) = (  -0.5000000   0.0000000   0.0000000), wk =   0.2500000
        k(    6) = (  -0.5000000  -0.2165064   0.0000000), wk =   0.2500000

     Dense  grid:  2050409 G-vectors     FFT dimensions: (  80, 192, 270)

     Largest allocated arrays     est. size (Mb)     dimensions
        Kohn-Sham Wavefunctions       109.29 Mb     (    9171,  781)
        NL pseudopotentials           259.87 Mb     (    9171, 1857)
        Each V/rho on FFT grid          2.34 Mb     (  153600)
        Each G-vector array             0.56 Mb     (   73230)
        G-vector shells                 0.27 Mb     (   35784)
     Largest temporary arrays     est. size (Mb)     dimensions
        Auxiliary wavefunctions       437.17 Mb     (    9171, 3124)
        Each subspace H/S matrix       16.54 Mb     (    1041, 1041)
        Each <psi_i|beta_j> matrix     22.13 Mb     (    1857,  781)
        Arrays for rho mixing          18.75 Mb     (  153600,    8)

     Initial potential from superposition of free atoms
     Check: negative starting charge=   -0.001516

     starting charge 1276.31751, renormalised to 1302.00000

     negative rho (up, down):  1.546E-03 0.000E+00
     Starting wfc are 1296 randomized atomic wfcs

     total cpu time spent up to now is      202.7 secs

     Self-consistent Calculation

     iteration #  1     ecut=    80.00 Ry     beta=0.70
     Davidson diagonalization with overlap
     c_bands:  5 eigenvalues not converged
     c_bands:  5 eigenvalues not converged
     c_bands:  3 eigenvalues not converged
     c_bands:  2 eigenvalues not converged
     ethr =  1.00E-04,  avg # of iterations = 42.5

     negative rho (up, down):  2.522E+01 0.000E+00

     total cpu time spent up to now is     4805.8 secs

     total energy              =   -9992.93119493 Ry
     Harris-Foulkes estimate   =  -18269.31181924 Ry
     estimated scf accuracy    <  211435.42003335 Ry

     iteration #  2     ecut=    80.00 Ry     beta=0.70
     Davidson diagonalization with overlap
     ethr =  1.00E-02,  avg # of iterations = 13.7

     negative rho (up, down):  3.331E+01 0.000E+00

     total cpu time spent up to now is     6860.4 secs

     total energy              =  -11873.76159347 Ry
     Harris-Foulkes estimate   =  -13825.33854105 Ry
     estimated scf accuracy    <   36513.80565089 Ry

     iteration #  3     ecut=    80.00 Ry     beta=0.70
     Davidson diagonalization with overlap
     ethr =  1.00E-02,  avg # of iterations = 20.2

     negative rho (up, down):  3.153E+01 0.000E+00

     total cpu time spent up to now is     8906.3 secs

     total energy              =  -12131.10099721 Ry
     Harris-Foulkes estimate   =  -13737.50827979 Ry
     estimated scf accuracy    <    6760.43395375 Ry

     iteration #  4     ecut=    80.00 Ry     beta=0.70
     Davidson diagonalization with overlap
     ethr =  1.00E-02,  avg # of iterations =  4.0

     negative rho (up, down):  2.188E+01 0.000E+00

     total cpu time spent up to now is     9894.9 secs

     total energy              =  -12886.07172208 Ry
     Harris-Foulkes estimate   =  -13097.97230169 Ry
     estimated scf accuracy    <     904.82766633 Ry

     iteration #  5     ecut=    80.00 Ry     beta=0.70
     Davidson diagonalization with overlap
     ethr =  1.00E-02,  avg # of iterations =  3.0

     negative rho (up, down):  1.787E+01 0.000E+00

     total cpu time spent up to now is    10382.2 secs

     total energy              =  -12880.01824932 Ry
     Harris-Foulkes estimate   =  -12940.81777269 Ry
     estimated scf accuracy    <    1253.94532164 Ry

     iteration #  6     ecut=    80.00 Ry     beta=0.70
     Davidson diagonalization with overlap
     ethr =  1.00E-02,  avg # of iterations =  1.8

     negative rho (up, down):  1.210E+01 0.000E+00

     total cpu time spent up to now is    10724.7 secs

     total energy              =  -12845.59579084 Ry
     Harris-Foulkes estimate   =  -12909.15437350 Ry
     estimated scf accuracy    <     547.28245211 Ry

     iteration #  7     ecut=    80.00 Ry     beta=0.70
     Davidson diagonalization with overlap
     ethr =  1.00E-02,  avg # of iterations =  2.0

     negative rho (up, down):  8.022E+00 0.000E+00

     total cpu time spent up to now is    11079.8 secs

     total energy              =  -12827.17411711 Ry
     Harris-Foulkes estimate   =  -12868.33175004 Ry
     estimated scf accuracy    <     384.38218489 Ry

     iteration #  8     ecut=    80.00 Ry     beta=0.70
     Davidson diagonalization with overlap
     ethr =  1.00E-02,  avg # of iterations =  2.0

     negative rho (up, down):  6.145E+00 0.000E+00

     total cpu time spent up to now is    11429.4 secs

     total energy              =  -12820.34746605 Ry
     Harris-Foulkes estimate   =  -12839.31688769 Ry
     estimated scf accuracy    <     241.35877102 Ry

     iteration #  9     ecut=    80.00 Ry     beta=0.70
     Davidson diagonalization with overlap
     ethr =  1.00E-02,  avg # of iterations =  1.0

     negative rho (up, down):  4.142E+00 0.000E+00

     total cpu time spent up to now is    11757.9 secs

     total energy              =  -12804.07023733 Ry
     Harris-Foulkes estimate   =  -12822.17027148 Ry
     estimated scf accuracy    <     176.64878636 Ry

     iteration # 10     ecut=    80.00 Ry     beta=0.70
     Davidson diagonalization with overlap
     ethr =  1.00E-02,  avg # of iterations =  1.0

     negative rho (up, down):  1.053E+00 0.000E+00

     total cpu time spent up to now is    12085.6 secs

     total energy              =  -12768.82580179 Ry
     Harris-Foulkes estimate   =  -12806.86920242 Ry
     estimated scf accuracy    <     196.95103267 Ry

     iteration # 11     ecut=    80.00 Ry     beta=0.70
     Davidson diagonalization with overlap
     ethr =  1.00E-02,  avg # of iterations =  2.8

     negative rho (up, down):  9.942E-01 0.000E+00

     total cpu time spent up to now is    12452.7 secs

     total energy              =  -12765.22566382 Ry
     Harris-Foulkes estimate   =  -12784.68130608 Ry
     estimated scf accuracy    <     356.72532802 Ry

     iteration # 12     ecut=    80.00 Ry     beta=0.70
     Davidson diagonalization with overlap
     ethr =  1.00E-02,  avg # of iterations =  2.2

     negative rho (up, down):  4.469E-01 0.000E+00

     total cpu time spent up to now is    12805.4 secs

     total energy              =  -12764.61651728 Ry
     Harris-Foulkes estimate   =  -12773.59229838 Ry
     estimated scf accuracy    <      95.36804394 Ry

     iteration # 13     ecut=    80.00 Ry     beta=0.70
     Davidson diagonalization with overlap
     ethr =  7.32E-03,  avg # of iterations =  3.2

     negative rho (up, down):  2.952E+00 0.000E+00

     total cpu time spent up to now is    13179.5 secs

     total energy              =  -12760.58538079 Ry
     Harris-Foulkes estimate   =  -12773.66359204 Ry
     estimated scf accuracy    <      47.10983489 Ry

     iteration # 14     ecut=    80.00 Ry     beta=0.70
     Davidson diagonalization with overlap
     ethr =  3.62E-03,  avg # of iterations =  2.0

     negative rho (up, down):  4.612E+00 0.000E+00

     total cpu time spent up to now is    13527.8 secs

     total energy              =  -12757.48323003 Ry
     Harris-Foulkes estimate   =  -12762.05461299 Ry
     estimated scf accuracy    <      25.40020047 Ry

     iteration # 15     ecut=    80.00 Ry     beta=0.70
     Davidson diagonalization with overlap
     ethr =  1.95E-03,  avg # of iterations =  2.2

     negative rho (up, down):  4.263E+00 0.000E+00

     total cpu time spent up to now is    13882.9 secs

     total energy              =  -12756.15078350 Ry
     Harris-Foulkes estimate   =  -12758.79888441 Ry
     estimated scf accuracy    <      17.22321064 Ry

     iteration # 16     ecut=    80.00 Ry     beta=0.70
     Davidson diagonalization with overlap
     ethr =  1.32E-03,  avg # of iterations =  3.0

     negative rho (up, down):  4.552E+00 0.000E+00

     total cpu time spent up to now is    14253.4 secs

     total energy              =  -12755.81458265 Ry
     Harris-Foulkes estimate   =  -12757.06141065 Ry
     estimated scf accuracy    <      13.24701717 Ry

     iteration # 17     ecut=    80.00 Ry     beta=0.70
     Davidson diagonalization with overlap
     ethr =  1.02E-03,  avg # of iterations =  4.7

     negative rho (up, down):  3.920E+00 0.000E+00

     total cpu time spent up to now is    14656.7 secs

     total energy              =  -12755.03422459 Ry
     Harris-Foulkes estimate   =  -12756.21160020 Ry
     estimated scf accuracy    <       9.98917021 Ry

     iteration # 18     ecut=    80.00 Ry     beta=0.70
     Davidson diagonalization with overlap
     ethr =  7.67E-04,  avg # of iterations =  6.3

     negative rho (up, down):  2.349E+00 0.000E+00

     total cpu time spent up to now is    15104.8 secs

     total energy              =  -12753.54986074 Ry
     Harris-Foulkes estimate   =  -12755.21927293 Ry
     estimated scf accuracy    <       8.48205549 Ry

     iteration # 19     ecut=    80.00 Ry     beta=0.70
     Davidson diagonalization with overlap
     ethr =  6.51E-04,  avg # of iterations =  3.0

     negative rho (up, down):  5.627E-01 0.000E+00

     total cpu time spent up to now is    15474.9 secs

     total energy              =  -12752.36325960 Ry
     Harris-Foulkes estimate   =  -12753.79120856 Ry
     estimated scf accuracy    <       8.61325156 Ry

     iteration # 20     ecut=    80.00 Ry     beta=0.70
     Davidson diagonalization with overlap
     ethr =  6.51E-04,  avg # of iterations =  7.0

     negative rho (up, down):  1.409E+00 0.000E+00

     total cpu time spent up to now is    15933.1 secs

     total energy              =  -12751.62222657 Ry
     Harris-Foulkes estimate   =  -12752.82795540 Ry
     estimated scf accuracy    <      12.44030821 Ry

     iteration # 21     ecut=    80.00 Ry     beta=0.70
     Davidson diagonalization with overlap
     ethr =  6.51E-04,  avg # of iterations =  3.3

     negative rho (up, down):  9.943E-01 0.000E+00

     total cpu time spent up to now is    16317.9 secs

     total energy              =  -12752.24111112 Ry
     Harris-Foulkes estimate   =  -12752.91165734 Ry
     estimated scf accuracy    <       6.52667015 Ry

     iteration # 22     ecut=    80.00 Ry     beta=0.70
     Davidson diagonalization with overlap
     ethr =  5.01E-04,  avg # of iterations =  2.2

     negative rho (up, down):  3.269E-01 0.000E+00

     total cpu time spent up to now is    16672.6 secs

     total energy              =  -12750.85905997 Ry
     Harris-Foulkes estimate   =  -12752.59567368 Ry
     estimated scf accuracy    <       4.78886549 Ry

     iteration # 23     ecut=    80.00 Ry     beta=0.70
     Davidson diagonalization with overlap
     ethr =  3.68E-04,  avg # of iterations =  5.7

     negative rho (up, down):  6.960E-01 0.000E+00

     total cpu time spent up to now is    17107.2 secs

     total energy              =  -12750.64108628 Ry
     Harris-Foulkes estimate   =  -12750.98907154 Ry
     estimated scf accuracy    <       4.41186509 Ry

     iteration # 24     ecut=    80.00 Ry     beta=0.70
     Davidson diagonalization with overlap
     ethr =  3.39E-04,  avg # of iterations =  1.8

     negative rho (up, down):  6.477E-01 0.000E+00

     total cpu time spent up to now is    17452.4 secs

     total energy              =  -12750.47401284 Ry
     Harris-Foulkes estimate   =  -12750.69663923 Ry
     estimated scf accuracy    <       2.16605730 Ry

     iteration # 25     ecut=    80.00 Ry     beta=0.70
     Davidson diagonalization with overlap
     ethr =  1.66E-04,  avg # of iterations =  8.3

     negative rho (up, down):  4.456E-01 0.000E+00

     total cpu time spent up to now is    17940.2 secs

     total energy              =  -12750.29575667 Ry
     Harris-Foulkes estimate   =  -12750.51237210 Ry
     estimated scf accuracy    <       1.50562486 Ry

     iteration # 26     ecut=    80.00 Ry     beta=0.70
     Davidson diagonalization with overlap
     ethr =  1.16E-04,  avg # of iterations =  6.5

     negative rho (up, down):  4.106E-01 0.000E+00

     total cpu time spent up to now is    18392.0 secs

     total energy              =  -12750.29167055 Ry
     Harris-Foulkes estimate   =  -12750.38032757 Ry
     estimated scf accuracy    <       0.83756109 Ry

     iteration # 27     ecut=    80.00 Ry     beta=0.70
     Davidson diagonalization with overlap
     ethr =  6.43E-05,  avg # of iterations =  8.7

     negative rho (up, down):  2.192E-01 0.000E+00

     total cpu time spent up to now is    18894.6 secs

     total energy              =  -12750.25239786 Ry
     Harris-Foulkes estimate   =  -12750.31428953 Ry
     estimated scf accuracy    <       0.45377076 Ry

     iteration # 28     ecut=    80.00 Ry     beta=0.70
     Davidson diagonalization with overlap
     ethr =  3.49E-05,  avg # of iterations =  8.8

     negative rho (up, down):  3.519E-02 0.000E+00

     total cpu time spent up to now is    19406.4 secs

     total energy              =  -12750.20196598 Ry
     Harris-Foulkes estimate   =  -12750.26686407 Ry
     estimated scf accuracy    <       0.30534630 Ry

     iteration # 29     ecut=    80.00 Ry     beta=0.70
     Davidson diagonalization with overlap
     ethr =  2.35E-05,  avg # of iterations =  7.3

     negative rho (up, down):  7.887E-02 0.000E+00

     total cpu time spent up to now is    19912.8 secs

     total energy              =  -12750.19236492 Ry
     Harris-Foulkes estimate   =  -12750.22204438 Ry
     estimated scf accuracy    <       0.17853269 Ry

     iteration # 30     ecut=    80.00 Ry     beta=0.70
     Davidson diagonalization with overlap
     ethr =  1.37E-05,  avg # of iterations =  9.2

     negative rho (up, down):  9.141E-02 0.000E+00

     total cpu time spent up to now is    20436.4 secs

     total energy              =  -12750.20031831 Ry
     Harris-Foulkes estimate   =  -12750.21336386 Ry
     estimated scf accuracy    <       0.07236771 Ry

     iteration # 31     ecut=    80.00 Ry     beta=0.70
     Davidson diagonalization with overlap
     ethr =  5.56E-06,  avg # of iterations = 10.0

     negative rho (up, down):  3.882E-02 0.000E+00

     total cpu time spent up to now is    21015.3 secs

     total energy              =  -12750.20748018 Ry
     Harris-Foulkes estimate   =  -12750.20746648 Ry
     estimated scf accuracy    <       0.01342846 Ry

     iteration # 32     ecut=    80.00 Ry     beta=0.70
     Davidson diagonalization with overlap
     c_bands:  1 eigenvalues not converged
     c_bands:  1 eigenvalues not converged
     ethr =  1.03E-06,  avg # of iterations = 13.3

     negative rho (up, down):  5.229E-02 0.000E+00

     total cpu time spent up to now is    21655.1 secs

     total energy              =  -12750.20854288 Ry
     Harris-Foulkes estimate   =  -12750.20848147 Ry
     estimated scf accuracy    <       0.00619135 Ry

     iteration # 33     ecut=    80.00 Ry     beta=0.70
     Davidson diagonalization with overlap
     ethr =  4.76E-07,  avg # of iterations =  5.5

     negative rho (up, down):  4.051E-02 0.000E+00

     total cpu time spent up to now is    22107.9 secs

     total energy              =  -12750.20862088 Ry
     Harris-Foulkes estimate   =  -12750.20894786 Ry
     estimated scf accuracy    <       0.00100545 Ry

     iteration # 34     ecut=    80.00 Ry     beta=0.70
     Davidson diagonalization with overlap
     ethr =  7.72E-08,  avg # of iterations =  5.8

     negative rho (up, down):  2.699E-02 0.000E+00

     total cpu time spent up to now is    22564.3 secs

     total energy              =  -12750.20843940 Ry
     Harris-Foulkes estimate   =  -12750.20867344 Ry
     estimated scf accuracy    <       0.00042550 Ry

     iteration # 35     ecut=    80.00 Ry     beta=0.70
     Davidson diagonalization with overlap
     ethr =  3.27E-08,  avg # of iterations =  8.0

     negative rho (up, down):  5.788E-03 0.000E+00

     total cpu time spent up to now is    23059.7 secs

     total energy              =  -12750.20802176 Ry
     Harris-Foulkes estimate   =  -12750.20847042 Ry
     estimated scf accuracy    <       0.00028572 Ry

     iteration # 36     ecut=    80.00 Ry     beta=0.70
     Davidson diagonalization with overlap
     c_bands:  3 eigenvalues not converged
     ethr =  2.19E-08,  avg # of iterations = 11.3

     negative rho (up, down):  2.708E-03 0.000E+00

     total cpu time spent up to now is    23673.1 secs

     total energy              =  -12750.20799794 Ry
     Harris-Foulkes estimate   =  -12750.20804334 Ry
     estimated scf accuracy    <       0.00004445 Ry

     iteration # 37     ecut=    80.00 Ry     beta=0.70
     Davidson diagonalization with overlap
     c_bands:  1 eigenvalues not converged
     ethr =  3.41E-09,  avg # of iterations =  9.0

     negative rho (up, down):  1.618E-03 0.000E+00

     total cpu time spent up to now is    24238.0 secs

     total energy              =  -12750.20799110 Ry
     Harris-Foulkes estimate   =  -12750.20800600 Ry
     estimated scf accuracy    <       0.00003320 Ry

     iteration # 38     ecut=    80.00 Ry     beta=0.70
     Davidson diagonalization with overlap
     ethr =  2.55E-09,  avg # of iterations =  4.8

     negative rho (up, down):  1.368E-03 0.000E+00

     total cpu time spent up to now is    24657.6 secs

     total energy              =  -12750.20800811 Ry
     Harris-Foulkes estimate   =  -12750.20799397 Ry
     estimated scf accuracy    <       0.00000635 Ry

     iteration # 39     ecut=    80.00 Ry     beta=0.70
     Davidson diagonalization with overlap
     c_bands:  2 eigenvalues not converged
     ethr =  4.88E-10,  avg # of iterations =  9.7

     negative rho (up, down):  1.641E-03 0.000E+00

     total cpu time spent up to now is    25229.6 secs

     total energy              =  -12750.20801008 Ry
     Harris-Foulkes estimate   =  -12750.20800894 Ry
     estimated scf accuracy    <       0.00000331 Ry

     iteration # 40     ecut=    80.00 Ry     beta=0.70
     Davidson diagonalization with overlap
     ethr =  2.55E-10,  avg # of iterations =  2.5

     negative rho (up, down):  1.655E-03 0.000E+00

     total cpu time spent up to now is    25601.2 secs

     total energy              =  -12750.20801041 Ry
     Harris-Foulkes estimate   =  -12750.20801041 Ry
     estimated scf accuracy    <       0.00000091 Ry

     iteration # 41     ecut=    80.00 Ry     beta=0.70
     Davidson diagonalization with overlap
     ethr =  6.96E-11,  avg # of iterations =  2.7

     negative rho (up, down):  1.714E-03 0.000E+00

     total cpu time spent up to now is    25976.5 secs

     total energy              =  -12750.20801049 Ry
     Harris-Foulkes estimate   =  -12750.20801049 Ry
     estimated scf accuracy    <       0.00000041 Ry

     iteration # 42     ecut=    80.00 Ry     beta=0.70
     Davidson diagonalization with overlap
     ethr =  3.15E-11,  avg # of iterations =  2.0

     negative rho (up, down):  1.719E-03 0.000E+00

     total cpu time spent up to now is    26338.1 secs

     total energy              =  -12750.20801053 Ry
     Harris-Foulkes estimate   =  -12750.20801051 Ry
     estimated scf accuracy    <       0.00000017 Ry

     iteration # 43     ecut=    80.00 Ry     beta=0.70
     Davidson diagonalization with overlap
     ethr =  1.30E-11,  avg # of iterations =  2.2

     negative rho (up, down):  1.713E-03 0.000E+00

     total cpu time spent up to now is    26704.3 secs

     total energy              =  -12750.20801055 Ry
     Harris-Foulkes estimate   =  -12750.20801055 Ry
     estimated scf accuracy    <       0.00000005 Ry

     iteration # 44     ecut=    80.00 Ry     beta=0.70
     Davidson diagonalization with overlap
     ethr =  3.55E-12,  avg # of iterations =  2.0

     negative rho (up, down):  1.696E-03 0.000E+00

     total cpu time spent up to now is    27065.1 secs

     total energy              =  -12750.20801057 Ry
     Harris-Foulkes estimate   =  -12750.20801056 Ry
     estimated scf accuracy    <       0.00000001 Ry

     iteration # 45     ecut=    80.00 Ry     beta=0.70
     Davidson diagonalization with overlap
     ethr =  9.10E-13,  avg # of iterations =  3.0

     negative rho (up, down):  1.685E-03 0.000E+00

     total cpu time spent up to now is    27532.1 secs

     End of self-consistent calculation

          k = 0.0000 0.0000 0.0000 (256287 PWs)   bands (ev):

   -20.3051 -16.8391 -15.8212 -15.6413 -15.0106 -14.6369 -14.3649 -14.2422
   -13.8423 -13.7891 -13.6923 -13.6781 -13.0863 -12.9461 -12.7510 -12.7320
   -12.6834 -12.6771 -11.3322 -11.1602 -11.1246 -11.0207 -10.9315  -9.9449
    -9.4455  -9.4082  -9.2470  -9.1796  -8.5766  -8.3947  -8.2546  -8.1732
    -7.6992  -7.5079  -7.4417  -7.2790  -7.1869  -7.1732  -7.1354  -7.0991
    -6.8599  -6.0190  -6.0091  -5.8794  -5.7680  -5.6627  -5.6041  -5.5618
    -5.5420  -5.5281  -5.3551  -5.3501  -4.8892  -4.7558  -4.5460  -4.5105
    -4.4449  -4.3823  -4.2840  -4.2058  -4.1055  -3.9595  -3.8620  -3.8272
    -3.7519  -3.6910  -3.6023  -3.5595  -3.4531  -3.3047  -3.2891  -3.2728
    -3.2596  -3.2105  -3.0962  -3.0938  -3.0671  -2.9441  -2.8870  -2.8852
    -2.8766  -2.8717  -2.8589  -2.7569  -2.7110  -2.6834  -2.5881  -2.5795
    -2.5451  -2.5120  -2.4814  -2.4514  -2.4371  -2.3887  -2.3705  -2.2033
    -2.1808  -2.1766  -2.1534  -2.1444  -2.0727  -2.0682  -2.0422  -2.0393
    -2.0371  -2.0341  -1.9192  -1.9164  -1.9063  -1.8946  -1.8915  -1.8700
    -1.7567  -1.7535  -1.7421  -1.6661  -1.6408  -1.6270  -1.6253  -1.6235
    -1.6133  -1.6096  -1.6014  -1.5879  -1.5721  -1.5417  -1.5356  -1.5254
    -1.5178  -1.5090  -1.4960  -1.4681  -1.4633  -1.4418  -1.4383  -1.4310
    -1.4262  -1.4200  -1.4103  -1.4044  -1.4017  -1.3558  -1.3346  -1.3298
    -1.3081  -1.2457  -1.2160  -1.1959  -1.1933  -1.1893  -1.1723  -1.1605
    -1.1567  -1.1537  -1.1377  -1.1108  -1.1006  -1.0858  -1.0855  -1.0617
    -1.0508  -0.9801  -0.9691  -0.9576  -0.9554  -0.9506  -0.9438  -0.9396
    -0.9335  -0.9312  -0.9297  -0.9176  -0.9142  -0.9080  -0.9029  -0.8954
    -0.8939  -0.8907  -0.8814  -0.8498  -0.8454  -0.8416  -0.8375  -0.8251
    -0.8189  -0.8161  -0.8137  -0.7878  -0.7687  -0.7627  -0.7580  -0.7546
    -0.7517  -0.7489  -0.7454  -0.7447  -0.7427  -0.7402  -0.7392  -0.7382
    -0.7353  -0.7340  -0.7315  -0.7181  -0.6663  -0.6198  -0.5921  -0.5877
    -0.5825  -0.5784  -0.5722  -0.5678  -0.5605  -0.5463  -0.5365  -0.5321
    -0.5278  -0.5237  -0.5188  -0.5162  -0.5041  -0.4960  -0.4759  -0.4657
    -0.4628  -0.4619  -0.4599  -0.4572  -0.4534  -0.4497  -0.4415  -0.4171
    -0.3980  -0.3914  -0.3891  -0.3699  -0.3600  -0.3542  -0.3464  -0.3380
    -0.3300  -0.3268  -0.3196  -0.3139  -0.3132  -0.3109  -0.3075  -0.3052
    -0.3047  -0.3031  -0.2998  -0.2956  -0.2941  -0.2866  -0.2824  -0.2796
    -0.2681  -0.2505  -0.2384  -0.2342  -0.2184  -0.2128  -0.1981  -0.1921
    -0.1893  -0.1830  -0.1814  -0.1784  -0.1748  -0.1687  -0.1677  -0.1617
    -0.1475  -0.1443  -0.1411  -0.1385  -0.1370  -0.1294  -0.1282  -0.1243
    -0.1206  -0.1143  -0.1078  -0.0985  -0.0947  -0.0927  -0.0846  -0.0840
    -0.0781  -0.0629  -0.0491  -0.0375  -0.0278  -0.0244  -0.0115  -0.0035
     0.0088   0.0114   0.0206   0.0272   0.0313   0.0382   0.0415   0.0440
     0.0486   0.0523   0.0602   0.0780   0.0836   0.0892   0.0956   0.1016
     0.1040   0.1063   0.1157   0.1270   0.1305   0.1354   0.1361   0.1379
     0.1445   0.1482   0.1505   0.1521   0.1582   0.1615   0.1666   0.1692
     0.1840   0.1873   0.1938   0.2019   0.2058   0.2079   0.2343   0.2374
     0.2410   0.2490   0.2554   0.2610   0.2677   0.2892   0.2947   0.3001
     0.3023   0.3116   0.3193   0.3319   0.3381   0.3522   0.3621   0.3691
     0.3738   0.3805   0.3834   0.3958   0.4099   0.4168   0.4231   0.4262
     0.4295   0.4492   0.4524   0.4534   0.4595   0.4695   0.4742   0.4799
     0.4838   0.4954   0.5008   0.5023   0.5141   0.5242   0.5253   0.5318
     0.5405   0.5470   0.5496   0.5569   0.5729   0.5779   0.5819   0.5844
     0.5872   0.5942   0.5994   0.6148   0.6199   0.6207   0.6249   0.6276
     0.6330   0.6375   0.6384   0.6429   0.6458   0.6461   0.6495   0.6544
     0.6594   0.6616   0.6686   0.6749   0.6842   0.6864   0.6944   0.7034
     0.7061   0.7138   0.7177   0.7281   0.7308   0.7338   0.7414   0.7439
     0.7455   0.7595   0.7611   0.7626   0.7667   0.7677   0.7714   0.7760
     0.7779   0.7810   0.7866   0.7920   0.7989   0.8064   0.8093   0.8137
     0.8204   0.8252   0.8257   0.8259   0.8272   0.8373   0.8409   0.8443
     0.8467   0.8535   0.8565   0.8611   0.8807   0.8861   0.8917   0.9002
     0.9083   0.9136   0.9254   0.9286   0.9324   0.9396   0.9421   0.9562
     0.9574   0.9608   0.9661   0.9700   0.9725   0.9797   0.9885   0.9954
     0.9963   0.9999   1.0048   1.0071   1.0124   1.0180   1.0209   1.0226
     1.0285   1.0373   1.0448   1.0533   1.0564   1.0660   1.0737   1.0774
     1.0817   1.0864   1.0917   1.0927   1.0950   1.0977   1.1041   1.1083
     1.1091   1.1105   1.1166   1.1208   1.1220   1.1254   1.1327   1.1373
     1.1394   1.1445   1.1465   1.1583   1.1619   1.1658   1.1771   1.1785
     1.1808   1.1830   1.1858   1.1897   1.1919   1.1937   1.1970   1.2014
     1.2031   1.2040   1.2095   1.2112   1.2184   1.2229   1.2269   1.2341
     1.2392   1.2435   1.2487   1.2518   1.2528   1.2678   1.2779   1.2826
     1.2868   1.2874   1.2938   1.3040   1.3089   1.3162   1.3192   1.3207
     1.3253   1.3285   1.3349   1.3374   1.3425   1.3460   1.3486   1.3515
     1.3542   1.3561   1.3576   1.3613   1.3632   1.3713   1.3731   1.3769
     1.3866   1.3877   1.3889   1.3906   1.3932   1.3944   1.3960   1.3978
     1.3991   1.4077   1.4146   1.4171   1.4201   1.4227   1.4248   1.4278
     1.4353   1.4414   1.4474   1.4507   1.4567   1.4595   1.4689   1.4717
     1.4755   1.4838   1.4862   1.4903   1.4925   1.4959   1.4978   1.4991
     1.5032   1.5054   1.5091   1.5117   1.5129   1.5139   1.5160   1.5218
     1.5252   1.5350   1.5355   1.5395   1.5422   1.5457   1.5528   1.5560
     1.5609   1.5640   1.5705   1.5851   1.5894   1.5938   1.5992   1.6201
     1.6289   1.6341   1.6377   1.6421   1.6473   1.6748   1.6765   1.6945
     1.6983   1.6991   1.7057   1.7085   1.7113   1.7166   1.7313   1.7362
     1.8295   1.9879   2.0336   2.1412   2.1499   2.1587   2.2384   2.2680
     2.2779   2.2792   2.2838   2.2866   2.3003   2.3023   2.3295   2.4321
     2.4401   2.4831   2.4981   2.5194   2.5294   2.5470   2.6535   2.7347
     2.7638   2.7862   2.8295   3.0120   3.2048   3.2885   3.3210   3.3900
     3.4989   3.5695   3.7531   3.7825   3.8333   3.8685   3.8927   3.9135
     3.9249   3.9785   3.9960   4.0289   4.0673   4.0705   4.0821   4.0911
     4.0976   4.1233   4.1830   4.2115   4.2352   4.2735   4.6274   4.7066
     4.8430   5.0244   5.1378   5.2020   5.2267   5.2677   5.2827   5.3492
     5.4267   5.5040   5.5727   5.6675   5.6847   5.8893   6.0131   6.0354
     6.1422   6.2776   6.2853   6.4247   6.4424   6.5046   6.5218   6.5768
     6.6104   6.6497   6.7048   6.7352   6.8141   6.8440   6.9394   6.9569
     6.9835   6.9958   7.0583   7.0666   7.1064   7.1531   7.1674   7.2113
     7.3411   7.4381   7.4683   7.5015   7.5402   7.6646   7.7296   7.7723
     7.8124   7.9252   8.0469   8.0530   8.1394   8.1694   8.1856   8.1926
     8.2790   8.3241   8.3387   8.3594   8.4252   8.4306   8.4453   8.5036
     8.5463   8.5927   8.6224   8.6386   8.6461   8.6762   8.7532   8.8006
     8.8032   8.8408   8.8471   8.8614   8.8928   8.9141   9.0096   9.0526
     9.0715   9.1197   9.1689   9.2122   9.2807   9.3639   9.4139   9.4415
     9.4893   9.4951   9.5471   9.6276   9.6505   9.7138   9.7598   9.9168
     9.9699  10.0211  10.1236  10.1296  10.1377

          k = 0.0000-0.2165 0.0000 (256176 PWs)   bands (ev):

   -20.3051 -16.8387 -15.8781 -15.4615 -15.2417 -14.6456 -14.2300 -13.9376
   -13.9131 -13.8625 -13.8374 -13.4056 -13.3429 -13.2993 -13.2783 -12.2322
   -12.0602 -11.9993 -11.9191 -11.8000 -11.7490 -10.3037 -10.2112 -10.1844
   -10.0474  -9.1243  -9.0425  -8.9206  -8.7518  -8.5977  -8.5581  -7.9992
    -7.8730  -7.7986  -7.7441  -7.1119  -6.9664  -6.8652  -6.6294  -6.6048
    -6.5257  -6.5108  -6.4734  -6.4490  -5.9219  -5.8306  -5.7557  -5.7371
    -5.1862  -5.0667  -4.8887  -4.8635  -4.8235  -4.7320  -4.7024  -4.6832
    -4.6494  -4.6278  -4.4559  -4.3536  -4.3380  -4.1774  -4.0801  -3.7352
    -3.7009  -3.5923  -3.5091  -3.3856  -3.3803  -3.2718  -3.2278  -3.1739
    -3.1733  -3.1618  -3.1368  -3.0163  -2.9239  -2.9089  -2.8962  -2.8704
    -2.7854  -2.7588  -2.7350  -2.6483  -2.6366  -2.6176  -2.5791  -2.5666
    -2.5478  -2.4627  -2.4608  -2.4549  -2.4527  -2.4142  -2.3426  -2.3413
    -2.2962  -2.2937  -2.2688  -2.2017  -2.1602  -2.1472  -2.0779  -2.0668
    -2.0173  -2.0140  -2.0085  -1.9967  -1.8741  -1.8724  -1.8509  -1.8497
    -1.8216  -1.8093  -1.8034  -1.7989  -1.7460  -1.6736  -1.6634  -1.6599
    -1.6439  -1.6365  -1.6296  -1.6265  -1.6115  -1.6025  -1.5951  -1.5598
    -1.5560  -1.5546  -1.5445  -1.5357  -1.5259  -1.3927  -1.3920  -1.3813
    -1.3632  -1.2689  -1.2623  -1.2416  -1.2346  -1.2169  -1.2147  -1.2070
    -1.1866  -1.1821  -1.1795  -1.1754  -1.1693  -1.1667  -1.1620  -1.1579
    -1.1535  -1.1416  -1.1354  -1.1324  -1.1229  -1.1184  -1.1165  -1.1097
    -1.0961  -1.0950  -1.0505  -1.0362  -1.0210  -1.0141  -0.9883  -0.9837
    -0.9803  -0.9762  -0.9687  -0.9483  -0.9453  -0.9420  -0.9415  -0.9397
    -0.9017  -0.8853  -0.8802  -0.8789  -0.8706  -0.8666  -0.8645  -0.8342
    -0.8262  -0.8222  -0.8213  -0.8164  -0.8099  -0.8063  -0.8037  -0.7961
    -0.7804  -0.7538  -0.7459  -0.7418  -0.7301  -0.7247  -0.7171  -0.7117
    -0.7006  -0.6960  -0.6889  -0.6801  -0.6653  -0.6601  -0.6515  -0.6482
    -0.6452  -0.5757  -0.5691  -0.5349  -0.5327  -0.5281  -0.5268  -0.5257
    -0.5149  -0.5093  -0.5011  -0.4995  -0.4978  -0.4943  -0.4883  -0.4674
    -0.4566  -0.4522  -0.4418  -0.4367  -0.4318  -0.4264  -0.4209  -0.4041
    -0.4034  -0.3978  -0.3956  -0.3887  -0.3856  -0.3725  -0.3622  -0.3562
    -0.3542  -0.3521  -0.3473  -0.3460  -0.3134  -0.3045  -0.3013  -0.2913
    -0.2815  -0.2735  -0.2618  -0.2442  -0.2321  -0.2272  -0.2155  -0.2130
    -0.2111  -0.2101  -0.2081  -0.2061  -0.1965  -0.1911  -0.1830  -0.1798
    -0.1673  -0.1604  -0.1579  -0.1557  -0.1536  -0.1494  -0.1446  -0.1410
    -0.1384  -0.1281  -0.1212  -0.1149  -0.1139  -0.1110  -0.1065  -0.1030
    -0.0949  -0.0873  -0.0667  -0.0645  -0.0558  -0.0522  -0.0512  -0.0465
    -0.0443  -0.0416  -0.0353  -0.0267  -0.0175  -0.0148  -0.0040   0.0034
     0.0090   0.0115   0.0146   0.0175   0.0235   0.0276   0.0344   0.0397
     0.0494   0.0625   0.0641   0.0731   0.0828   0.0926   0.0980   0.0990
     0.1043   0.1144   0.1162   0.1258   0.1301   0.1355   0.1430   0.1477
     0.1494   0.1543   0.1690   0.1704   0.1769   0.1814   0.1893   0.1945
     0.2013   0.2069   0.2108   0.2134   0.2139   0.2236   0.2276   0.2325
     0.2343   0.2418   0.2524   0.2727   0.2798   0.2850   0.2899   0.2943
     0.2988   0.3001   0.3018   0.3148   0.3226   0.3368   0.3428   0.3554
     0.3683   0.3709   0.3779   0.3829   0.3982   0.4091   0.4276   0.4411
     0.4462   0.4479   0.4647   0.4752   0.4780   0.4905   0.4973   0.4988
     0.5007   0.5085   0.5125   0.5147   0.5225   0.5249   0.5384   0.5391
     0.5433   0.5518   0.5610   0.5660   0.5684   0.5712   0.5768   0.5789
     0.5816   0.5888   0.5942   0.5997   0.6024   0.6061   0.6115   0.6126
     0.6138   0.6139   0.6165   0.6197   0.6257   0.6283   0.6326   0.6375
     0.6396   0.6456   0.6507   0.6589   0.6613   0.6646   0.6709   0.6726
     0.6778   0.6833   0.6853   0.6900   0.6973   0.7060   0.7134   0.7187
     0.7219   0.7243   0.7286   0.7363   0.7394   0.7438   0.7445   0.7532
     0.7596   0.7637   0.7694   0.7709   0.7747   0.7804   0.7836   0.7885
     0.7956   0.8086   0.8129   0.8150   0.8165   0.8255   0.8348   0.8421
     0.8448   0.8496   0.8575   0.8656   0.8733   0.8756   0.8778   0.8805
     0.8920   0.9108   0.9164   0.9186   0.9525   0.9545   0.9635   0.9648
     0.9754   0.9793   0.9817   0.9901   0.9927   0.9994   1.0019   1.0045
     1.0055   1.0090   1.0121   1.0147   1.0165   1.0190   1.0227   1.0257
     1.0352   1.0404   1.0423   1.0441   1.0443   1.0497   1.0509   1.0534
     1.0580   1.0630   1.0636   1.0658   1.0667   1.0698   1.0724   1.0771
     1.0805   1.0859   1.0918   1.0932   1.0985   1.0999   1.1099   1.1119
     1.1137   1.1167   1.1194   1.1221   1.1249   1.1267   1.1327   1.1362
     1.1418   1.1628   1.1641   1.1702   1.1754   1.1849   1.2070   1.2138
     1.2144   1.2259   1.2317   1.2364   1.2442   1.2558   1.2571   1.2611
     1.2625   1.2643   1.2686   1.2728   1.2781   1.2789   1.2812   1.2816
     1.2851   1.2868   1.2906   1.2925   1.2993   1.3002   1.3051   1.3065
     1.3075   1.3122   1.3162   1.3172   1.3221   1.3231   1.3320   1.3400
     1.3426   1.3434   1.3493   1.3525   1.3545   1.3606   1.3646   1.3721
     1.3730   1.3757   1.3811   1.3874   1.3880   1.3912   1.3941   1.3991
     1.4072   1.4112   1.4150   1.4173   1.4185   1.4355   1.4398   1.4439
     1.4461   1.4542   1.4545   1.4583   1.4627   1.4644   1.4690   1.4708
     1.4756   1.4808   1.4834   1.4845   1.4874   1.5071   1.5111   1.5148
     1.5202   1.5229   1.5263   1.5289   1.5300   1.5322   1.5343   1.5374
     1.5448   1.5561   1.5613   1.5630   1.5687   1.5723   1.5727   1.5744
     1.5879   1.5911   1.5925   1.5931   1.5991   1.6086   1.6118   1.6425
     1.6474   1.6505   1.6520   1.6571   1.6609   1.7334   1.7424   1.7492
     1.8096   1.8176   1.8400   1.8464   1.8477   1.8505   1.8621   1.8804
     1.8950   1.9011   1.9031   1.9144   1.9199   1.9471   2.0350   2.0996
     2.3053   2.3153   2.3537   2.4335   2.4390   2.4666   2.4952   2.5611
     2.5813   2.5880   2.5987   2.6185   2.6611   2.6665   2.6739   2.7535
     2.7847   2.7905   2.7994   2.8231   2.9343   3.0030   3.0099   3.1773
     3.2037   3.2473   3.2481   3.2932   3.5938   3.7261   3.7528   3.9209
     3.9928   4.0402   4.0568   4.1608   4.2306   4.2601   4.2925   4.3104
     4.3424   4.3608   4.3695   4.4449   4.4528   4.5345   4.6396   4.6839
     5.0434   5.0970   5.1605   5.1946   5.2819   5.3642   5.3809   5.4094
     5.4297   5.4524   5.5494   5.6674   5.7516   5.8429   5.9254   5.9658
     6.1011   6.1507   6.1631   6.2622   6.2822   6.3111   6.3207   6.4725
     6.5176   6.6342   6.6493   6.7435   6.7985   6.8358   6.8430   7.0087
     7.0411   7.1071   7.1238   7.1353   7.1778   7.1917   7.2137   7.2346
     7.2690   7.3582   7.3842   7.4120   7.4392   7.5345   7.6247   7.6965
     7.7239   7.8801   7.9289   7.9472   8.0504   8.1794   8.2144   8.2662
     8.2714   8.4219   8.4298   8.4399   8.4562   8.4720   8.5170   8.5738
     8.6430   8.6591   8.6701   8.7335   8.7432   8.7828   8.7863   8.8048
     8.8515   8.8709   8.9722   9.0688   9.1009   9.1220   9.1476   9.2389
     9.2510   9.3381   9.3607   9.3778   9.3827   9.3926   9.4007   9.4367
     9.4525   9.4792   9.4839   9.4895   9.5620   9.5668   9.5836   9.7316
     9.8793   9.8810   9.9737   9.9751  10.0191

          k = 0.2500 0.0000 0.0000 (256240 PWs)   bands (ev):

   -20.3051 -16.7885 -15.7112 -15.5184 -15.2268 -14.7298 -14.5699 -14.5368
   -14.4760 -13.7038 -13.5467 -13.3407 -12.8628 -12.7928 -12.6987 -12.6051
   -11.9820 -11.8634 -11.7495 -11.6737 -10.9443 -10.7514 -10.3918 -10.2712
   -10.0853  -9.8198  -9.5577  -9.5120  -9.0954  -8.8537  -8.7576  -8.4098
    -7.6676  -7.4591  -7.3865  -7.2228  -7.1994  -7.0910  -6.8567  -6.6985
    -6.5742  -5.9795  -5.8493  -5.7026  -5.6693  -5.5841  -5.5272  -5.1834
    -5.1814  -5.1446  -4.9897  -4.7916  -4.6372  -4.5830  -4.3930  -4.3033
    -4.2698  -4.2409  -4.2204  -4.1239  -4.0350  -4.0158  -3.8898  -3.8684
    -3.8212  -3.8122  -3.7186  -3.6946  -3.6586  -3.6192  -3.5102  -3.4792
    -3.4201  -3.3207  -3.3124  -3.2935  -3.1806  -3.1534  -3.1465  -3.0595
    -3.0072  -2.9630  -2.9565  -2.9068  -2.8932  -2.8000  -2.7700  -2.6842
    -2.6758  -2.6681  -2.5932  -2.4956  -2.4256  -2.3909  -2.3434  -2.2738
    -2.2484  -2.1967  -2.1896  -2.1098  -2.0829  -1.9830  -1.9779  -1.9668
    -1.9581  -1.9310  -1.8375  -1.8093  -1.8018  -1.7513  -1.7222  -1.6985
    -1.6949  -1.6919  -1.6896  -1.6835  -1.6819  -1.6631  -1.6549  -1.6492
    -1.6125  -1.5781  -1.5459  -1.5266  -1.5220  -1.5077  -1.4694  -1.4669
    -1.4644  -1.4630  -1.4602  -1.4585  -1.4508  -1.4389  -1.4215  -1.4128
    -1.3977  -1.3933  -1.3920  -1.3731  -1.2986  -1.2652  -1.2198  -1.2165
    -1.2060  -1.1782  -1.1619  -1.1430  -1.1405  -1.1367  -1.1305  -1.1295
    -1.1101  -1.0928  -1.0875  -1.0805  -1.0772  -1.0715  -1.0690  -1.0541
    -1.0323  -1.0295  -1.0249  -1.0192  -1.0089  -1.0036  -0.9997  -0.9866
    -0.9791  -0.9570  -0.9480  -0.9329  -0.9282  -0.9233  -0.9192  -0.9142
    -0.9087  -0.9075  -0.9020  -0.9005  -0.8974  -0.8937  -0.8924  -0.8850
    -0.8815  -0.8763  -0.8714  -0.8653  -0.8613  -0.8583  -0.8503  -0.8411
    -0.8280  -0.7989  -0.7955  -0.7920  -0.7555  -0.7493  -0.7112  -0.7087
    -0.7065  -0.7019  -0.6929  -0.6828  -0.6738  -0.6701  -0.6600  -0.6466
    -0.6419  -0.6390  -0.6339  -0.6297  -0.6210  -0.6191  -0.5312  -0.5245
    -0.5122  -0.5080  -0.4907  -0.4865  -0.4744  -0.4700  -0.4643  -0.4575
    -0.4517  -0.4493  -0.4455  -0.4348  -0.4279  -0.4246  -0.4163  -0.4090
    -0.4068  -0.3997  -0.3902  -0.3881  -0.3848  -0.3785  -0.3753  -0.3685
    -0.3660  -0.3587  -0.3274  -0.3205  -0.3122  -0.3065  -0.3054  -0.2974
    -0.2885  -0.2860  -0.2785  -0.2742  -0.2675  -0.2589  -0.2558  -0.2496
    -0.2472  -0.2280  -0.2192  -0.2141  -0.2085  -0.1975  -0.1931  -0.1908
    -0.1872  -0.1850  -0.1825  -0.1741  -0.1669  -0.1620  -0.1555  -0.1525
    -0.1489  -0.1352  -0.1197  -0.1150  -0.1112  -0.1064  -0.1032  -0.0958
    -0.0914  -0.0853  -0.0786  -0.0741  -0.0684  -0.0659  -0.0502  -0.0421
    -0.0334  -0.0266  -0.0208  -0.0121  -0.0046   0.0023   0.0110   0.0196
     0.0283   0.0344   0.0489   0.0575   0.0611   0.0684   0.0736   0.0750
     0.0777   0.0823   0.0856   0.0930   0.1015   0.1042   0.1081   0.1102
     0.1135   0.1161   0.1175   0.1225   0.1296   0.1335   0.1399   0.1433
     0.1521   0.1582   0.1616   0.1751   0.1816   0.1868   0.1914   0.1987
     0.2080   0.2130   0.2178   0.2258   0.2291   0.2316   0.2407   0.2429
     0.2510   0.2630   0.2705   0.2935   0.3088   0.3203   0.3263   0.3333
     0.3381   0.3544   0.3560   0.3642   0.3657   0.3705   0.3758   0.3815
     0.3837   0.3874   0.3901   0.3937   0.3971   0.4084   0.4115   0.4148
     0.4187   0.4201   0.4272   0.4355   0.4393   0.4460   0.4509   0.4540
     0.4575   0.4676   0.4797   0.4886   0.4948   0.5065   0.5092   0.5137
     0.5190   0.5277   0.5318   0.5350   0.5434   0.5479   0.5540   0.5596
     0.5613   0.5629   0.5707   0.5813   0.5861   0.5879   0.5922   0.5943
     0.5984   0.6002   0.6027   0.6125   0.6181   0.6247   0.6268   0.6358
     0.6406   0.6441   0.6479   0.6526   0.6568   0.6628   0.6680   0.6717
     0.6772   0.6788   0.6865   0.6914   0.6936   0.7021   0.7069   0.7154
     0.7188   0.7227   0.7265   0.7290   0.7295   0.7348   0.7432   0.7452
     0.7509   0.7530   0.7661   0.7761   0.7867   0.7932   0.7984   0.8096
     0.8157   0.8257   0.8279   0.8321   0.8392   0.8431   0.8467   0.8490
     0.8519   0.8570   0.8660   0.8693   0.8736   0.8801   0.8971   0.9048
     0.9089   0.9173   0.9218   0.9287   0.9336   0.9364   0.9423   0.9451
     0.9487   0.9583   0.9632   0.9662   0.9714   0.9725   0.9738   0.9800
     0.9850   0.9881   0.9909   0.9967   1.0000   1.0027   1.0098   1.0173
     1.0203   1.0307   1.0403   1.0472   1.0531   1.0582   1.0672   1.0708
     1.0763   1.0842   1.0894   1.0915   1.0944   1.0974   1.0987   1.1004
     1.1031   1.1052   1.1118   1.1146   1.1181   1.1208   1.1261   1.1289
     1.1328   1.1391   1.1430   1.1446   1.1476   1.1521   1.1539   1.1566
     1.1621   1.1664   1.1719   1.1757   1.1796   1.1838   1.1863   1.1918
     1.1953   1.1980   1.2007   1.2040   1.2042   1.2060   1.2096   1.2114
     1.2197   1.2221   1.2289   1.2395   1.2436   1.2527   1.2666   1.2686
     1.2709   1.2729   1.2783   1.2858   1.2920   1.2987   1.3068   1.3110
     1.3191   1.3238   1.3287   1.3318   1.3353   1.3390   1.3404   1.3465
     1.3525   1.3540   1.3574   1.3601   1.3632   1.3705   1.3721   1.3748
     1.3795   1.3819   1.3856   1.3874   1.3902   1.3914   1.3943   1.3977
     1.4008   1.4090   1.4097   1.4114   1.4213   1.4250   1.4279   1.4334
     1.4342   1.4404   1.4499   1.4511   1.4563   1.4622   1.4711   1.4832
     1.4841   1.4860   1.4939   1.4959   1.4986   1.5024   1.5038   1.5061
     1.5115   1.5140   1.5152   1.5174   1.5186   1.5223   1.5273   1.5286
     1.5316   1.5362   1.5375   1.5395   1.5485   1.5515   1.5555   1.5606
     1.5628   1.5641   1.5680   1.5741   1.5783   1.5807   1.5848   1.5928
     1.5974   1.6057   1.6105   1.6239   1.6380   1.6471   1.6554   1.6798
     1.6971   1.6992   1.7091   1.7133   1.7256   1.7352   1.7980   1.8204
     1.8400   1.8498   1.8721   1.9142   1.9290   2.0867   2.0959   2.1079
     2.1124   2.1170   2.1350   2.1687   2.2370   2.2419   2.2527   2.4754
     2.6178   2.6211   2.6319   2.7065   3.0216   3.0615   3.0633   3.2379
     3.2596   3.2712   3.2955   3.3019   3.3039   3.4075   3.4888   3.5421
     3.6030   3.6325   3.6951   3.7442   3.7493   3.7635   3.7847   3.8533
     3.8805   3.8969   3.9689   3.9875   4.0387   4.0853   4.3334   4.3715
     4.3946   4.4268   4.6560   4.6977   4.7384   4.8360   4.9031   4.9078
     5.0114   5.1262   5.1759   5.2934   5.3217   5.3551   5.3801   5.4522
     5.4721   5.5027   5.5280   5.5423   5.5927   5.6375   5.6510   5.7055
     5.7380   5.7720   5.8682   5.9550   6.0163   6.0739   6.0913   6.1020
     6.1407   6.3403   6.4172   6.6745   6.7098   6.7659   6.7922   6.8415
     6.8586   6.9050   6.9680   7.0066   7.0598   7.0954   7.1049   7.1280
     7.1600   7.1763   7.2032   7.2297   7.2975   7.3567   7.4220   7.5324
     7.5973   7.6310   7.6814   7.7119   7.7495   7.7593   7.9203   8.0391
     8.0911   8.1336   8.1521   8.1970   8.2180   8.2363   8.2733   8.2950
     8.3262   8.3687   8.4376   8.4728   8.4987   8.5098   8.6488   8.7105
     8.9187   9.0045   9.0159   9.0221   9.0452   9.0780   9.1377   9.1546
     9.1976   9.2174   9.2650   9.2837   9.3155   9.3294   9.3910   9.4650
     9.5117   9.5214   9.5400   9.5521   9.6521   9.6667   9.6896   9.7669
     9.8125   9.8382   9.8621   9.8727   9.9320

          k = 0.2500-0.2165 0.0000 (256316 PWs)   bands (ev):

   -20.3051 -16.7882 -15.7541 -15.4327 -15.1216 -15.0241 -14.7657 -14.2870
   -14.1460 -13.8584 -13.7274 -13.2889 -12.8616 -12.8396 -12.7720 -12.3429
   -12.2443 -11.8201 -11.6951 -11.1233 -11.0390 -10.9371 -10.7932 -10.5435
   -10.2023  -9.4470  -9.3751  -9.0624  -9.0178  -8.7868  -8.7146  -8.3276
    -8.2526  -8.0988  -8.0445  -6.9043  -6.8541  -6.6798  -6.4898  -6.3114
    -6.2410  -6.1245  -6.0283  -5.9695  -5.7998  -5.7688  -5.5789  -5.5631
    -5.0597  -4.8933  -4.7869  -4.7426  -4.6193  -4.6024  -4.5407  -4.5207
    -4.5037  -4.2617  -4.2376  -4.2128  -4.1340  -4.0791  -3.9404  -3.8843
    -3.8356  -3.7679  -3.6794  -3.6184  -3.5094  -3.4250  -3.4083  -3.3315
    -3.3240  -3.2861  -3.2775  -3.2547  -3.2119  -3.1339  -3.1006  -3.0703
    -3.0045  -2.8811  -2.8556  -2.8032  -2.7960  -2.7847  -2.7753  -2.7688
    -2.7425  -2.6884  -2.6562  -2.5775  -2.5512  -2.4307  -2.3957  -2.1994
    -2.1857  -2.1685  -2.1291  -2.0936  -2.0558  -2.0545  -2.0367  -2.0278
    -2.0088  -1.9015  -1.8975  -1.8933  -1.8604  -1.8191  -1.7488  -1.7406
    -1.7020  -1.6985  -1.6904  -1.6663  -1.6389  -1.6184  -1.6054  -1.5997
    -1.5946  -1.5896  -1.5805  -1.5724  -1.5682  -1.5656  -1.5605  -1.5586
    -1.5555  -1.5506  -1.5306  -1.4803  -1.4735  -1.4594  -1.4075  -1.3588
    -1.3541  -1.2942  -1.2826  -1.2274  -1.2217  -1.1904  -1.1822  -1.1773
    -1.1704  -1.1582  -1.1567  -1.1518  -1.1488  -1.1458  -1.1418  -1.1382
    -1.1356  -1.1226  -1.1145  -1.1058  -1.0958  -1.0943  -1.0932  -1.0776
    -1.0716  -1.0625  -1.0577  -1.0335  -1.0315  -1.0220  -1.0057  -1.0043
    -1.0028  -0.9956  -0.9767  -0.9543  -0.9470  -0.9421  -0.9297  -0.9242
    -0.9167  -0.9097  -0.8947  -0.8895  -0.8881  -0.8801  -0.8666  -0.8641
    -0.8586  -0.8547  -0.8536  -0.8485  -0.8405  -0.8391  -0.8276  -0.8151
    -0.8146  -0.7990  -0.7789  -0.7600  -0.7557  -0.7378  -0.7068  -0.6948
    -0.6878  -0.6667  -0.6599  -0.6568  -0.6489  -0.6316  -0.6295  -0.6205
    -0.6146  -0.6130  -0.6084  -0.6046  -0.5959  -0.5917  -0.5819  -0.5520
    -0.5461  -0.5222  -0.5136  -0.5088  -0.5001  -0.4916  -0.4784  -0.4687
    -0.4637  -0.4588  -0.4525  -0.4437  -0.4396  -0.4229  -0.4169  -0.4060
    -0.3993  -0.3936  -0.3910  -0.3834  -0.3798  -0.3675  -0.3502  -0.3444
    -0.3345  -0.3280  -0.3216  -0.3190  -0.3152  -0.3045  -0.3000  -0.2948
    -0.2867  -0.2846  -0.2801  -0.2742  -0.2704  -0.2672  -0.2624  -0.2547
    -0.2500  -0.2398  -0.2354  -0.2319  -0.2289  -0.2210  -0.2151  -0.2008
    -0.1950  -0.1908  -0.1892  -0.1808  -0.1729  -0.1660  -0.1536  -0.1501
    -0.1454  -0.1419  -0.1340  -0.1281  -0.1169  -0.1102  -0.0990  -0.0865
    -0.0795  -0.0769  -0.0593  -0.0439  -0.0394  -0.0310  -0.0234  -0.0143
    -0.0102  -0.0084  -0.0052   0.0014   0.0063   0.0167   0.0185   0.0253
     0.0301   0.0405   0.0436   0.0511   0.0586   0.0635   0.0662   0.0735
     0.0804   0.0824   0.0850   0.0872   0.0893   0.0910   0.0952   0.1030
     0.1050   0.1098   0.1139   0.1157   0.1170   0.1235   0.1249   0.1376
     0.1486   0.1575   0.1660   0.1688   0.1712   0.1784   0.1912   0.1958
     0.2119   0.2164   0.2259   0.2306   0.2331   0.2395   0.2460   0.2474
     0.2529   0.2550   0.2598   0.2643   0.2731   0.2778   0.2843   0.3046
     0.3216   0.3332   0.3438   0.3530   0.3561   0.3625   0.3702   0.3755
     0.3803   0.3831   0.3898   0.3977   0.4004   0.4054   0.4099   0.4149
     0.4190   0.4222   0.4272   0.4298   0.4335   0.4394   0.4444   0.4529
     0.4588   0.4614   0.4680   0.4743   0.4832   0.4880   0.5039   0.5097
     0.5116   0.5138   0.5281   0.5306   0.5422   0.5484   0.5534   0.5612
     0.5637   0.5689   0.5765   0.5816   0.5840   0.5878   0.5904   0.5943
     0.5970   0.6098   0.6131   0.6178   0.6251   0.6475   0.6542   0.6606
     0.6689   0.6720   0.6742   0.6773   0.6849   0.6894   0.6953   0.6988
     0.7028   0.7067   0.7097   0.7125   0.7166   0.7266   0.7323   0.7367
     0.7434   0.7458   0.7483   0.7540   0.7563   0.7584   0.7605   0.7632
     0.7687   0.7711   0.7770   0.7801   0.7828   0.7875   0.7908   0.7940
     0.7963   0.7980   0.8045   0.8103   0.8152   0.8217   0.8347   0.8419
     0.8436   0.8488   0.8526   0.8613   0.8745   0.8818   0.8926   0.8977
     0.9008   0.9050   0.9123   0.9143   0.9202   0.9266   0.9296   0.9309
     0.9328   0.9344   0.9395   0.9425   0.9453   0.9491   0.9557   0.9624
     0.9710   0.9737   0.9821   0.9846   0.9909   0.9972   1.0041   1.0062
     1.0069   1.0116   1.0172   1.0222   1.0321   1.0364   1.0451   1.0482
     1.0517   1.0569   1.0603   1.0732   1.0781   1.0823   1.0872   1.0992
     1.1018   1.1128   1.1199   1.1252   1.1355   1.1449   1.1505   1.1601
     1.1628   1.1677   1.1699   1.1729   1.1771   1.1786   1.1818   1.1841
     1.1857   1.1873   1.1898   1.1919   1.1956   1.1984   1.2041   1.2094
     1.2129   1.2218   1.2278   1.2300   1.2328   1.2401   1.2418   1.2446
     1.2506   1.2535   1.2591   1.2602   1.2637   1.2659   1.2711   1.2720
     1.2757   1.2790   1.2818   1.2879   1.2887   1.2945   1.2969   1.2990
     1.3023   1.3041   1.3071   1.3107   1.3131   1.3174   1.3267   1.3306
     1.3425   1.3459   1.3492   1.3500   1.3522   1.3581   1.3613   1.3656
     1.3673   1.3808   1.3837   1.3910   1.3937   1.3969   1.4031   1.4082
     1.4111   1.4143   1.4184   1.4228   1.4249   1.4291   1.4352   1.4414
     1.4487   1.4499   1.4527   1.4547   1.4580   1.4616   1.4647   1.4680
     1.4729   1.4779   1.4832   1.4858   1.4890   1.4933   1.4967   1.4996
     1.5010   1.5039   1.5093   1.5127   1.5140   1.5154   1.5220   1.5262
     1.5273   1.5306   1.5349   1.5389   1.5403   1.5448   1.5555   1.5580
     1.5593   1.5628   1.5717   1.5825   1.5848   1.5870   1.5915   1.5970
     1.5993   1.6099   1.6221   1.6262   1.6298   1.6424   1.6595   1.6623
     1.7127   1.7212   1.7323   1.7458   1.7922   1.8047   1.8116   1.8209
     1.8269   1.8338   1.8370   1.8435   1.8495   1.8663   1.8905   2.0579
     2.1480   2.2033   2.2088   2.2282   2.2576   2.3340   2.4053   2.6597
     2.6666   2.7831   2.8112   2.8231   2.8319   2.8529   2.8692   2.8770
     2.9501   3.0396   3.0516   3.0586   3.1831   3.5036   3.5443   3.5489
     3.5765   3.6089   3.8051   3.8718   3.9066   3.9148   3.9680   4.0157
     4.0675   4.1421   4.1625   4.1825   4.2321   4.2430   4.4090   4.4260
     4.4919   4.5605   4.6272   4.6767   4.6937   4.7645   4.7890   4.8464
     4.8782   4.9550   4.9819   5.0458   5.0920   5.1512   5.1894   5.2141
     5.3812   5.4050   5.4213   5.4886   5.5038   5.5308   5.6610   5.7195
     5.8279   5.8526   5.8798   5.9140   6.0927   6.1584   6.2060   6.2215
     6.3304   6.4903   6.5469   6.6628   6.7132   6.7568   6.7843   6.8482
     6.8811   6.9134   6.9864   7.0339   7.0570   7.1154   7.2027   7.2363
     7.2629   7.3006   7.3215   7.3533   7.3937   7.4423   7.4650   7.4913
     7.5213   7.5980   7.6172   7.6715   7.7715   7.7843   7.8334   7.8825
     7.8894   7.9999   8.1635   8.2315   8.2720   8.3247   8.4047   8.4738
     8.5489   8.5885   8.6006   8.6238   8.6273   8.6469   8.6915   8.7394
     8.7628   8.8128   8.8304   8.8727   8.9116   8.9564   8.9992   9.0771
     9.1068   9.1907   9.2045   9.2126   9.2448   9.2690   9.3120   9.3246
     9.3363   9.3671   9.4001   9.4597   9.4661   9.5245   9.5350   9.5603
     9.6469   9.6496   9.8361   9.9609   9.9780

          k =-0.5000 0.0000 0.0000 (256496 PWs)   bands (ev):

   -20.3051 -16.7283 -15.5630 -15.3299 -15.1999 -15.1826 -15.1137 -14.4055
   -14.2117 -14.1072 -14.0735 -12.8352 -12.5391 -12.4004 -12.3340 -12.0347
   -11.9897 -11.4966 -11.4787 -11.3619 -11.3510 -10.8453 -10.8032 -10.7125
   -10.4945  -9.9230  -9.9055  -9.6717  -9.3460  -8.7993  -8.7891  -8.6045
    -8.5824  -7.5216  -7.3551  -7.3120  -7.1231  -7.0632  -7.0423  -6.8502
    -5.8932  -5.8588  -5.4307  -5.1843  -5.1771  -4.9321  -4.8038  -4.7364
    -4.6990  -4.6760  -4.6704  -4.6255  -4.5370  -4.5094  -4.4262  -4.3892
    -4.3664  -4.3442  -4.3173  -4.2886  -4.2267  -4.2090  -4.1253  -4.0752
    -4.0669  -4.0029  -3.7430  -3.7197  -3.6651  -3.6295  -3.5640  -3.4579
    -3.4204  -3.3788  -3.3458  -3.3031  -3.2925  -3.2898  -3.2705  -3.2577
    -3.1472  -3.1315  -3.1069  -3.0948  -3.0606  -3.0478  -3.0154  -2.5875
    -2.5744  -2.5547  -2.5445  -2.5327  -2.5262  -2.5211  -2.5105  -2.4808
    -2.4580  -2.2705  -2.2660  -2.2622  -2.2253  -2.0990  -1.9794  -1.9351
    -1.9299  -1.7715  -1.7698  -1.7655  -1.7633  -1.7620  -1.7541  -1.6892
    -1.6827  -1.6717  -1.6534  -1.5508  -1.5441  -1.5428  -1.5403  -1.5374
    -1.5298  -1.4977  -1.4958  -1.4849  -1.4773  -1.4335  -1.4145  -1.3996
    -1.3821  -1.3758  -1.3212  -1.3178  -1.3143  -1.3093  -1.3035  -1.2983
    -1.2714  -1.2588  -1.2540  -1.2450  -1.2443  -1.2420  -1.2392  -1.2320
    -1.2275  -1.2267  -1.2182  -1.2110  -1.2014  -1.1976  -1.1955  -1.1903
    -1.1724  -1.1624  -1.1604  -1.1575  -1.1504  -1.1087  -1.1056  -1.1010
    -1.0832  -1.0800  -1.0774  -1.0713  -1.0665  -1.0625  -1.0494  -1.0405
    -1.0285  -1.0192  -1.0080  -1.0059  -1.0011  -0.9924  -0.9906  -0.9727
    -0.9699  -0.9581  -0.9525  -0.9152  -0.9032  -0.8870  -0.8792  -0.8743
    -0.8713  -0.8612  -0.8590  -0.8566  -0.8482  -0.8268  -0.8247  -0.8240
    -0.8232  -0.8194  -0.8181  -0.8147  -0.8105  -0.8077  -0.8025  -0.7935
    -0.7414  -0.7398  -0.7312  -0.7283  -0.7266  -0.6994  -0.6937  -0.6281
    -0.6102  -0.6067  -0.6048  -0.5892  -0.5809  -0.5773  -0.5738  -0.5670
    -0.5641  -0.5614  -0.5476  -0.5315  -0.5208  -0.5178  -0.5175  -0.5070
    -0.5054  -0.5043  -0.5006  -0.4996  -0.4844  -0.4812  -0.4722  -0.4611
    -0.4093  -0.3881  -0.3708  -0.3614  -0.3472  -0.3424  -0.3354  -0.3316
    -0.3217  -0.3142  -0.3114  -0.3107  -0.3081  -0.3047  -0.2851  -0.2841
    -0.2796  -0.2766  -0.2606  -0.2460  -0.2416  -0.2378  -0.2336  -0.2249
    -0.2152  -0.2137  -0.2120  -0.2042  -0.2015  -0.1989  -0.1949  -0.1939
    -0.1897  -0.1829  -0.1621  -0.1553  -0.1456  -0.1434  -0.1355  -0.1140
    -0.1119  -0.1063  -0.1021  -0.0793  -0.0653  -0.0604  -0.0543  -0.0539
    -0.0489  -0.0415  -0.0375  -0.0341  -0.0183  -0.0166  -0.0120  -0.0002
     0.0097   0.0173   0.0273   0.0312   0.0394   0.0497   0.0531   0.0563
     0.0611   0.0654   0.0665   0.0706   0.0733   0.0763   0.0785   0.0848
     0.1093   0.1286   0.1325   0.1482   0.1546   0.1597   0.1601   0.1638
     0.1669   0.1674   0.1729   0.1761   0.1767   0.1801   0.1813   0.1843
     0.1867   0.1883   0.1931   0.1983   0.2000   0.2015   0.2056   0.2080
     0.2118   0.2146   0.2160   0.2207   0.2239   0.2325   0.2356   0.2366
     0.2431   0.2478   0.2514   0.2628   0.2683   0.2788   0.2829   0.2902
     0.3021   0.3227   0.3359   0.3475   0.3563   0.3707   0.3792   0.3855
     0.3929   0.4059   0.4104   0.4185   0.4218   0.4244   0.4278   0.4367
     0.4399   0.4457   0.4471   0.4527   0.4562   0.4607   0.4659   0.4684
     0.4721   0.4760   0.4808   0.4832   0.4857   0.4887   0.4923   0.4929
     0.4969   0.5049   0.5081   0.5248   0.5565   0.5623   0.5790   0.5837
     0.5871   0.5954   0.5958   0.5988   0.6073   0.6127   0.6153   0.6185
     0.6226   0.6234   0.6270   0.6277   0.6286   0.6353   0.6356   0.6360
     0.6377   0.6421   0.6469   0.6499   0.6531   0.6558   0.6578   0.6687
     0.6735   0.6791   0.6880   0.7007   0.7036   0.7055   0.7147   0.7169
     0.7192   0.7207   0.7246   0.7296   0.7316   0.7341   0.7386   0.7394
     0.7421   0.7462   0.7469   0.7498   0.7564   0.7609   0.7668   0.7783
     0.7887   0.7964   0.8000   0.8001   0.8095   0.8116   0.8162   0.8197
     0.8224   0.8316   0.8416   0.8447   0.8496   0.8560   0.8664   0.8679
     0.8724   0.8909   0.8934   0.9047   0.9069   0.9135   0.9140   0.9154
     0.9170   0.9202   0.9233   0.9245   0.9342   0.9402   0.9474   0.9500
     0.9533   0.9548   0.9571   0.9612   0.9664   0.9737   0.9766   0.9791
     0.9824   0.9915   0.9941   1.0001   1.0036   1.0082   1.0145   1.0164
     1.0198   1.0268   1.0357   1.0501   1.0770   1.0881   1.0945   1.0976
     1.1037   1.1048   1.1101   1.1181   1.1219   1.1254   1.1380   1.1419
     1.1487   1.1570   1.1597   1.1678   1.1689   1.1750   1.1789   1.1846
     1.1906   1.1915   1.1951   1.1972   1.2000   1.2020   1.2063   1.2079
     1.2127   1.2148   1.2169   1.2212   1.2252   1.2263   1.2314   1.2356
     1.2363   1.2381   1.2460   1.2505   1.2532   1.2563   1.2606   1.2616
     1.2794   1.2825   1.2874   1.2913   1.2979   1.3023   1.3072   1.3115
     1.3125   1.3169   1.3178   1.3200   1.3218   1.3229   1.3240   1.3256
     1.3282   1.3330   1.3347   1.3588   1.3676   1.3731   1.3769   1.3800
     1.3812   1.3836   1.3855   1.3864   1.3892   1.3899   1.3902   1.3932
     1.4006   1.4022   1.4056   1.4086   1.4097   1.4128   1.4148   1.4164
     1.4185   1.4215   1.4247   1.4266   1.4324   1.4342   1.4361   1.4378
     1.4394   1.4424   1.4455   1.4542   1.4689   1.4729   1.4762   1.4841
     1.4850   1.4896   1.4946   1.4958   1.4987   1.5015   1.5077   1.5099
     1.5121   1.5155   1.5178   1.5198   1.5221   1.5255   1.5323   1.5367
     1.5383   1.5433   1.5520   1.5562   1.5616   1.5635   1.5661   1.5710
     1.5776   1.5827   1.5862   1.5904   1.5911   1.5916   1.5968   1.6022
     1.6197   1.6249   1.6460   1.6508   1.6545   1.6710   1.6759   1.6820
     1.6870   1.6971   1.7752   2.0612   2.0660   2.0783   2.1275   2.2481
     2.2835   2.3172   2.3502   2.3665   2.3680   2.3749   2.3945   2.5849
     2.5963   2.6206   2.8252   2.8867   2.8959   2.9049   3.0338   3.2562
     3.2711   3.2739   3.2852   3.4963   3.5406   3.6662   3.7187   3.7566
     3.8140   3.8953   3.9083   3.9701   3.9778   4.0591   4.0999   4.1410
     4.1436   4.1695   4.2488   4.2777   4.5636   4.6120   4.6340   4.7601
     4.7815   4.7957   4.8625   4.9070   4.9219   4.9426   4.9672   4.9900
     5.0276   5.0893   5.0961   5.0996   5.1115   5.1253   5.1362   5.1447
     5.1727   5.2466   5.2912   5.4324   5.4433   5.4941   5.5199   5.5339
     5.6062   5.6092   5.6327   5.8032   5.8429   5.9532   5.9911   6.0121
     6.0279   6.0476   6.0703   6.0729   6.0987   6.2422   6.2598   6.3204
     6.4097   6.4623   6.5355   6.6735   6.7004   6.7161   6.7844   7.0778
     7.1092   7.1172   7.1797   7.2097   7.3274   7.5847   7.5885   7.6369
     7.6447   7.6624   7.6640   7.6930   7.7482   7.8444   7.8652   7.9209
     7.9349   7.9646   7.9825   7.9963   8.0126   8.0529   8.0771   8.0949
     8.1108   8.1720   8.2155   8.3341   8.6512   8.6946   8.7142   8.7327
     8.7878   8.8299   8.8560   8.8773   8.9024   9.0125   9.0149   9.0219
     9.0420   9.0987   9.1472   9.2400   9.3330   9.3868   9.4492   9.4666
     9.5000   9.5078   9.5140   9.5187   9.5238   9.5336   9.5408   9.5696
     9.6085   9.6230   9.7448   9.8203   9.8979

          k =-0.5000-0.2165 0.0000 (256328 PWs)   bands (ev):

   -20.3051 -16.7282 -15.5277 -15.3948 -15.3713 -14.9576 -14.8029 -14.7269
   -14.6947 -13.6693 -13.4525 -13.3192 -13.2856 -12.2620 -12.0114 -11.6079
   -11.5692 -11.5497 -11.4171 -11.3289 -11.2679 -11.1247 -11.1161 -11.0127
   -10.9945  -9.6530  -9.6326  -9.3882  -9.3459  -8.9034  -8.5670  -8.4562
    -8.4211  -7.9387  -7.9047  -7.7036  -7.6900  -6.8532  -6.2518  -5.9354
    -5.8422  -5.6587  -5.5320  -5.2976  -5.0709  -5.0570  -5.0456  -5.0439
    -5.0167  -4.9640  -4.9594  -4.7777  -4.6807  -4.5721  -4.5582  -4.4178
    -4.0960  -4.0721  -4.0706  -4.0681  -4.0534  -4.0252  -4.0192  -4.0012
    -3.9758  -3.8589  -3.8111  -3.7599  -3.7504  -3.6694  -3.5641  -3.5363
    -3.5096  -3.4715  -3.3945  -3.3799  -3.3775  -3.3414  -3.3295  -3.3154
    -3.2591  -3.1415  -3.1226  -3.1130  -3.0414  -2.8637  -2.6977  -2.6557
    -2.6291  -2.4734  -2.4702  -2.4622  -2.4571  -2.4554  -2.4489  -2.4412
    -2.3570  -2.3327  -2.2835  -2.1387  -2.0846  -1.9693  -1.9669  -1.9640
    -1.9627  -1.9602  -1.9506  -1.9344  -1.8696  -1.8277  -1.7708  -1.7356
    -1.7043  -1.6880  -1.6877  -1.6841  -1.6716  -1.5146  -1.4914  -1.4860
    -1.4742  -1.4312  -1.4105  -1.3918  -1.3890  -1.3860  -1.3841  -1.3820
    -1.3781  -1.3368  -1.3333  -1.3322  -1.3283  -1.3077  -1.2869  -1.2838
    -1.2736  -1.2726  -1.2708  -1.2677  -1.2671  -1.2613  -1.2571  -1.2511
    -1.2471  -1.2442  -1.2052  -1.2011  -1.1980  -1.1911  -1.1816  -1.1711
    -1.1661  -1.1167  -1.1081  -1.0975  -1.0949  -1.0853  -1.0836  -1.0791
    -1.0761  -1.0638  -1.0540  -1.0477  -1.0473  -1.0441  -1.0407  -1.0394
    -1.0281  -1.0224  -1.0211  -1.0142  -1.0072  -1.0012  -0.9857  -0.9756
    -0.9667  -0.9642  -0.9595  -0.9584  -0.9520  -0.9458  -0.9381  -0.9351
    -0.9326  -0.9280  -0.9262  -0.9195  -0.9154  -0.9130  -0.8156  -0.8097
    -0.7973  -0.7891  -0.7722  -0.7693  -0.7640  -0.7617  -0.7481  -0.7480
    -0.7475  -0.6981  -0.6886  -0.6815  -0.6753  -0.6698  -0.6673  -0.6613
    -0.6594  -0.6533  -0.6530  -0.6498  -0.6471  -0.6067  -0.6052  -0.5985
    -0.5955  -0.5942  -0.5850  -0.5827  -0.5763  -0.5738  -0.5686  -0.5485
    -0.5398  -0.5087  -0.4787  -0.4625  -0.4542  -0.4504  -0.4447  -0.4391
    -0.4344  -0.4249  -0.4115  -0.3964  -0.3929  -0.3722  -0.3575  -0.3555
    -0.3506  -0.3452  -0.3387  -0.3285  -0.3241  -0.3186  -0.3118  -0.3010
    -0.2976  -0.2919  -0.2853  -0.2821  -0.2733  -0.2472  -0.2243  -0.2139
    -0.2095  -0.2077  -0.1892  -0.1839  -0.1711  -0.1617  -0.1595  -0.1562
    -0.1542  -0.1509  -0.1490  -0.1426  -0.1351  -0.1203  -0.0952  -0.0857
    -0.0810  -0.0793  -0.0696  -0.0665  -0.0649  -0.0603  -0.0578  -0.0561
    -0.0552  -0.0445  -0.0361  -0.0343  -0.0327  -0.0276  -0.0255  -0.0155
    -0.0146  -0.0100  -0.0065  -0.0007   0.0100   0.0106   0.0200   0.0272
     0.0541   0.0576   0.0665   0.0716   0.0796   0.1101   0.1161   0.1264
     0.1340   0.1393   0.1434   0.1463   0.1480   0.1490   0.1544   0.1624
     0.1669   0.1712   0.1745   0.1777   0.1824   0.1833   0.1901   0.1936
     0.1984   0.2021   0.2041   0.2050   0.2075   0.2083   0.2101   0.2122
     0.2156   0.2184   0.2233   0.2279   0.2366   0.2428   0.2511   0.2553
     0.2621   0.2665   0.2754   0.2828   0.2890   0.2949   0.3062   0.3110
     0.3127   0.3198   0.3233   0.3369   0.3414   0.3464   0.3497   0.3803
     0.3922   0.4071   0.4098   0.4171   0.4206   0.4357   0.4449   0.4492
     0.4506   0.4597   0.4623   0.4688   0.4732   0.4790   0.4801   0.4841
     0.4886   0.4932   0.5010   0.5031   0.5152   0.5243   0.5301   0.5359
     0.5405   0.5443   0.5521   0.5524   0.5543   0.5574   0.5584   0.5631
     0.5672   0.5722   0.5755   0.5832   0.5893   0.5910   0.5932   0.6038
     0.6092   0.6219   0.6240   0.6338   0.6345   0.6384   0.6433   0.6473
     0.6516   0.6531   0.6585   0.6623   0.6646   0.6684   0.6748   0.6788
     0.6842   0.6880   0.6900   0.6949   0.6958   0.6987   0.7016   0.7066
     0.7110   0.7134   0.7146   0.7182   0.7268   0.7358   0.7423   0.7524
     0.7599   0.7633   0.7643   0.7684   0.7713   0.7800   0.7813   0.7863
     0.7914   0.7956   0.7979   0.8053   0.8098   0.8132   0.8153   0.8207
     0.8208   0.8239   0.8268   0.8328   0.8396   0.8414   0.8496   0.8636
     0.8666   0.8720   0.8893   0.8942   0.8982   0.8986   0.9086   0.9222
     0.9306   0.9341   0.9384   0.9410   0.9517   0.9527   0.9529   0.9546
     0.9585   0.9598   0.9844   0.9991   1.0028   1.0078   1.0109   1.0129
     1.0188   1.0225   1.0298   1.0345   1.0424   1.0533   1.0603   1.0650
     1.0700   1.0783   1.0845   1.0879   1.0899   1.0965   1.1040   1.1079
     1.1092   1.1122   1.1174   1.1200   1.1225   1.1238   1.1245   1.1253
     1.1282   1.1296   1.1337   1.1357   1.1369   1.1419   1.1435   1.1455
     1.1497   1.1613   1.1620   1.1664   1.1681   1.1711   1.1765   1.1823
     1.1839   1.1882   1.1959   1.2000   1.2024   1.2055   1.2065   1.2132
     1.2166   1.2193   1.2214   1.2251   1.2327   1.2424   1.2683   1.2711
     1.2718   1.2761   1.2797   1.2811   1.2821   1.2856   1.2896   1.2918
     1.2975   1.3010   1.3039   1.3056   1.3090   1.3109   1.3163   1.3193
     1.3428   1.3467   1.3539   1.3544   1.3594   1.3607   1.3629   1.3643
     1.3659   1.3681   1.3691   1.3703   1.3891   1.3964   1.4051   1.4062
     1.4171   1.4200   1.4223   1.4308   1.4317   1.4338   1.4362   1.4372
     1.4385   1.4399   1.4417   1.4432   1.4437   1.4475   1.4497   1.4511
     1.4521   1.4546   1.4570   1.4644   1.4689   1.4715   1.4723   1.4733
     1.4759   1.4790   1.4802   1.4817   1.4871   1.4892   1.4939   1.5006
     1.5083   1.5155   1.5186   1.5199   1.5233   1.5267   1.5373   1.5414
     1.5420   1.5535   1.5546   1.5608   1.5787   1.5790   1.5825   1.5854
     1.5908   1.6053   1.6096   1.6121   1.6157   1.6379   1.6482   1.6501
     1.6551   1.6562   1.6602   1.6622   1.6700   1.6771   1.6809   1.6891
     1.6939   1.7000   1.7010   1.7040   1.8222   1.9013   1.9035   1.9067
     1.9943   2.3202   2.3237   2.3499   2.5213   2.6333   2.6408   2.6514
     2.6624   2.8110   2.8243   2.8379   2.8820   3.0573   3.0628   3.1019
     3.3444   3.5212   3.5351   3.5420   3.5523   3.6409   3.6938   3.6965
     3.7354   3.9963   4.0135   4.0214   4.0251   4.1530   4.1810   4.2151
     4.2374   4.2815   4.3067   4.3134   4.3473   4.4006   4.4881   4.5083
     4.5774   4.6473   4.7029   4.7083   4.7468   4.7664   4.9780   5.0303
     5.1019   5.1234   5.1251   5.1887   5.1961   5.2033   5.2281   5.2359
     5.2519   5.2701   5.2872   5.3113   5.3511   5.4406   5.4541   5.4633
     5.5156   5.6700   5.6767   5.7143   5.7638   5.7924   5.8065   5.8162
     5.8294   5.8546   5.9726   5.9841   6.0196   6.2475   6.3865   6.7728
     6.7987   6.9951   7.0172   7.0730   7.0763   7.0976   7.1056   7.1274
     7.1524   7.1744   7.1960   7.2142   7.2370   7.3255   7.3449   7.4142
     7.4342   7.4573   7.4842   7.5132   7.5254   7.6529   7.7861   7.8157
     7.9362   7.9480   8.0628   8.1335   8.1506   8.1853   8.2235   8.2540
     8.2652   8.3194   8.3789   8.3847   8.3916   8.4348   8.7089   8.8825
     8.9069   8.9241   8.9405   8.9577   8.9850   8.9941   9.0012   9.0255
     9.0455   9.1288   9.1343   9.1463   9.1552   9.1622   9.2566   9.3259
     9.3300   9.3432   9.3570   9.4420   9.4535   9.4609   9.4666   9.5122
     9.5212   9.6711   9.8100   9.8843   9.9966

     the Fermi energy is     3.3976 ev

!    total energy              =  -12750.20801058 Ry
     Harris-Foulkes estimate   =  -12750.20801057 Ry
     estimated scf accuracy    <          4.8E-09 Ry

     The total energy is the sum of the following terms:

     one-electron contribution = -100069.72234603 Ry
     hartree contribution      =   51405.61949734 Ry
     xc contribution           =   -4456.64405328 Ry
     ewald contribution        =   40376.71452577 Ry
     Dispersion Correction     =      -2.79637894 Ry
     smearing contrib. (-TS)   =      -3.37925543 Ry

     convergence has been achieved in  45 iterations

     Writing output data file gc.save
 
     init_run     :    189.83s CPU    202.48s WALL (       1 calls)
     electrons    :  25679.24s CPU  27329.64s WALL (       1 calls)

     Called by init_run:
     wfcinit      :    186.90s CPU    199.07s WALL (       1 calls)
     potinit      :      0.88s CPU      0.93s WALL (       1 calls)

     Called by electrons:
     c_bands      :  23503.28s CPU  24979.15s WALL (      45 calls)
     sum_band     :   1762.62s CPU   1874.75s WALL (      45 calls)
     v_of_rho     :      5.72s CPU      7.24s WALL (      46 calls)
     newd         :     16.13s CPU     29.86s WALL (      46 calls)
     mix_rho      :    391.50s CPU    438.85s WALL (      45 calls)

     Called by c_bands:
     init_us_2    :     83.21s CPU     84.55s WALL (     546 calls)
     cegterg      :  23164.36s CPU  24626.55s WALL (     280 calls)

     Called by sum_band:
     sum_band:bec :      4.74s CPU      5.43s WALL (     270 calls)
     addusdens    :     22.45s CPU     34.86s WALL (      45 calls)

     Called by *egterg:
     h_psi        :   8411.53s CPU   9066.20s WALL (    1973 calls)
     s_psi        :   2061.38s CPU   2074.65s WALL (    1973 calls)
     g_psi        :     22.42s CPU     22.45s WALL (    1687 calls)
     cdiaghg      :   6639.53s CPU   6971.90s WALL (    1959 calls)

     Called by h_psi:
     add_vuspsi   :   2067.43s CPU   2082.38s WALL (    1973 calls)

     General routines
     calbec       :   2780.27s CPU   2801.71s WALL (    2243 calls)
     fft          :      5.04s CPU      5.95s WALL (     597 calls)
     ffts         :    171.31s CPU    206.08s WALL (   24544 calls)
     fftw         :   4200.75s CPU   4857.47s WALL ( 1368206 calls)
     davcio       :      0.22s CPU      7.62s WALL (       6 calls)
 
     Parallel routines
     fft_scatter  :   2184.55s CPU   2495.23s WALL ( 1393347 calls)
 
     PWSCF        :     7h11m CPU        7h39m WALL

 
   This run was terminated on:   8:59:28   1Oct2017            

=------------------------------------------------------------------------------=
   JOB DONE.
=------------------------------------------------------------------------------=
