
     Program PWSCF v.5.4.0 starts on 26Mar2017 at 13:43:50 

     This program is part of the open-source Quantum ESPRESSO suite
     for quantum simulation of materials; please cite
         "P. Giannozzi et al., J. Phys.:Condens. Matter 21 395502 (2009);
          URL http://www.quantum-espresso.org", 
     in publications or presentations arising from this work. More details at
     http://www.quantum-espresso.org/quote

     Parallel version (MPI & OpenMP), running on      56 processor cores
     Number of MPI processes:                56
     Threads/MPI process:                     1
     R & G space division:  proc/nbgrp/npool/nimage =      56
     Waiting for input...
     Reading input from standard input
Warning: card &IONS ignored
Warning: card / ignored

     Current dimensions of program PWSCF are:
     Max number of different atomic species (ntypx) = 10
     Max number of k-points (npk) =  40000
     Max angular momentum in pseudopotentials (lmaxx) =  3

     -------------------------------------
     Parameters for Dispersion Correction:
     -------------------------------------
       atom      VdW radius       C_6     

        Cu         2.952        374.666
        C_h        2.744         60.710
        C          2.744         60.710

     Subspace diagonalization in iterative solution of the eigenvalue problem:
     one sub-group per band group will be used
     scalapack distributed-memory algorithm (size of sub-group:  5*  5 procs)

 
     Parallelization info
     --------------------
     sticks:   dense  smooth     PW     G-vecs:    dense   smooth      PW
     Min         204     204     54                36612    36612    4962
     Max         205     205     55                36617    36617    4968
     Sum       11433   11433   3039              2050409  2050409  278033
 


     bravais-lattice index     =            0
     lattice parameter (alat)  =      13.9425  a.u.
     unit-cell volume          =   21209.0878 (a.u.)^3
     number of atoms/cell      =          148
     number of atomic types    =            3
     number of electrons       =      1292.00
     number of Kohn-Sham states=          775
     kinetic-energy cutoff     =      80.0000  Ry
     charge density cutoff     =     320.0000  Ry
     convergence threshold     =      1.0E-08
     mixing beta               =       0.7000
     number of iterations used =            8  local-TF  mixing
     Exchange-correlation      =  SLA  PW   PBX  PBC ( 1  4  3  4 0 0)

     celldm(1)=  13.942539  celldm(2)=   0.000000  celldm(3)=   0.000000
     celldm(4)=   0.000000  celldm(5)=   0.000000  celldm(6)=   0.000000

     crystal axes: (cart. coord. in units of alat)
               a(1) = (   1.000000   0.000000   0.000000 )  
               a(2) = (   0.000000   2.309401   0.000000 )  
               a(3) = (   0.000000   0.000000   3.388418 )  

     reciprocal axes: (cart. coord. in units 2 pi/alat)
               b(1) = (  1.000000  0.000000  0.000000 )  
               b(2) = (  0.000000  0.433013  0.000000 )  
               b(3) = (  0.000000  0.000000  0.295123 )  


     PseudoPot. # 1 for Cu read from file:
     /home/549/hxw549/Short/pseudopotentials/Cu.pbe-n-van_ak.UPF
     MD5 check sum: 601f7c30f7467666bec936e0661ce3e1
     Pseudo is Ultrasoft + core correction, Zval = 11.0
     Generated by new atomic code, or converted to UPF format
     Using radial grid of  867 points,  6 beta functions with: 
                l(1) =   0
                l(2) =   0
                l(3) =   1
                l(4) =   1
                l(5) =   2
                l(6) =   2
     Q(r) pseudized with  8 coefficients,  rinner =    1.400   1.400   1.400
                                                       1.400   1.400

     PseudoPot. # 2 for C  read from file:
     /home/549/hxw549/Short/pseudopotentials/C.star1s-pbe-mt_gipaw.UPF
     MD5 check sum: ef0cb3dee31bd9e4ba2a832a2c716264
     Pseudo is Norm-conserving, Zval =  5.0
     Generated by new atomic code, or converted to UPF format
     Using radial grid of 1073 points,  1 beta functions with: 
                l(1) =   0

     PseudoPot. # 3 for C  read from file:
     /home/549/hxw549/Short/pseudopotentials/C.pbe-mt_gipaw.UPF
     MD5 check sum: 5ac2f21f2c440b14befe521540822c15
     Pseudo is Norm-conserving, Zval =  4.0
     Generated by new atomic code, or converted to UPF format
     Using radial grid of 1073 points,  1 beta functions with: 
                l(1) =   0

     atomic species   valence    mass     pseudopotential
        Cu            11.00    63.54600     Cu( 1.00)
        C_h            5.00    12.01070     C ( 1.00)
        C              4.00    12.01070     C ( 1.00)

      2 Sym. Ops. (no inversion) found



   Cartesian axes

     site n.     atom                  positions (alat units)
         1           Cu  tau(   1) = (   0.0000000   0.0000567   0.9971194  )
         2           Cu  tau(   2) = (   0.2499927   0.2309760   0.9972946  )
         3           Cu  tau(   3) = (   0.5000000   0.0000313   0.9971490  )
         4           Cu  tau(   4) = (   0.7500073   0.2309760   0.9972946  )
         5           Cu  tau(   5) = (   0.0000000   0.4618437   0.9973425  )
         6           Cu  tau(   6) = (   0.2499840   0.6927701   0.9971914  )
         7           Cu  tau(   7) = (   0.5000000   0.4618722   0.9973119  )
         8           Cu  tau(   8) = (   0.7500160   0.6927701   0.9971914  )
         9           Cu  tau(   9) = (   0.0000000   0.9237521   0.9970621  )
        10           Cu  tau(  10) = (   0.2500157   1.1547420   0.9971373  )
        11           Cu  tau(  11) = (   0.5000000   0.9237453   0.9970727  )
        12           Cu  tau(  12) = (   0.7499843   1.1547420   0.9971373  )
        13           Cu  tau(  13) = (   0.0000000   1.3856555   0.9972830  )
        14           Cu  tau(  14) = (   0.2500029   1.6165618   0.9973242  )
        15           Cu  tau(  15) = (   0.5000000   1.3857014   0.9973005  )
        16           Cu  tau(  16) = (   0.7499971   1.6165618   0.9973242  )
        17           Cu  tau(  17) = (   0.0000000   1.8474941   0.9971969  )
        18           Cu  tau(  18) = (   0.2500043   2.0784518   0.9970745  )
        19           Cu  tau(  19) = (   0.5000000   1.8474499   0.9971773  )
        20           Cu  tau(  20) = (   0.7499957   2.0784518   0.9970745  )
        21           Cu  tau(  21) = (   0.0000000   0.2308065   1.2457643  )
        22           Cu  tau(  22) = (   0.2499892  -0.0001010   1.2455764  )
        23           Cu  tau(  23) = (   0.5000000   0.2308938   1.2456746  )
        24           Cu  tau(  24) = (   0.7500108  -0.0001010   1.2455764  )
        25           Cu  tau(  25) = (   0.0000000   0.6929786   1.2456406  )
        26           Cu  tau(  26) = (   0.2499874   0.4619293   1.2457459  )
        27           Cu  tau(  27) = (   0.5000000   0.6929012   1.2456074  )
        28           Cu  tau(  28) = (   0.7500126   0.4619293   1.2457459  )
        29           Cu  tau(  29) = (   0.0000000   1.1546142   1.2455676  )
        30           Cu  tau(  30) = (   0.2499981   0.9237849   1.2455149  )
        31           Cu  tau(  31) = (   0.5000000   1.1545763   1.2455800  )
        32           Cu  tau(  32) = (   0.7500019   0.9237849   1.2455149  )
        33           Cu  tau(  33) = (   0.0000000   1.6166029   1.2456910  )
        34           Cu  tau(  34) = (   0.2500161   1.3855492   1.2457134  )
        35           Cu  tau(  35) = (   0.5000000   1.6166555   1.2458019  )
        36           Cu  tau(  36) = (   0.7499839   1.3855492   1.2457134  )
        37           Cu  tau(  37) = (   0.0000000   2.0784993   1.2455162  )
        38           Cu  tau(  38) = (   0.2500161   1.8476387   1.2456210  )
        39           Cu  tau(  39) = (   0.5000000   2.0784755   1.2455152  )
        40           Cu  tau(  40) = (   0.7499839   1.8476387   1.2456210  )
        41           Cu  tau(  41) = (   0.0000000  -0.0003182   1.4954305  )
        42           Cu  tau(  42) = (   0.2500224   0.2307186   1.4951678  )
        43           Cu  tau(  43) = (   0.5000000  -0.0002059   1.4952775  )
        44           Cu  tau(  44) = (   0.7499776   0.2307186   1.4951678  )
        45           Cu  tau(  45) = (   0.0000000   0.4620254   1.4950571  )
        46           Cu  tau(  46) = (   0.2500339   0.6931225   1.4952807  )
        47           Cu  tau(  47) = (   0.5000000   0.4619896   1.4952144  )
        48           Cu  tau(  48) = (   0.7499661   0.6931225   1.4952807  )
        49           Cu  tau(  49) = (   0.0000000   0.9238798   1.4954544  )
        50           Cu  tau(  50) = (   0.2499708   1.1544329   1.4953374  )
        51           Cu  tau(  51) = (   0.5000000   0.9237633   1.4954072  )
        52           Cu  tau(  52) = (   0.7500292   1.1544329   1.4953374  )
        53           Cu  tau(  53) = (   0.0000000   1.3854453   1.4952066  )
        54           Cu  tau(  54) = (   0.2499861   1.6167017   1.4951298  )
        55           Cu  tau(  55) = (   0.5000000   1.3853760   1.4951346  )
        56           Cu  tau(  56) = (   0.7500139   1.6167017   1.4951298  )
        57           Cu  tau(  57) = (   0.0000000   1.8477718   1.4952308  )
        58           Cu  tau(  58) = (   0.2499930   2.0785254   1.4954090  )
        59           Cu  tau(  59) = (   0.5000000   1.8478762   1.4953503  )
        60           Cu  tau(  60) = (   0.7500070   2.0785254   1.4954090  )
        61           Cu  tau(  61) = (   0.0000000   0.2310733   1.7440777  )
        62           Cu  tau(  62) = (   0.2501089  -0.0001294   1.7450479  )
        63           Cu  tau(  63) = (   0.5000000   0.2306045   1.7445985  )
        64           Cu  tau(  64) = (   0.7498911  -0.0001294   1.7450479  )
        65           Cu  tau(  65) = (   0.0000000   0.6927994   1.7446059  )
        66           Cu  tau(  66) = (   0.2502918   0.4619532   1.7441197  )
        67           Cu  tau(  67) = (   0.5000000   0.6931011   1.7451318  )
        68           Cu  tau(  68) = (   0.7497082   0.4619532   1.7441197  )
        69           Cu  tau(  69) = (   0.0000000   1.1545789   1.7453503  )
        70           Cu  tau(  70) = (   0.2500220   0.9237908   1.7453835  )
        71           Cu  tau(  71) = (   0.5000000   1.1545999   1.7449118  )
        72           Cu  tau(  72) = (   0.7499780   0.9237908   1.7453835  )
        73           Cu  tau(  73) = (   0.0000000   1.6167791   1.7444075  )
        74           Cu  tau(  74) = (   0.2497438   1.3855115   1.7442733  )
        75           Cu  tau(  75) = (   0.5000000   1.6164906   1.7439233  )
        76           Cu  tau(  76) = (   0.7502562   1.3855115   1.7442733  )
        77           Cu  tau(  77) = (   0.0000000   2.0782721   1.7455014  )
        78           Cu  tau(  78) = (   0.2498426   1.8476765   1.7447807  )
        79           Cu  tau(  79) = (   0.5000000   2.0787016   1.7454002  )
        80           Cu  tau(  80) = (   0.7501574   1.8476765   1.7447807  )
        81           Cu  tau(  81) = (   0.0000000   0.0010732   1.9906710  )
        82           Cu  tau(  82) = (   0.2503054   0.2314650   1.9904877  )
        83           Cu  tau(  83) = (   0.5000000   0.0001335   1.9924670  )
        84           Cu  tau(  84) = (   0.7496946   0.2314650   1.9904877  )
        85           Cu  tau(  85) = (   0.0000000   0.4618379   1.9901778  )
        86           Cu  tau(  86) = (   0.2508441   0.6921348   1.9910282  )
        87           Cu  tau(  87) = (   0.5000000   0.4613052   1.9913358  )
        88           Cu  tau(  88) = (   0.7491559   0.6921348   1.9910282  )
        89           Cu  tau(  89) = (   0.0000000   0.9224699   1.9915918  )
        90           Cu  tau(  90) = (   0.2491275   1.1552920   1.9912642  )
        91           Cu  tau(  91) = (   0.5000000   0.9247757   1.9920574  )
        92           Cu  tau(  92) = (   0.7508725   1.1552920   1.9912642  )
        93           Cu  tau(  93) = (   0.0000000   1.3865904   1.9916296  )
        94           Cu  tau(  94) = (   0.2499532   1.6162906   1.9903050  )
        95           Cu  tau(  95) = (   0.5000000   1.3858063   1.9901800  )
        96           Cu  tau(  96) = (   0.7500468   1.6162906   1.9903050  )
        97           Cu  tau(  97) = (   0.0000000   1.8468318   1.9923212  )
        98           Cu  tau(  98) = (   0.2497561   2.0783183   1.9915134  )
        99           Cu  tau(  99) = (   0.5000000   1.8467805   1.9903847  )
       100           Cu  tau( 100) = (   0.7502439   2.0783183   1.9915134  )
       101           C   tau( 101) = (   0.0000000   0.0962962   2.3888871  )
       102           C   tau( 102) = (   0.0000000   0.2886925   2.3900713  )
       103           C   tau( 103) = (   0.1666323   0.0000435   2.3878440  )
       104           C   tau( 104) = (   0.1664900   0.3848966   2.3886743  )
       105           C   tau( 105) = (   0.3331238   0.0962174   2.3860158  )
       106           C   tau( 106) = (   0.3331280   0.2886629   2.3856823  )
       107           C_h tau( 107) = (   0.5000000  -0.0000818   2.3845687  )
       108           C   tau( 108) = (   0.5000000   0.3849277   2.3842391  )
       109           C   tau( 109) = (   0.6668762   0.0962174   2.3860158  )
       110           C   tau( 110) = (   0.6668720   0.2886629   2.3856823  )
       111           C   tau( 111) = (   0.8333677   0.0000435   2.3878440  )
       112           C   tau( 112) = (   0.8335100   0.3848966   2.3886743  )
       113           C   tau( 113) = (   0.0000000   0.6735163   2.3892509  )
       114           C   tau( 114) = (   0.0000000   0.8659398   2.3870960  )
       115           C   tau( 115) = (   0.1664759   0.5773226   2.3882842  )
       116           C   tau( 116) = (   0.1667428   0.9622141   2.3870264  )
       117           C   tau( 117) = (   0.3332094   0.6735984   2.3858047  )
       118           C   tau( 118) = (   0.3332031   0.8660537   2.3866148  )
       119           C   tau( 119) = (   0.5000000   0.5773685   2.3848465  )
       120           C   tau( 120) = (   0.5000000   0.9623380   2.3860825  )
       121           C   tau( 121) = (   0.6667906   0.6735984   2.3858047  )
       122           C   tau( 122) = (   0.6667969   0.8660537   2.3866148  )
       123           C   tau( 123) = (   0.8335241   0.5773226   2.3882842  )
       124           C   tau( 124) = (   0.8332572   0.9622141   2.3870264  )
       125           C   tau( 125) = (   0.0000000   1.2508867   2.3852683  )
       126           C   tau( 126) = (   0.0000000   1.4433300   2.3840871  )
       127           C   tau( 127) = (   0.1667360   1.1546708   2.3859697  )
       128           C   tau( 128) = (   0.1668939   1.5396104   2.3857176  )
       129           C   tau( 129) = (   0.3335095   1.2509657   2.3878953  )
       130           C   tau( 130) = (   0.3334866   1.4433958   2.3886602  )
       131           C   tau( 131) = (   0.5000000   1.1547731   2.3885512  )
       132           C   tau( 132) = (   0.5000000   1.5396099   2.3901428  )
       133           C   tau( 133) = (   0.6664905   1.2509657   2.3878953  )
       134           C   tau( 134) = (   0.6665134   1.4433958   2.3886602  )
       135           C   tau( 135) = (   0.8332640   1.1546708   2.3859697  )
       136           C   tau( 136) = (   0.8331061   1.5396104   2.3857176  )
       137           C   tau( 137) = (   0.0000000   1.8283510   2.3842019  )
       138           C   tau( 138) = (   0.0000000   2.0207949   2.3863399  )
       139           C   tau( 139) = (   0.1668959   1.7320513   2.3858703  )
       140           C   tau( 140) = (   0.1666186   2.1169980   2.3865340  )
       141           C   tau( 141) = (   0.3334155   1.8282368   2.3882160  )
       142           C   tau( 142) = (   0.3334352   2.0206763   2.3869561  )
       143           C   tau( 143) = (   0.5000000   1.7319961   2.3895398  )
       144           C   tau( 144) = (   0.5000000   2.1168754   2.3870198  )
       145           C   tau( 145) = (   0.6665845   1.8282368   2.3882160  )
       146           C   tau( 146) = (   0.6665648   2.0206763   2.3869561  )
       147           C   tau( 147) = (   0.8331041   1.7320513   2.3858703  )
       148           C   tau( 148) = (   0.8333814   2.1169980   2.3865340  )

     number of k points=     6  gaussian smearing, width (Ry)=  0.1000
                       cart. coord. in units 2pi/alat
        k(    1) = (   0.0000000   0.0000000   0.0000000), wk =   0.2500000
        k(    2) = (   0.0000000  -0.2165064   0.0000000), wk =   0.2500000
        k(    3) = (   0.2500000   0.0000000   0.0000000), wk =   0.5000000
        k(    4) = (   0.2500000  -0.2165064   0.0000000), wk =   0.5000000
        k(    5) = (  -0.5000000   0.0000000   0.0000000), wk =   0.2500000
        k(    6) = (  -0.5000000  -0.2165064   0.0000000), wk =   0.2500000

     Dense  grid:  2050409 G-vectors     FFT dimensions: (  80, 192, 270)

     Largest allocated arrays     est. size (Mb)     dimensions
        Kohn-Sham Wavefunctions        54.44 Mb     (    4604,  775)
        NL pseudopotentials           129.82 Mb     (    4604, 1848)
        Each V/rho on FFT grid          1.17 Mb     (   76800)
        Each G-vector array             0.28 Mb     (   36616)
        G-vector shells                 0.14 Mb     (   17932)
     Largest temporary arrays     est. size (Mb)     dimensions
        Auxiliary wavefunctions       217.78 Mb     (    4604, 3100)
        Each subspace H/S matrix        5.87 Mb     (     620,  620)
        Each <psi_i|beta_j> matrix     21.85 Mb     (    1848,  775)
        Arrays for rho mixing           9.38 Mb     (   76800,    8)

     Initial potential from superposition of free atoms
     Check: negative starting charge=   -0.001842

     starting charge 1266.81751, renormalised to 1292.00000

     negative rho (up, down):  1.879E-03 0.000E+00
     Starting wfc are 1284 randomized atomic wfcs

     total cpu time spent up to now is      108.5 secs

     Self-consistent Calculation

     iteration #  1     ecut=    80.00 Ry     beta=0.70
     Davidson diagonalization with overlap
     c_bands:  5 eigenvalues not converged
     ethr =  1.00E-04,  avg # of iterations = 36.2

     negative rho (up, down):  2.722E+01 0.000E+00

     total cpu time spent up to now is     2079.8 secs

     total energy              =   -9476.96651753 Ry
     Harris-Foulkes estimate   =  -17310.13413172 Ry
     estimated scf accuracy    <  180071.32037866 Ry

     iteration #  2     ecut=    80.00 Ry     beta=0.70
     Davidson diagonalization with overlap
     ethr =  1.00E-02,  avg # of iterations = 12.3

     negative rho (up, down):  3.144E+01 0.000E+00

     total cpu time spent up to now is     2995.8 secs

     total energy              =  -12201.74410555 Ry
     Harris-Foulkes estimate   =  -13664.49335154 Ry
     estimated scf accuracy    <   24001.30253530 Ry

     iteration #  3     ecut=    80.00 Ry     beta=0.70
     Davidson diagonalization with overlap
     ethr =  1.00E-02,  avg # of iterations =  7.5

     negative rho (up, down):  3.198E+01 0.000E+00

     total cpu time spent up to now is     3529.9 secs

     total energy              =  -12464.11526185 Ry
     Harris-Foulkes estimate   =  -13405.91909650 Ry
     estimated scf accuracy    <    5780.08845106 Ry

     iteration #  4     ecut=    80.00 Ry     beta=0.70
     Davidson diagonalization with overlap
     ethr =  1.00E-02,  avg # of iterations =  5.7

     negative rho (up, down):  2.372E+01 0.000E+00

     total cpu time spent up to now is     4028.1 secs

     total energy              =  -12847.44892861 Ry
     Harris-Foulkes estimate   =  -13082.82235889 Ry
     estimated scf accuracy    <    1738.04926391 Ry

     iteration #  5     ecut=    80.00 Ry     beta=0.70
     Davidson diagonalization with overlap
     ethr =  1.00E-02,  avg # of iterations =  3.3

     negative rho (up, down):  1.866E+01 0.000E+00

     total cpu time spent up to now is     4294.1 secs

     total energy              =  -12844.60420203 Ry
     Harris-Foulkes estimate   =  -12959.80583338 Ry
     estimated scf accuracy    <    1310.49606622 Ry

     iteration #  6     ecut=    80.00 Ry     beta=0.70
     Davidson diagonalization with overlap
     ethr =  1.00E-02,  avg # of iterations =  2.7

     negative rho (up, down):  1.292E+01 0.000E+00

     total cpu time spent up to now is     4498.3 secs

     total energy              =  -12834.55541501 Ry
     Harris-Foulkes estimate   =  -12908.63450644 Ry
     estimated scf accuracy    <     569.27832658 Ry

     iteration #  7     ecut=    80.00 Ry     beta=0.70
     Davidson diagonalization with overlap
     ethr =  1.00E-02,  avg # of iterations =  2.0

     negative rho (up, down):  9.186E+00 0.000E+00

     total cpu time spent up to now is     4680.2 secs

     total energy              =  -12805.77751935 Ry
     Harris-Foulkes estimate   =  -12851.66947189 Ry
     estimated scf accuracy    <     449.42095391 Ry

     iteration #  8     ecut=    80.00 Ry     beta=0.70
     Davidson diagonalization with overlap
     ethr =  1.00E-02,  avg # of iterations =  2.0

     negative rho (up, down):  7.093E+00 0.000E+00

     total cpu time spent up to now is     4861.2 secs

     total energy              =  -12786.35085495 Ry
     Harris-Foulkes estimate   =  -12823.70695904 Ry
     estimated scf accuracy    <     520.05803066 Ry

     iteration #  9     ecut=    80.00 Ry     beta=0.70
     Davidson diagonalization with overlap
     ethr =  1.00E-02,  avg # of iterations =  2.3

     negative rho (up, down):  5.341E+00 0.000E+00

     total cpu time spent up to now is     5042.3 secs

     total energy              =  -12779.31469971 Ry
     Harris-Foulkes estimate   =  -12798.87822305 Ry
     estimated scf accuracy    <     183.04483750 Ry

     iteration # 10     ecut=    80.00 Ry     beta=0.70
     Davidson diagonalization with overlap
     ethr =  1.00E-02,  avg # of iterations =  1.5

     negative rho (up, down):  1.483E+00 0.000E+00

     total cpu time spent up to now is     5213.8 secs

     total energy              =  -12730.91582391 Ry
     Harris-Foulkes estimate   =  -12780.79225054 Ry
     estimated scf accuracy    <     143.23923875 Ry

     iteration # 11     ecut=    80.00 Ry     beta=0.70
     Davidson diagonalization with overlap
     ethr =  1.00E-02,  avg # of iterations =  3.5

     negative rho (up, down):  1.475E+00 0.000E+00

     total cpu time spent up to now is     5414.5 secs

     total energy              =  -12729.73752990 Ry
     Harris-Foulkes estimate   =  -12747.98054355 Ry
     estimated scf accuracy    <     721.11193247 Ry

     iteration # 12     ecut=    80.00 Ry     beta=0.70
     Davidson diagonalization with overlap
     ethr =  1.00E-02,  avg # of iterations =  1.0

     negative rho (up, down):  8.773E-01 0.000E+00

     total cpu time spent up to now is     5581.8 secs

     total energy              =  -12725.43451393 Ry
     Harris-Foulkes estimate   =  -12739.35842428 Ry
     estimated scf accuracy    <     431.67220862 Ry

     iteration # 13     ecut=    80.00 Ry     beta=0.70
     Davidson diagonalization with overlap
     ethr =  1.00E-02,  avg # of iterations =  1.0

     negative rho (up, down):  3.014E+00 0.000E+00

     total cpu time spent up to now is     5749.6 secs

     total energy              =  -12709.96850262 Ry
     Harris-Foulkes estimate   =  -12734.35327415 Ry
     estimated scf accuracy    <     199.33748415 Ry

     iteration # 14     ecut=    80.00 Ry     beta=0.70
     Davidson diagonalization with overlap
     ethr =  1.00E-02,  avg # of iterations =  2.0

     negative rho (up, down):  4.591E+00 0.000E+00

     total cpu time spent up to now is     5930.5 secs

     total energy              =  -12714.48448429 Ry
     Harris-Foulkes estimate   =  -12724.32579595 Ry
     estimated scf accuracy    <      60.13457585 Ry

     iteration # 15     ecut=    80.00 Ry     beta=0.70
     Davidson diagonalization with overlap
     ethr =  4.65E-03,  avg # of iterations =  2.0

     negative rho (up, down):  5.021E+00 0.000E+00

     total cpu time spent up to now is     6108.3 secs

     total energy              =  -12716.03607861 Ry
     Harris-Foulkes estimate   =  -12719.11376870 Ry
     estimated scf accuracy    <      30.41011269 Ry

     iteration # 16     ecut=    80.00 Ry     beta=0.70
     Davidson diagonalization with overlap
     ethr =  2.35E-03,  avg # of iterations =  2.0

     negative rho (up, down):  5.781E+00 0.000E+00

     total cpu time spent up to now is     6286.4 secs

     total energy              =  -12714.81456668 Ry
     Harris-Foulkes estimate   =  -12716.81492082 Ry
     estimated scf accuracy    <      18.29098044 Ry

     iteration # 17     ecut=    80.00 Ry     beta=0.70
     Davidson diagonalization with overlap
     ethr =  1.42E-03,  avg # of iterations =  7.3

     negative rho (up, down):  4.793E+00 0.000E+00

     total cpu time spent up to now is     6526.6 secs

     total energy              =  -12713.84636161 Ry
     Harris-Foulkes estimate   =  -12715.34037482 Ry
     estimated scf accuracy    <      14.35159987 Ry

     iteration # 18     ecut=    80.00 Ry     beta=0.70
     Davidson diagonalization with overlap
     ethr =  1.11E-03,  avg # of iterations =  2.0

     negative rho (up, down):  3.501E+00 0.000E+00

     total cpu time spent up to now is     6703.8 secs

     total energy              =  -12712.46857161 Ry
     Harris-Foulkes estimate   =  -12714.01469002 Ry
     estimated scf accuracy    <       9.72067108 Ry

     iteration # 19     ecut=    80.00 Ry     beta=0.70
     Davidson diagonalization with overlap
     ethr =  7.52E-04,  avg # of iterations =  3.2

     negative rho (up, down):  1.754E+00 0.000E+00

     total cpu time spent up to now is     6895.2 secs

     total energy              =  -12710.73257862 Ry
     Harris-Foulkes estimate   =  -12712.68934212 Ry
     estimated scf accuracy    <       9.55763059 Ry

     iteration # 20     ecut=    80.00 Ry     beta=0.70
     Davidson diagonalization with overlap
     ethr =  7.40E-04,  avg # of iterations =  2.8

     negative rho (up, down):  1.867E+00 0.000E+00

     total cpu time spent up to now is     7082.8 secs

     total energy              =  -12711.07531476 Ry
     Harris-Foulkes estimate   =  -12711.11322604 Ry
     estimated scf accuracy    <      13.35240748 Ry

     iteration # 21     ecut=    80.00 Ry     beta=0.70
     Davidson diagonalization with overlap
     ethr =  7.40E-04,  avg # of iterations =  2.7

     negative rho (up, down):  1.677E+00 0.000E+00

     total cpu time spent up to now is     7268.8 secs

     total energy              =  -12710.73943981 Ry
     Harris-Foulkes estimate   =  -12711.66120433 Ry
     estimated scf accuracy    <       7.14742256 Ry

     iteration # 22     ecut=    80.00 Ry     beta=0.70
     Davidson diagonalization with overlap
     ethr =  5.53E-04,  avg # of iterations =  4.3

     negative rho (up, down):  1.337E+00 0.000E+00

     total cpu time spent up to now is     7473.5 secs

     total energy              =  -12710.28411308 Ry
     Harris-Foulkes estimate   =  -12710.95865186 Ry
     estimated scf accuracy    <       6.94283238 Ry

     iteration # 23     ecut=    80.00 Ry     beta=0.70
     Davidson diagonalization with overlap
     ethr =  5.37E-04,  avg # of iterations =  1.2

     negative rho (up, down):  9.416E-02 0.000E+00

     total cpu time spent up to now is     7643.8 secs

     total energy              =  -12707.99698270 Ry
     Harris-Foulkes estimate   =  -12710.45660685 Ry
     estimated scf accuracy    <       6.46765410 Ry

     iteration # 24     ecut=    80.00 Ry     beta=0.70
     Davidson diagonalization with overlap
     ethr =  5.01E-04,  avg # of iterations =  3.2

     negative rho (up, down):  1.919E-01 0.000E+00

     total cpu time spent up to now is     7837.3 secs

     total energy              =  -12707.55498229 Ry
     Harris-Foulkes estimate   =  -12708.20422578 Ry
     estimated scf accuracy    <       8.22202308 Ry

     iteration # 25     ecut=    80.00 Ry     beta=0.70
     Davidson diagonalization with overlap
     ethr =  5.01E-04,  avg # of iterations =  1.0

     negative rho (up, down):  5.630E-01 0.000E+00

     total cpu time spent up to now is     8004.4 secs

     total energy              =  -12707.29682543 Ry
     Harris-Foulkes estimate   =  -12707.80586665 Ry
     estimated scf accuracy    <       3.35020518 Ry

     iteration # 26     ecut=    80.00 Ry     beta=0.70
     Davidson diagonalization with overlap
     ethr =  2.59E-04,  avg # of iterations =  7.5

     negative rho (up, down):  7.801E-01 0.000E+00

     total cpu time spent up to now is     8246.7 secs

     total energy              =  -12707.27126304 Ry
     Harris-Foulkes estimate   =  -12707.46941766 Ry
     estimated scf accuracy    <       1.11654337 Ry

     iteration # 27     ecut=    80.00 Ry     beta=0.70
     Davidson diagonalization with overlap
     ethr =  8.64E-05,  avg # of iterations = 10.0

     negative rho (up, down):  4.722E-01 0.000E+00

     total cpu time spent up to now is     8524.6 secs

     total energy              =  -12707.15738060 Ry
     Harris-Foulkes estimate   =  -12707.30805772 Ry
     estimated scf accuracy    <       0.53729620 Ry

     iteration # 28     ecut=    80.00 Ry     beta=0.70
     Davidson diagonalization with overlap
     ethr =  4.16E-05,  avg # of iterations = 12.2

     negative rho (up, down):  4.090E-01 0.000E+00

     total cpu time spent up to now is     8852.8 secs

     total energy              =  -12707.10729538 Ry
     Harris-Foulkes estimate   =  -12707.20823674 Ry
     estimated scf accuracy    <       0.78476820 Ry

     iteration # 29     ecut=    80.00 Ry     beta=0.70
     Davidson diagonalization with overlap
     ethr =  4.16E-05,  avg # of iterations =  8.3

     negative rho (up, down):  2.291E-01 0.000E+00

     total cpu time spent up to now is     9109.4 secs

     total energy              =  -12707.13295072 Ry
     Harris-Foulkes estimate   =  -12707.15552548 Ry
     estimated scf accuracy    <       0.14769308 Ry

     iteration # 30     ecut=    80.00 Ry     beta=0.70
     Davidson diagonalization with overlap
     ethr =  1.14E-05,  avg # of iterations = 10.3

     negative rho (up, down):  8.051E-02 0.000E+00

     total cpu time spent up to now is     9421.9 secs

     total energy              =  -12707.14044839 Ry
     Harris-Foulkes estimate   =  -12707.15039786 Ry
     estimated scf accuracy    <       0.09813092 Ry

     iteration # 31     ecut=    80.00 Ry     beta=0.70
     Davidson diagonalization with overlap
     c_bands:  1 eigenvalues not converged
     ethr =  7.60E-06,  avg # of iterations = 15.7

     negative rho (up, down):  5.515E-02 0.000E+00

     total cpu time spent up to now is     9772.3 secs

     total energy              =  -12707.14187488 Ry
     Harris-Foulkes estimate   =  -12707.14466235 Ry
     estimated scf accuracy    <       0.02567998 Ry

     iteration # 32     ecut=    80.00 Ry     beta=0.70
     Davidson diagonalization with overlap
     c_bands:  1 eigenvalues not converged
     c_bands:  1 eigenvalues not converged
     c_bands:  1 eigenvalues not converged
     ethr =  1.99E-06,  avg # of iterations = 14.7

     negative rho (up, down):  1.953E-02 0.000E+00

     total cpu time spent up to now is    10119.6 secs

     total energy              =  -12707.14102135 Ry
     Harris-Foulkes estimate   =  -12707.14281447 Ry
     estimated scf accuracy    <       0.00757364 Ry

     iteration # 33     ecut=    80.00 Ry     beta=0.70
     Davidson diagonalization with overlap
     ethr =  5.86E-07,  avg # of iterations =  9.0

     negative rho (up, down):  1.116E-02 0.000E+00

     total cpu time spent up to now is    10400.9 secs

     total energy              =  -12707.14163943 Ry
     Harris-Foulkes estimate   =  -12707.14213436 Ry
     estimated scf accuracy    <       0.00484961 Ry

     iteration # 34     ecut=    80.00 Ry     beta=0.70
     Davidson diagonalization with overlap
     c_bands:  1 eigenvalues not converged
     ethr =  3.75E-07,  avg # of iterations =  9.3

     negative rho (up, down):  3.913E-03 0.000E+00

     total cpu time spent up to now is    10671.8 secs

     total energy              =  -12707.14190314 Ry
     Harris-Foulkes estimate   =  -12707.14199651 Ry
     estimated scf accuracy    <       0.00055552 Ry

     iteration # 35     ecut=    80.00 Ry     beta=0.70
     Davidson diagonalization with overlap
     ethr =  4.30E-08,  avg # of iterations =  8.3

     negative rho (up, down):  2.711E-03 0.000E+00

     total cpu time spent up to now is    10958.0 secs

     total energy              =  -12707.14225125 Ry
     Harris-Foulkes estimate   =  -12707.14199910 Ry
     estimated scf accuracy    <       0.00040060 Ry

     iteration # 36     ecut=    80.00 Ry     beta=0.70
     Davidson diagonalization with overlap
     c_bands:  1 eigenvalues not converged
     c_bands:  1 eigenvalues not converged
     ethr =  3.10E-08,  avg # of iterations = 10.8

     negative rho (up, down):  4.948E-03 0.000E+00

     total cpu time spent up to now is    11268.4 secs

     total energy              =  -12707.14233043 Ry
     Harris-Foulkes estimate   =  -12707.14228633 Ry
     estimated scf accuracy    <       0.00005894 Ry

     iteration # 37     ecut=    80.00 Ry     beta=0.70
     Davidson diagonalization with overlap
     c_bands:  1 eigenvalues not converged
     ethr =  4.56E-09,  avg # of iterations =  9.8

     negative rho (up, down):  2.885E-03 0.000E+00

     total cpu time spent up to now is    11556.3 secs

     total energy              =  -12707.14230990 Ry
     Harris-Foulkes estimate   =  -12707.14233613 Ry
     estimated scf accuracy    <       0.00001502 Ry

     iteration # 38     ecut=    80.00 Ry     beta=0.70
     Davidson diagonalization with overlap
     ethr =  1.16E-09,  avg # of iterations =  4.7

     negative rho (up, down):  2.804E-03 0.000E+00

     total cpu time spent up to now is    11787.8 secs

     total energy              =  -12707.14230869 Ry
     Harris-Foulkes estimate   =  -12707.14231188 Ry
     estimated scf accuracy    <       0.00000905 Ry

     iteration # 39     ecut=    80.00 Ry     beta=0.70
     Davidson diagonalization with overlap
     ethr =  7.01E-10,  avg # of iterations =  2.3

     negative rho (up, down):  2.246E-03 0.000E+00

     total cpu time spent up to now is    11987.0 secs

     total energy              =  -12707.14230712 Ry
     Harris-Foulkes estimate   =  -12707.14230959 Ry
     estimated scf accuracy    <       0.00000392 Ry

     iteration # 40     ecut=    80.00 Ry     beta=0.70
     Davidson diagonalization with overlap
     ethr =  3.04E-10,  avg # of iterations =  3.5

     negative rho (up, down):  2.141E-03 0.000E+00

     total cpu time spent up to now is    12193.3 secs

     total energy              =  -12707.14230724 Ry
     Harris-Foulkes estimate   =  -12707.14230744 Ry
     estimated scf accuracy    <       0.00000069 Ry

     iteration # 41     ecut=    80.00 Ry     beta=0.70
     Davidson diagonalization with overlap
     ethr =  5.38E-11,  avg # of iterations =  3.0

     negative rho (up, down):  2.080E-03 0.000E+00

     total cpu time spent up to now is    12413.5 secs

     total energy              =  -12707.14230777 Ry
     Harris-Foulkes estimate   =  -12707.14230736 Ry
     estimated scf accuracy    <       0.00000037 Ry

     iteration # 42     ecut=    80.00 Ry     beta=0.70
     Davidson diagonalization with overlap
     ethr =  2.89E-11,  avg # of iterations =  3.0

     negative rho (up, down):  2.111E-03 0.000E+00

     total cpu time spent up to now is    12609.9 secs

     total energy              =  -12707.14230802 Ry
     Harris-Foulkes estimate   =  -12707.14230780 Ry
     estimated scf accuracy    <       0.00000010 Ry

     iteration # 43     ecut=    80.00 Ry     beta=0.70
     Davidson diagonalization with overlap
     ethr =  7.94E-12,  avg # of iterations =  3.3

     negative rho (up, down):  2.118E-03 0.000E+00

     total cpu time spent up to now is    12823.1 secs

     total energy              =  -12707.14230806 Ry
     Harris-Foulkes estimate   =  -12707.14230803 Ry
     estimated scf accuracy    <       0.00000002 Ry

     iteration # 44     ecut=    80.00 Ry     beta=0.70
     Davidson diagonalization with overlap
     ethr =  1.40E-12,  avg # of iterations =  3.0

     negative rho (up, down):  2.131E-03 0.000E+00

     total cpu time spent up to now is    13084.3 secs

     total energy              =  -12707.14230807 Ry
     Harris-Foulkes estimate   =  -12707.14230806 Ry
     estimated scf accuracy    <       0.00000001 Ry

     iteration # 45     ecut=    80.00 Ry     beta=0.70
     Davidson diagonalization with overlap
     ethr =  9.99E-13,  avg # of iterations =  2.5

     negative rho (up, down):  2.115E-03 0.000E+00

     total cpu time spent up to now is    13265.1 secs

     End of self-consistent calculation

          k = 0.0000 0.0000 0.0000 (256287 PWs)   bands (ev):

   -17.2871 -16.2344 -16.0872 -15.4312 -15.0433 -14.7896 -14.6900 -14.2524
   -14.1989 -14.1377 -14.1244 -13.4673 -13.3245 -13.1544 -13.1202 -13.0871
   -13.0778 -11.6679 -11.5339 -11.4865 -11.3888 -11.2049 -10.3532  -9.7685
    -9.7597  -9.6267  -9.5228  -8.9869  -8.7993  -8.6751  -8.5994  -8.0470
    -7.9024  -7.7655  -7.6397  -7.5789  -7.5715  -7.5359  -7.5214  -6.3580
    -6.3508  -6.1264  -6.0220  -6.0185  -5.9506  -5.8891  -5.8590  -5.8427
    -5.5003  -5.4849  -5.3095  -4.8945  -4.8384  -4.7995  -4.6354  -4.6218
    -4.5836  -4.4243  -4.2592  -4.1471  -3.9899  -3.9884  -3.9694  -3.9451
    -3.6165  -3.5513  -3.5322  -3.5256  -3.4207  -3.4172  -3.4081  -3.4008
    -3.2772  -3.1873  -3.1218  -3.0590  -3.0149  -3.0092  -3.0072  -3.0061
    -2.9916  -2.8587  -2.8342  -2.7974  -2.7812  -2.7435  -2.7417  -2.7400
    -2.7172  -2.7137  -2.5329  -2.4328  -2.3778  -2.3764  -2.3394  -2.3367
    -2.1954  -2.1926  -2.1798  -2.1774  -2.1526  -2.1524  -2.1523  -2.1522
    -2.1127  -2.0786  -2.0774  -2.0347  -2.0217  -2.0216  -2.0215  -2.0211
    -1.9616  -1.8423  -1.7775  -1.7461  -1.7395  -1.7384  -1.7381  -1.7030
    -1.6935  -1.6722  -1.6590  -1.6573  -1.6146  -1.6006  -1.5920  -1.5755
    -1.5641  -1.5630  -1.5560  -1.5516  -1.5404  -1.5352  -1.5351  -1.5160
    -1.5146  -1.4605  -1.4419  -1.4320  -1.4163  -1.3861  -1.3805  -1.3765
    -1.3707  -1.3534  -1.2994  -1.2897  -1.2639  -1.2627  -1.2506  -1.2121
    -1.2118  -1.1923  -1.1902  -1.1790  -1.1675  -1.1646  -1.1218  -1.1211
    -1.1088  -1.1058  -1.0495  -1.0478  -1.0353  -1.0300  -1.0273  -1.0254
    -1.0252  -1.0225  -1.0211  -1.0162  -1.0160  -0.9987  -0.9955  -0.9805
    -0.9523  -0.9387  -0.9378  -0.9348  -0.9240  -0.9195  -0.9185  -0.9177
    -0.8922  -0.8604  -0.8581  -0.8580  -0.8568  -0.8551  -0.8549  -0.8544
    -0.8535  -0.8526  -0.8502  -0.8487  -0.8487  -0.8484  -0.8463  -0.8431
    -0.8416  -0.8340  -0.8302  -0.8300  -0.8234  -0.7862  -0.6903  -0.6901
    -0.6857  -0.6835  -0.6834  -0.6607  -0.6590  -0.6420  -0.6418  -0.6206
    -0.6201  -0.6063  -0.6047  -0.6036  -0.6031  -0.5883  -0.5648  -0.5643
    -0.5623  -0.5617  -0.5544  -0.5534  -0.5428  -0.5425  -0.4928  -0.4925
    -0.4387  -0.4384  -0.4281  -0.4265  -0.4264  -0.4248  -0.4112  -0.4109
    -0.4053  -0.4053  -0.4051  -0.4046  -0.4005  -0.4002  -0.3880  -0.3856
    -0.3855  -0.3784  -0.3753  -0.3752  -0.3516  -0.3510  -0.3001  -0.2987
    -0.2971  -0.2916  -0.2914  -0.2649  -0.2649  -0.2649  -0.2649  -0.2490
    -0.2479  -0.2473  -0.2429  -0.2429  -0.2249  -0.2215  -0.2205  -0.2199
    -0.2157  -0.2152  -0.2148  -0.2146  -0.2122  -0.2092  -0.1929  -0.1906
    -0.1898  -0.1886  -0.1880  -0.1687  -0.1215  -0.1208  -0.1189  -0.1183
    -0.1159  -0.0739  -0.0720  -0.0703  -0.0688  -0.0688  -0.0628  -0.0625
    -0.0623  -0.0622  -0.0620  -0.0530  -0.0481  -0.0342  -0.0118  -0.0091
    -0.0086  -0.0082   0.0005   0.0202   0.0203   0.0207   0.0212   0.0259
     0.0296   0.0447   0.0455   0.0468   0.0470   0.0481   0.0488   0.0607
     0.0632   0.0633   0.0635   0.0685   0.0754   0.0765   0.0771   0.0972
     0.1018   0.1120   0.1346   0.1351   0.1552   0.1641   0.1642   0.1887
     0.1930   0.2336   0.2371   0.2377   0.2382   0.2393   0.2428   0.2522
     0.2695   0.2728   0.2731   0.2734   0.2736   0.2832   0.2840   0.2926
     0.3259   0.3403   0.3403   0.3479   0.3489   0.3495   0.3500   0.3769
     0.3822   0.3830   0.3835   0.3839   0.4132   0.4144   0.4158   0.4224
     0.4224   0.4350   0.4365   0.4384   0.4397   0.4764   0.4789   0.4905
     0.4940   0.4962   0.4964   0.4967   0.5092   0.5169   0.5272   0.5310
     0.5329   0.5347   0.5350   0.5352   0.5358   0.5391   0.5459   0.5466
     0.5467   0.5536   0.5536   0.5551   0.5634   0.5635   0.5790   0.5952
     0.6052   0.6054   0.6156   0.6161   0.6482   0.6489   0.6493   0.6500
     0.6522   0.6522   0.6526   0.6531   0.6634   0.6648   0.6735   0.6781
     0.6785   0.6790   0.6799   0.6868   0.6872   0.6968   0.6975   0.7161
     0.7195   0.7199   0.7200   0.7304   0.7309   0.7417   0.7422   0.7423
     0.7457   0.7472   0.7480   0.7481   0.7549   0.7572   0.7593   0.7627
     0.7678   0.7742   0.8053   0.8055   0.8155   0.8168   0.8225   0.8239
     0.8241   0.8245   0.8550   0.8557   0.8692   0.8705   0.8757   0.8757
     0.8902   0.8906   0.8997   0.8999   0.9004   0.9016   0.9085   0.9213
     0.9364   0.9372   0.9387   0.9415   0.9420   0.9431   0.9583   0.9653
     0.9771   0.9852   0.9854   0.9957   0.9965   1.0012   1.0073   1.0086
     1.0107   1.0108   1.0124   1.0132   1.0140   1.0235   1.0256   1.0280
     1.0282   1.0284   1.0303   1.0433   1.0433   1.0616   1.0625   1.0641
     1.0644   1.0701   1.0732   1.1039   1.1044   1.1064   1.1066   1.1079
     1.1087   1.1113   1.1129   1.1183   1.1189   1.1192   1.1193   1.1194
     1.1211   1.1350   1.1355   1.1605   1.1657   1.1828   1.1836   1.2002
     1.2007   1.2014   1.2031   1.2045   1.2050   1.2079   1.2156   1.2196
     1.2267   1.2367   1.2370   1.2394   1.2397   1.2405   1.2439   1.2456
     1.2461   1.2545   1.2733   1.2740   1.2754   1.2759   1.2762   1.2768
     1.2779   1.2781   1.2938   1.2944   1.2955   1.3014   1.3097   1.3100
     1.3111   1.3112   1.3123   1.3211   1.3226   1.3245   1.3369   1.3440
     1.3495   1.3541   1.3550   1.3556   1.3562   1.3565   1.3588   1.3661
     1.3834   1.3862   1.3877   1.3925   1.4021   1.4156   1.4158   1.4220
     1.4222   1.4222   1.4279   1.4299   1.4300   1.4334   1.4340   1.4341
     1.4345   1.4364   1.4378   1.4452   1.4456   1.4497   1.4667   1.4669
     1.4678   1.4679   1.4713   1.4790   1.4801   1.4915   1.5027   1.5094
     1.5103   1.5202   1.5562   1.5570   1.5598   1.5607   1.5788   1.5794
     1.5794   1.5873   1.5903   1.6055   1.6287   1.6311   1.6321   1.6325
     1.6335   1.6427   1.6434   1.6436   1.8994   1.9554   2.1051   2.1075
     2.1479   2.1542   2.2000   2.2044   2.2060   2.2066   2.2208   2.2232
     2.2240   2.2252   2.3994   2.4012   2.4613   2.4647   2.4661   2.4667
     2.4774   2.4803   2.6811   2.7182   2.7238   2.7240   2.7318   2.9695
     2.9872   3.0139   3.1681   3.5198   3.5221   3.8148   3.8176   3.8463
     3.8498   3.8534   3.8538   3.8907   3.9667   3.9796   3.9872   4.0060
     4.0067   4.0075   4.0086   4.0120   4.0133   4.2238   4.2469   4.2504
     4.2510   4.3403   4.3963   4.7229   4.7616   4.8371   4.8832   4.9013
     5.3039   5.3920   5.3982   5.4062   5.7028   5.7074   5.7189   5.7230
     5.9288   5.9306   6.1869   6.3445   6.3510   6.3950   6.4094   6.4693
     6.4698   6.4754   6.4804   6.5784   6.5989   6.6062   6.7181   6.7761
     6.7802   6.7935   6.8089   6.8375   7.0310   7.0494   7.0503   7.0557
     7.0669   7.0915   7.3559   7.3583   7.5104   7.5488   7.5491   7.6955
     7.6966   7.7042   7.7094   8.0043   8.0402   8.0854   8.1306   8.1927
     8.2339   8.2995   8.3058   8.3064   8.3299   8.3351   8.3478   8.3891
     8.4040   8.4541   8.4944   8.5514   8.5669   8.5679   8.6603   8.6639
     8.6682   8.6682   8.8137   8.8159   8.8277   8.8337   8.8388   8.8390
     9.1076   9.1090   9.1099   9.1156   9.1184   9.1386   9.1745   9.3224
     9.3421   9.3452   9.4249   9.4798   9.4908   9.5771   9.5779   9.6615
     9.6711   9.7995   9.8303  10.0430  10.0431  10.1269  10.1793

          k = 0.0000-0.2165 0.0000 (256176 PWs)   bands (ev):

   -17.2867 -16.3020 -15.8964 -15.6594 -15.0736 -14.6782 -14.3567 -14.3394
   -14.2656 -14.2315 -13.8276 -13.7704 -13.7170 -13.6946 -12.6077 -12.4368
   -12.3820 -12.3127 -12.1459 -12.0786 -10.6511 -10.5547 -10.5214 -10.3921
    -9.4572  -9.4414  -9.2985  -9.1129  -8.9932  -8.9555  -8.4039  -8.2857
    -8.2142  -8.1587  -7.4812  -7.3432  -7.0128  -6.9714  -6.9086  -6.8940
    -6.8532  -6.8367  -6.1887  -6.0811  -5.8921  -5.8830  -5.5170  -5.3869
    -5.3034  -5.2159  -5.1366  -4.9649  -4.9138  -4.8421  -4.8387  -4.7429
    -4.6874  -4.6289  -4.6084  -4.4708  -4.1602  -4.0482  -3.8230  -3.6977
    -3.6650  -3.5907  -3.3161  -3.3059  -3.3025  -3.3016  -3.2456  -3.2263
    -3.1405  -3.0912  -3.0682  -3.0501  -3.0410  -3.0318  -3.0060  -2.8948
    -2.8670  -2.8669  -2.8284  -2.7883  -2.7754  -2.7103  -2.6962  -2.6007
    -2.5881  -2.5877  -2.5790  -2.5789  -2.5781  -2.5779  -2.4798  -2.3693
    -2.3351  -2.3330  -2.2512  -2.2511  -2.2486  -2.2465  -2.1504  -2.1463
    -2.1450  -2.1447  -2.0857  -2.0417  -1.9872  -1.9871  -1.9618  -1.9616
    -1.8754  -1.8650  -1.8572  -1.8089  -1.7868  -1.7852  -1.7693  -1.7682
    -1.7502  -1.7501  -1.7413  -1.7412  -1.7233  -1.7229  -1.6461  -1.6458
    -1.6228  -1.5864  -1.5713  -1.5693  -1.5587  -1.4684  -1.4677  -1.4631
    -1.4628  -1.3804  -1.3775  -1.3714  -1.3711  -1.3680  -1.3173  -1.3171
    -1.2805  -1.2796  -1.2755  -1.2752  -1.2729  -1.2727  -1.2539  -1.2496
    -1.2294  -1.2293  -1.2246  -1.2236  -1.2137  -1.2125  -1.1696  -1.1547
    -1.1506  -1.1487  -1.1344  -1.1332  -1.0894  -1.0893  -1.0512  -1.0511
    -1.0480  -1.0478  -1.0050  -1.0036  -0.9846  -0.9840  -0.9835  -0.9827
    -0.9787  -0.9784  -0.9279  -0.9272  -0.9199  -0.9193  -0.9115  -0.9112
    -0.9015  -0.8992  -0.8977  -0.8974  -0.8316  -0.8287  -0.8286  -0.8202
    -0.8190  -0.8189  -0.8177  -0.8146  -0.7962  -0.7961  -0.7823  -0.7816
    -0.7552  -0.7550  -0.7523  -0.7511  -0.6554  -0.6551  -0.6547  -0.6546
    -0.6340  -0.6337  -0.6224  -0.6108  -0.6077  -0.6064  -0.6057  -0.6019
    -0.6019  -0.5762  -0.5755  -0.5571  -0.5427  -0.5420  -0.5408  -0.5399
    -0.5385  -0.5371  -0.5352  -0.5337  -0.5045  -0.5044  -0.4844  -0.4844
    -0.4835  -0.4725  -0.4489  -0.4482  -0.4479  -0.4459  -0.4456  -0.4389
    -0.4361  -0.4361  -0.4356  -0.4308  -0.4127  -0.3581  -0.3579  -0.3575
    -0.3575  -0.3294  -0.3257  -0.3042  -0.3041  -0.3015  -0.2977  -0.2968
    -0.2959  -0.2943  -0.2744  -0.2698  -0.2697  -0.2694  -0.2676  -0.2602
    -0.2530  -0.2486  -0.2475  -0.2473  -0.2464  -0.2445  -0.2440  -0.2437
    -0.2343  -0.2335  -0.2071  -0.2071  -0.2052  -0.2052  -0.1945  -0.1434
    -0.1422  -0.1414  -0.1412  -0.1332  -0.1322  -0.1305  -0.1289  -0.1270
    -0.1192  -0.1181  -0.1058  -0.1021  -0.0891  -0.0887  -0.0869  -0.0868
    -0.0781  -0.0778  -0.0758  -0.0744  -0.0743  -0.0740  -0.0409  -0.0178
    -0.0178  -0.0141  -0.0141   0.0011   0.0026   0.0046   0.0048   0.0105
     0.0108   0.0162   0.0282   0.0288   0.0293   0.0302   0.0423   0.0424
     0.0577   0.0588   0.0749   0.0753   0.0754   0.0758   0.0934   0.0952
     0.1104   0.1104   0.1211   0.1214   0.1336   0.1345   0.1347   0.1354
     0.1789   0.1800   0.1828   0.1838   0.1953   0.1959   0.2011   0.2015
     0.2282   0.2284   0.2603   0.2621   0.2643   0.2668   0.2996   0.2998
     0.3347   0.3352   0.3850   0.3856   0.3861   0.3865   0.3909   0.4119
     0.4126   0.4127   0.4133   0.4244   0.4469   0.4491   0.4528   0.4529
     0.4534   0.4544   0.4546   0.4565   0.4612   0.4652   0.4761   0.4763
     0.4780   0.4783   0.4802   0.4815   0.4828   0.4838   0.5156   0.5157
     0.5270   0.5272   0.5272   0.5276   0.5351   0.5354   0.5355   0.5536
     0.5556   0.5571   0.5572   0.5573   0.5576   0.5578   0.5583   0.5583
     0.5808   0.5814   0.5825   0.5830   0.5832   0.5840   0.5846   0.5848
     0.6009   0.6010   0.6440   0.6445   0.6561   0.6565   0.6647   0.6677
     0.6682   0.6687   0.6746   0.6748   0.6756   0.6764   0.6814   0.6817
     0.6827   0.6827   0.7225   0.7237   0.7239   0.7242   0.7367   0.7408
     0.7410   0.7420   0.7422   0.7434   0.7542   0.7579   0.7740   0.7753
     0.7778   0.7805   0.7815   0.7819   0.8333   0.8341   0.8844   0.8852
     0.8903   0.8932   0.8935   0.8944   0.9020   0.9035   0.9099   0.9101
     0.9164   0.9167   0.9225   0.9242   0.9253   0.9260   0.9355   0.9386
     0.9397   0.9408   0.9410   0.9415   0.9482   0.9542   0.9642   0.9659
     0.9659   0.9674   0.9683   0.9701   0.9702   0.9732   0.9770   0.9772
     0.9886   0.9887   0.9908   0.9908   0.9922   0.9927   1.0104   1.0107
     1.0202   1.0228   1.0259   1.0264   1.0289   1.0292   1.0380   1.0380
     1.0388   1.0390   1.0398   1.0400   1.0850   1.0879   1.1103   1.1156
     1.1267   1.1268   1.1414   1.1426   1.1516   1.1523   1.1540   1.1552
     1.1694   1.1696   1.1841   1.1856   1.1914   1.1921   1.1936   1.1956
     1.1958   1.1977   1.1980   1.1989   1.1998   1.2015   1.2023   1.2024
     1.2096   1.2097   1.2185   1.2239   1.2295   1.2301   1.2305   1.2312
     1.2393   1.2401   1.2660   1.2690   1.2690   1.2694   1.2759   1.2761
     1.2783   1.2790   1.2944   1.2948   1.2964   1.2964   1.3088   1.3100
     1.3113   1.3128   1.3134   1.3150   1.3314   1.3318   1.3321   1.3330
     1.3490   1.3510   1.3512   1.3541   1.3702   1.3719   1.3780   1.3788
     1.3791   1.3795   1.3943   1.3944   1.3945   1.3947   1.4114   1.4118
     1.4256   1.4258   1.4259   1.4278   1.4459   1.4464   1.4484   1.4486
     1.4495   1.4496   1.4502   1.4508   1.4783   1.4784   1.4863   1.4870
     1.4931   1.4956   1.4962   1.5036   1.5181   1.5189   1.5190   1.5192
     1.5281   1.5282   1.5403   1.5404   1.5822   1.5848   1.5871   1.5876
     1.6725   1.6883   1.6937   1.7120   1.7159   1.7279   1.7312   1.7327
     1.7836   1.7859   1.7917   1.7929   1.7989   1.8116   1.8126   1.8135
     1.8527   1.8527   1.9035   2.0552   2.0680   2.0935   2.4128   2.4145
     2.4183   2.4186   2.4950   2.4975   2.5617   2.5621   2.5630   2.5644
     2.5802   2.5807   2.7086   2.7099   2.7556   2.7599   2.7784   2.7795
     2.9226   2.9235   3.1691   3.1691   3.1819   3.1862   3.3931   3.4144
     3.5804   3.6693   3.6839   3.9038   3.9329   3.9473   4.0746   4.1001
     4.1072   4.1087   4.3228   4.3244   4.3265   4.3267   4.4959   4.4980
     4.6613   4.6893   4.7655   4.7698   4.9156   5.0679   5.0985   5.1021
     5.3325   5.3573   5.3580   5.3584   5.3606   5.4296   5.5273   5.6591
     5.6854   5.7131   5.7557   5.8006   6.3816   6.3888   6.4142   6.4246
     6.4393   6.4418   6.5530   6.5567   6.6636   6.6675   6.8006   6.8076
     6.9904   7.0144   7.0377   7.0487   7.0631   7.0800   7.1184   7.1190
     7.1234   7.1337   7.2219   7.3394   7.3482   7.3640   7.3844   7.4258
     7.5486   7.6071   7.6981   7.7161   7.7281   7.7466   8.1425   8.1432
     8.3519   8.3549   8.3566   8.4232   8.4287   8.4291   8.4326   8.4479
     8.4486   8.4863   8.6417   8.6509   8.7108   8.7124   8.7169   8.7199
     8.7577   8.7623   8.8463   8.9162   8.9516   9.0115   9.0238   9.0607
     9.1439   9.1484   9.2333   9.2414   9.2816   9.3155   9.3850   9.3851
     9.3858   9.3865   9.4579   9.4601   9.4790   9.4872   9.4896   9.4905
     9.6615   9.6642   9.7867   9.7870   9.7893   9.8888   9.8892

          k = 0.2500 0.0000 0.0000 (256240 PWs)   bands (ev):

   -17.2363 -16.1279 -15.9643 -15.6619 -15.1449 -15.0050 -14.9442 -14.8928
   -14.1133 -13.9541 -13.7699 -13.2459 -13.1734 -13.0909 -13.0438 -12.3499
   -12.2328 -12.1459 -12.0802 -11.2389 -11.1392 -10.7874 -10.6732 -10.3592
   -10.2243  -9.9548  -9.9048  -9.5077  -9.2547  -9.1590  -8.6801  -7.9928
    -7.7959  -7.7305  -7.5647  -7.5421  -7.4460  -7.0929  -6.9777  -6.3014
    -6.2214  -6.0435  -5.9672  -5.9142  -5.8427  -5.4533  -5.3337  -5.3118
    -5.3024  -5.1800  -4.9223  -4.7507  -4.6327  -4.5435  -4.4683  -4.4642
    -4.4620  -4.4274  -4.3697  -4.2254  -4.1407  -4.0019  -4.0006  -3.9976
    -3.9083  -3.8458  -3.8411  -3.8083  -3.7953  -3.6255  -3.6001  -3.5728
    -3.5240  -3.4879  -3.4065  -3.4044  -3.2801  -3.2355  -3.2127  -3.1962
    -3.1419  -3.0370  -2.9563  -2.8958  -2.8010  -2.7994  -2.7906  -2.7528
    -2.6541  -2.6271  -2.6229  -2.5057  -2.4019  -2.3944  -2.3493  -2.3382
    -2.1378  -2.0999  -2.0970  -2.0831  -2.0803  -2.0582  -2.0045  -1.9906
    -1.9804  -1.8985  -1.8957  -1.8421  -1.8028  -1.8022  -1.8012  -1.7946
    -1.7936  -1.7831  -1.7742  -1.7467  -1.7354  -1.7258  -1.7191  -1.7180
    -1.7107  -1.6546  -1.6475  -1.6039  -1.5917  -1.5836  -1.5816  -1.5792
    -1.5788  -1.5784  -1.5491  -1.5264  -1.5145  -1.5045  -1.5027  -1.4913
    -1.4894  -1.3732  -1.3369  -1.3296  -1.3136  -1.2806  -1.2705  -1.2566
    -1.2445  -1.2437  -1.2386  -1.2367  -1.2303  -1.2206  -1.2083  -1.1974
    -1.1914  -1.1857  -1.1842  -1.1786  -1.1595  -1.1408  -1.1364  -1.1347
    -1.1343  -1.1324  -1.1169  -1.1117  -1.1113  -1.0919  -1.0776  -1.0684
    -1.0519  -1.0499  -1.0474  -1.0473  -1.0400  -1.0215  -1.0140  -1.0129
    -1.0036  -1.0022  -0.9972  -0.9907  -0.9823  -0.9820  -0.9818  -0.9805
    -0.9766  -0.9763  -0.9652  -0.9549  -0.9531  -0.9469  -0.9463  -0.9394
    -0.9213  -0.9025  -0.9014  -0.8966  -0.8535  -0.8528  -0.8170  -0.8168
    -0.7977  -0.7963  -0.7867  -0.7714  -0.7713  -0.7582  -0.7554  -0.7529
    -0.7506  -0.7433  -0.7422  -0.7230  -0.6066  -0.6032  -0.6000  -0.5976
    -0.5690  -0.5676  -0.5672  -0.5509  -0.5506  -0.5502  -0.5486  -0.5384
    -0.5316  -0.5276  -0.5274  -0.5196  -0.5174  -0.5054  -0.4989  -0.4886
    -0.4855  -0.4854  -0.4825  -0.4817  -0.4613  -0.4613  -0.4581  -0.4016
    -0.4003  -0.4001  -0.3974  -0.3939  -0.3920  -0.3901  -0.3810  -0.3769
    -0.3573  -0.3570  -0.3435  -0.3341  -0.3338  -0.3300  -0.3286  -0.3098
    -0.2955  -0.2954  -0.2926  -0.2923  -0.2824  -0.2805  -0.2715  -0.2702
    -0.2674  -0.2599  -0.2506  -0.2395  -0.2307  -0.2221  -0.2022  -0.2008
    -0.1994  -0.1969  -0.1903  -0.1831  -0.1809  -0.1806  -0.1783  -0.1670
    -0.1527  -0.1526  -0.1401  -0.1380  -0.1314  -0.1255  -0.1129  -0.1115
    -0.1112  -0.0675  -0.0645  -0.0640  -0.0584  -0.0556  -0.0486  -0.0435
    -0.0199  -0.0175  -0.0131  -0.0124  -0.0116  -0.0099  -0.0070   0.0005
     0.0032   0.0042   0.0053   0.0068   0.0075   0.0122   0.0272   0.0325
     0.0330   0.0361   0.0389   0.0429   0.0578   0.0583   0.0650   0.0744
     0.0761   0.0919   0.1135   0.1139   0.1159   0.1161   0.1179   0.1341
     0.1382   0.1409   0.1413   0.1416   0.1419   0.1747   0.1768   0.1870
     0.1968   0.2527   0.2532   0.2543   0.2679   0.2706   0.2727   0.2742
     0.2763   0.2790   0.2814   0.2829   0.2836   0.2852   0.2870   0.2881
     0.2946   0.3041   0.3064   0.3066   0.3087   0.3202   0.3205   0.3257
     0.3281   0.3330   0.3351   0.3562   0.3593   0.3607   0.3665   0.3892
     0.3971   0.4046   0.4133   0.4241   0.4244   0.4426   0.4426   0.4432
     0.4465   0.4548   0.4592   0.4765   0.4793   0.4798   0.4846   0.4850
     0.4901   0.4912   0.4953   0.4955   0.5161   0.5223   0.5232   0.5357
     0.5394   0.5438   0.5441   0.5500   0.5509   0.5512   0.5537   0.5548
     0.5736   0.5791   0.5792   0.5907   0.5920   0.5927   0.5934   0.5960
     0.6093   0.6097   0.6126   0.6170   0.6174   0.6365   0.6368   0.6513
     0.6563   0.6609   0.6631   0.6638   0.6685   0.6698   0.6723   0.6900
     0.7002   0.7045   0.7234   0.7281   0.7400   0.7402   0.7443   0.7447
     0.7495   0.7648   0.7703   0.7730   0.7754   0.7777   0.7790   0.7872
     0.7879   0.8012   0.8026   0.8042   0.8145   0.8235   0.8241   0.8245
     0.8476   0.8520   0.8533   0.8557   0.8561   0.8786   0.8805   0.8905
     0.8923   0.8927   0.8935   0.8957   0.9005   0.9032   0.9048   0.9057
     0.9333   0.9394   0.9456   0.9464   0.9533   0.9539   0.9554   0.9674
     0.9689   0.9889   0.9905   0.9910   0.9923   0.9988   1.0004   1.0010
     1.0152   1.0162   1.0176   1.0182   1.0212   1.0216   1.0229   1.0238
     1.0251   1.0302   1.0322   1.0333   1.0398   1.0432   1.0562   1.0579
     1.0601   1.0641   1.0654   1.0684   1.0684   1.0753   1.0759   1.0895
     1.0899   1.1038   1.1068   1.1075   1.1076   1.1109   1.1212   1.1303
     1.1352   1.1356   1.1399   1.1431   1.1501   1.1520   1.1564   1.1569
     1.1595   1.1734   1.1771   1.1836   1.1889   1.1909   1.1913   1.2254
     1.2283   1.2331   1.2391   1.2423   1.2443   1.2514   1.2522   1.2530
     1.2533   1.2612   1.2643   1.2699   1.2749   1.2782   1.2786   1.2797
     1.2943   1.2961   1.2998   1.3001   1.3054   1.3089   1.3109   1.3127
     1.3135   1.3152   1.3163   1.3206   1.3230   1.3237   1.3319   1.3373
     1.3448   1.3481   1.3502   1.3511   1.3550   1.3551   1.3593   1.3644
     1.3719   1.3792   1.3796   1.3807   1.4027   1.4030   1.4112   1.4160
     1.4183   1.4219   1.4222   1.4249   1.4261   1.4262   1.4329   1.4332
     1.4340   1.4394   1.4405   1.4418   1.4591   1.4622   1.4623   1.4640
     1.4650   1.4688   1.4692   1.4821   1.4825   1.4906   1.4937   1.4949
     1.5052   1.5057   1.5076   1.5121   1.5137   1.5176   1.5452   1.5519
     1.5562   1.5667   1.5810   1.6227   1.6244   1.6271   1.6363   1.6541
     1.6595   1.7444   1.7522   1.7613   1.7618   1.7812   1.7915   1.7985
     1.8361   1.9582   2.0297   2.0628   2.0677   2.0801   2.0845   2.0863
     2.1886   2.2463   2.2526   2.5593   2.5613   2.5625   2.5657   2.9746
     2.9747   3.0083   3.1926   3.1927   3.2172   3.2172   3.2666   3.2775
     3.4566   3.4664   3.5675   3.5788   3.6004   3.6273   3.6420   3.6982
     3.7018   3.7154   3.7190   3.7945   3.8682   3.8701   3.9659   3.9684
     4.0471   4.1783   4.1827   4.1901   4.2774   4.3312   4.4136   4.5539
     4.7519   4.8191   4.8255   5.0860   5.1636   5.2167   5.2179   5.2274
     5.2569   5.3555   5.4613   5.4649   5.5046   5.5417   5.5782   5.5891
     5.6644   5.6813   5.6845   5.7276   5.7338   5.7975   5.8209   5.8263
     6.0079   6.0098   6.0312   6.0426   6.4188   6.5825   6.6938   6.6940
     6.6987   6.7512   6.7574   6.7785   6.8654   6.9398   7.0136   7.0339
     7.0483   7.0512   7.0655   7.2251   7.2430   7.2913   7.3038   7.4939
     7.5075   7.5180   7.5590   7.5658   7.6790   7.7585   7.7639   7.7917
     7.9893   8.0001   8.0268   8.0610   8.1105   8.1864   8.2059   8.2115
     8.2506   8.2589   8.3115   8.3117   8.3810   8.4001   8.4376   8.4712
     8.6430   8.6441   8.9434   8.9557   8.9836   8.9870   9.0076   9.1427
     9.1673   9.1887   9.2104   9.2235   9.2300   9.2523   9.2656   9.3376
     9.4017   9.4067   9.4412   9.4420   9.4825   9.5106   9.6449   9.6790
     9.7177   9.7185   9.8204   9.8295   9.8351   9.8441   9.9451

          k = 0.2500-0.2165 0.0000 (256316 PWs)   bands (ev):

   -17.2360 -16.1781 -15.8747 -15.5395 -15.4571 -15.1904 -14.7131 -14.5639
   -14.2553 -14.1154 -13.7217 -13.2689 -13.2514 -13.1594 -12.7664 -12.6622
   -12.1497 -12.0270 -11.5092 -11.4307 -11.2850 -11.1257 -10.9612 -10.6226
    -9.8680  -9.7867  -9.3921  -9.3558  -9.1036  -9.0501  -8.6752  -8.6244
    -8.4734  -8.4241  -7.3042  -7.0285  -6.8320  -6.6724  -6.5972  -6.5015
    -6.4502  -6.3179  -6.0835  -6.0310  -5.7151  -5.7049  -5.4287  -5.2546
    -5.1850  -5.0699  -4.9354  -4.8023  -4.6790  -4.6754  -4.5462  -4.5420
    -4.4744  -4.3496  -4.3463  -4.3167  -4.1854  -4.1601  -4.1484  -4.0578
    -3.9020  -3.7694  -3.7609  -3.7373  -3.5859  -3.5621  -3.5008  -3.4598
    -3.4588  -3.4556  -3.3618  -3.2912  -3.2544  -3.1951  -3.1426  -3.1022
    -3.0291  -2.9463  -2.9400  -2.9250  -2.9121  -2.9101  -2.8662  -2.8172
    -2.6927  -2.6550  -2.6088  -2.5060  -2.3337  -2.3142  -2.3119  -2.2687
    -2.1871  -2.1815  -2.1694  -2.1693  -2.1031  -2.0697  -2.0105  -2.0098
    -1.9780  -1.9749  -1.9721  -1.9695  -1.8932  -1.8302  -1.8227  -1.8136
    -1.8135  -1.7794  -1.7617  -1.7530  -1.7360  -1.7247  -1.7205  -1.7104
    -1.7101  -1.6936  -1.6796  -1.6782  -1.6771  -1.6769  -1.6679  -1.6678
    -1.5829  -1.5828  -1.5558  -1.4696  -1.4671  -1.3781  -1.3694  -1.3676
    -1.3616  -1.3307  -1.3304  -1.2783  -1.2780  -1.2698  -1.2634  -1.2633
    -1.2502  -1.2496  -1.2417  -1.2406  -1.2257  -1.2251  -1.2136  -1.2135
    -1.2119  -1.2043  -1.2017  -1.1998  -1.1879  -1.1878  -1.1710  -1.1347
    -1.1314  -1.1272  -1.1262  -1.1227  -1.1163  -1.1149  -1.1113  -1.0940
    -1.0840  -1.0823  -1.0404  -1.0402  -1.0363  -1.0304  -1.0270  -1.0245
    -0.9971  -0.9969  -0.9744  -0.9731  -0.9626  -0.9623  -0.9608  -0.9569
    -0.9563  -0.9516  -0.9505  -0.9325  -0.9249  -0.9246  -0.9112  -0.9056
    -0.8800  -0.8687  -0.8685  -0.8633  -0.8627  -0.8248  -0.7789  -0.7788
    -0.7745  -0.7744  -0.7706  -0.7698  -0.7234  -0.7221  -0.7168  -0.7131
    -0.7129  -0.7068  -0.7066  -0.6950  -0.6946  -0.6786  -0.6534  -0.6527
    -0.6165  -0.6150  -0.5851  -0.5686  -0.5671  -0.5671  -0.5646  -0.5619
    -0.5345  -0.5339  -0.5217  -0.5211  -0.5027  -0.5013  -0.4922  -0.4896
    -0.4893  -0.4754  -0.4612  -0.4585  -0.4515  -0.4496  -0.4437  -0.4433
    -0.4146  -0.4087  -0.4086  -0.3972  -0.3942  -0.3886  -0.3821  -0.3811
    -0.3686  -0.3682  -0.3641  -0.3638  -0.3580  -0.3565  -0.3525  -0.3524
    -0.3347  -0.3345  -0.3183  -0.3182  -0.2962  -0.2897  -0.2776  -0.2748
    -0.2629  -0.2574  -0.2409  -0.2406  -0.2361  -0.2316  -0.2188  -0.2181
    -0.2138  -0.2136  -0.1956  -0.1816  -0.1603  -0.1549  -0.1532  -0.1186
    -0.1185  -0.1097  -0.1096  -0.1060  -0.1044  -0.0882  -0.0881  -0.0851
    -0.0708  -0.0705  -0.0619  -0.0574  -0.0496  -0.0483  -0.0436  -0.0432
    -0.0426  -0.0405  -0.0170  -0.0143  -0.0134  -0.0063  -0.0045  -0.0037
    -0.0032  -0.0019  -0.0014   0.0006   0.0058   0.0069   0.0187   0.0307
     0.0308   0.0310   0.0311   0.0646   0.0648   0.0728   0.0729   0.0752
     0.0769   0.0971   0.0986   0.1006   0.1229   0.1308   0.1310   0.1335
     0.1399   0.1404   0.1510   0.1512   0.1543   0.1549   0.1682   0.1683
     0.1744   0.1756   0.2040   0.2043   0.2668   0.2683   0.2806   0.2809
     0.2824   0.2825   0.2859   0.2861   0.2878   0.2883   0.2914   0.2931
     0.3162   0.3164   0.3165   0.3188   0.3204   0.3267   0.3284   0.3305
     0.3337   0.3337   0.3651   0.3662   0.3770   0.3803   0.3824   0.3941
     0.3989   0.4018   0.4096   0.4429   0.4430   0.4485   0.4503   0.4520
     0.4567   0.4568   0.4683   0.4683   0.4758   0.4780   0.4795   0.4802
     0.4809   0.4810   0.5066   0.5115   0.5143   0.5172   0.5265   0.5337
     0.5338   0.5533   0.5662   0.5666   0.5667   0.5685   0.5983   0.6003
     0.6022   0.6040   0.6066   0.6078   0.6114   0.6137   0.6235   0.6254
     0.6266   0.6281   0.6326   0.6355   0.6474   0.6477   0.6580   0.6597
     0.6672   0.6674   0.6702   0.6703   0.6775   0.6789   0.6806   0.6851
     0.6883   0.6885   0.7010   0.7047   0.7089   0.7101   0.7151   0.7158
     0.7176   0.7180   0.7201   0.7206   0.7550   0.7552   0.7662   0.7670
     0.7836   0.7895   0.8026   0.8061   0.8224   0.8226   0.8239   0.8241
     0.8293   0.8305   0.8455   0.8528   0.8531   0.8534   0.8536   0.8545
     0.8551   0.8644   0.8704   0.8720   0.8821   0.8830   0.8916   0.8944
     0.8991   0.9043   0.9277   0.9278   0.9345   0.9426   0.9492   0.9506
     0.9560   0.9590   0.9635   0.9639   0.9702   0.9704   0.9748   0.9908
     1.0007   1.0021   1.0123   1.0162   1.0172   1.0243   1.0287   1.0371
     1.0456   1.0594   1.0615   1.0646   1.0783   1.0796   1.0857   1.0860
     1.0887   1.0887   1.0901   1.0901   1.0944   1.0945   1.1040   1.1045
     1.1106   1.1144   1.1156   1.1174   1.1350   1.1360   1.1635   1.1645
     1.1659   1.1687   1.1694   1.1718   1.1741   1.1746   1.1807   1.1836
     1.1887   1.1897   1.1907   1.1909   1.1943   1.1960   1.2003   1.2009
     1.2077   1.2087   1.2164   1.2198   1.2224   1.2227   1.2237   1.2238
     1.2353   1.2362   1.2440   1.2443   1.2667   1.2685   1.2759   1.2772
     1.2778   1.2915   1.2920   1.2952   1.3040   1.3092   1.3093   1.3116
     1.3182   1.3210   1.3298   1.3301   1.3340   1.3355   1.3421   1.3447
     1.3468   1.3470   1.3572   1.3587   1.3596   1.3704   1.3764   1.3801
     1.3804   1.3806   1.3853   1.3863   1.3899   1.3912   1.3930   1.4042
     1.4043   1.4085   1.4091   1.4171   1.4188   1.4223   1.4243   1.4325
     1.4358   1.4365   1.4366   1.4418   1.4433   1.4433   1.4440   1.4456
     1.4525   1.4527   1.4774   1.4774   1.4850   1.4853   1.4945   1.5001
     1.5082   1.5183   1.5255   1.5258   1.5270   1.5487   1.5492   1.5558
     1.5562   1.5809   1.5827   1.5907   1.6108   1.6450   1.6608   1.6621
     1.7125   1.7482   1.7581   1.7617   1.7678   1.7796   1.7843   1.7851
     1.7857   1.8093   1.8342   1.8423   2.1237   2.1242   2.1560   2.1563
     2.2811   2.2857   2.5816   2.5823   2.7783   2.7823   2.7860   2.7866
     2.7979   2.7990   2.8274   2.8308   2.9805   2.9813   3.0689   3.0782
     3.5260   3.5346   3.5970   3.6026   3.6506   3.6740   3.7650   3.8346
     3.8407   3.8433   3.8569   3.9887   3.9946   4.0555   4.0744   4.1589
     4.1615   4.3209   4.3708   4.3721   4.4327   4.5424   4.5436   4.6158
     4.6584   4.6762   4.7099   4.7206   4.9166   4.9247   4.9960   5.0188
     5.0306   5.1267   5.2562   5.2780   5.3991   5.4305   5.4380   5.4488
     5.4532   5.4721   5.7503   5.7567   5.8110   5.8787   5.8830   5.9481
     5.9540   5.9722   6.5811   6.5846   6.6076   6.6127   6.7201   6.7450
     6.8014   6.8506   6.8679   7.0229   7.0287   7.0463   7.0848   7.0884
     7.0988   7.1095   7.1840   7.2098   7.2140   7.3186   7.3249   7.3276
     7.3302   7.3979   7.4356   7.4372   7.6577   7.6617   7.7577   7.7824
     7.7893   7.8648   7.9718   7.9815   8.1840   8.1901   8.2287   8.2478
     8.2702   8.3889   8.5787   8.5830   8.5945   8.6042   8.6358   8.6372
     8.7037   8.7050   8.8016   8.8158   8.8998   8.9094   8.9383   8.9430
     9.0669   9.1139   9.1325   9.1415   9.1722   9.1790   9.1930   9.2028
     9.2106   9.2613   9.2675   9.3028   9.3405   9.3519   9.4276   9.4416
     9.4462   9.4789   9.6260   9.6272   9.9562   9.9578   9.9683

          k =-0.5000 0.0000 0.0000 (256496 PWs)   bands (ev):

   -17.1758 -16.0084 -15.7408 -15.6286 -15.6095 -15.5596 -14.8131 -14.6171
   -14.5141 -14.4811 -13.2099 -12.9075 -12.7652 -12.7014 -12.4529 -12.4325
   -11.9124 -11.8910 -11.8070 -11.7990 -11.2422 -11.2056 -10.9819 -10.7501
   -10.3350 -10.3036 -10.0793  -9.7608  -9.1474  -9.1471  -8.9772  -8.9453
    -7.8182  -7.6356  -7.5876  -7.4116  -7.3676  -7.3452  -6.3101  -6.2270
    -5.8464  -5.3243  -5.3181  -5.3096  -5.1456  -5.0176  -4.9646  -4.8654
    -4.8084  -4.8042  -4.8038  -4.8022  -4.7783  -4.7624  -4.7379  -4.6923
    -4.6648  -4.5431  -4.5413  -4.4695  -4.3790  -4.3783  -4.2911  -4.0518
    -4.0168  -3.9977  -3.9685  -3.9642  -3.6898  -3.6771  -3.6035  -3.5755
    -3.5728  -3.5557  -3.4274  -3.4214  -3.4204  -3.4197  -3.4191  -3.4121
    -3.3760  -3.3634  -2.9416  -2.9407  -2.8944  -2.8533  -2.8113  -2.7877
    -2.7670  -2.7605  -2.6231  -2.6099  -2.5677  -2.4790  -2.4511  -2.4399
    -2.3081  -2.3044  -2.3038  -2.3019  -1.8804  -1.8797  -1.8794  -1.8792
    -1.8774  -1.8771  -1.8663  -1.8145  -1.7795  -1.7602  -1.7571  -1.7559
    -1.6866  -1.6526  -1.6513  -1.6510  -1.6510  -1.6033  -1.6032  -1.6022
    -1.6016  -1.5136  -1.5074  -1.4892  -1.4891  -1.4843  -1.4787  -1.4508
    -1.4355  -1.4263  -1.4263  -1.4256  -1.4074  -1.4071  -1.3589  -1.3580
    -1.3579  -1.3550  -1.3541  -1.3433  -1.3426  -1.3421  -1.3408  -1.3383
    -1.2958  -1.2929  -1.2926  -1.2916  -1.2728  -1.2690  -1.2683  -1.2682
    -1.2338  -1.2053  -1.2053  -1.1838  -1.1832  -1.1828  -1.1820  -1.1590
    -1.1565  -1.1549  -1.1538  -1.1518  -1.1516  -1.1512  -1.1095  -1.1086
    -1.1076  -1.1075  -1.0867  -1.0866  -1.0683  -1.0564  -1.0564  -1.0508
    -1.0102  -1.0102  -1.0099  -0.9819  -0.9818  -0.9803  -0.9802  -0.9557
    -0.9542  -0.9532  -0.9525  -0.9486  -0.9470  -0.9445  -0.9325  -0.9322
    -0.9299  -0.9299  -0.9038  -0.9031  -0.8835  -0.8416  -0.8410  -0.8391
    -0.8391  -0.7954  -0.7953  -0.7158  -0.7126  -0.7121  -0.7121  -0.7076
    -0.6896  -0.6789  -0.6739  -0.6736  -0.6727  -0.6727  -0.6698  -0.6632
    -0.6441  -0.6333  -0.6314  -0.6300  -0.6260  -0.6187  -0.6164  -0.6016
    -0.6013  -0.6000  -0.5743  -0.5286  -0.5194  -0.5126  -0.4817  -0.4738
    -0.4673  -0.4659  -0.4571  -0.4571  -0.4323  -0.4172  -0.4140  -0.4105
    -0.4069  -0.4067  -0.4051  -0.4050  -0.3949  -0.3822  -0.3690  -0.3688
    -0.3685  -0.3684  -0.3303  -0.3300  -0.3296  -0.3291  -0.3237  -0.2964
    -0.2963  -0.2963  -0.2958  -0.2847  -0.2847  -0.2519  -0.2518  -0.2515
    -0.2504  -0.2504  -0.2472  -0.2405  -0.2313  -0.2151  -0.2032  -0.2008
    -0.1681  -0.1368  -0.1360  -0.1357  -0.1345  -0.1296  -0.1295  -0.1286
    -0.1284  -0.0891  -0.0890  -0.0869  -0.0860  -0.0688  -0.0527  -0.0527
    -0.0265  -0.0264  -0.0245  -0.0241  -0.0227  -0.0226  -0.0220  -0.0220
    -0.0207  -0.0205  -0.0200  -0.0193   0.0552   0.0573   0.0594   0.0633
     0.0652   0.0666   0.0712   0.0716   0.0718   0.0719   0.0769   0.0769
     0.0788   0.0791   0.0824   0.0828   0.0871   0.0884   0.1014   0.1014
     0.1094   0.1156   0.1159   0.1159   0.1160   0.1162   0.1162   0.1267
     0.1270   0.1273   0.1274   0.1392   0.1401   0.1432   0.1520   0.1522
     0.1528   0.1531   0.1725   0.1826   0.1830   0.1995   0.2436   0.2657
     0.2852   0.2853   0.2872   0.2872   0.3185   0.3190   0.3194   0.3200
     0.3338   0.3339   0.3391   0.3393   0.3439   0.3443   0.3446   0.3454
     0.3491   0.3497   0.3508   0.3514   0.3516   0.3518   0.3661   0.3661
     0.3713   0.3760   0.3797   0.3806   0.3886   0.3893   0.3944   0.3948
     0.4012   0.4016   0.4364   0.4384   0.4898   0.4912   0.4913   0.4918
     0.4999   0.5005   0.5218   0.5231   0.5255   0.5258   0.5281   0.5286
     0.5287   0.5293   0.5318   0.5324   0.5339   0.5342   0.5365   0.5368
     0.5441   0.5443   0.5446   0.5451   0.5644   0.5654   0.5827   0.5827
     0.5912   0.6013   0.6088   0.6096   0.6142   0.6177   0.6205   0.6207
     0.6295   0.6299   0.6304   0.6306   0.6328   0.6331   0.6467   0.6469
     0.6509   0.6510   0.6670   0.6670   0.6678   0.6682   0.7047   0.7053
     0.7058   0.7062   0.7065   0.7066   0.7245   0.7249   0.7542   0.7557
     0.7643   0.7658   0.7658   0.7669   0.7669   0.7671   0.7866   0.8075
     0.8329   0.8339   0.8378   0.8385   0.8393   0.8397   0.8424   0.8436
     0.8513   0.8514   0.8522   0.8523   0.8633   0.8647   0.8841   0.8842
     0.8859   0.8860   0.8864   0.8970   0.9047   0.9052   0.9056   0.9056
     0.9067   0.9070   0.9429   0.9448   0.9451   0.9454   0.9726   0.9925
     1.0112   1.0115   1.0118   1.0122   1.0373   1.0448   1.0456   1.0457
     1.0467   1.0482   1.0645   1.0647   1.0756   1.0759   1.0784   1.0816
     1.0873   1.0915   1.1094   1.1098   1.1145   1.1150   1.1152   1.1159
     1.1233   1.1233   1.1236   1.1248   1.1342   1.1342   1.1355   1.1356
     1.1367   1.1370   1.1375   1.1377   1.1718   1.1735   1.1749   1.1750
     1.1929   1.2005   1.2030   1.2057   1.2085   1.2107   1.2109   1.2114
     1.2288   1.2294   1.2346   1.2397   1.2400   1.2404   1.2443   1.2505
     1.2507   1.2509   1.2514   1.2542   1.2555   1.2659   1.2668   1.2734
     1.2976   1.2979   1.3111   1.3133   1.3134   1.3137   1.3138   1.3140
     1.3140   1.3142   1.3235   1.3261   1.3275   1.3276   1.3279   1.3281
     1.3299   1.3302   1.3357   1.3362   1.3404   1.3407   1.3412   1.3414
     1.3484   1.3485   1.3633   1.3635   1.3777   1.3818   1.3822   1.3834
     1.3904   1.3908   1.3920   1.3921   1.4051   1.4087   1.4124   1.4125
     1.4275   1.4279   1.4295   1.4345   1.4377   1.4469   1.4469   1.4472
     1.4476   1.4641   1.4659   1.4680   1.4688   1.4712   1.4777   1.4778
     1.4782   1.4783   1.4817   1.4871   1.4976   1.4977   1.5109   1.5118
     1.5119   1.5122   1.5123   1.5243   1.5252   1.5253   1.5752   1.5758
     1.5909   1.6054   1.6054   1.6097   1.6099   1.6213   2.0234   2.0269
     2.0282   2.0288   2.2295   2.2321   2.2466   2.2502   2.2824   2.2830
     2.2898   2.2900   2.6038   2.6126   2.6152   2.6165   2.8257   2.8277
     2.8311   2.8332   3.1818   3.1821   3.1843   3.1853   3.4602   3.4672
     3.7355   3.7496   3.7527   3.7540   3.8498   3.9170   3.9176   3.9221
     3.9505   4.0653   4.0656   4.0706   4.0797   4.1756   4.1825   4.3887
     4.3999   4.4826   4.7289   4.7392   4.7446   4.7510   4.8024   4.8229
     4.8229   4.8521   4.9284   5.0188   5.0190   5.0367   5.0386   5.0453
     5.0459   5.0483   5.0696   5.0711   5.0982   5.1082   5.1477   5.1639
     5.4820   5.5148   5.5297   5.5386   5.6379   5.6616   5.7604   5.8269
     5.9881   5.9890   5.9928   5.9997   6.0258   6.0346   6.0346   6.0440
     6.2014   6.3853   6.4238   6.4305   6.4312   6.4446   6.4520   6.4728
     7.0821   7.0927   7.0980   7.1058   7.1168   7.1229   7.5692   7.5810
     7.5935   7.5985   7.5986   7.5995   7.6134   7.6261   7.8120   7.8148
     7.8749   7.8803   7.8834   7.8868   8.0268   8.0527   8.0528   8.0549
     8.1136   8.1233   8.1258   8.1323   8.1576   8.1971   8.6458   8.6904
     8.6930   8.7075   8.8249   8.8268   8.8289   8.8310   8.9789   8.9864
     9.0046   9.0619   9.0648   9.0661   9.0701   9.2568   9.2582   9.3755
     9.4213   9.4448   9.4921   9.4948   9.4949   9.4956   9.5074   9.5131
     9.5183   9.5187   9.5271   9.5323   9.8245   9.8319  10.0184

          k =-0.5000-0.2165 0.0000 (256328 PWs)   bands (ev):

   -17.1757 -15.9761 -15.8191 -15.7960 -15.3892 -15.2185 -15.1503 -15.1143
   -14.0581 -13.8401 -13.7090 -13.6729 -12.6822 -12.4565 -12.0026 -11.9965
   -11.9192 -11.7748 -11.6717 -11.5896 -11.5358 -11.5354 -11.4233 -11.4060
   -10.0445 -10.0378  -9.7694  -9.7233  -9.2280  -8.9111  -8.7952  -8.7611
    -8.2694  -8.2305  -8.0222  -7.9994  -6.5362  -6.3462  -6.1218  -5.9492
    -5.8393  -5.6250  -5.3889  -5.3128  -5.3052  -5.2210  -5.2134  -5.1823
    -5.1802  -5.1801  -5.0160  -5.0071  -4.9677  -4.5111  -4.3846  -4.3510
    -4.3238  -4.3234  -4.2627  -4.2146  -4.2023  -4.1989  -4.1983  -4.1982
    -4.0808  -4.0761  -3.9148  -3.8752  -3.8647  -3.8601  -3.7547  -3.7447
    -3.7037  -3.6886  -3.6048  -3.5923  -3.5820  -3.4869  -3.4676  -3.4569
    -3.1737  -3.0872  -3.0728  -3.0622  -2.6381  -2.5826  -2.5817  -2.5797
    -2.5796  -2.5791  -2.5453  -2.5297  -2.5245  -2.5236  -2.4080  -2.3523
    -2.1678  -2.1512  -2.1088  -2.1010  -2.0975  -2.0964  -2.0523  -2.0486
    -2.0207  -2.0201  -2.0180  -2.0091  -1.9399  -1.8038  -1.8035  -1.8025
    -1.8024  -1.7712  -1.7395  -1.7288  -1.5672  -1.5244  -1.5094  -1.5025
    -1.4941  -1.4940  -1.4940  -1.4939  -1.4605  -1.4570  -1.4545  -1.4544
    -1.4343  -1.4342  -1.4339  -1.4338  -1.3850  -1.3847  -1.3846  -1.3844
    -1.3829  -1.3828  -1.3823  -1.3822  -1.3592  -1.3592  -1.3590  -1.3590
    -1.3101  -1.3091  -1.3082  -1.3078  -1.3057  -1.2386  -1.2344  -1.2340
    -1.2328  -1.1916  -1.1916  -1.1914  -1.1914  -1.1757  -1.1718  -1.1716
    -1.1716  -1.1284  -1.1226  -1.1225  -1.1223  -1.1181  -1.1163  -1.1163
    -1.1162  -1.1097  -1.0968  -1.0930  -1.0908  -1.0837  -1.0579  -1.0578
    -1.0574  -1.0573  -1.0424  -1.0409  -1.0408  -1.0406  -1.0397  -1.0380
    -1.0377  -1.0373  -1.0373  -1.0106  -0.8832  -0.8832  -0.8827  -0.8824
    -0.8536  -0.8535  -0.8533  -0.8532  -0.8012  -0.7712  -0.7711  -0.7703
    -0.7702  -0.7697  -0.7687  -0.7675  -0.7638  -0.7625  -0.7620  -0.7618
    -0.7025  -0.7011  -0.7008  -0.7005  -0.6941  -0.6897  -0.6888  -0.6886
    -0.6733  -0.6684  -0.6678  -0.6678  -0.6410  -0.5828  -0.5721  -0.5718
    -0.5684  -0.5676  -0.5671  -0.5666  -0.5175  -0.4990  -0.4987  -0.4985
    -0.4975  -0.4502  -0.4495  -0.4491  -0.4453  -0.4289  -0.4286  -0.4282
    -0.4281  -0.4105  -0.4007  -0.4002  -0.3900  -0.3899  -0.3890  -0.3889
    -0.3750  -0.3528  -0.3499  -0.3484  -0.3477  -0.2744  -0.2743  -0.2737
    -0.2736  -0.2583  -0.2582  -0.2577  -0.2576  -0.2419  -0.2413  -0.2408
    -0.2403  -0.1601  -0.1598  -0.1591  -0.1582  -0.1540  -0.1538  -0.1537
    -0.1536  -0.1523  -0.1503  -0.1501  -0.1469  -0.1133  -0.1133  -0.1131
    -0.1131  -0.1012  -0.1007  -0.1000  -0.0996  -0.0967  -0.0966  -0.0964
    -0.0963  -0.0671  -0.0276  -0.0266  -0.0262  -0.0260  -0.0010  -0.0009
     0.0012   0.0020   0.0475   0.0492   0.0534   0.0553   0.0586   0.0651
     0.0788   0.0794   0.0796   0.0798   0.0855   0.0863   0.0875   0.0876
     0.0889   0.0906   0.0926   0.0931   0.0992   0.0997   0.1002   0.1005
     0.1056   0.1057   0.1058   0.1059   0.1131   0.1219   0.1224   0.1226
     0.1317   0.1503   0.1504   0.1504   0.1505   0.1594   0.1607   0.1608
     0.1629   0.2089   0.2100   0.2103   0.2105   0.2337   0.2429   0.2433
     0.2445   0.2574   0.2837   0.2927   0.3172   0.3177   0.3258   0.3262
     0.3277   0.3286   0.3390   0.3410   0.3442   0.3444   0.3475   0.3477
     0.3531   0.3604   0.3604   0.3611   0.3611   0.3662   0.3682   0.3685
     0.3686   0.3693   0.3713   0.3723   0.3746   0.3920   0.3969   0.4016
     0.4458   0.4469   0.4487   0.4513   0.4562   0.4567   0.4573   0.4576
     0.4685   0.4685   0.4685   0.4690   0.5061   0.5067   0.5080   0.5087
     0.5090   0.5091   0.5098   0.5100   0.5459   0.5533   0.5534   0.5535
     0.5539   0.5610   0.5652   0.5665   0.5675   0.5678   0.5678   0.5698
     0.5754   0.5755   0.5757   0.5760   0.5894   0.5904   0.5907   0.5909
     0.5990   0.6034   0.6070   0.6075   0.6730   0.6755   0.6761   0.6778
     0.6790   0.6821   0.6822   0.6825   0.6826   0.6828   0.6846   0.6914
     0.6916   0.7014   0.7077   0.7084   0.7275   0.7278   0.7284   0.7286
     0.7294   0.7301   0.7312   0.7312   0.7743   0.7797   0.7819   0.7830
     0.8043   0.8081   0.8106   0.8113   0.8119   0.8173   0.8282   0.8317
     0.8469   0.8470   0.8476   0.8477   0.8686   0.8694   0.8716   0.8729
     0.9246   0.9247   0.9252   0.9252   0.9571   0.9575   0.9587   0.9589
     1.0055   1.0103   1.0117   1.0117   1.0123   1.0199   1.0248   1.0256
     1.0337   1.0370   1.0376   1.0383   1.0430   1.0434   1.0435   1.0437
     1.0440   1.0461   1.0461   1.0474   1.0481   1.0603   1.0673   1.0696
     1.0743   1.0749   1.0764   1.0766   1.0778   1.0786   1.0798   1.0798
     1.0904   1.0934   1.0937   1.0967   1.1169   1.1184   1.1213   1.1214
     1.1244   1.1286   1.1307   1.1324   1.1397   1.1409   1.1410   1.1415
     1.1893   1.1907   1.1928   1.1929   1.1937   1.1948   1.1951   1.1958
     1.2187   1.2202   1.2203   1.2206   1.2272   1.2341   1.2349   1.2389
     1.2392   1.2428   1.2551   1.2552   1.2692   1.2695   1.2699   1.2699
     1.2780   1.2784   1.2792   1.2795   1.2848   1.2849   1.2856   1.2857
     1.3433   1.3514   1.3514   1.3522   1.3523   1.3532   1.3532   1.3536
     1.3536   1.3565   1.3583   1.3626   1.3656   1.3687   1.3706   1.3722
     1.3744   1.3777   1.3803   1.3805   1.3832   1.3847   1.3852   1.3866
     1.3922   1.3928   1.3931   1.3934   1.3961   1.4020   1.4034   1.4035
     1.4133   1.4141   1.4143   1.4147   1.4469   1.4470   1.4471   1.4474
     1.4598   1.4608   1.4622   1.4628   1.4734   1.4752   1.4778   1.4786
     1.4949   1.4990   1.4995   1.4998   1.5324   1.5484   1.5494   1.5508
     1.5717   1.5718   1.5723   1.5724   1.6012   1.6017   1.6027   1.6030
     1.6053   1.6072   1.6077   1.6087   1.6136   1.6147   1.6151   1.6151
     1.8315   1.8326   1.8327   1.8338   2.3286   2.3351   2.3407   2.3429
     2.5524   2.5559   2.5578   2.5588   2.7857   2.7905   2.7921   2.7929
     3.0782   3.0858   3.0872   3.0883   3.4498   3.4512   3.4512   3.4517
     3.6252   3.6372   3.6398   3.6407   3.9125   3.9263   3.9267   3.9271
     3.9991   4.2233   4.2235   4.2259   4.2285   4.3117   4.3213   4.3334
     4.3378   4.5095   4.5524   4.5535   4.5563   4.5638   4.5898   4.5923
     4.6190   4.7879   4.8786   4.8836   4.8900   5.0149   5.0461   5.0610
     5.1659   5.1663   5.1690   5.1721   5.2251   5.2724   5.2895   5.3008
     5.3324   5.3333   5.3402   5.3494   5.4962   5.5957   5.7286   5.7322
     5.7448   5.7458   5.7466   5.7483   5.8399   5.8666   5.8862   5.8872
     6.7791   6.7822   6.7825   6.7834   7.1035   7.1131   7.1151   7.1220
     7.1352   7.1511   7.1511   7.1524   7.2471   7.2679   7.2705   7.2727
     7.3594   7.3650   7.3656   7.3657   7.5226   7.6051   7.6063   7.6111
     7.6576   7.9074   7.9347   7.9558   7.9620   7.9792   8.0010   8.0088
     8.2245   8.2362   8.2373   8.2436   8.2439   8.2863   8.3612   8.3641
     8.8875   8.8880   8.8900   8.8911   8.9198   8.9229   8.9233   8.9241
     8.9611   8.9626   8.9643   8.9650   9.1056   9.1102   9.1182   9.1185
     9.3029   9.3250   9.3393   9.3454   9.5145   9.5213   9.5315   9.5495
     9.5624   9.5677   9.5710   9.5724   9.9258   9.9388   9.9676

     the Fermi energy is     3.3202 ev

!    total energy              =  -12707.14230810 Ry
     Harris-Foulkes estimate   =  -12707.14230807 Ry
     estimated scf accuracy    <          3.0E-09 Ry

     The total energy is the sum of the following terms:

     one-electron contribution = -109279.94299092 Ry
     hartree contribution      =   56001.34396289 Ry
     xc contribution           =   -4447.77554181 Ry
     ewald contribution        =   45025.57470884 Ry
     Dispersion Correction     =      -2.98700982 Ry
     smearing contrib. (-TS)   =      -3.35543728 Ry

     convergence has been achieved in  45 iterations

     Writing output data file gc.save
 
     init_run     :    100.85s CPU    108.04s WALL (       1 calls)
     electrons    :  12323.73s CPU  13157.14s WALL (       1 calls)

     Called by init_run:
     wfcinit      :     98.64s CPU    105.41s WALL (       1 calls)
     potinit      :      0.35s CPU      0.38s WALL (       1 calls)

     Called by electrons:
     c_bands      :  11282.29s CPU  12014.44s WALL (      45 calls)
     sum_band     :    835.49s CPU    905.70s WALL (      45 calls)
     v_of_rho     :      2.93s CPU      3.65s WALL (      46 calls)
     newd         :      8.78s CPU     14.02s WALL (      46 calls)
     mix_rho      :    194.09s CPU    218.95s WALL (      45 calls)

     Called by c_bands:
     init_us_2    :     37.40s CPU     37.84s WALL (     546 calls)
     cegterg      :  11117.54s CPU  11843.89s WALL (     276 calls)

     Called by sum_band:
     sum_band:bec :      4.69s CPU      5.18s WALL (     270 calls)
     addusdens    :      8.24s CPU     13.55s WALL (      45 calls)

     Called by *egterg:
     h_psi        :   4119.83s CPU   4444.66s WALL (    1878 calls)
     s_psi        :    967.19s CPU    978.48s WALL (    1878 calls)
     g_psi        :     10.27s CPU     10.29s WALL (    1596 calls)
     cdiaghg      :   3134.61s CPU   3252.53s WALL (    1866 calls)

     Called by h_psi:
     add_vuspsi   :    971.71s CPU    984.48s WALL (    1878 calls)

     General routines
     calbec       :   1405.30s CPU   1415.84s WALL (    2148 calls)
     fft          :      2.97s CPU      3.54s WALL (     597 calls)
     ffts         :    114.71s CPU    129.89s WALL (   29628 calls)
     fftw         :   2419.10s CPU   2675.72s WALL ( 1308664 calls)
     davcio       :      0.17s CPU      3.46s WALL (       6 calls)
 
     Parallel routines
     fft_scatter  :   1586.01s CPU   1731.77s WALL ( 1338889 calls)
 
     PWSCF        :     3h27m CPU        3h41m WALL

 
   This run was terminated on:  17:25: 2  26Mar2017            

=------------------------------------------------------------------------------=
   JOB DONE.
=------------------------------------------------------------------------------=
