mpirun: INFO: switching to OpenMPI runtime version 1.10.2

     Program PWSCF v.5.4.0 starts on  6Oct2017 at 14:28: 5 

     This program is part of the open-source Quantum ESPRESSO suite
     for quantum simulation of materials; please cite
         "P. Giannozzi et al., J. Phys.:Condens. Matter 21 395502 (2009);
          URL http://www.quantum-espresso.org", 
     in publications or presentations arising from this work. More details at
     http://www.quantum-espresso.org/quote

     Parallel version (MPI & OpenMP), running on      28 processor cores
     Number of MPI processes:                28
     Threads/MPI process:                     1
     R & G space division:  proc/nbgrp/npool/nimage =      28
     Waiting for input...
     Reading input from standard input

     Current dimensions of program PWSCF are:
     Max number of different atomic species (ntypx) = 10
     Max number of k-points (npk) =  40000
     Max angular momentum in pseudopotentials (lmaxx) =  3
     WARNING: atomic wfc #  2 for atom type 4 has zero norm
     WARNING: atomic wfc #  4 for atom type 4 has zero norm
     WARNING: atomic wfc #  5 for atom type 4 has zero norm

     Subspace diagonalization in iterative solution of the eigenvalue problem:
     one sub-group per band group will be used
     scalapack distributed-memory algorithm (size of sub-group:  3*  3 procs)

 
     Parallelization info
     --------------------
     sticks:   dense  smooth     PW     G-vecs:    dense   smooth      PW
     Min         408     408    108                73226    73226    9928
     Max         410     410    109                73231    73231    9931
     Sum       11433   11433   3039              2050409  2050409  278033
 


     bravais-lattice index     =            0
     lattice parameter (alat)  =      13.9425  a.u.
     unit-cell volume          =   21209.0878 (a.u.)^3
     number of atoms/cell      =          139
     number of atomic types    =            5
     number of electrons       =      1242.00
     number of Kohn-Sham states=          745
     kinetic-energy cutoff     =      80.0000  Ry
     charge density cutoff     =     320.0000  Ry
     convergence threshold     =      1.0E-08
     mixing beta               =       0.7000
     number of iterations used =            8  local-TF  mixing
     Exchange-correlation      =  SLA  PW   PBE  PBE ( 1  4  3  4 0 0)
     nstep                     =           50


     celldm(1)=  13.942539  celldm(2)=   0.000000  celldm(3)=   0.000000
     celldm(4)=   0.000000  celldm(5)=   0.000000  celldm(6)=   0.000000

     crystal axes: (cart. coord. in units of alat)
               a(1) = (   1.000000   0.000000   0.000000 )  
               a(2) = (   0.000000   2.309401   0.000000 )  
               a(3) = (   0.000000   0.000000   3.388418 )  

     reciprocal axes: (cart. coord. in units 2 pi/alat)
               b(1) = (  1.000000  0.000000  0.000000 )  
               b(2) = (  0.000000  0.433013  0.000000 )  
               b(3) = (  0.000000  0.000000  0.295123 )  


     PseudoPot. # 1 for Cu read from file:
     /home/549/hxw549/Short/pseudopotentials/Cu.pbe-n-van_ak.UPF
     MD5 check sum: 601f7c30f7467666bec936e0661ce3e1
     Pseudo is Ultrasoft + core correction, Zval = 11.0
     Generated by new atomic code, or converted to UPF format
     Using radial grid of  867 points,  6 beta functions with: 
                l(1) =   0
                l(2) =   0
                l(3) =   1
                l(4) =   1
                l(5) =   2
                l(6) =   2
     Q(r) pseudized with  8 coefficients,  rinner =    1.400   1.400   1.400
                                                       1.400   1.400

     PseudoPot. # 2 for C  read from file:
     /home/549/hxw549/Short/pseudopotentials/C.star1s-pbe-mt_gipaw.UPF
     MD5 check sum: ef0cb3dee31bd9e4ba2a832a2c716264
     Pseudo is Norm-conserving, Zval =  5.0
     Generated by new atomic code, or converted to UPF format
     Using radial grid of 1073 points,  1 beta functions with: 
                l(1) =   0

     PseudoPot. # 3 for C  read from file:
     /home/549/hxw549/Short/pseudopotentials/C.pbe-mt_gipaw.UPF
     MD5 check sum: 5ac2f21f2c440b14befe521540822c15
     Pseudo is Norm-conserving, Zval =  4.0
     Generated by new atomic code, or converted to UPF format
     Using radial grid of 1073 points,  1 beta functions with: 
                l(1) =   0

     PseudoPot. # 4 for O  read from file:
     /home/549/hxw549/Short/pseudopotentials/O.pbe-van_gipaw.UPF
     MD5 check sum: 5ce2a047509d4f331db576c963e74b29
     Pseudo is Ultrasoft, Zval =  6.0
     Generated by new atomic code, or converted to UPF format
     Using radial grid of 1095 points,  4 beta functions with: 
                l(1) =   0
                l(2) =   0
                l(3) =   1
                l(4) =   1
     Q(r) pseudized with 0 coefficients 


     PseudoPot. # 5 for H  read from file:
     /home/549/hxw549/Short/pseudopotentials/H.pbe-van_ak.UPF
     MD5 check sum: 077eb6d537518a38cb46c6de387227b7
     Pseudo is Ultrasoft, Zval =  1.0
     Generated by new atomic code, or converted to UPF format
     Using radial grid of  615 points,  1 beta functions with: 
                l(1) =   0
     Q(r) pseudized with  8 coefficients,  rinner =    0.800

     atomic species   valence    mass     pseudopotential
        Cu            11.00    63.54600     Cu( 1.00)
        C_h            5.00    12.01070     C ( 1.00)
        C              4.00    12.01070     C ( 1.00)
        O              6.00    15.99940     O ( 1.00)
        H              1.00     1.00783     H ( 1.00)

     No symmetry found



   Cartesian axes

     site n.     atom                  positions (alat units)
         1           Cu  tau(   1) = (  -0.0007933  -0.0037632   0.9735152  )
         2           Cu  tau(   2) = (   0.2497029   0.2267793   0.9740198  )
         3           Cu  tau(   3) = (   0.5002570  -0.0036926   0.9736539  )
         4           Cu  tau(   4) = (   0.7498422   0.2284461   0.9735719  )
         5           Cu  tau(   5) = (   0.0003763   0.4607129   0.9743765  )
         6           Cu  tau(   6) = (   0.2497399   0.6947699   0.9748425  )
         7           Cu  tau(   7) = (   0.4991670   0.4605787   0.9747557  )
         8           Cu  tau(   8) = (   0.7497134   0.6935681   0.9751634  )
         9           Cu  tau(   9) = (  -0.0007254   0.9269532   0.9747365  )
        10           Cu  tau(  10) = (   0.2495784   1.1584877   0.9735737  )
        11           Cu  tau(  11) = (   0.5000635   0.9274055   0.9743490  )
        12           Cu  tau(  12) = (   0.7496547   1.1590962   0.9734969  )
        13           Cu  tau(  13) = (  -0.0003996   1.3895128   0.9728098  )
        14           Cu  tau(  14) = (   0.2495541   1.6190961   0.9733226  )
        15           Cu  tau(  15) = (   0.4995632   1.3893073   0.9728165  )
        16           Cu  tau(  16) = (   0.7496308   1.6193460   0.9730588  )
        17           Cu  tau(  17) = (  -0.0000003   1.8479950   0.9735837  )
        18           Cu  tau(  18) = (   0.2498001   2.0769812   0.9739771  )
        19           Cu  tau(  19) = (   0.4992505   1.8478616   0.9738312  )
        20           Cu  tau(  20) = (   0.7495523   2.0756698   0.9735634  )
        21           Cu  tau(  21) = (  -0.0004054   0.2265232   1.2231710  )
        22           Cu  tau(  22) = (   0.2492691  -0.0043551   1.2248822  )
        23           Cu  tau(  23) = (   0.4992943   0.2263110   1.2231203  )
        24           Cu  tau(  24) = (   0.7495394  -0.0037495   1.2234316  )
        25           Cu  tau(  25) = (  -0.0006622   0.6931367   1.2243957  )
        26           Cu  tau(  26) = (   0.2493961   0.4590652   1.2235526  )
        27           Cu  tau(  27) = (   0.4994033   0.6934695   1.2235908  )
        28           Cu  tau(  28) = (   0.7494610   0.4588161   1.2239336  )
        29           Cu  tau(  29) = (  -0.0007790   1.1602715   1.2237633  )
        30           Cu  tau(  30) = (   0.2491343   0.9278932   1.2238321  )
        31           Cu  tau(  31) = (   0.4993493   1.1598960   1.2241460  )
        32           Cu  tau(  32) = (   0.7495062   0.9277464   1.2235754  )
        33           Cu  tau(  33) = (  -0.0006633   1.6187014   1.2250244  )
        34           Cu  tau(  34) = (   0.2492619   1.3894153   1.2236175  )
        35           Cu  tau(  35) = (   0.4991536   1.6186616   1.2247498  )
        36           Cu  tau(  36) = (   0.7492476   1.3897823   1.2238189  )
        37           Cu  tau(  37) = (  -0.0006835   2.0760785   1.2256165  )
        38           Cu  tau(  38) = (   0.2492104   1.8480120   1.2262768  )
        39           Cu  tau(  39) = (   0.4993389   2.0765478   1.2258083  )
        40           Cu  tau(  40) = (   0.7493027   1.8475689   1.2261819  )
        41           Cu  tau(  41) = (  -0.0004909  -0.0048336   1.4849766  )
        42           Cu  tau(  42) = (   0.2489402   0.2227982   1.4834218  )
        43           Cu  tau(  43) = (   0.4980019  -0.0045149   1.4853938  )
        44           Cu  tau(  44) = (   0.7485713   0.2215073   1.4831618  )
        45           Cu  tau(  45) = (  -0.0016370   0.4543805   1.4797517  )
        46           Cu  tau(  46) = (   0.2486009   0.6928324   1.4781487  )
        47           Cu  tau(  47) = (   0.4991610   0.4548714   1.4798039  )
        48           Cu  tau(  48) = (   0.7489866   0.6936635   1.4783874  )
        49           Cu  tau(  49) = (  -0.0010980   0.9302195   1.4806872  )
        50           Cu  tau(  50) = (   0.2487438   1.1622181   1.4832402  )
        51           Cu  tau(  51) = (   0.4987457   0.9290362   1.4798309  )
        52           Cu  tau(  52) = (   0.7489859   1.1615394   1.4825817  )
        53           Cu  tau(  53) = (  -0.0007814   1.3899933   1.4855920  )
        54           Cu  tau(  54) = (   0.2484601   1.6175630   1.4847718  )
        55           Cu  tau(  55) = (   0.4985873   1.3902259   1.4846405  )
        56           Cu  tau(  56) = (   0.7492010   1.6174987   1.4846782  )
        57           Cu  tau(  57) = (  -0.0014290   1.8474697   1.4857552  )
        58           Cu  tau(  58) = (   0.2486847   2.0771019   1.4863338  )
        59           Cu  tau(  59) = (   0.4989276   1.8478343   1.4844337  )
        60           Cu  tau(  60) = (   0.7487702   2.0782521   1.4846627  )
        61           Cu  tau(  61) = (  -0.0021627   0.2243110   1.7440333  )
        62           Cu  tau(  62) = (   0.2502370  -0.0068092   1.7508778  )
        63           Cu  tau(  63) = (   0.4982192   0.2215890   1.7475105  )
        64           Cu  tau(  64) = (   0.7462605  -0.0075053   1.7485148  )
        65           Cu  tau(  65) = (  -0.0020228   0.6899971   1.7316064  )
        66           Cu  tau(  66) = (   0.2477080   0.4584880   1.7342855  )
        67           Cu  tau(  67) = (   0.4990514   0.6915857   1.7321027  )
        68           Cu  tau(  68) = (   0.7486877   0.4578628   1.7347780  )
        69           Cu  tau(  69) = (  -0.0008352   1.1602809   1.7444211  )
        70           Cu  tau(  70) = (   0.2488051   0.9257507   1.7354796  )
        71           Cu  tau(  71) = (   0.4982620   1.1584682   1.7411883  )
        72           Cu  tau(  72) = (   0.7485149   0.9286008   1.7368682  )
        73           Cu  tau(  73) = (  -0.0018972   1.6190554   1.7501941  )
        74           Cu  tau(  74) = (   0.2483193   1.3924571   1.7508894  )
        75           Cu  tau(  75) = (   0.4990517   1.6210935   1.7469779  )
        76           Cu  tau(  76) = (   0.7495658   1.3879185   1.7479236  )
        77           Cu  tau(  77) = (  -0.0013257   2.0772881   1.7493926  )
        78           Cu  tau(  78) = (   0.2483401   1.8475179   1.7480583  )
        79           Cu  tau(  79) = (   0.4981307   2.0770788   1.7504057  )
        80           Cu  tau(  80) = (   0.7488000   1.8495285   1.7476616  )
        81           Cu  tau(  81) = (   0.0004490  -0.0006249   2.0039919  )
        82           Cu  tau(  82) = (   0.2476229   0.2360834   1.9866456  )
        83           Cu  tau(  83) = (   0.4951811  -0.0037201   2.0285902  )
        84           Cu  tau(  84) = (   0.7479079   0.2320386   1.9866084  )
        85           Cu  tau(  85) = (  -0.0031078   0.4643672   1.9875510  )
        86           Cu  tau(  86) = (   0.2474225   0.6907990   1.9799467  )
        87           Cu  tau(  87) = (   0.4991218   0.4654393   1.9843607  )
        88           Cu  tau(  88) = (   0.7493910   0.6922696   1.9805374  )
        89           Cu  tau(  89) = (  -0.0015610   0.9183555   1.9805795  )
        90           Cu  tau(  90) = (   0.2484700   1.1502693   1.9926725  )
        91           Cu  tau(  91) = (   0.4984911   0.9184109   1.9830868  )
        92           Cu  tau(  92) = (   0.7478782   1.1497959   2.0022181  )
        93           Cu  tau(  93) = (  -0.0036585   1.3861857   2.0000970  )
        94           Cu  tau(  94) = (   0.2507862   1.6217803   2.0160351  )
        95           Cu  tau(  95) = (   0.5008550   1.3839008   1.9898481  )
        96           Cu  tau(  96) = (   0.7447687   1.6183856   2.0031117  )
        97           Cu  tau(  97) = (  -0.0075623   1.8480812   2.0004772  )
        98           Cu  tau(  98) = (   0.2464587   2.0704045   2.0035524  )
        99           Cu  tau(  99) = (   0.5033424   1.8519939   2.0032375  )
       100           Cu  tau( 100) = (   0.7498273   2.0787756   2.0032560  )
       101           C   tau( 101) = (   0.0019297   0.0872568   2.4119417  )
       102           C   tau( 102) = (   0.0019321   0.2823440   2.4257661  )
       103           C   tau( 103) = (   0.1683972  -0.0059287   2.4007167  )
       104           C   tau( 104) = (   0.1687622   0.3786003   2.4315114  )
       105           C   tau( 105) = (   0.3342000   0.0877742   2.3960305  )
       106           C   tau( 106) = (   0.3350093   0.2820412   2.4179580  )
       107           C   tau( 107) = (   0.5017788  -0.0046351   2.3713689  )
       108           C   tau( 108) = (   0.5017428   0.3784880   2.4270470  )
       109           C   tau( 109) = (   0.6694037   0.0881370   2.3940337  )
       110           C   tau( 110) = (   0.6688977   0.2823989   2.4168794  )
       111           C   tau( 111) = (   0.8351948  -0.0054803   2.3989713  )
       112           C   tau( 112) = (   0.8355235   0.3787461   2.4318875  )
       113           C   tau( 113) = (   0.0031610   0.6694797   2.4451114  )
       114           C   tau( 114) = (   0.0039337   0.8635062   2.4344426  )
       115           C   tau( 115) = (   0.1692944   0.5727143   2.4414214  )
       116           C   tau( 116) = (   0.1698871   0.9626262   2.4229515  )
       117           C   tau( 117) = (   0.3357635   0.6706260   2.4401556  )
       118           C   tau( 118) = (   0.3360782   0.8654376   2.4329441  )
       119           C   tau( 119) = (   0.5020343   0.5722638   2.4410798  )
       120           C   tau( 120) = (   0.5024393   0.9632104   2.4300857  )
       121           C   tau( 121) = (   0.6683783   0.6694452   2.4447566  )
       122           C   tau( 122) = (   0.6685608   0.8635815   2.4379478  )
       123           C   tau( 123) = (   0.8357280   0.5727994   2.4447385  )
       124           C   tau( 124) = (   0.8360410   0.9568088   2.4281055  )
       125           C   tau( 125) = (  -0.0005440   1.2449747   2.3862379  )
       126           C   tau( 126) = (   0.1683271   1.1582672   2.4020590  )
       127           C   tau( 127) = (   0.3357616   1.2580862   2.4069418  )
       128           C   tau( 128) = (   0.5038846   1.1593432   2.4167524  )
       129           C   tau( 129) = (   0.6721615   1.2444345   2.3940579  )
       130           C   tau( 130) = (   0.8361212   1.1481338   2.4015650  )
       131           H   tau( 131) = (   0.1673471  -0.1539294   2.3920649  )
       132           H   tau( 132) = (   0.5024242  -0.1524803   2.3797735  )
       133           H   tau( 133) = (   0.8363291  -0.1536263   2.3920947  )
       134           H   tau( 134) = (  -0.0105774   1.3915008   2.3734315  )
       135           H   tau( 135) = (   0.6835379   1.3905539   2.3787417  )
       136           C   tau( 136) = (   0.3313285   1.4564511   2.3988606  )
       137           O   tau( 137) = (   0.2161540   1.5521439   2.3822420  )
       138           O   tau( 138) = (   0.4662603   1.5418809   2.3855066  )
       139           H   tau( 139) = (   0.4624810   1.6723073   2.3961944  )

     number of k points=     6  gaussian smearing, width (Ry)=  0.1000
                       cart. coord. in units 2pi/alat
        k(    1) = (   0.0000000   0.0000000   0.0000000), wk =   0.2500000
        k(    2) = (   0.0000000  -0.2165064   0.0000000), wk =   0.2500000
        k(    3) = (   0.2500000   0.0000000   0.0000000), wk =   0.5000000
        k(    4) = (   0.2500000  -0.2165064   0.0000000), wk =   0.5000000
        k(    5) = (  -0.5000000   0.0000000   0.0000000), wk =   0.2500000
        k(    6) = (  -0.5000000  -0.2165064   0.0000000), wk =   0.2500000

     Dense  grid:  2050409 G-vectors     FFT dimensions: (  80, 192, 270)

     Largest allocated arrays     est. size (Mb)     dimensions
        Kohn-Sham Wavefunctions       104.25 Mb     (    9171,  745)
        NL pseudopotentials           259.31 Mb     (    9171, 1853)
        Each V/rho on FFT grid          2.34 Mb     (  153600)
        Each G-vector array             0.56 Mb     (   73230)
        G-vector shells                 0.27 Mb     (   35784)
     Largest temporary arrays     est. size (Mb)     dimensions
        Auxiliary wavefunctions       417.02 Mb     (    9171, 2980)
        Each subspace H/S matrix       15.05 Mb     (     993,  993)
        Each <psi_i|beta_j> matrix     21.06 Mb     (    1853,  745)
        Arrays for rho mixing          18.75 Mb     (  153600,    8)

     Initial potential from superposition of free atoms
     Check: negative starting charge=   -0.001982

     starting charge 1225.31748, renormalised to 1242.00000

     negative rho (up, down):  2.009E-03 0.000E+00
     Starting wfc are 1162 randomized atomic wfcs

     total cpu time spent up to now is      180.6 secs

     Self-consistent Calculation

     iteration #  1     ecut=    80.00 Ry     beta=0.70
     Davidson diagonalization with overlap
     ethr =  1.00E-04,  avg # of iterations = 20.0

     negative rho (up, down):  2.936E+01 0.000E+00

     total cpu time spent up to now is     3254.1 secs

     total energy              =   -8279.19733988 Ry
     Harris-Foulkes estimate   =  -15118.55436938 Ry
     estimated scf accuracy    <  154302.19450266 Ry

     iteration #  2     ecut=    80.00 Ry     beta=0.70
     Davidson diagonalization with overlap
     ethr =  1.00E-02,  avg # of iterations = 12.8

     negative rho (up, down):  2.179E+01 0.000E+00

     total cpu time spent up to now is     4885.0 secs

     total energy              =  -12694.19918147 Ry
     Harris-Foulkes estimate   =  -13228.73737232 Ry
     estimated scf accuracy    <    1672.84991662 Ry

     iteration #  3     ecut=    80.00 Ry     beta=0.70
     Davidson diagonalization with overlap
     ethr =  1.00E-02,  avg # of iterations =  4.7

     negative rho (up, down):  1.612E+01 0.000E+00

     total cpu time spent up to now is     5508.4 secs

     total energy              =  -12695.83079976 Ry
     Harris-Foulkes estimate   =  -12793.03934230 Ry
     estimated scf accuracy    <     794.36274653 Ry

     iteration #  4     ecut=    80.00 Ry     beta=0.70
     Davidson diagonalization with overlap
     ethr =  1.00E-02,  avg # of iterations =  4.0

     negative rho (up, down):  1.610E+01 0.000E+00

     total cpu time spent up to now is     6080.3 secs

     total energy              =  -12748.37566683 Ry
     Harris-Foulkes estimate   =  -12749.90537544 Ry
     estimated scf accuracy    <    1369.20694760 Ry

     iteration #  5     ecut=    80.00 Ry     beta=0.70
     Davidson diagonalization with overlap
     ethr =  1.00E-02,  avg # of iterations =  2.0

     negative rho (up, down):  1.301E+01 0.000E+00

     total cpu time spent up to now is     6398.1 secs

     total energy              =  -12700.21653286 Ry
     Harris-Foulkes estimate   =  -12749.24192872 Ry
     estimated scf accuracy    <    1260.44415516 Ry

     iteration #  6     ecut=    80.00 Ry     beta=0.70
     Davidson diagonalization with overlap
     ethr =  1.00E-02,  avg # of iterations =  2.8

     negative rho (up, down):  1.018E+01 0.000E+00

     total cpu time spent up to now is     6783.0 secs

     total energy              =  -12687.44852444 Ry
     Harris-Foulkes estimate   =  -12745.85910672 Ry
     estimated scf accuracy    <    1705.40315662 Ry

     iteration #  7     ecut=    80.00 Ry     beta=0.70
     Davidson diagonalization with overlap
     ethr =  1.00E-02,  avg # of iterations =  2.5

     negative rho (up, down):  8.179E+00 0.000E+00

     total cpu time spent up to now is     7115.9 secs

     total energy              =  -12674.64921110 Ry
     Harris-Foulkes estimate   =  -12720.32808157 Ry
     estimated scf accuracy    <     798.55847029 Ry

     iteration #  8     ecut=    80.00 Ry     beta=0.70
     Davidson diagonalization with overlap
     ethr =  1.00E-02,  avg # of iterations =  2.0

     negative rho (up, down):  4.787E+00 0.000E+00

     total cpu time spent up to now is     7437.6 secs

     total energy              =  -12657.92035287 Ry
     Harris-Foulkes estimate   =  -12687.95480432 Ry
     estimated scf accuracy    <     282.33068794 Ry

     iteration #  9     ecut=    80.00 Ry     beta=0.70
     Davidson diagonalization with overlap
     ethr =  1.00E-02,  avg # of iterations =  1.5

     negative rho (up, down):  1.997E+00 0.000E+00

     total cpu time spent up to now is     7747.9 secs

     total energy              =  -12625.35496394 Ry
     Harris-Foulkes estimate   =  -12663.66869714 Ry
     estimated scf accuracy    <     256.68083118 Ry

     iteration # 10     ecut=    80.00 Ry     beta=0.70
     Davidson diagonalization with overlap
     ethr =  1.00E-02,  avg # of iterations =  1.0

     negative rho (up, down):  2.027E+00 0.000E+00

     total cpu time spent up to now is     8047.8 secs

     total energy              =  -12579.77623798 Ry
     Harris-Foulkes estimate   =  -12629.25538331 Ry
     estimated scf accuracy    <     170.15930699 Ry

     iteration # 11     ecut=    80.00 Ry     beta=0.70
     Davidson diagonalization with overlap
     ethr =  1.00E-02,  avg # of iterations =  2.8

     negative rho (up, down):  4.537E+00 0.000E+00

     total cpu time spent up to now is     8428.8 secs

     total energy              =  -12569.13853368 Ry
     Harris-Foulkes estimate   =  -12610.59831403 Ry
     estimated scf accuracy    <     499.12132622 Ry

     iteration # 12     ecut=    80.00 Ry     beta=0.70
     Davidson diagonalization with overlap
     ethr =  1.00E-02,  avg # of iterations =  2.0

     negative rho (up, down):  3.947E+00 0.000E+00

     total cpu time spent up to now is     8750.2 secs

     total energy              =  -12580.42804498 Ry
     Harris-Foulkes estimate   =  -12588.87428368 Ry
     estimated scf accuracy    <      54.01085377 Ry

     iteration # 13     ecut=    80.00 Ry     beta=0.70
     Davidson diagonalization with overlap
     ethr =  4.35E-03,  avg # of iterations =  2.0

     negative rho (up, down):  2.233E+00 0.000E+00

     total cpu time spent up to now is     9082.7 secs

     total energy              =  -12580.99992190 Ry
     Harris-Foulkes estimate   =  -12587.71564717 Ry
     estimated scf accuracy    <      84.44342371 Ry

     iteration # 14     ecut=    80.00 Ry     beta=0.70
     Davidson diagonalization with overlap
     ethr =  4.35E-03,  avg # of iterations =  1.2

     negative rho (up, down):  3.345E+00 0.000E+00

     total cpu time spent up to now is     9386.5 secs

     total energy              =  -12580.13855842 Ry
     Harris-Foulkes estimate   =  -12584.18747458 Ry
     estimated scf accuracy    <      35.68672606 Ry

     iteration # 15     ecut=    80.00 Ry     beta=0.70
     Davidson diagonalization with overlap
     ethr =  2.87E-03,  avg # of iterations =  1.0

     negative rho (up, down):  3.477E+00 0.000E+00

     total cpu time spent up to now is     9687.3 secs

     total energy              =  -12579.30236069 Ry
     Harris-Foulkes estimate   =  -12580.75624543 Ry
     estimated scf accuracy    <      16.77142294 Ry

     iteration # 16     ecut=    80.00 Ry     beta=0.70
     Davidson diagonalization with overlap
     ethr =  1.35E-03,  avg # of iterations =  1.3

     negative rho (up, down):  2.750E+00 0.000E+00

     total cpu time spent up to now is     9996.2 secs

     total energy              =  -12578.35525148 Ry
     Harris-Foulkes estimate   =  -12579.54527932 Ry
     estimated scf accuracy    <      12.10290607 Ry

     iteration # 17     ecut=    80.00 Ry     beta=0.70
     Davidson diagonalization with overlap
     ethr =  9.74E-04,  avg # of iterations =  4.2

     negative rho (up, down):  2.041E+00 0.000E+00

     total cpu time spent up to now is    10354.6 secs

     total energy              =  -12577.33082714 Ry
     Harris-Foulkes estimate   =  -12578.47661511 Ry
     estimated scf accuracy    <      11.72465424 Ry

     iteration # 18     ecut=    80.00 Ry     beta=0.70
     Davidson diagonalization with overlap
     ethr =  9.44E-04,  avg # of iterations =  3.2

     negative rho (up, down):  1.648E+00 0.000E+00

     total cpu time spent up to now is    10696.4 secs

     total energy              =  -12575.88825117 Ry
     Harris-Foulkes estimate   =  -12577.46004875 Ry
     estimated scf accuracy    <       8.33237991 Ry

     iteration # 19     ecut=    80.00 Ry     beta=0.70
     Davidson diagonalization with overlap
     ethr =  6.71E-04,  avg # of iterations =  4.5

     negative rho (up, down):  7.010E-01 0.000E+00

     total cpu time spent up to now is    11065.0 secs

     total energy              =  -12574.42033162 Ry
     Harris-Foulkes estimate   =  -12576.16075509 Ry
     estimated scf accuracy    <       7.70103403 Ry

     iteration # 20     ecut=    80.00 Ry     beta=0.70
     Davidson diagonalization with overlap
     ethr =  6.20E-04,  avg # of iterations =  5.8

     negative rho (up, down):  4.078E-01 0.000E+00

     total cpu time spent up to now is    11461.9 secs

     total energy              =  -12573.67537601 Ry
     Harris-Foulkes estimate   =  -12574.62580129 Ry
     estimated scf accuracy    <       5.68219163 Ry

     iteration # 21     ecut=    80.00 Ry     beta=0.70
     Davidson diagonalization with overlap
     ethr =  4.58E-04,  avg # of iterations =  4.7

     negative rho (up, down):  3.552E-01 0.000E+00

     total cpu time spent up to now is    11833.4 secs

     total energy              =  -12573.35224680 Ry
     Harris-Foulkes estimate   =  -12573.82330712 Ry
     estimated scf accuracy    <       3.63060706 Ry

     iteration # 22     ecut=    80.00 Ry     beta=0.70
     Davidson diagonalization with overlap
     ethr =  2.92E-04,  avg # of iterations =  1.0

     negative rho (up, down):  8.243E-01 0.000E+00

     total cpu time spent up to now is    12137.1 secs

     total energy              =  -12572.85865678 Ry
     Harris-Foulkes estimate   =  -12573.47441012 Ry
     estimated scf accuracy    <       2.01997859 Ry

     iteration # 23     ecut=    80.00 Ry     beta=0.70
     Davidson diagonalization with overlap
     ethr =  1.63E-04,  avg # of iterations =  7.2

     negative rho (up, down):  7.734E-01 0.000E+00

     total cpu time spent up to now is    12583.4 secs

     total energy              =  -12572.58347674 Ry
     Harris-Foulkes estimate   =  -12572.92621727 Ry
     estimated scf accuracy    <       1.15131808 Ry

     iteration # 24     ecut=    80.00 Ry     beta=0.70
     Davidson diagonalization with overlap
     ethr =  9.27E-05,  avg # of iterations =  7.7

     negative rho (up, down):  2.224E-01 0.000E+00

     total cpu time spent up to now is    13076.3 secs

     total energy              =  -12572.50415854 Ry
     Harris-Foulkes estimate   =  -12572.65079690 Ry
     estimated scf accuracy    <       0.60969268 Ry

     iteration # 25     ecut=    80.00 Ry     beta=0.70
     Davidson diagonalization with overlap
     ethr =  4.91E-05,  avg # of iterations =  8.2

     negative rho (up, down):  3.004E-01 0.000E+00

     total cpu time spent up to now is    13564.2 secs

     total energy              =  -12572.52718562 Ry
     Harris-Foulkes estimate   =  -12572.55014817 Ry
     estimated scf accuracy    <       0.21310775 Ry

     iteration # 26     ecut=    80.00 Ry     beta=0.70
     Davidson diagonalization with overlap
     ethr =  1.72E-05,  avg # of iterations =  8.2

     negative rho (up, down):  1.106E-01 0.000E+00

     total cpu time spent up to now is    14051.7 secs

     total energy              =  -12572.52848389 Ry
     Harris-Foulkes estimate   =  -12572.54155968 Ry
     estimated scf accuracy    <       0.04576737 Ry

     iteration # 27     ecut=    80.00 Ry     beta=0.70
     Davidson diagonalization with overlap
     ethr =  3.68E-06,  avg # of iterations = 13.5

     negative rho (up, down):  9.318E-02 0.000E+00

     total cpu time spent up to now is    14699.0 secs

     total energy              =  -12572.52998820 Ry
     Harris-Foulkes estimate   =  -12572.53486372 Ry
     estimated scf accuracy    <       0.02977930 Ry

     iteration # 28     ecut=    80.00 Ry     beta=0.70
     Davidson diagonalization with overlap
     ethr =  2.40E-06,  avg # of iterations =  6.5

     negative rho (up, down):  6.091E-02 0.000E+00

     total cpu time spent up to now is    15112.3 secs

     total energy              =  -12572.53003866 Ry
     Harris-Foulkes estimate   =  -12572.53206237 Ry
     estimated scf accuracy    <       0.00964210 Ry

     iteration # 29     ecut=    80.00 Ry     beta=0.70
     Davidson diagonalization with overlap
     ethr =  7.76E-07,  avg # of iterations =  8.0

     negative rho (up, down):  5.403E-02 0.000E+00

     total cpu time spent up to now is    15611.4 secs

     total energy              =  -12572.53022333 Ry
     Harris-Foulkes estimate   =  -12572.53089588 Ry
     estimated scf accuracy    <       0.00446828 Ry

     iteration # 30     ecut=    80.00 Ry     beta=0.70
     Davidson diagonalization with overlap
     ethr =  3.60E-07,  avg # of iterations =  8.3

     negative rho (up, down):  2.192E-02 0.000E+00

     total cpu time spent up to now is    16079.5 secs

     total energy              =  -12572.53002811 Ry
     Harris-Foulkes estimate   =  -12572.53063972 Ry
     estimated scf accuracy    <       0.00171971 Ry

     iteration # 31     ecut=    80.00 Ry     beta=0.70
     Davidson diagonalization with overlap
     c_bands:  2 eigenvalues not converged
     ethr =  1.38E-07,  avg # of iterations = 12.7

     negative rho (up, down):  1.029E-02 0.000E+00

     total cpu time spent up to now is    16665.0 secs

     total energy              =  -12572.53006435 Ry
     Harris-Foulkes estimate   =  -12572.53020728 Ry
     estimated scf accuracy    <       0.00074693 Ry

     iteration # 32     ecut=    80.00 Ry     beta=0.70
     Davidson diagonalization with overlap
     ethr =  6.01E-08,  avg # of iterations = 12.5

     negative rho (up, down):  6.919E-03 0.000E+00

     total cpu time spent up to now is    17258.3 secs

     total energy              =  -12572.53010169 Ry
     Harris-Foulkes estimate   =  -12572.53011840 Ry
     estimated scf accuracy    <       0.00010570 Ry

     iteration # 33     ecut=    80.00 Ry     beta=0.70
     Davidson diagonalization with overlap
     ethr =  8.51E-09,  avg # of iterations = 10.5

     negative rho (up, down):  5.067E-03 0.000E+00

     total cpu time spent up to now is    17795.8 secs

     total energy              =  -12572.53008322 Ry
     Harris-Foulkes estimate   =  -12572.53011276 Ry
     estimated scf accuracy    <       0.00004788 Ry

     iteration # 34     ecut=    80.00 Ry     beta=0.70
     Davidson diagonalization with overlap
     ethr =  3.86E-09,  avg # of iterations =  6.5

     negative rho (up, down):  3.416E-03 0.000E+00

     total cpu time spent up to now is    18210.0 secs

     total energy              =  -12572.53006385 Ry
     Harris-Foulkes estimate   =  -12572.53008811 Ry
     estimated scf accuracy    <       0.00002576 Ry

     iteration # 35     ecut=    80.00 Ry     beta=0.70
     Davidson diagonalization with overlap
     ethr =  2.07E-09,  avg # of iterations = 10.0

     negative rho (up, down):  2.833E-03 0.000E+00

     total cpu time spent up to now is    18715.2 secs

     total energy              =  -12572.53005854 Ry
     Harris-Foulkes estimate   =  -12572.53006578 Ry
     estimated scf accuracy    <       0.00000730 Ry

     iteration # 36     ecut=    80.00 Ry     beta=0.70
     Davidson diagonalization with overlap
     ethr =  5.88E-10,  avg # of iterations =  2.5

     negative rho (up, down):  2.325E-03 0.000E+00

     total cpu time spent up to now is    19066.1 secs

     total energy              =  -12572.53005708 Ry
     Harris-Foulkes estimate   =  -12572.53005933 Ry
     estimated scf accuracy    <       0.00000491 Ry

     iteration # 37     ecut=    80.00 Ry     beta=0.70
     Davidson diagonalization with overlap
     ethr =  3.95E-10,  avg # of iterations =  2.0

     negative rho (up, down):  1.906E-03 0.000E+00

     total cpu time spent up to now is    19406.3 secs

     total energy              =  -12572.53005753 Ry
     Harris-Foulkes estimate   =  -12572.53005751 Ry
     estimated scf accuracy    <       0.00000187 Ry

     iteration # 38     ecut=    80.00 Ry     beta=0.70
     Davidson diagonalization with overlap
     ethr =  1.50E-10,  avg # of iterations =  3.0

     negative rho (up, down):  1.926E-03 0.000E+00

     total cpu time spent up to now is    19769.4 secs

     total energy              =  -12572.53005781 Ry
     Harris-Foulkes estimate   =  -12572.53005774 Ry
     estimated scf accuracy    <       0.00000020 Ry

     iteration # 39     ecut=    80.00 Ry     beta=0.70
     Davidson diagonalization with overlap
     ethr =  1.60E-11,  avg # of iterations =  3.0

     negative rho (up, down):  1.942E-03 0.000E+00

     total cpu time spent up to now is    20240.9 secs

     total energy              =  -12572.53005787 Ry
     Harris-Foulkes estimate   =  -12572.53005786 Ry
     estimated scf accuracy    <       0.00000010 Ry

     iteration # 40     ecut=    80.00 Ry     beta=0.70
     Davidson diagonalization with overlap
     ethr =  7.92E-12,  avg # of iterations =  2.3

     negative rho (up, down):  1.963E-03 0.000E+00

     total cpu time spent up to now is    20582.2 secs

     total energy              =  -12572.53005792 Ry
     Harris-Foulkes estimate   =  -12572.53005788 Ry
     estimated scf accuracy    <       0.00000002 Ry

     iteration # 41     ecut=    80.00 Ry     beta=0.70
     Davidson diagonalization with overlap
     ethr =  1.70E-12,  avg # of iterations =  3.0

     negative rho (up, down):  1.963E-03 0.000E+00

     total cpu time spent up to now is    20929.7 secs

     End of self-consistent calculation

          k = 0.0000 0.0000 0.0000 (256287 PWs)   bands (ev):

   -23.3373 -18.7853 -16.0369 -15.4607 -14.5491 -14.0834 -14.0745 -13.5564
   -13.5005 -13.3387 -12.6957 -12.6186 -11.9945 -11.5771 -11.4238 -10.6072
   -10.0832  -9.8501  -9.1432  -8.8267  -8.8015  -8.1283  -8.0472  -7.6394
    -7.2739  -7.1785  -6.8627  -6.7797  -6.3285  -6.1216  -5.9781  -5.9281
    -5.7505  -5.5063  -5.4445  -5.4295  -5.4171  -5.1154  -5.0521  -4.9869
    -4.5176  -4.5008  -4.4734  -4.4056  -4.2546  -3.9543  -3.9449  -3.9385
    -3.7069  -3.6516  -3.3790  -3.3607  -3.3583  -3.1233  -3.0860  -2.9824
    -2.9696  -2.9679  -2.9650  -2.9610  -2.9499  -2.9280  -2.9140  -2.9092
    -2.8675  -2.8215  -2.6595  -2.6150  -2.5836  -2.5823  -2.5436  -2.4869
    -2.3545  -2.3529  -2.3472  -2.3469  -2.1882  -2.1670  -2.1605  -2.1276
    -2.1262  -2.1247  -2.1231  -2.0844  -2.0445  -2.0442  -2.0356  -2.0324
    -2.0241  -2.0169  -1.9105  -1.8626  -1.7912  -1.7893  -1.7833  -1.7797
    -1.7715  -1.7659  -1.7645  -1.7494  -1.7270  -1.6994  -1.6820  -1.6727
    -1.6618  -1.6596  -1.6457  -1.6382  -1.6352  -1.6239  -1.6184  -1.6072
    -1.5371  -1.5366  -1.5193  -1.5120  -1.4846  -1.4786  -1.4554  -1.4141
    -1.4121  -1.3882  -1.3753  -1.3728  -1.3669  -1.3331  -1.3284  -1.3262
    -1.2536  -1.2375  -1.2287  -1.2218  -1.2158  -1.1965  -1.1889  -1.1851
    -1.1428  -1.1405  -1.1347  -1.1195  -1.1158  -1.1126  -1.1092  -1.1084
    -1.1005  -1.0886  -1.0791  -1.0651  -1.0642  -1.0607  -1.0484  -1.0458
    -1.0450  -1.0438  -1.0370  -1.0232  -1.0107  -1.0083  -1.0058  -0.9976
    -0.9917  -0.9781  -0.9608  -0.9506  -0.9420  -0.9385  -0.9326  -0.9300
    -0.9244  -0.9223  -0.9079  -0.8748  -0.8734  -0.8704  -0.8682  -0.8636
    -0.8629  -0.8612  -0.8599  -0.8494  -0.8338  -0.7678  -0.7677  -0.7556
    -0.7531  -0.7225  -0.7210  -0.7050  -0.7037  -0.7020  -0.6936  -0.6911
    -0.6895  -0.6860  -0.6834  -0.6782  -0.6588  -0.6499  -0.6456  -0.6440
    -0.6154  -0.6141  -0.6085  -0.6063  -0.5795  -0.5784  -0.5659  -0.5522
    -0.5332  -0.5308  -0.5288  -0.5242  -0.5213  -0.5186  -0.5136  -0.5082
    -0.4946  -0.4937  -0.4783  -0.4762  -0.4728  -0.4700  -0.4692  -0.4640
    -0.4579  -0.4521  -0.4401  -0.4353  -0.3967  -0.3939  -0.3936  -0.3835
    -0.3818  -0.3799  -0.3759  -0.3734  -0.3717  -0.3701  -0.3696  -0.3603
    -0.3598  -0.3522  -0.3485  -0.3481  -0.3455  -0.3412  -0.3389  -0.3376
    -0.3335  -0.3258  -0.3212  -0.3181  -0.2948  -0.2867  -0.2810  -0.2785
    -0.2763  -0.2720  -0.2685  -0.2652  -0.2582  -0.2429  -0.2341  -0.2267
    -0.2181  -0.2149  -0.2074  -0.2057  -0.1896  -0.1881  -0.1787  -0.1713
    -0.1681  -0.1639  -0.1606  -0.1505  -0.1446  -0.1434  -0.1388  -0.1373
    -0.1319  -0.1242  -0.1125  -0.1103  -0.1070  -0.0995  -0.0954  -0.0934
    -0.0642  -0.0562  -0.0544  -0.0530  -0.0502  -0.0288  -0.0249  -0.0195
    -0.0123  -0.0105  -0.0066  -0.0031   0.0059   0.0073   0.0078   0.0121
     0.0182   0.0217   0.0278   0.0292   0.0413   0.0494   0.0540   0.0599
     0.0682   0.0760   0.1181   0.1188   0.1311   0.1324   0.1400   0.1419
     0.1449   0.1558   0.1631   0.1665   0.1745   0.1772   0.1822   0.2011
     0.2064   0.2090   0.2114   0.2225   0.2338   0.2361   0.2417   0.2464
     0.2470   0.2813   0.2867   0.2896   0.2938   0.2969   0.3004   0.3060
     0.3076   0.3277   0.3363   0.3402   0.3467   0.3495   0.3571   0.3646
     0.3699   0.3727   0.3734   0.3809   0.3877   0.3903   0.3919   0.3964
     0.3966   0.3983   0.4069   0.4078   0.4116   0.4163   0.4205   0.4250
     0.4265   0.4300   0.4310   0.4331   0.4369   0.4388   0.4436   0.4478
     0.4546   0.4635   0.4783   0.5022   0.5042   0.5089   0.5096   0.5190
     0.5262   0.5266   0.5272   0.5337   0.5350   0.5363   0.5435   0.5438
     0.5445   0.5482   0.5495   0.5541   0.5546   0.5618   0.5651   0.5676
     0.5723   0.5782   0.5793   0.5804   0.5808   0.5838   0.5892   0.5929
     0.6071   0.6167   0.6187   0.6363   0.6567   0.6609   0.6692   0.6731
     0.6762   0.6809   0.6845   0.6882   0.6904   0.6926   0.7049   0.7084
     0.7095   0.7123   0.7174   0.7203   0.7276   0.7284   0.7366   0.7406
     0.7432   0.7510   0.7587   0.7618   0.7881   0.7900   0.7945   0.7955
     0.7967   0.8016   0.8147   0.8184   0.8262   0.8320   0.8364   0.8411
     0.8484   0.8550   0.8563   0.8572   0.8587   0.8622   0.8667   0.8682
     0.8694   0.8709   0.8732   0.8738   0.8849   0.8857   0.8873   0.8917
     0.8928   0.8958   0.9018   0.9069   0.9112   0.9150   0.9182   0.9280
     0.9308   0.9339   0.9395   0.9505   0.9540   0.9547   0.9570   0.9590
     0.9609   0.9613   0.9675   0.9679   0.9707   0.9732   0.9758   0.9782
     0.9836   0.9844   0.9933   1.0128   1.0150   1.0209   1.0223   1.0254
     1.0302   1.0439   1.0494   1.0516   1.0578   1.0639   1.0719   1.0745
     1.0839   1.0858   1.0874   1.0916   1.0952   1.1002   1.1092   1.1102
     1.1137   1.1201   1.1220   1.1248   1.1262   1.1272   1.1313   1.1332
     1.1349   1.1429   1.1487   1.1505   1.1514   1.1524   1.1546   1.1559
     1.1590   1.1609   1.1616   1.1643   1.1716   1.1749   1.1790   1.1800
     1.1837   1.1917   1.1978   1.2036   1.2131   1.2233   1.2274   1.2278
     1.2295   1.2374   1.2394   1.2411   1.2426   1.2443   1.2454   1.2474
     1.2495   1.2527   1.2547   1.2564   1.2615   1.2632   1.2714   1.2727
     1.2780   1.2804   1.2815   1.3002   1.3013   1.3118   1.3131   1.3164
     1.3175   1.3192   1.3279   1.3309   1.3313   1.3351   1.3450   1.3535
     1.3553   1.3680   1.3684   1.3921   1.3943   1.4200   1.4229   1.4349
     1.4480   1.4569   1.4590   1.4614   1.4728   1.4764   1.4775   1.4830
     1.4862   1.4964   1.5391   1.7634   1.7885   1.8577   1.8853   1.9031
     1.9084   2.0053   2.0174   2.0659   2.0673   2.0748   2.0765   2.0827
     2.0862   2.1154   2.1380   2.2377   2.2436   2.2589   2.2697   2.2705
     2.2759   2.2795   2.3483   2.5415   2.5444   2.5823   2.6210   2.7967
     3.1739   3.2287   3.5030   3.5483   3.5579   3.6059   3.6185   3.6632
     3.6724   3.6858   3.7154   3.7377   3.7517   3.8244   3.8770   3.8954
     3.8979   3.9098   3.9137   3.9207   3.9352   3.9472   3.9674   3.9892
     4.1243   4.7527   4.8122   4.9213   4.9674   5.0638   5.1135   5.2036
     5.2335   5.3270   5.3920   5.4609   5.5971   5.8341   5.8782   5.8814
     5.9025   6.1111   6.1266   6.1465   6.1533   6.2151   6.3377   6.4079
     6.4115   6.4481   6.4615   6.4806   6.5231   6.6612   6.6918   6.7153
     6.7296   6.7775   6.8042   6.8529   6.9822   7.0082   7.1245   7.1830
     7.1847   7.1994   7.4603   7.4942   7.5044   7.5364   7.5483   7.5621
     7.6298   7.6454   7.7053   7.7400   7.8533   7.8758   7.9324   7.9867
     8.0111   8.0657   8.0858   8.1049   8.1482   8.1718   8.1854   8.2132
     8.2346   8.2795   8.2888   8.2937   8.3365   8.3860   8.4453   8.4511
     8.4803   8.4914   8.5430   8.6334   8.6511   8.6935   8.7352   8.7587
     8.7923   8.8595   8.8903   8.9052   8.9667   9.0268   9.1200   9.1314
     9.1694   9.2157   9.3000   9.4005   9.4221   9.4559   9.4841   9.5633
     9.5749

          k = 0.0000-0.2165 0.0000 (256176 PWs)   bands (ev):

   -23.3373 -18.7853 -16.0369 -15.4607 -14.5492 -14.0834 -14.0745 -13.5564
   -13.5004 -13.3386 -12.6959 -12.6186 -11.9949 -11.5767 -11.4237 -10.6075
   -10.0834  -9.8486  -9.1451  -8.8268  -8.8016  -8.1277  -8.0473  -7.6380
    -7.2742  -7.1784  -6.8626  -6.7800  -6.3285  -6.1216  -5.9317  -5.8592
    -5.8356  -5.7301  -5.5072  -5.4166  -5.1155  -5.0508  -4.8847  -4.8539
    -4.7936  -4.7797  -4.4820  -4.4154  -4.2775  -3.9603  -3.9369  -3.8691
    -3.6631  -3.6472  -3.2633  -3.2621  -3.2536  -3.2512  -3.2374  -3.2243
    -2.9951  -2.9885  -2.9786  -2.9564  -2.9149  -2.9081  -2.8309  -2.7433
    -2.6099  -2.5583  -2.5564  -2.5515  -2.5432  -2.5427  -2.5167  -2.5132
    -2.5094  -2.5022  -2.4815  -2.3936  -2.3553  -2.2772  -2.2397  -2.1824
    -2.1694  -2.1658  -2.1586  -2.1505  -2.0390  -2.0279  -2.0107  -2.0015
    -2.0011  -1.9731  -1.9440  -1.9434  -1.8459  -1.8157  -1.7767  -1.7689
    -1.7677  -1.7478  -1.7416  -1.7415  -1.7387  -1.7294  -1.7248  -1.7213
    -1.7206  -1.6408  -1.6372  -1.6358  -1.6210  -1.5430  -1.5405  -1.5081
    -1.4706  -1.4603  -1.4504  -1.4435  -1.4334  -1.4298  -1.3742  -1.3439
    -1.3425  -1.3379  -1.3320  -1.3320  -1.3201  -1.3120  -1.3086  -1.3053
    -1.3013  -1.2986  -1.2941  -1.2868  -1.2827  -1.2653  -1.2591  -1.2470
    -1.2424  -1.2203  -1.1910  -1.1846  -1.1786  -1.1219  -1.1148  -1.1090
    -1.0999  -1.0908  -1.0833  -1.0755  -1.0701  -1.0643  -1.0590  -1.0136
    -1.0123  -1.0110  -1.0085  -1.0004  -0.9972  -0.9951  -0.9936  -0.9917
    -0.9889  -0.9792  -0.9736  -0.9564  -0.9491  -0.9484  -0.9420  -0.9410
    -0.9296  -0.9057  -0.9052  -0.9002  -0.8979  -0.8882  -0.8837  -0.8760
    -0.8650  -0.8462  -0.8410  -0.8361  -0.8240  -0.8118  -0.7996  -0.7107
    -0.6921  -0.6816  -0.6797  -0.6625  -0.6606  -0.6579  -0.6577  -0.6554
    -0.6554  -0.6472  -0.6461  -0.6390  -0.6381  -0.6303  -0.6268  -0.6198
    -0.6167  -0.6148  -0.6099  -0.6079  -0.6072  -0.6022  -0.6012  -0.5939
    -0.5888  -0.5764  -0.5683  -0.5650  -0.5556  -0.5443  -0.5418  -0.5389
    -0.5359  -0.5321  -0.5199  -0.5063  -0.5032  -0.4714  -0.4671  -0.4218
    -0.4210  -0.4079  -0.4076  -0.4054  -0.3947  -0.3925  -0.3900  -0.3895
    -0.3870  -0.3854  -0.3836  -0.3820  -0.3766  -0.3729  -0.3708  -0.3672
    -0.3632  -0.3612  -0.3596  -0.3526  -0.3492  -0.3327  -0.3252  -0.3242
    -0.3147  -0.3094  -0.3090  -0.3054  -0.2845  -0.2830  -0.2827  -0.2822
    -0.2769  -0.2691  -0.2481  -0.2443  -0.2429  -0.2388  -0.2365  -0.2344
    -0.2322  -0.2247  -0.2208  -0.2177  -0.2011  -0.1981  -0.1944  -0.1749
    -0.1688  -0.1677  -0.1658  -0.1650  -0.1580  -0.1339  -0.1332  -0.1324
    -0.1303  -0.1175  -0.1119  -0.1076  -0.1046  -0.0857  -0.0801  -0.0654
    -0.0492  -0.0474  -0.0430  -0.0417  -0.0385  -0.0362  -0.0344  -0.0328
    -0.0218  -0.0189  -0.0177  -0.0117  -0.0096  -0.0085  -0.0041  -0.0010
     0.0024   0.0081   0.0351   0.0379   0.0436   0.0459   0.0509   0.0814
     0.0887   0.0927   0.1057   0.1064   0.1122   0.1209   0.1232   0.1266
     0.1411   0.1457   0.1498   0.1516   0.2127   0.2153   0.2212   0.2239
     0.2405   0.2539   0.2591   0.2655   0.2690   0.2729   0.2747   0.2879
     0.2950   0.2956   0.3035   0.3046   0.3058   0.3112   0.3132   0.3161
     0.3224   0.3265   0.3301   0.3308   0.3314   0.3345   0.3381   0.3424
     0.3465   0.3536   0.3611   0.3662   0.3680   0.3686   0.3712   0.3742
     0.3793   0.3809   0.3905   0.3943   0.3968   0.3999   0.4026   0.4087
     0.4094   0.4146   0.4181   0.4207   0.4250   0.4327   0.4548   0.4565
     0.4588   0.4634   0.4676   0.4711   0.4732   0.4804   0.4808   0.4895
     0.4966   0.4975   0.5036   0.5191   0.5244   0.5265   0.5316   0.5338
     0.5400   0.5412   0.5445   0.5469   0.5535   0.5575   0.5603   0.5661
     0.5798   0.5847   0.5904   0.5947   0.5955   0.6061   0.6163   0.6202
     0.6242   0.6294   0.6379   0.6388   0.6423   0.6474   0.6510   0.6542
     0.6618   0.6652   0.6904   0.6954   0.6975   0.7269   0.7319   0.7472
     0.7543   0.7569   0.7608   0.7663   0.7691   0.7725   0.7732   0.7782
     0.7788   0.7809   0.7841   0.7866   0.7893   0.7933   0.7941   0.7982
     0.8015   0.8022   0.8043   0.8054   0.8110   0.8133   0.8191   0.8217
     0.8238   0.8268   0.8295   0.8310   0.8354   0.8375   0.8396   0.8414
     0.8419   0.8480   0.8566   0.8597   0.8654   0.8701   0.8747   0.8756
     0.8801   0.8854   0.8865   0.8887   0.8931   0.8944   0.8950   0.8999
     0.9084   0.9092   0.9112   0.9206   0.9393   0.9416   0.9645   0.9754
     0.9871   0.9894   0.9903   0.9952   1.0035   1.0143   1.0191   1.0202
     1.0205   1.0239   1.0270   1.0294   1.0317   1.0358   1.0400   1.0421
     1.0435   1.0478   1.0487   1.0501   1.0533   1.0541   1.0554   1.0592
     1.0611   1.0637   1.0671   1.0693   1.0731   1.0767   1.0788   1.0826
     1.0831   1.0910   1.0982   1.0998   1.1036   1.1068   1.1161   1.1167
     1.1233   1.1285   1.1324   1.1337   1.1362   1.1390   1.1490   1.1517
     1.1553   1.1608   1.1642   1.1673   1.1703   1.1737   1.1849   1.1878
     1.1903   1.1950   1.2011   1.2020   1.2072   1.2099   1.2109   1.2145
     1.2147   1.2190   1.2233   1.2250   1.2269   1.2289   1.2440   1.2502
     1.2590   1.2681   1.2698   1.2753   1.2789   1.2814   1.2828   1.2880
     1.2891   1.2964   1.2974   1.3029   1.3055   1.3078   1.3144   1.3247
     1.3255   1.3260   1.3276   1.3342   1.3387   1.3483   1.3548   1.3636
     1.3932   1.3985   1.4062   1.4101   1.4123   1.4141   1.4290   1.4365
     1.4502   1.4792   1.4907   1.5124   1.5320   1.5934   1.5993   1.6171
     1.6175   1.6225   1.6233   1.6536   1.6595   1.6621   1.6645   1.6695
     1.6714   1.6790   1.6935   2.1053   2.1541   2.1688   2.1889   2.2349
     2.2542   2.3586   2.3666   2.3963   2.4018   2.4298   2.4486   2.4605
     2.4678   2.4724   2.5007   2.5434   2.5459   2.5727   2.5752   2.8018
     2.8032   3.0060   3.0124   3.0127   3.0308   3.0336   3.0799   3.4626
     3.4870   3.6082   3.6946   3.7777   3.8151   3.8261   3.9355   3.9921
     4.0793   4.0830   4.0955   4.1162   4.1577   4.2120   4.2383   4.3989
     4.4664   4.9147   4.9550   5.0203   5.0845   5.1142   5.2065   5.2323
     5.2458   5.2532   5.3359   5.4222   5.5179   5.6928   5.7959   5.8745
     5.8913   5.9522   6.0435   6.0973   6.2175   6.2549   6.2802   6.3547
     6.3909   6.4866   6.5024   6.5575   6.6285   6.6557   6.7300   6.8088
     6.8776   6.8900   6.9074   6.9353   6.9450   6.9701   6.9897   7.0039
     7.0299   7.0826   7.0855   7.1115   7.1295   7.2103   7.2833   7.4763
     7.6133   7.6628   7.6784   7.7228   7.7523   7.7911   7.8524   7.8899
     8.0220   8.1047   8.1140   8.1810   8.1997   8.2273   8.2664   8.3552
     8.3838   8.3920   8.4120   8.4202   8.4814   8.5129   8.5242   8.5592
     8.5789   8.6141   8.6448   8.6710   8.7424   8.7769   8.7805   8.8656
     8.9410   8.9610   8.9831   9.0408   9.0754   9.1522   9.2092   9.2415
     9.2835   9.3060   9.3459   9.3775   9.3950   9.4077   9.5383   9.6358
     9.7070

          k = 0.2500 0.0000 0.0000 (256240 PWs)   bands (ev):

   -23.3373 -18.7855 -15.9130 -15.3379 -14.9282 -14.4305 -14.3620 -13.4846
   -13.2215 -13.0039 -12.4770 -12.3186 -11.8605 -11.6183 -11.0427 -10.6771
   -10.3791  -9.9189  -9.5870  -9.0782  -8.9934  -8.7210  -8.4416  -7.7367
    -7.4973  -7.0159  -6.5823  -6.3539  -6.1989  -5.9392  -5.8128  -5.7359
    -5.6064  -5.4722  -5.2700  -5.2584  -4.9825  -4.8198  -4.6043  -4.5475
    -4.4185  -4.3580  -4.3354  -4.3234  -4.1161  -4.0165  -3.9585  -3.9502
    -3.8831  -3.7989  -3.7920  -3.5782  -3.5455  -3.5258  -3.4920  -3.4617
    -3.2331  -3.1793  -3.1615  -3.1370  -3.0609  -3.0120  -2.9826  -2.9670
    -2.9585  -2.8347  -2.7875  -2.7635  -2.7610  -2.7455  -2.5535  -2.5254
    -2.4535  -2.3653  -2.3527  -2.3458  -2.2488  -2.1536  -2.0759  -2.0692
    -2.0551  -2.0466  -2.0109  -1.9835  -1.9663  -1.8822  -1.8693  -1.8591
    -1.8451  -1.8281  -1.8178  -1.8162  -1.7969  -1.7844  -1.7823  -1.7776
    -1.7751  -1.7653  -1.6825  -1.6786  -1.6723  -1.6537  -1.6329  -1.6269
    -1.6038  -1.6014  -1.6000  -1.5924  -1.5808  -1.5616  -1.5516  -1.5339
    -1.5026  -1.4952  -1.4410  -1.4135  -1.3848  -1.3834  -1.3728  -1.3434
    -1.3395  -1.3366  -1.3252  -1.3089  -1.2991  -1.2940  -1.2665  -1.2579
    -1.2479  -1.2423  -1.2375  -1.2275  -1.2138  -1.2102  -1.2050  -1.2021
    -1.1939  -1.1723  -1.1646  -1.1626  -1.1582  -1.1574  -1.1544  -1.1530
    -1.1504  -1.1054  -1.1007  -1.0936  -1.0921  -1.0849  -1.0804  -1.0749
    -1.0711  -1.0649  -1.0581  -1.0568  -1.0557  -1.0495  -1.0470  -1.0432
    -1.0385  -1.0355  -1.0302  -1.0258  -1.0166  -1.0080  -1.0063  -0.9949
    -0.9842  -0.9428  -0.9408  -0.9050  -0.9041  -0.8707  -0.8485  -0.8412
    -0.8389  -0.8372  -0.8319  -0.8206  -0.8190  -0.8152  -0.8110  -0.8085
    -0.8022  -0.7993  -0.7947  -0.7810  -0.7113  -0.7010  -0.6962  -0.6847
    -0.6762  -0.6675  -0.6537  -0.6460  -0.6416  -0.6336  -0.6291  -0.6255
    -0.6210  -0.6099  -0.6079  -0.6038  -0.5990  -0.5975  -0.5947  -0.5905
    -0.5876  -0.5793  -0.5726  -0.5613  -0.5364  -0.5338  -0.4926  -0.4889
    -0.4854  -0.4826  -0.4797  -0.4793  -0.4764  -0.4742  -0.4668  -0.4607
    -0.4411  -0.4408  -0.4375  -0.4337  -0.4296  -0.4282  -0.4081  -0.4053
    -0.3972  -0.3928  -0.3922  -0.3890  -0.3824  -0.3682  -0.3606  -0.3587
    -0.3561  -0.3373  -0.3352  -0.3277  -0.3264  -0.3174  -0.3112  -0.3099
    -0.3076  -0.2999  -0.2953  -0.2939  -0.2887  -0.2858  -0.2781  -0.2765
    -0.2741  -0.2723  -0.2543  -0.2429  -0.2387  -0.2305  -0.2210  -0.2021
    -0.1897  -0.1765  -0.1655  -0.1618  -0.1595  -0.1569  -0.1536  -0.1455
    -0.1445  -0.1361  -0.1342  -0.1322  -0.1296  -0.1261  -0.1207  -0.1187
    -0.1114  -0.1043  -0.0982  -0.0966  -0.0814  -0.0789  -0.0764  -0.0729
    -0.0695  -0.0638  -0.0624  -0.0581  -0.0523  -0.0463  -0.0373  -0.0346
    -0.0294  -0.0090   0.0040   0.0058   0.0091   0.0107   0.0174   0.0187
     0.0251   0.0279   0.0497   0.0630   0.0698   0.0743   0.0824   0.0927
     0.0977   0.1043   0.1268   0.1447   0.1462   0.1544   0.1607   0.1719
     0.1735   0.1783   0.1823   0.1859   0.1899   0.1980   0.2019   0.2066
     0.2113   0.2126   0.2146   0.2205   0.2347   0.2365   0.2395   0.2431
     0.2441   0.2463   0.2555   0.2579   0.2636   0.2675   0.2699   0.2781
     0.2887   0.2914   0.2972   0.3006   0.3113   0.3218   0.3252   0.3313
     0.3389   0.3400   0.3458   0.3491   0.3564   0.3682   0.3749   0.3803
     0.3821   0.3874   0.3898   0.3935   0.3981   0.4006   0.4046   0.4049
     0.4086   0.4094   0.4182   0.4218   0.4261   0.4332   0.4374   0.4410
     0.4453   0.4511   0.4562   0.4619   0.4674   0.4710   0.4768   0.4796
     0.4839   0.4878   0.4931   0.4964   0.5022   0.5042   0.5061   0.5135
     0.5199   0.5274   0.5298   0.5358   0.5412   0.5472   0.5791   0.5829
     0.5859   0.5882   0.5934   0.6013   0.6157   0.6195   0.6208   0.6224
     0.6272   0.6301   0.6327   0.6467   0.6503   0.6605   0.6679   0.6691
     0.6709   0.6839   0.6874   0.6967   0.7011   0.7125   0.7147   0.7188
     0.7257   0.7299   0.7323   0.7354   0.7380   0.7420   0.7448   0.7471
     0.7510   0.7549   0.7605   0.7666   0.7737   0.7836   0.7874   0.7919
     0.7989   0.8035   0.8063   0.8106   0.8172   0.8216   0.8312   0.8337
     0.8451   0.8481   0.8557   0.8593   0.8640   0.8684   0.8704   0.8723
     0.8744   0.8765   0.8804   0.8821   0.8839   0.8865   0.8888   0.8922
     0.8943   0.8984   0.9022   0.9038   0.9070   0.9105   0.9143   0.9167
     0.9179   0.9220   0.9242   0.9261   0.9323   0.9367   0.9392   0.9473
     0.9510   0.9535   0.9570   0.9606   0.9640   0.9666   0.9687   0.9705
     0.9744   0.9781   0.9834   0.9910   1.0027   1.0093   1.0172   1.0220
     1.0256   1.0329   1.0349   1.0378   1.0429   1.0454   1.0478   1.0507
     1.0625   1.0723   1.0762   1.0891   1.0926   1.0942   1.0957   1.0990
     1.1028   1.1053   1.1100   1.1175   1.1222   1.1279   1.1293   1.1316
     1.1362   1.1395   1.1421   1.1435   1.1459   1.1496   1.1516   1.1552
     1.1571   1.1605   1.1654   1.1714   1.1741   1.1801   1.1813   1.1833
     1.1866   1.1917   1.1943   1.1972   1.1994   1.2026   1.2163   1.2195
     1.2307   1.2392   1.2426   1.2466   1.2500   1.2565   1.2602   1.2657
     1.2666   1.2684   1.2701   1.2723   1.2736   1.2778   1.2792   1.2807
     1.2859   1.2876   1.2913   1.2969   1.2998   1.3043   1.3055   1.3099
     1.3131   1.3149   1.3165   1.3193   1.3260   1.3289   1.3359   1.3372
     1.3426   1.3475   1.3558   1.3603   1.3860   1.3906   1.3940   1.3956
     1.4183   1.4411   1.4426   1.4474   1.4505   1.4592   1.4722   1.4775
     1.5499   1.5615   1.5787   1.6106   1.6344   1.6370   1.6475   1.6691
     1.8621   1.8636   1.8739   1.8897   1.9062   1.9163   1.9648   1.9763
     2.0106   2.3640   2.3680   2.3730   2.3845   2.6917   2.7937   2.8237
     2.8656   2.8726   2.9660   3.0189   3.0425   3.0609   3.0947   3.1023
     3.1104   3.2362   3.2479   3.3154   3.4676   3.4865   3.4946   3.5219
     3.5393   3.5732   3.6126   3.6315   3.6855   3.7235   3.7287   3.7537
     3.8875   4.1929   4.2367   4.2614   4.5261   4.6568   4.7289   4.7489
     4.7771   5.0047   5.0210   5.0506   5.0709   5.0942   5.1170   5.1427
     5.1829   5.2155   5.2363   5.2827   5.2959   5.3318   5.3528   5.3993
     5.4759   5.5091   5.6174   5.8239   5.8416   5.9213   5.9410   5.9973
     6.2074   6.2878   6.4109   6.4672   6.5390   6.6561   6.6740   6.7613
     6.7912   6.8074   6.8244   6.8304   6.8408   6.8551   6.8871   6.9232
     6.9814   6.9946   7.0677   7.0959   7.1704   7.2305   7.2809   7.3358
     7.3483   7.3657   7.3908   7.6212   7.6505   7.6851   7.7352   7.7592
     7.8033   7.8685   7.8822   7.8980   7.9061   7.9227   7.9660   8.0202
     8.0897   8.1553   8.1830   8.2507   8.3121   8.3214   8.3376   8.4739
     8.5607   8.6000   8.6853   8.7536   8.7691   8.8361   8.8593   8.8750
     8.8963   8.9053   8.9249   8.9396   8.9744   9.0075   9.0416   9.0457
     9.0521   9.1016   9.1403   9.2316   9.3525   9.3812   9.3978   9.4418
     9.4530

          k = 0.2500-0.2165 0.0000 (256316 PWs)   bands (ev):

   -23.3373 -18.7855 -15.9130 -15.3379 -14.9282 -14.4305 -14.3619 -13.4846
   -13.2213 -13.0040 -12.4770 -12.3185 -11.8610 -11.6183 -11.0429 -10.6769
   -10.3783  -9.9189  -9.5866  -9.0797  -8.9934  -8.7210  -8.4422  -7.7359
    -7.4962  -7.0159  -6.5823  -6.3539  -6.1990  -5.9397  -5.7731  -5.6587
    -5.6422  -5.6058  -5.4712  -4.9832  -4.7174  -4.6893  -4.6308  -4.6183
    -4.5986  -4.5429  -4.3390  -4.3022  -4.2963  -4.1445  -4.0163  -3.8899
    -3.7933  -3.7279  -3.5574  -3.5129  -3.4921  -3.4646  -3.4543  -3.4301
    -3.4126  -3.3984  -3.1578  -3.0937  -3.0838  -3.0533  -2.9827  -2.9623
    -2.8732  -2.8679  -2.8319  -2.7759  -2.7518  -2.6255  -2.5218  -2.4486
    -2.3192  -2.2860  -2.2774  -2.2755  -2.2486  -2.2247  -2.1872  -2.1430
    -2.1422  -2.1051  -2.0811  -2.0328  -2.0318  -1.9529  -1.9179  -1.8998
    -1.8671  -1.8584  -1.8009  -1.7904  -1.7851  -1.7588  -1.7567  -1.7533
    -1.7388  -1.7306  -1.7271  -1.7168  -1.7117  -1.6974  -1.6920  -1.6611
    -1.6548  -1.5790  -1.5776  -1.5507  -1.5144  -1.5092  -1.5028  -1.4714
    -1.4157  -1.4044  -1.3904  -1.3881  -1.3682  -1.3521  -1.3421  -1.3204
    -1.3149  -1.3110  -1.3040  -1.3002  -1.2940  -1.2928  -1.2811  -1.2734
    -1.2722  -1.2700  -1.2642  -1.2587  -1.2550  -1.2455  -1.2406  -1.2347
    -1.2109  -1.2084  -1.1977  -1.1828  -1.1758  -1.1718  -1.1607  -1.1445
    -1.1437  -1.1355  -1.1305  -1.1095  -1.1049  -1.1029  -1.0843  -1.0810
    -1.0785  -1.0693  -1.0652  -1.0506  -1.0419  -1.0389  -1.0343  -1.0335
    -1.0309  -1.0244  -1.0165  -1.0142  -1.0057  -1.0020  -0.9986  -0.9926
    -0.9743  -0.8975  -0.8972  -0.8955  -0.8941  -0.8817  -0.8745  -0.8724
    -0.8638  -0.8526  -0.8245  -0.8170  -0.8034  -0.8008  -0.7976  -0.7921
    -0.7870  -0.7828  -0.7790  -0.7411  -0.7348  -0.7247  -0.7197  -0.6972
    -0.6924  -0.6812  -0.6772  -0.6626  -0.6516  -0.6482  -0.6349  -0.6301
    -0.6211  -0.6147  -0.6138  -0.5863  -0.5823  -0.5805  -0.5703  -0.5612
    -0.5544  -0.5530  -0.5290  -0.5220  -0.5213  -0.5160  -0.5112  -0.5099
    -0.5067  -0.4968  -0.4814  -0.4784  -0.4749  -0.4729  -0.4695  -0.4670
    -0.4635  -0.4593  -0.4460  -0.4435  -0.4368  -0.4352  -0.4305  -0.4286
    -0.4120  -0.4020  -0.3987  -0.3944  -0.3925  -0.3918  -0.3879  -0.3818
    -0.3640  -0.3610  -0.3541  -0.3392  -0.3356  -0.3329  -0.3307  -0.3297
    -0.3252  -0.3071  -0.2950  -0.2910  -0.2853  -0.2648  -0.2498  -0.2490
    -0.2371  -0.2360  -0.2343  -0.2294  -0.2284  -0.2169  -0.2112  -0.2037
    -0.1942  -0.1860  -0.1847  -0.1783  -0.1592  -0.1563  -0.1451  -0.1430
    -0.1363  -0.1280  -0.1170  -0.1135  -0.1116  -0.1104  -0.1034  -0.0996
    -0.0986  -0.0942  -0.0892  -0.0797  -0.0717  -0.0650  -0.0585  -0.0551
    -0.0537  -0.0505  -0.0456  -0.0421  -0.0399  -0.0371  -0.0323  -0.0290
    -0.0282  -0.0254  -0.0158  -0.0078   0.0021   0.0095   0.0127   0.0180
     0.0304   0.0450   0.0464   0.0580   0.0658   0.0719   0.0732   0.0782
     0.0837   0.0885   0.0906   0.1007   0.1221   0.1307   0.1493   0.1603
     0.1685   0.1722   0.1798   0.1829   0.1843   0.1878   0.1923   0.1965
     0.1998   0.2061   0.2085   0.2114   0.2309   0.2358   0.2449   0.2504
     0.2514   0.2548   0.2575   0.2586   0.2673   0.2827   0.2851   0.2869
     0.2912   0.2945   0.3010   0.3035   0.3147   0.3174   0.3240   0.3317
     0.3399   0.3473   0.3544   0.3580   0.3608   0.3626   0.3693   0.3760
     0.3791   0.3846   0.3876   0.3890   0.3957   0.3998   0.4030   0.4072
     0.4143   0.4480   0.4530   0.4562   0.4588   0.4608   0.4636   0.4656
     0.4705   0.4718   0.4742   0.4765   0.4782   0.4872   0.4913   0.4921
     0.5072   0.5134   0.5192   0.5228   0.5271   0.5295   0.5334   0.5370
     0.5384   0.5439   0.5507   0.5554   0.5602   0.5628   0.5647   0.5661
     0.5704   0.5726   0.5758   0.5800   0.5829   0.5864   0.5906   0.5968
     0.6022   0.6032   0.6109   0.6134   0.6188   0.6240   0.6264   0.6588
     0.6661   0.6718   0.6745   0.6752   0.6841   0.6874   0.6883   0.6992
     0.7015   0.7027   0.7095   0.7114   0.7133   0.7156   0.7189   0.7303
     0.7337   0.7368   0.7478   0.7527   0.7613   0.7639   0.7667   0.7690
     0.7773   0.7849   0.7898   0.7925   0.7939   0.8006   0.8034   0.8070
     0.8162   0.8198   0.8240   0.8261   0.8303   0.8508   0.8558   0.8574
     0.8670   0.8700   0.8712   0.8970   0.9040   0.9097   0.9149   0.9165
     0.9268   0.9285   0.9297   0.9343   0.9358   0.9394   0.9403   0.9424
     0.9446   0.9465   0.9478   0.9492   0.9524   0.9585   0.9602   0.9619
     0.9690   0.9719   0.9762   0.9904   0.9912   0.9933   1.0004   1.0023
     1.0042   1.0122   1.0160   1.0186   1.0196   1.0218   1.0254   1.0344
     1.0377   1.0401   1.0409   1.0438   1.0483   1.0496   1.0540   1.0554
     1.0581   1.0614   1.0651   1.0681   1.0706   1.0748   1.0784   1.0830
     1.0860   1.0922   1.0955   1.0999   1.1041   1.1065   1.1152   1.1190
     1.1283   1.1381   1.1414   1.1442   1.1460   1.1467   1.1491   1.1543
     1.1604   1.1636   1.1674   1.1681   1.1715   1.1761   1.1826   1.1965
     1.1985   1.2041   1.2054   1.2092   1.2115   1.2125   1.2168   1.2173
     1.2194   1.2196   1.2259   1.2431   1.2451   1.2509   1.2529   1.2558
     1.2580   1.2610   1.2631   1.2665   1.2704   1.2727   1.2748   1.2757
     1.2879   1.2895   1.2921   1.2937   1.2946   1.2958   1.3011   1.3072
     1.3105   1.3144   1.3248   1.3339   1.3348   1.3409   1.3438   1.3463
     1.3493   1.3524   1.3577   1.3646   1.3696   1.3719   1.3788   1.3879
     1.3992   1.4254   1.4472   1.4658   1.4798   1.4981   1.5374   1.5497
     1.5552   1.5769   1.5830   1.5884   1.5924   1.5957   1.5983   1.6122
     1.6276   1.6778   1.9878   1.9892   2.0012   2.0034   2.0694   2.0979
     2.4552   2.4627   2.4985   2.5239   2.5529   2.5682   2.6055   2.6254
     2.6905   2.6967   2.7190   2.7432   2.8093   2.8311   2.8686   2.9115
     3.2535   3.2916   3.3131   3.3296   3.3436   3.3777   3.6382   3.6608
     3.6678   3.6925   3.8126   3.8155   4.0170   4.0396   4.0533   4.0558
     4.1682   4.2085   4.2742   4.2786   4.3651   4.4883   4.5064   4.5149
     4.5511   4.5867   4.6357   4.6881   4.8386   4.9143   5.0261   5.0886
     5.0958   5.1721   5.2193   5.2554   5.2926   5.4454   5.5003   5.5604
     5.6729   5.6862   5.8075   5.9330   6.0078   6.0398   6.1328   6.2305
     6.3266   6.3883   6.4001   6.4263   6.4707   6.4936   6.5265   6.6275
     6.6707   6.7201   6.7666   6.8322   6.8585   6.9549   6.9845   7.0160
     7.0293   7.0773   7.1245   7.1839   7.2294   7.2643   7.2795   7.2864
     7.2955   7.4086   7.4543   7.4796   7.5340   7.6511   7.6577   7.7479
     7.8235   7.8473   7.9905   8.0547   8.0790   8.0896   8.1326   8.1428
     8.2216   8.2640   8.3073   8.3160   8.3716   8.3828   8.3965   8.4162
     8.4887   8.5078   8.5649   8.5860   8.6104   8.6660   8.6866   8.7112
     8.7929   8.8125   8.8218   8.8369   8.9611   8.9754   8.9947   9.0112
     9.0235   9.0502   9.0674   9.1119   9.1322   9.1708   9.1915   9.2189
     9.2828

          k =-0.5000 0.0000 0.0000 (256496 PWs)   bands (ev):

   -23.3373 -18.7858 -15.5467 -15.5378 -14.9755 -14.9656 -14.0938 -14.0443
   -12.9588 -12.7978 -11.7555 -11.7391 -11.6777 -11.3880 -11.2823 -11.2653
   -10.6246 -10.1824  -9.8743  -9.0939  -8.9771  -8.7997  -8.7511  -7.9474
    -7.8716  -7.4212  -7.0104  -5.9295  -5.7554  -5.2662  -5.2569  -5.2351
    -5.1582  -5.1249  -4.7782  -4.7632  -4.7605  -4.7571  -4.7471  -4.7108
    -4.5950  -4.4945  -4.3332  -4.3104  -4.2706  -4.1371  -4.0152  -3.8975
    -3.8845  -3.8736  -3.8636  -3.8345  -3.6800  -3.6680  -3.4943  -3.4243
    -3.3822  -3.3781  -3.3750  -3.3733  -3.3618  -3.2220  -3.1535  -3.1159
    -3.0658  -2.8754  -2.7941  -2.7713  -2.7208  -2.7091  -2.7012  -2.6905
    -2.4931  -2.4548  -2.4446  -2.4127  -2.4069  -2.2644  -2.1790  -2.1565
    -2.0279  -1.9411  -1.8768  -1.8715  -1.8671  -1.8643  -1.8618  -1.8561
    -1.8529  -1.8514  -1.8243  -1.8086  -1.6872  -1.6798  -1.6786  -1.6768
    -1.6243  -1.6188  -1.5977  -1.5942  -1.5899  -1.5860  -1.5412  -1.5369
    -1.5176  -1.4771  -1.4753  -1.4696  -1.4680  -1.4634  -1.4616  -1.4534
    -1.4446  -1.4219  -1.4193  -1.4101  -1.4090  -1.3668  -1.3631  -1.3615
    -1.3588  -1.3557  -1.3524  -1.3481  -1.3454  -1.3025  -1.3010  -1.2999
    -1.2966  -1.2931  -1.2818  -1.2730  -1.2573  -1.2488  -1.2461  -1.2451
    -1.2297  -1.2263  -1.2170  -1.2140  -1.2115  -1.2098  -1.2079  -1.2061
    -1.1703  -1.1686  -1.1640  -1.1612  -1.0940  -1.0884  -1.0872  -1.0862
    -1.0837  -1.0821  -1.0601  -1.0515  -1.0359  -1.0353  -1.0179  -1.0072
    -1.0052  -1.0004  -0.9990  -0.9967  -0.9961  -0.9947  -0.9915  -0.9883
    -0.9856  -0.9730  -0.9648  -0.9543  -0.9506  -0.9333  -0.9272  -0.9217
    -0.9194  -0.8996  -0.8866  -0.8782  -0.8463  -0.8181  -0.7708  -0.7653
    -0.7617  -0.7547  -0.7487  -0.7478  -0.7366  -0.7359  -0.7327  -0.7280
    -0.7245  -0.7238  -0.7209  -0.7143  -0.7087  -0.7021  -0.6969  -0.6942
    -0.6896  -0.6878  -0.6791  -0.6585  -0.6573  -0.6435  -0.6198  -0.5691
    -0.5633  -0.5442  -0.5406  -0.5378  -0.5320  -0.5284  -0.5248  -0.5215
    -0.5181  -0.5141  -0.5117  -0.5064  -0.5017  -0.4892  -0.4863  -0.4810
    -0.4737  -0.4416  -0.4372  -0.4341  -0.4287  -0.4263  -0.4188  -0.3949
    -0.3869  -0.3732  -0.3724  -0.3670  -0.3664  -0.3637  -0.3622  -0.3381
    -0.3345  -0.3215  -0.3192  -0.3170  -0.3155  -0.2870  -0.2842  -0.2834
    -0.2806  -0.2707  -0.2697  -0.2644  -0.2626  -0.2487  -0.2466  -0.2444
    -0.2402  -0.1993  -0.1924  -0.1866  -0.1855  -0.1808  -0.1782  -0.1752
    -0.1737  -0.1720  -0.1710  -0.1683  -0.1633  -0.1448  -0.1400  -0.1318
    -0.1284  -0.1162  -0.1142  -0.0897  -0.0808  -0.0682  -0.0656  -0.0622
    -0.0607  -0.0564  -0.0529  -0.0515  -0.0469  -0.0420  -0.0365  -0.0342
    -0.0329  -0.0315  -0.0254  -0.0226  -0.0214  -0.0030  -0.0021   0.0002
     0.0008   0.0016   0.0039   0.0069   0.0115   0.0123   0.0158   0.0191
     0.0198   0.0205   0.0239   0.0302   0.0323   0.0346   0.0355   0.1024
     0.1077   0.1099   0.1127   0.1199   0.1319   0.1350   0.1407   0.1443
     0.1470   0.2174   0.2210   0.2233   0.2284   0.2330   0.2359   0.2409
     0.2457   0.2494   0.2508   0.2566   0.2600   0.2636   0.2655   0.2667
     0.2691   0.2791   0.2839   0.2880   0.2920   0.2973   0.2998   0.3010
     0.3023   0.3047   0.3085   0.3228   0.3272   0.3432   0.3452   0.3488
     0.3571   0.3621   0.3700   0.3778   0.3839   0.3870   0.3908   0.3931
     0.3959   0.3985   0.4009   0.4027   0.4048   0.4067   0.4090   0.4126
     0.4147   0.4172   0.4235   0.4253   0.4271   0.4329   0.4379   0.4519
     0.4567   0.4586   0.4610   0.4633   0.4684   0.4734   0.4763   0.4779
     0.4826   0.4864   0.4898   0.4961   0.4983   0.4989   0.5034   0.5145
     0.5172   0.5190   0.5211   0.5224   0.5266   0.5272   0.5311   0.5356
     0.5448   0.5451   0.5500   0.5595   0.5659   0.5795   0.5883   0.5942
     0.5955   0.5968   0.6009   0.6035   0.6065   0.6132   0.6161   0.6230
     0.6259   0.6411   0.6455   0.6662   0.6676   0.6695   0.6713   0.6755
     0.6786   0.6810   0.6878   0.7013   0.7034   0.7107   0.7132   0.7182
     0.7212   0.7268   0.7319   0.7387   0.7425   0.7435   0.7454   0.7479
     0.7488   0.7563   0.7663   0.7713   0.7719   0.7734   0.7739   0.7820
     0.7844   0.7896   0.8048   0.8091   0.8108   0.8391   0.8429   0.8674
     0.8678   0.8771   0.8774   0.8827   0.8873   0.8997   0.9042   0.9062
     0.9135   0.9179   0.9230   0.9261   0.9298   0.9340   0.9379   0.9491
     0.9531   0.9542   0.9559   0.9574   0.9619   0.9629   0.9635   0.9727
     0.9740   0.9765   0.9784   0.9801   0.9851   0.9911   0.9929   0.9941
     1.0006   1.0062   1.0108   1.0128   1.0161   1.0194   1.0217   1.0267
     1.0274   1.0409   1.0477   1.0576   1.0581   1.0602   1.0621   1.0704
     1.0724   1.0742   1.0790   1.0823   1.0832   1.0835   1.0850   1.0866
     1.0906   1.0947   1.0977   1.1071   1.1104   1.1189   1.1213   1.1327
     1.1354   1.1388   1.1411   1.1454   1.1468   1.1486   1.1518   1.1553
     1.1599   1.1645   1.1650   1.1686   1.1701   1.1789   1.1821   1.1835
     1.1838   1.1852   1.1860   1.1875   1.1892   1.1897   1.1933   1.1979
     1.1983   1.2006   1.2028   1.2068   1.2121   1.2236   1.2295   1.2318
     1.2385   1.2457   1.2492   1.2535   1.2554   1.2574   1.2593   1.2736
     1.2789   1.2818   1.2831   1.2843   1.2875   1.2895   1.2916   1.2980
     1.3017   1.3046   1.3068   1.3102   1.3119   1.3181   1.3204   1.3229
     1.3237   1.3408   1.3421   1.3423   1.3457   1.3475   1.3496   1.3522
     1.3533   1.3626   1.3769   1.3867   1.3911   1.3934   1.3948   1.3994
     1.4236   1.4245   1.4325   1.4386   1.8089   1.8101   1.8175   1.8296
     1.9897   1.9968   2.1145   2.1188   2.1654   2.1671   2.1687   2.1708
     2.3030   2.3139   2.3343   2.3559   2.6274   2.6536   2.6563   2.6642
     2.6964   2.7578   3.0848   3.0932   3.1002   3.1031   3.2841   3.2966
     3.4048   3.4269   3.4621   3.4889   3.7028   3.7089   3.7182   3.7264
     3.7963   3.8279   3.8915   3.9031   3.9259   3.9306   4.2538   4.2942
     4.3960   4.4249   4.7068   4.7105   4.7261   4.7330   4.7966   4.8171
     4.8292   4.8442   4.8542   4.8756   4.8982   4.9143   4.9551   4.9656
     5.0155   5.0335   5.0616   5.1130   5.1676   5.2004   5.2524   5.2612
     5.2737   5.2907   5.5832   5.5965   5.6489   5.6939   5.7008   5.7028
     5.7934   5.8129   5.8476   5.8569   5.8698   5.8956   6.0202   6.0678
     6.3230   6.5456   6.7222   6.7608   6.8057   6.8296   6.8882   6.9082
     7.0463   7.2841   7.3247   7.3582   7.3905   7.4452   7.4495   7.4578
     7.4602   7.5331   7.5530   7.5628   7.5912   7.6033   7.6400   7.6708
     7.6985   7.7132   7.7338   7.7570   7.7739   7.8083   7.8316   7.8388
     7.8735   7.9466   8.0537   8.1368   8.1668   8.1887   8.2166   8.4525
     8.4694   8.4980   8.5373   8.5709   8.5816   8.6050   8.6191   8.6380
     8.6428   8.6633   8.6972   8.7721   8.7982   8.8825   8.9696   8.9894
     9.0766   9.0944   9.1134   9.1230   9.1355   9.1645   9.1877   9.2127
     9.2384

          k =-0.5000-0.2165 0.0000 (256328 PWs)   bands (ev):

   -23.3373 -18.7858 -15.5467 -15.5378 -14.9755 -14.9656 -14.0939 -14.0443
   -12.9585 -12.7978 -11.7557 -11.7391 -11.6784 -11.3880 -11.2822 -11.2653
   -10.6237 -10.1824  -9.8736  -9.0938  -8.9771  -8.8008  -8.7525  -7.9473
    -7.8714  -7.4196  -7.0101  -5.9288  -5.7561  -5.2351  -5.1691  -5.1413
    -5.1353  -5.1270  -5.1267  -5.1180  -4.7782  -4.7125  -4.5961  -4.4977
    -4.2761  -4.2266  -4.2219  -4.2083  -4.1873  -4.1573  -4.1496  -4.1465
    -4.1360  -4.1325  -4.0142  -3.8404  -3.7025  -3.6998  -3.4968  -3.4268
    -3.3954  -3.3724  -3.3647  -3.3227  -3.3163  -3.2170  -3.1230  -3.0820
    -3.0576  -2.8728  -2.6889  -2.6738  -2.6633  -2.6559  -2.5480  -2.5462
    -2.5433  -2.5404  -2.4831  -2.3061  -2.2768  -2.2307  -2.1369  -2.1339
    -2.1276  -2.1187  -2.1173  -2.1014  -2.0586  -2.0096  -1.9864  -1.9323
    -1.7990  -1.7940  -1.7882  -1.7852  -1.6565  -1.6517  -1.6421  -1.6381
    -1.6191  -1.5950  -1.5585  -1.5517  -1.5196  -1.5012  -1.4927  -1.4894
    -1.4853  -1.4850  -1.4806  -1.4754  -1.4719  -1.4079  -1.4052  -1.4010
    -1.3994  -1.3908  -1.3875  -1.3859  -1.3844  -1.3823  -1.3780  -1.3749
    -1.3720  -1.3701  -1.3615  -1.3611  -1.3578  -1.3499  -1.3437  -1.3363
    -1.3311  -1.2912  -1.2513  -1.2496  -1.2379  -1.2362  -1.2254  -1.2246
    -1.2237  -1.2220  -1.2200  -1.2176  -1.2137  -1.2112  -1.1964  -1.1944
    -1.1932  -1.1911  -1.1790  -1.1742  -1.1706  -1.1594  -1.1198  -1.1102
    -1.1037  -1.1005  -1.0854  -1.0829  -1.0744  -1.0704  -1.0635  -1.0610
    -1.0582  -1.0557  -1.0250  -0.9839  -0.9809  -0.9755  -0.9674  -0.9554
    -0.9401  -0.8817  -0.8802  -0.8784  -0.8739  -0.8682  -0.8657  -0.8601
    -0.8568  -0.8539  -0.8490  -0.8457  -0.8403  -0.8379  -0.8359  -0.8331
    -0.8149  -0.7858  -0.7751  -0.7729  -0.7703  -0.7677  -0.7645  -0.7587
    -0.7455  -0.7378  -0.7324  -0.7308  -0.7259  -0.7189  -0.6844  -0.6707
    -0.6666  -0.6594  -0.6499  -0.6409  -0.6355  -0.6304  -0.6100  -0.6017
    -0.5966  -0.5933  -0.5812  -0.5541  -0.5532  -0.5493  -0.5474  -0.5410
    -0.5374  -0.5301  -0.5284  -0.4839  -0.4813  -0.4782  -0.4767  -0.4722
    -0.4708  -0.4675  -0.4630  -0.4225  -0.4127  -0.4085  -0.3987  -0.3474
    -0.3451  -0.3404  -0.3400  -0.3384  -0.3369  -0.3342  -0.3320  -0.3314
    -0.3245  -0.3223  -0.3191  -0.2782  -0.2776  -0.2723  -0.2707  -0.2705
    -0.2673  -0.2644  -0.2597  -0.2582  -0.2557  -0.2531  -0.2516  -0.2486
    -0.2472  -0.2460  -0.2419  -0.2318  -0.2301  -0.2290  -0.2246  -0.1697
    -0.1662  -0.1626  -0.1603  -0.1328  -0.1301  -0.1277  -0.1270  -0.1066
    -0.1015  -0.0992  -0.0964  -0.0931  -0.0900  -0.0810  -0.0795  -0.0755
    -0.0737  -0.0694  -0.0678  -0.0591  -0.0564  -0.0531  -0.0520  -0.0512
    -0.0465  -0.0439  -0.0351  -0.0338  -0.0258  -0.0223  -0.0177  -0.0153
    -0.0128  -0.0096  -0.0050   0.0086   0.0096   0.0113   0.0125   0.0290
     0.0319   0.0331   0.0352   0.0359   0.0425   0.0486   0.0563   0.1086
     0.1100   0.1122   0.1168   0.1188   0.1216   0.1341   0.1391   0.1729
     0.1757   0.1811   0.1826   0.2209   0.2269   0.2325   0.2372   0.2402
     0.2434   0.2510   0.2520   0.2546   0.2608   0.2670   0.2690   0.2737
     0.2767   0.2782   0.2817   0.2905   0.2932   0.2971   0.3001   0.3093
     0.3103   0.3116   0.3127   0.3150   0.3187   0.3211   0.3263   0.3287
     0.3370   0.3427   0.3475   0.3486   0.3536   0.3544   0.3602   0.3790
     0.3842   0.3858   0.3876   0.4052   0.4100   0.4155   0.4201   0.4250
     0.4308   0.4331   0.4359   0.4381   0.4407   0.4435   0.4457   0.4474
     0.4505   0.4550   0.4563   0.4578   0.4594   0.4602   0.4640   0.4689
     0.4706   0.4731   0.4785   0.4828   0.4836   0.4897   0.4957   0.4995
     0.5053   0.5182   0.5276   0.5281   0.5325   0.5358   0.5381   0.5493
     0.5559   0.5638   0.5727   0.5737   0.5751   0.5763   0.5793   0.5817
     0.5842   0.5890   0.5909   0.5920   0.5984   0.6084   0.6105   0.6136
     0.6197   0.6241   0.6310   0.6516   0.6535   0.6606   0.6616   0.6690
     0.6718   0.6785   0.6799   0.7056   0.7114   0.7147   0.7157   0.7280
     0.7293   0.7331   0.7360   0.7438   0.7473   0.7986   0.8022   0.8031
     0.8057   0.8127   0.8148   0.8182   0.8212   0.8235   0.8243   0.8291
     0.8389   0.8499   0.8568   0.8595   0.8635   0.8671   0.8703   0.8721
     0.8756   0.8782   0.8803   0.8829   0.8832   0.8858   0.8873   0.8910
     0.8925   0.8990   0.9029   0.9038   0.9127   0.9150   0.9175   0.9188
     0.9244   0.9291   0.9336   0.9352   0.9374   0.9426   0.9437   0.9485
     0.9522   0.9550   0.9569   0.9626   0.9647   0.9704   0.9722   0.9770
     0.9774   0.9801   0.9808   0.9884   0.9953   1.0288   1.0312   1.0374
     1.0405   1.0421   1.0438   1.0453   1.0455   1.0472   1.0502   1.0580
     1.0605   1.0618   1.0661   1.0697   1.0764   1.0851   1.0890   1.0926
     1.1040   1.1133   1.1139   1.1198   1.1208   1.1227   1.1245   1.1254
     1.1265   1.1316   1.1320   1.1368   1.1383   1.1636   1.1682   1.1740
     1.1795   1.1825   1.1832   1.1863   1.1882   1.1906   1.1947   1.1972
     1.1984   1.1999   1.2011   1.2045   1.2053   1.2101   1.2109   1.2163
     1.2170   1.2174   1.2189   1.2209   1.2237   1.2276   1.2311   1.2326
     1.2338   1.2367   1.2382   1.2396   1.2423   1.2466   1.2539   1.2615
     1.2643   1.2836   1.2853   1.2861   1.2882   1.2933   1.2951   1.2994
     1.3032   1.3220   1.3231   1.3269   1.3294   1.3329   1.3426   1.3452
     1.3490   1.3535   1.3571   1.3592   1.3664   1.3733   1.3926   1.3941
     1.3953   1.3977   1.4129   1.4196   1.4207   1.4244   1.4273   1.4284
     1.4432   1.4522   1.4714   1.4721   1.4728   1.4754   1.6585   1.6627
     1.6643   1.6679   2.0377   2.0462   2.0920   2.0985   2.4143   2.4180
     2.4608   2.4649   2.5560   2.5632   2.5699   2.5815   2.6582   2.7122
     2.7791   2.7892   2.8280   2.9046   3.3583   3.3625   3.3637   3.3660
     3.4396   3.4493   3.4802   3.4886   3.8353   3.8370   3.8428   3.8443
     3.8551   3.9035   3.9868   3.9984   4.0486   4.0564   4.0682   4.0690
     4.2535   4.2715   4.2830   4.2852   4.5045   4.5249   4.5338   4.5484
     4.8350   4.8594   4.8924   4.8994   4.9152   4.9502   4.9575   4.9620
     4.9739   4.9772   4.9960   5.0129   5.0425   5.0900   5.1667   5.2371
     5.3244   5.4005   5.4509   5.4772   5.5911   5.6082   5.6257   5.6340
     5.6600   5.6967   6.1960   6.5722   6.5826   6.6516   6.6761   6.7156
     6.7568   6.7737   6.7996   6.8313   6.8383   6.8446   6.8684   6.8815
     6.8875   6.9052   6.9390   7.0340   7.1214   7.1461   7.1486   7.1497
     7.1581   7.1854   7.2212   7.2417   7.3138   7.5554   7.6403   7.6603
     7.7110   7.7502   7.7718   7.8011   7.9473   8.0031   8.0062   8.0697
     8.0841   8.1201   8.2125   8.3268   8.3357   8.3392   8.4121   8.4835
     8.4925   8.5010   8.5228   8.6215   8.6535   8.6574   8.6722   8.6741
     8.7034   8.8248   8.8502   8.8618   8.8859   8.8880   8.8992   8.9357
     8.9450   9.0009   9.0215   9.0818   9.1605   9.1659   9.1728   9.1839
     9.2246

     the Fermi energy is     3.1540 ev

!    total energy              =  -12572.53005792 Ry
     Harris-Foulkes estimate   =  -12572.53005792 Ry
     estimated scf accuracy    <          8.0E-09 Ry

     The total energy is the sum of the following terms:

     one-electron contribution = -103514.74854354 Ry
     hartree contribution      =   53098.18908566 Ry
     xc contribution           =   -4404.14786669 Ry
     ewald contribution        =   42251.54525791 Ry
     smearing contrib. (-TS)   =      -3.36799125 Ry

     convergence has been achieved in  41 iterations

     negative rho (up, down):  1.963E-03 0.000E+00

     Forces acting on atoms (Ry/au):

     atom    1 type  1   force =    -0.00002402    0.00007003   -0.00234718
     atom    2 type  1   force =    -0.00014188    0.00057192   -0.00178902
     atom    3 type  1   force =    -0.00024006    0.00020691   -0.00258143
     atom    4 type  1   force =    -0.00016893    0.00031578   -0.00175678
     atom    5 type  1   force =    -0.00026658    0.00011903   -0.00073094
     atom    6 type  1   force =    -0.00014922   -0.00069610   -0.00040756
     atom    7 type  1   force =    -0.00005630   -0.00002057   -0.00122557
     atom    8 type  1   force =    -0.00014540   -0.00060522   -0.00073446
     atom    9 type  1   force =    -0.00003362   -0.00081544   -0.00107194
     atom   10 type  1   force =    -0.00015770   -0.00041080   -0.00203005
     atom   11 type  1   force =    -0.00022736   -0.00101286   -0.00084118
     atom   12 type  1   force =    -0.00005167   -0.00051478   -0.00182803
     atom   13 type  1   force =    -0.00005345    0.00008767   -0.00220050
     atom   14 type  1   force =    -0.00006547    0.00009309   -0.00212313
     atom   15 type  1   force =    -0.00012059    0.00002345   -0.00208792
     atom   16 type  1   force =    -0.00012848    0.00012852   -0.00202459
     atom   17 type  1   force =    -0.00017875   -0.00026592   -0.00223147
     atom   18 type  1   force =    -0.00021416   -0.00037735   -0.00274314
     atom   19 type  1   force =    -0.00003597    0.00000624   -0.00237139
     atom   20 type  1   force =    -0.00001977   -0.00007223   -0.00241738
[...]
     8.5260   8.5345   8.5438   8.6362   8.6548   8.6628   8.6657   8.6721
     8.6949   8.7951   8.8158   8.8443   8.8495   8.8678   8.8909   8.9234
     8.9641   9.0043   9.0969   9.1166   9.1389   9.1809   9.1821   9.1894
     9.2090

     the Fermi energy is     3.1317 ev

!    total energy              =  -12572.78128082 Ry
     Harris-Foulkes estimate   =  -12572.78128084 Ry
     estimated scf accuracy    <          5.0E-09 Ry

     The total energy is the sum of the following terms:

     one-electron contribution = -103607.47941324 Ry
     hartree contribution      =   53143.33962687 Ry
     xc contribution           =   -4403.83753144 Ry
     ewald contribution        =   42298.55745593 Ry
     smearing contrib. (-TS)   =      -3.36141893 Ry

     convergence has been achieved in  13 iterations

     negative rho (up, down):  2.000E-03 0.000E+00

     Forces acting on atoms (Ry/au):

     atom    1 type  1   force =     0.00007142    0.00073981   -0.00040053
     atom    2 type  1   force =    -0.00000042    0.00031483   -0.00089304
     atom    3 type  1   force =    -0.00003453    0.00081313   -0.00065105
     atom    4 type  1   force =     0.00005921    0.00056958   -0.00095982
     atom    5 type  1   force =     0.00007012    0.00045233   -0.00100486
     atom    6 type  1   force =    -0.00003164    0.00048575   -0.00084225
     atom    7 type  1   force =     0.00000048    0.00039667   -0.00107983
     atom    8 type  1   force =     0.00006526    0.00032478   -0.00104878
     atom    9 type  1   force =    -0.00001148   -0.00004638   -0.00089823
     atom   10 type  1   force =    -0.00013023   -0.00058168   -0.00076083
     atom   11 type  1   force =    -0.00000775    0.00011686   -0.00090192
     atom   12 type  1   force =     0.00005039   -0.00040187   -0.00082857
     atom   13 type  1   force =    -0.00002228   -0.00056380   -0.00065255
     atom   14 type  1   force =     0.00000263   -0.00072456   -0.00096177
     atom   15 type  1   force =    -0.00008212   -0.00084794   -0.00112061
     atom   16 type  1   force =    -0.00010469   -0.00065638   -0.00097845
     atom   17 type  1   force =    -0.00006336   -0.00008475   -0.00032752
     atom   18 type  1   force =    -0.00006772    0.00086603   -0.00039496
     atom   19 type  1   force =    -0.00000646   -0.00013369   -0.00075335
     atom   20 type  1   force =     0.00005427    0.00062553   -0.00025250
     atom   21 type  1   force =    -0.00000208   -0.00015943   -0.00073026
     atom   22 type  1   force =    -0.00007955   -0.00043870   -0.00022588
     atom   23 type  1   force =    -0.00016998   -0.00017359   -0.00082426
     atom   24 type  1   force =    -0.00007261   -0.00016065   -0.00078651
     atom   25 type  1   force =    -0.00000101    0.00036451   -0.00062316
     atom   26 type  1   force =    -0.00004996   -0.00007433   -0.00080329
     atom   27 type  1   force =    -0.00009258    0.00021174   -0.00089832
     atom   28 type  1   force =    -0.00010945    0.00004888   -0.00066439
     atom   29 type  1   force =     0.00004236    0.00049115   -0.00063905
     atom   30 type  1   force =    -0.00001846    0.00082304   -0.00039492
     atom   31 type  1   force =    -0.00006532    0.00085094   -0.00058597
     atom   32 type  1   force =    -0.00003807    0.00071396   -0.00068862
     atom   33 type  1   force =    -0.00000577   -0.00028047   -0.00099828
     atom   34 type  1   force =     0.00001687    0.00019250   -0.00091375
     atom   35 type  1   force =    -0.00003277   -0.00005381   -0.00085449
     atom   36 type  1   force =    -0.00004438    0.00002785   -0.00089162
     atom   37 type  1   force =    -0.00003722   -0.00043199   -0.00037955
     atom   38 type  1   force =     0.00019267   -0.00032516   -0.00052708
     atom   39 type  1   force =    -0.00007875   -0.00057622   -0.00058535
     atom   40 type  1   force =    -0.00025247   -0.00023693   -0.00049584
     atom   41 type  1   force =     0.00003894   -0.00027771   -0.00042308
     atom   42 type  1   force =     0.00017217    0.00017188   -0.00042275
     atom   43 type  1   force =    -0.00021081   -0.00021686   -0.00010840
     atom   44 type  1   force =    -0.00033970   -0.00037064   -0.00029140
     atom   45 type  1   force =    -0.00013527    0.00000483   -0.00015302
     atom   46 type  1   force =    -0.00030885   -0.00000819   -0.00078808
     atom   47 type  1   force =    -0.00012989   -0.00017693    0.00007088
     atom   48 type  1   force =     0.00011420    0.00004056   -0.00044218
     atom   49 type  1   force =     0.00015182    0.00070361   -0.00041600
     atom   50 type  1   force =     0.00030285    0.00043986    0.00002333
     atom   51 type  1   force =    -0.00016559    0.00017583   -0.00083643
     atom   52 type  1   force =    -0.00015791    0.00004161   -0.00020400
     atom   53 type  1   force =    -0.00016323    0.00004968   -0.00025900
     atom   54 type  1   force =     0.00015715   -0.00017455    0.00015808
     atom   55 type  1   force =     0.00025672    0.00036234   -0.00020916
     atom   56 type  1   force =    -0.00012436   -0.00041359    0.00004480
     atom   57 type  1   force =    -0.00026415   -0.00073063   -0.00036521
     atom   58 type  1   force =     0.00007848   -0.00026598    0.00027056
     atom   59 type  1   force =     0.00028525    0.00005259    0.00091799
     atom   60 type  1   force =    -0.00015318    0.00018573   -0.00036021
     atom   61 type  1   force =    -0.00015551   -0.00074192   -0.00087778
     atom   62 type  1   force =    -0.00052146    0.00039736    0.00055970
     atom   63 type  1   force =    -0.00003868   -0.00134309    0.00117745
     atom   64 type  1   force =     0.00061476    0.00011295    0.00022006
     atom   65 type  1   force =    -0.00028613    0.00031056   -0.00072021
     atom   66 type  1   force =     0.00057079   -0.00056600   -0.00057595
     atom   67 type  1   force =     0.00014416    0.00022734   -0.00093915
     atom   68 type  1   force =    -0.00078881   -0.00095706   -0.00027541
     atom   69 type  1   force =     0.00064084    0.00025987    0.00065452
     atom   70 type  1   force =    -0.00035060   -0.00034615   -0.00087668
     atom   71 type  1   force =    -0.00054157   -0.00009227    0.00035396
     atom   72 type  1   force =     0.00052335   -0.00008527   -0.00076247
     atom   73 type  1   force =    -0.00046805    0.00019849    0.00147072
     atom   74 type  1   force =     0.00043408    0.00080622    0.00047605
     atom   75 type  1   force =     0.00057866    0.00021843    0.00104618
     atom   76 type  1   force =    -0.00039103   -0.00075489   -0.00003101
     atom   77 type  1   force =     0.00043805   -0.00003588   -0.00034852
     atom   78 type  1   force =     0.00006439   -0.00103689    0.00034295
     atom   79 type  1   force =    -0.00032979    0.00096569    0.00133723
     atom   80 type  1   force =    -0.00010224    0.00069053   -0.00111990
     atom   81 type  1   force =    -0.00024090   -0.00026782   -0.00027085
     atom   82 type  1   force =    -0.00012080   -0.00039047    0.00143431
     atom   83 type  1   force =     0.00011012   -0.00134390    0.00316667
     atom   84 type  1   force =    -0.00019462   -0.00100294    0.00139469
     atom   85 type  1   force =    -0.00036196   -0.00068696   -0.00162588
     atom   86 type  1   force =     0.00009804   -0.00037853   -0.00016979
     atom   87 type  1   force =     0.00003633   -0.00020439   -0.00046797
     atom   88 type  1   force =    -0.00012036    0.00000432   -0.00010332
     atom   89 type  1   force =     0.00016672   -0.00015957    0.00080623
     atom   90 type  1   force =     0.00006738   -0.00054015    0.00013423
     atom   91 type  1   force =     0.00016387    0.00029095   -0.00068408
     atom   92 type  1   force =    -0.00010581   -0.00035213   -0.00130611
     atom   93 type  1   force =    -0.00024146   -0.00037416    0.00155474
     atom   94 type  1   force =     0.00035186    0.00044138    0.00004675
     atom   95 type  1   force =     0.00062810    0.00016980    0.00217113
     atom   96 type  1   force =     0.00063992    0.00022430    0.00023480
     atom   97 type  1   force =    -0.00023999    0.00020118    0.00164342
     atom   98 type  1   force =    -0.00066504   -0.00064842    0.00095116
     atom   99 type  1   force =     0.00018523    0.00003687    0.00093558
     atom  100 type  1   force =     0.00024222    0.00003838   -0.00009816
     atom  101 type  3   force =    -0.00029562   -0.00112454    0.00090083
     atom  102 type  3   force =    -0.00153743    0.00083246   -0.00107559
     atom  103 type  3   force =    -0.00132439    0.00061931    0.00205256
     atom  104 type  3   force =     0.00048117    0.00128149    0.00036426
     atom  105 type  3   force =    -0.00003029   -0.00050112   -0.00051645
     atom  106 type  3   force =    -0.00020701    0.00141700   -0.00075690
     atom  107 type  3   force =    -0.00048036    0.00034420   -0.00030035
     atom  108 type  3   force =    -0.00267478    0.00075067    0.00072716
     atom  109 type  3   force =     0.00024550   -0.00013441    0.00057633
     atom  110 type  3   force =     0.00023304    0.00150070    0.00070705
     atom  111 type  3   force =    -0.00069721    0.00189064    0.00279451
     atom  112 type  3   force =    -0.00021032    0.00276185   -0.00012688
     atom  113 type  3   force =    -0.00262432    0.00054234    0.00109793
     atom  114 type  3   force =     0.00269413    0.00174695    0.00283264
     atom  115 type  3   force =     0.00287286    0.00200703    0.00270331
     atom  116 type  3   force =    -0.00108271    0.00040684    0.00006177
     atom  117 type  3   force =    -0.00138807   -0.00011424    0.00137816
     atom  118 type  3   force =    -0.00069775   -0.00038123   -0.00218732
     atom  119 type  3   force =    -0.00012463    0.00239633    0.00196433
     atom  120 type  3   force =     0.00340179   -0.00124120   -0.00142832
     atom  121 type  3   force =    -0.00017936   -0.00053174    0.00180697
     atom  122 type  3   force =     0.00005767    0.00253791    0.00206897
     atom  123 type  3   force =     0.00148515   -0.00026971   -0.00034217
     atom  124 type  3   force =    -0.00105469   -0.00167465    0.00215845
     atom  125 type  3   force =     0.00171200    0.00325939   -0.00088938
     atom  126 type  3   force =     0.00119424   -0.00207880   -0.00209161
     atom  127 type  3   force =     0.00196132   -0.00187338   -0.00074020
     atom  128 type  3   force =    -0.00256247   -0.00146933    0.00008038
     atom  129 type  3   force =     0.00434509    0.00048854    0.00269197
     atom  130 type  3   force =    -0.00203757    0.00182335    0.00084552
     atom  131 type  5   force =     0.00055076   -0.00153149    0.00114637
     atom  132 type  5   force =     0.00036726   -0.00177171    0.00144616
     atom  133 type  5   force =     0.00044154   -0.00321344    0.00031387
     atom  134 type  5   force =    -0.00034251   -0.00019868    0.00004480
     atom  135 type  5   force =     0.00031231    0.00024263    0.00305447
     atom  136 type  3   force =    -0.00284648    0.00041357   -0.00428740
     atom  137 type  4   force =     0.00498544   -0.00251706    0.00223773
     atom  138 type  4   force =     0.00020557   -0.00340784    0.00138293
     atom  139 type  5   force =    -0.00390015    0.00141470   -0.00054085

     Total force =     0.021414     Total SCF correction =     0.000304

     number of scf cycles    =  27
     number of bfgs steps    =  26

     energy   old            =  -12572.7802654738 Ry
     energy   new            =  -12572.7812808184 Ry

     CASE: energy  _new < energy  _old

     new trust radius        =       0.0355144222 bohr
     new conv_thr            =       0.0000000100 Ry


ATOMIC_POSITIONS (angstrom)
Cu      -0.008925079  -0.019119126   7.164754394
Cu       1.835333409   1.685655873   7.165529391
Cu       3.678242090  -0.018653610   7.166801616
Cu       5.523093744   1.682069010   7.165741970
Cu      -0.011334226   3.390396239   7.163205841
Cu       1.833784200   5.101795882   7.161070875
Cu       3.680648976   3.392407731   7.164755643
Cu       5.524429694   5.104587250   7.162168088
Cu      -0.008919352   6.820506882   7.164458119
Cu       1.836124214   8.533710290   7.169156364
Cu       3.678013540   6.817514664   7.163875341
Cu       5.522000954   8.532096390   7.170747076
Cu      -0.010616838  10.238665015   7.173918787
Cu       1.833108739  11.939478041   7.175314545
Cu       3.679685756  10.241025443   7.176259734
Cu       5.525078211  11.939621560   7.175681216
Cu      -0.010669902  13.634252931   7.168919310
Cu       1.835163696  15.323435270   7.166109251
Cu       3.679813025  13.632229145   7.172950592
Cu       5.523094719  15.325326194   7.167005770
Cu      -0.009437760   1.691286514   9.019641848
Cu       1.834191528  -0.011386113   9.027823742
Cu       3.679701026   1.691287464   9.020535521
Cu       5.524542297  -0.010438646   9.027992407
Cu      -0.009751166   5.105187648   9.009659264
Cu       1.834780421   3.397646379   9.014133413
Cu       3.679269917   5.107624584   9.009587299
Cu       5.524517568   3.397828978   9.013714414
Cu      -0.010352970   8.524661898   9.021394219
Cu       1.833384627   6.815527542   9.012738393
Cu       3.677886966   8.523263814   9.021943008
Cu       5.524094551   6.815133771   9.011896140
Cu      -0.010787577  11.936896364   9.034958171
Cu       1.833028872  10.230867397   9.028863704
Cu       3.678033433  11.934428886   9.033994642
Cu       5.523068094  10.231746850   9.030637904
Cu      -0.009587601  15.331065699   9.034077823
Cu       1.832378036  13.635859495   9.033719341
Cu       3.678287438  15.331252886   9.033371445
Cu       5.524330488  13.635397535   9.036148931
Cu      -0.010111023  -0.002285954  10.924544539
Cu       1.833115627   1.701668799  10.914748327
Cu       3.677973918  -0.003375656  10.920659660
Cu       5.525272506   1.701844696  10.915639768
Cu      -0.009749328   3.404785489  10.906133142
Cu       1.834037055   5.110195266  10.900247199
Cu       3.679383133   3.408535986  10.900842395
Cu       5.523457839   5.113036427  10.901654026
Cu      -0.011261043   6.813033716  10.904998330
Cu       1.830724291   8.524664570  10.917584763
Cu       3.677564291   6.813337424  10.904304372
Cu       5.522892164   8.520426337  10.910788865
Cu      -0.009579706  10.229843915  10.923247170
Cu       1.829342963  11.931421529  10.927964142
Cu       3.673422886  10.229468843  10.923483492
Cu       5.522869168  11.931645558  10.928894452
Cu      -0.008819073  13.631354407  10.939807219
Cu       1.832292546  15.325647782  10.938264383
Cu       3.672908056  13.627199677  10.928355157
Cu       5.522550179  15.331615286  10.929101663
Cu      -0.011722428   1.704698554  12.811673816
Cu       1.836669250   0.002526365  12.808919631
Cu       3.679080661   1.719205418  12.794372043
Cu       5.517114301  -0.000178781  12.813964808
Cu      -0.011613954   5.115216813  12.792759410
Cu       1.829059589   3.419856227  12.791307916
Cu       3.677560784   5.109346051  12.793548301
Cu       5.527635825   3.422299563  12.789379590
Cu      -0.014562558   8.515117525  12.797310625
Cu       1.833463150   6.808908197  12.790600569
Cu       3.676323672   8.511208241  12.789451204
Cu       5.518877554   6.814154074  12.802065160
Cu      -0.005154284  11.925264822  12.840771655
Cu       1.826532142  10.244369593  12.838207701
Cu       3.661403472  11.933617520  12.825187801
Cu       5.523774604  10.223766713  12.804918933
Cu      -0.010954588  15.342990565  12.821536642
Cu       1.826045457  13.599337012  12.864031129
Cu       3.672804846  15.326656846  12.812450415
Cu       5.521005973  13.627170705  12.815456273
Cu      -0.016418080   0.004406738  14.677805324
Cu       1.832292202   1.723503980  14.625220759
Cu       3.679680030   0.017349557  14.655635288
Cu       5.523111731   1.733850392  14.625725040
Cu      -0.006900884   3.426071659  14.650486533
Cu       1.834067953   5.116165006  14.645659303
Cu       3.673425743   3.419350769  14.646240317
Cu       5.518889556   5.110644469  14.647400526
Cu      -0.012761362   6.805751324  14.635330958
Cu       1.832820185   8.502582552  14.631180665
Cu       3.673916081   6.804855832  14.642804239
Cu       5.514075028   8.501229509  14.670679314
Cu      -0.041954182  10.195166247  14.648729560
Cu       1.822348493  11.907074380  14.848596886
Cu       3.699225061  10.203475844  14.607703000
Cu       5.511865958  11.935042428  14.665593642
Cu      -0.026291870  13.651588012  14.666543568
Cu       1.838741499  15.341227616  14.659578163
Cu       3.676662625  13.634466449  14.674729643
Cu       5.509421981  15.332227600  14.661915106
C        0.031618400   0.650980232  17.859888122
C        0.029193031   2.087136946  17.987293623
C        1.260678281  -0.032316023  17.782105589
C        1.260805811   2.792688283  18.023386993
C        2.490864530   0.647441294  17.850803336
C        2.489823981   2.082182331  17.973908285
C        3.722263966  -0.030080969  17.752606340
C        3.717579591   2.794300588  18.007708264
C        4.952442163   0.650656631  17.842276494
C        4.949733832   2.086611667  17.967471179
C        6.181388977  -0.031623914  17.775223356
C        6.177732400   2.798513448  18.024276276
C        0.031842129   4.935383918  18.065955119
C        0.032417661   6.364123826  18.019077791
C        1.260419428   4.223127424  18.067585031
C        1.255403504   7.096067765  17.989365431
C        2.485651037   4.946517929  18.070999711
C        2.483014528   6.381899337  18.041631697
C        3.712964175   4.225027984  18.058371648
C        3.709960143   7.100144601  18.013219089
C        4.939875561   4.939084294  18.055661314
C        4.935286804   6.367937758  18.027242338
C        6.174955307   4.228835818  18.063914730
C        6.173054487   7.053599417  17.984973842
C        0.001327148   9.182048711  17.820508812
C        1.243785962   8.538495628  17.875787702
C        2.481134049   9.271534062  17.824368797
C        3.718287465   8.542736755  17.912134751
C        4.961026990   9.173194337  17.769622451
C        6.171810129   8.472457088  17.861193135
H        1.258972764  -1.116683692  17.661026880
H        3.720781243  -1.114104660  17.640996522
H        6.182865294  -1.117257123  17.663600898
H       -0.043421689  10.264108921  17.759819417
H        5.013978207  10.243842249  17.622430336
C        2.460747308  10.721275318  17.622456063
O        1.608550025  11.365583403  16.923044012
O        3.443953284  11.448565663  18.235445400
H        3.391312066  12.361344943  17.865337497



     Writing output data file gc.save
     Check: negative starting charge=   -0.001958
     NEW-OLD atomic charge density approx. for the potential
     Check: negative starting charge=   -0.001950

     negative rho (up, down):  1.968E-03 0.000E+00

     total cpu time spent up to now is   171228.8 secs

     Self-consistent Calculation

     iteration #  1     ecut=    80.00 Ry     beta=0.70
     Davidson diagonalization with overlap
     ethr =  1.00E-06,  avg # of iterations =  5.3

     negative rho (up, down):  2.195E-03 0.000E+00

     total cpu time spent up to now is   172339.4 secs

     total energy              =  -12572.78189806 Ry
     Harris-Foulkes estimate   =  -12572.78264610 Ry
     estimated scf accuracy    <       0.00723585 Ry

     iteration #  2     ecut=    80.00 Ry     beta=0.70
     Davidson diagonalization with overlap
     ethr =  5.83E-07,  avg # of iterations =  2.0

     negative rho (up, down):  2.334E-03 0.000E+00

     total cpu time spent up to now is   172686.2 secs

     total energy              =  -12572.78193739 Ry
     Harris-Foulkes estimate   =  -12572.78230202 Ry
     estimated scf accuracy    <       0.00149931 Ry

     iteration #  3     ecut=    80.00 Ry     beta=0.70
     Davidson diagonalization with overlap
