mpirun: INFO: switching to OpenMPI runtime version 1.10.2

     Program PWSCF v.5.4.0 starts on  4Oct2017 at 12:45:51 

     This program is part of the open-source Quantum ESPRESSO suite
     for quantum simulation of materials; please cite
         "P. Giannozzi et al., J. Phys.:Condens. Matter 21 395502 (2009);
          URL http://www.quantum-espresso.org", 
     in publications or presentations arising from this work. More details at
     http://www.quantum-espresso.org/quote

     Parallel version (MPI & OpenMP), running on      28 processor cores
     Number of MPI processes:                28
     Threads/MPI process:                     1
     R & G space division:  proc/nbgrp/npool/nimage =      28
     Waiting for input...
     Reading input from standard input

     Current dimensions of program PWSCF are:
     Max number of different atomic species (ntypx) = 10
     Max number of k-points (npk) =  40000
     Max angular momentum in pseudopotentials (lmaxx) =  3
     WARNING: atomic wfc #  2 for atom type 4 has zero norm
     WARNING: atomic wfc #  4 for atom type 4 has zero norm
     WARNING: atomic wfc #  5 for atom type 4 has zero norm

     Subspace diagonalization in iterative solution of the eigenvalue problem:
     one sub-group per band group will be used
     scalapack distributed-memory algorithm (size of sub-group:  3*  3 procs)

 
     Parallelization info
     --------------------
     sticks:   dense  smooth     PW     G-vecs:    dense   smooth      PW
     Min         408     408    108                73226    73226    9928
     Max         410     410    109                73231    73231    9931
     Sum       11433   11433   3039              2050409  2050409  278033
 


     bravais-lattice index     =            0
     lattice parameter (alat)  =      13.9425  a.u.
     unit-cell volume          =   21209.0878 (a.u.)^3
     number of atoms/cell      =          139
     number of atomic types    =            5
     number of electrons       =      1242.00
     number of Kohn-Sham states=          745
     kinetic-energy cutoff     =      80.0000  Ry
     charge density cutoff     =     320.0000  Ry
     convergence threshold     =      1.0E-08
     mixing beta               =       0.7000
     number of iterations used =            8  local-TF  mixing
     Exchange-correlation      =  SLA  PW   PBE  PBE ( 1  4  3  4 0 0)
     nstep                     =           50


     celldm(1)=  13.942539  celldm(2)=   0.000000  celldm(3)=   0.000000
     celldm(4)=   0.000000  celldm(5)=   0.000000  celldm(6)=   0.000000

     crystal axes: (cart. coord. in units of alat)
               a(1) = (   1.000000   0.000000   0.000000 )  
               a(2) = (   0.000000   2.309401   0.000000 )  
               a(3) = (   0.000000   0.000000   3.388418 )  

     reciprocal axes: (cart. coord. in units 2 pi/alat)
               b(1) = (  1.000000  0.000000  0.000000 )  
               b(2) = (  0.000000  0.433013  0.000000 )  
               b(3) = (  0.000000  0.000000  0.295123 )  


     PseudoPot. # 1 for Cu read from file:
     /home/549/hxw549/Short/pseudopotentials/Cu.pbe-n-van_ak.UPF
     MD5 check sum: 601f7c30f7467666bec936e0661ce3e1
     Pseudo is Ultrasoft + core correction, Zval = 11.0
     Generated by new atomic code, or converted to UPF format
     Using radial grid of  867 points,  6 beta functions with: 
                l(1) =   0
                l(2) =   0
                l(3) =   1
                l(4) =   1
                l(5) =   2
                l(6) =   2
     Q(r) pseudized with  8 coefficients,  rinner =    1.400   1.400   1.400
                                                       1.400   1.400

     PseudoPot. # 2 for C  read from file:
     /home/549/hxw549/Short/pseudopotentials/C.star1s-pbe-mt_gipaw.UPF
     MD5 check sum: ef0cb3dee31bd9e4ba2a832a2c716264
     Pseudo is Norm-conserving, Zval =  5.0
     Generated by new atomic code, or converted to UPF format
     Using radial grid of 1073 points,  1 beta functions with: 
                l(1) =   0

     PseudoPot. # 3 for C  read from file:
     /home/549/hxw549/Short/pseudopotentials/C.pbe-mt_gipaw.UPF
     MD5 check sum: 5ac2f21f2c440b14befe521540822c15
     Pseudo is Norm-conserving, Zval =  4.0
     Generated by new atomic code, or converted to UPF format
     Using radial grid of 1073 points,  1 beta functions with: 
                l(1) =   0

     PseudoPot. # 4 for O  read from file:
     /home/549/hxw549/Short/pseudopotentials/O.pbe-van_gipaw.UPF
     MD5 check sum: 5ce2a047509d4f331db576c963e74b29
     Pseudo is Ultrasoft, Zval =  6.0
     Generated by new atomic code, or converted to UPF format
     Using radial grid of 1095 points,  4 beta functions with: 
                l(1) =   0
                l(2) =   0
                l(3) =   1
                l(4) =   1
     Q(r) pseudized with 0 coefficients 


     PseudoPot. # 5 for H  read from file:
     /home/549/hxw549/Short/pseudopotentials/H.pbe-van_ak.UPF
     MD5 check sum: 077eb6d537518a38cb46c6de387227b7
     Pseudo is Ultrasoft, Zval =  1.0
     Generated by new atomic code, or converted to UPF format
     Using radial grid of  615 points,  1 beta functions with: 
                l(1) =   0
     Q(r) pseudized with  8 coefficients,  rinner =    0.800

     atomic species   valence    mass     pseudopotential
        Cu            11.00    63.54600     Cu( 1.00)
        C_h            5.00    12.01070     C ( 1.00)
        C              4.00    12.01070     C ( 1.00)
        O              6.00    15.99940     O ( 1.00)
        H              1.00     1.00783     H ( 1.00)

     No symmetry found



   Cartesian axes

     site n.     atom                  positions (alat units)
         1           Cu  tau(   1) = (  -0.0000065  -0.0001196   1.0023460  )
         2           Cu  tau(   2) = (   0.2499725   0.2311376   1.0038913  )
         3           Cu  tau(   3) = (   0.5000229  -0.0000136   1.0022982  )
         4           Cu  tau(   4) = (   0.7500464   0.2313516   1.0038146  )
         5           Cu  tau(   5) = (   0.0000399   0.4621067   1.0055384  )
         6           Cu  tau(   6) = (   0.2499646   0.6926278   1.0058235  )
         7           Cu  tau(   7) = (   0.4999785   0.4620693   1.0053340  )
         8           Cu  tau(   8) = (   0.7500521   0.6924567   1.0056314  )
         9           Cu  tau(   9) = (   0.0000111   0.9235890   1.0043434  )
        10           Cu  tau(  10) = (   0.2501384   1.1549459   1.0028218  )
        11           Cu  tau(  11) = (   0.5000039   0.9233850   1.0045625  )
        12           Cu  tau(  12) = (   0.7498795   1.1550560   1.0029760  )
        13           Cu  tau(  13) = (  -0.0000214   1.3863543   1.0022984  )
        14           Cu  tau(  14) = (   0.2499792   1.6173801   1.0023905  )
        15           Cu  tau(  15) = (   0.5000265   1.3866519   1.0025352  )
        16           Cu  tau(  16) = (   0.7500365   1.6174007   1.0023793  )
        17           Cu  tau(  17) = (  -0.0000255   1.8478211   1.0020763  )
        18           Cu  tau(  18) = (   0.2500373   2.0783293   1.0017222  )
        19           Cu  tau(  19) = (   0.5000300   1.8476453   1.0020999  )
        20           Cu  tau(  20) = (   0.7499735   2.0781843   1.0019313  )
        21           Cu  tau(  21) = (   0.0000262   0.2295048   1.2519926  )
        22           Cu  tau(  22) = (   0.2500005  -0.0013165   1.2510337  )
        23           Cu  tau(  23) = (   0.4999946   0.2295936   1.2519438  )
        24           Cu  tau(  24) = (   0.7500123  -0.0009693   1.2506048  )
        25           Cu  tau(  25) = (  -0.0000007   0.6934410   1.2538513  )
        26           Cu  tau(  26) = (   0.2500236   0.4609299   1.2537101  )
        27           Cu  tau(  27) = (   0.5000165   0.6929479   1.2538420  )
        28           Cu  tau(  28) = (   0.7499963   0.4611051   1.2539468  )
        29           Cu  tau(  29) = (   0.0000535   1.1563069   1.2511428  )
        30           Cu  tau(  30) = (   0.2499966   0.9255005   1.2525555  )
        31           Cu  tau(  31) = (   0.4999489   1.1563555   1.2512797  )
        32           Cu  tau(  32) = (   0.7500091   0.9251371   1.2520609  )
        33           Cu  tau(  33) = (  -0.0000783   1.6174386   1.2509610  )
        34           Cu  tau(  34) = (   0.2500537   1.3866709   1.2505959  )
        35           Cu  tau(  35) = (   0.5000564   1.6176761   1.2515506  )
        36           Cu  tau(  36) = (   0.7499277   1.3868711   1.2508593  )
        37           Cu  tau(  37) = (   0.0000375   2.0780997   1.2509521  )
        38           Cu  tau(  38) = (   0.2499901   1.8482143   1.2511508  )
        39           Cu  tau(  39) = (   0.4999565   2.0781593   1.2507266  )
        40           Cu  tau(  40) = (   0.7499636   1.8479622   1.2516428  )
        41           Cu  tau(  41) = (   0.0001720  -0.0015486   1.5014058  )
        42           Cu  tau(  42) = (   0.2502640   0.2277374   1.5020134  )
        43           Cu  tau(  43) = (   0.4998217  -0.0017493   1.5014558  )
        44           Cu  tau(  44) = (   0.7497499   0.2275958   1.5020315  )
        45           Cu  tau(  45) = (  -0.0001055   0.4599474   1.5012331  )
        46           Cu  tau(  46) = (   0.2501130   0.6942132   1.5008120  )
        47           Cu  tau(  47) = (   0.5001214   0.4594481   1.5022074  )
        48           Cu  tau(  48) = (   0.7498864   0.6950021   1.5015642  )
        49           Cu  tau(  49) = (  -0.0000364   0.9271944   1.5017780  )
        50           Cu  tau(  50) = (   0.2497729   1.1581744   1.5024656  )
        51           Cu  tau(  51) = (   0.4999791   0.9266358   1.5010946  )
        52           Cu  tau(  52) = (   0.7500691   1.1571315   1.5010852  )
        53           Cu  tau(  53) = (   0.0001546   1.3873420   1.5014948  )
        54           Cu  tau(  54) = (   0.2498821   1.6172223   1.5004191  )
        55           Cu  tau(  55) = (   0.4997580   1.3871722   1.5018615  )
        56           Cu  tau(  56) = (   0.7498150   1.6168862   1.5015310  )
        57           Cu  tau(  57) = (   0.0001694   1.8477437   1.5017232  )
        58           Cu  tau(  58) = (   0.2500011   2.0778355   1.5028769  )
        59           Cu  tau(  59) = (   0.4995459   1.8490453   1.5022485  )
        60           Cu  tau(  60) = (   0.7499243   2.0790472   1.5014087  )
        61           Cu  tau(  61) = (  -0.0000468   0.2279097   1.7510684  )
        62           Cu  tau(  62) = (   0.2505211  -0.0022498   1.7548985  )
        63           Cu  tau(  63) = (   0.5000203   0.2249949   1.7545262  )
        64           Cu  tau(  64) = (   0.7493783  -0.0024476   1.7546955  )
        65           Cu  tau(  65) = (  -0.0003808   0.6935218   1.7464730  )
        66           Cu  tau(  66) = (   0.2509041   0.4614953   1.7464756  )
        67           Cu  tau(  67) = (   0.5003066   0.6946011   1.7477685  )
        68           Cu  tau(  68) = (   0.7490789   0.4614215   1.7466330  )
        69           Cu  tau(  69) = (  -0.0007450   1.1582702   1.7532430  )
        70           Cu  tau(  70) = (   0.2497467   0.9261728   1.7498623  )
        71           Cu  tau(  71) = (   0.4997759   1.1567367   1.7513938  )
        72           Cu  tau(  72) = (   0.7499002   0.9286919   1.7527499  )
        73           Cu  tau(  73) = (   0.0002071   1.6175768   1.7531664  )
        74           Cu  tau(  74) = (   0.2490766   1.3909784   1.7552323  )
        75           Cu  tau(  75) = (   0.4982982   1.6187728   1.7515081  )
        76           Cu  tau(  76) = (   0.7503697   1.3868573   1.7523627  )
        77           Cu  tau(  77) = (   0.0002655   2.0785899   1.7517363  )
        78           Cu  tau(  78) = (   0.2496786   1.8445864   1.7538988  )
        79           Cu  tau(  79) = (   0.4993472   2.0805169   1.7551616  )
        80           Cu  tau(  80) = (   0.7492480   1.8481804   1.7487940  )
        81           Cu  tau(  81) = (   0.0000738  -0.0008635   2.0024556  )
        82           Cu  tau(  82) = (   0.2496120   0.2348701   1.9922868  )
        83           Cu  tau(  83) = (   0.4995251  -0.0034943   2.0185160  )
        84           Cu  tau(  84) = (   0.7502833   0.2345737   1.9923325  )
        85           Cu  tau(  85) = (  -0.0001765   0.4639654   1.9915041  )
        86           Cu  tau(  86) = (   0.2505920   0.6919375   1.9922299  )
        87           Cu  tau(  87) = (   0.5000556   0.4631223   1.9932967  )
        88           Cu  tau(  88) = (   0.7491037   0.6923932   1.9923898  )
        89           Cu  tau(  89) = (   0.0000871   0.9210588   1.9926953  )
        90           Cu  tau(  90) = (   0.2480923   1.1564238   1.9960064  )
        91           Cu  tau(  91) = (   0.4989310   0.9237693   1.9951871  )
        92           Cu  tau(  92) = (   0.7488731   1.1578905   2.0081324  )
        93           Cu  tau(  93) = (  -0.0031562   1.3879076   2.0009397  )
        94           Cu  tau(  94) = (   0.2474369   1.6207657   2.0183921  )
        95           Cu  tau(  95) = (   0.5011009   1.3880980   1.9928418  )
        96           Cu  tau(  96) = (   0.7476348   1.6199610   1.9992640  )
        97           Cu  tau(  97) = (  -0.0034900   1.8487859   1.9994749  )
        98           Cu  tau(  98) = (   0.2480955   2.0736264   1.9997420  )
        99           Cu  tau(  99) = (   0.5006240   1.8485336   2.0011817  )
       100           Cu  tau( 100) = (   0.7506301   2.0749284   1.9997428  )
       101           C   tau( 101) = (  -0.0001366   0.0846165   2.3715873  )
       102           C   tau( 102) = (  -0.0001132   0.2800461   2.3823051  )
       103           C   tau( 103) = (   0.1664970  -0.0092764   2.3614100  )
       104           C   tau( 104) = (   0.1664871   0.3765119   2.3839438  )
       105           C   tau( 105) = (   0.3323850   0.0844718   2.3571415  )
       106           C   tau( 106) = (   0.3327502   0.2794833   2.3710798  )
       107           C   tau( 107) = (   0.5001257  -0.0088482   2.3322025  )
       108           C   tau( 108) = (   0.4996397   0.3768301   2.3738481  )
       109           C   tau( 109) = (   0.6675800   0.0850629   2.3572874  )
       110           C   tau( 110) = (   0.6669848   0.2801140   2.3712721  )
       111           C   tau( 111) = (   0.8332559  -0.0090333   2.3615107  )
       112           C   tau( 112) = (   0.8334386   0.3769078   2.3841598  )
       113           C   tau( 113) = (   0.0005468   0.6677139   2.3911532  )
       114           C   tau( 114) = (   0.0012570   0.8616727   2.3831603  )
       115           C   tau( 115) = (   0.1667193   0.5707964   2.3888560  )
       116           C   tau( 116) = (   0.1672045   0.9617566   2.3782017  )
       117           C   tau( 117) = (   0.3329383   0.6691374   2.3848420  )
       118           C   tau( 118) = (   0.3330393   0.8637785   2.3829084  )
       119           C   tau( 119) = (   0.4993730   0.5708415   2.3822111  )
       120           C   tau( 120) = (   0.4995477   0.9614635   2.3775742  )
       121           C   tau( 121) = (   0.6660653   0.6677001   2.3848598  )
       122           C   tau( 122) = (   0.6658443   0.8615472   2.3805342  )
       123           C   tau( 123) = (   0.8334429   0.5711182   2.3891257  )
       124           C   tau( 124) = (   0.8335001   0.9550986   2.3759475  )
       125           C   tau( 125) = (  -0.0028611   1.2454181   2.3565284  )
       126           C   tau( 126) = (   0.1660550   1.1582526   2.3672929  )
       127           C   tau( 127) = (   0.3343786   1.2588620   2.3708782  )
       128           C   tau( 128) = (   0.5011332   1.1574110   2.3711610  )
       129           C   tau( 129) = (   0.6694413   1.2432143   2.3458716  )
       130           C   tau( 130) = (   0.8338301   1.1472047   2.3577938  )
       131           H   tau( 131) = (   0.1660513  -0.1574840   2.3560056  )
       132           H   tau( 132) = (   0.5004229  -0.1567044   2.3425233  )
       133           H   tau( 133) = (   0.8335442  -0.1572292   2.3559960  )
       134           H   tau( 134) = (  -0.0117420   1.3924087   2.3576504  )
       135           H   tau( 135) = (   0.6785872   1.3896218   2.3376181  )
       136           C   tau( 136) = (   0.3310950   1.4567362   2.3650982  )
       137           O   tau( 137) = (   0.2031182   1.5549621   2.3010417  )
       138           O   tau( 138) = (   0.4761845   1.5492445   2.4358165  )
       139           H   tau( 139) = (   0.4573245   1.6774672   2.4015550  )

     number of k points=     6  gaussian smearing, width (Ry)=  0.1000
                       cart. coord. in units 2pi/alat
        k(    1) = (   0.0000000   0.0000000   0.0000000), wk =   0.2500000
        k(    2) = (   0.0000000  -0.2165064   0.0000000), wk =   0.2500000
        k(    3) = (   0.2500000   0.0000000   0.0000000), wk =   0.5000000
        k(    4) = (   0.2500000  -0.2165064   0.0000000), wk =   0.5000000
        k(    5) = (  -0.5000000   0.0000000   0.0000000), wk =   0.2500000
        k(    6) = (  -0.5000000  -0.2165064   0.0000000), wk =   0.2500000

     Dense  grid:  2050409 G-vectors     FFT dimensions: (  80, 192, 270)

     Largest allocated arrays     est. size (Mb)     dimensions
        Kohn-Sham Wavefunctions       104.25 Mb     (    9171,  745)
        NL pseudopotentials           259.31 Mb     (    9171, 1853)
        Each V/rho on FFT grid          2.34 Mb     (  153600)
        Each G-vector array             0.56 Mb     (   73230)
        G-vector shells                 0.27 Mb     (   35784)
     Largest temporary arrays     est. size (Mb)     dimensions
        Auxiliary wavefunctions       417.02 Mb     (    9171, 2980)
        Each subspace H/S matrix       15.05 Mb     (     993,  993)
        Each <psi_i|beta_j> matrix     21.06 Mb     (    1853,  745)
        Arrays for rho mixing          18.75 Mb     (  153600,    8)

     Initial potential from superposition of free atoms
     Check: negative starting charge=   -0.002148

     starting charge 1225.31748, renormalised to 1242.00000

     negative rho (up, down):  2.177E-03 0.000E+00
     Starting wfc are 1162 randomized atomic wfcs

     total cpu time spent up to now is      176.4 secs

     Self-consistent Calculation

     iteration #  1     ecut=    80.00 Ry     beta=0.70
     Davidson diagonalization with overlap
     c_bands:  1 eigenvalues not converged
     ethr =  1.00E-04,  avg # of iterations = 20.0

     negative rho (up, down):  2.895E+01 0.000E+00

     total cpu time spent up to now is     3035.5 secs

     total energy              =   -8322.56557666 Ry
     Harris-Foulkes estimate   =  -14929.12428724 Ry
     estimated scf accuracy    <  144654.51545342 Ry

     iteration #  2     ecut=    80.00 Ry     beta=0.70
     Davidson diagonalization with overlap
     c_bands:  1 eigenvalues not converged
     ethr =  1.00E-02,  avg # of iterations = 14.7

     negative rho (up, down):  2.104E+01 0.000E+00

     total cpu time spent up to now is     4678.1 secs

     total energy              =  -12648.19700232 Ry
     Harris-Foulkes estimate   =  -13220.22060285 Ry
     estimated scf accuracy    <    1730.48365049 Ry

     iteration #  3     ecut=    80.00 Ry     beta=0.70
     Davidson diagonalization with overlap
     ethr =  1.00E-02,  avg # of iterations =  4.5

     negative rho (up, down):  1.567E+01 0.000E+00

     total cpu time spent up to now is     5293.9 secs

     total energy              =  -12706.16584732 Ry
     Harris-Foulkes estimate   =  -12789.48383876 Ry
     estimated scf accuracy    <     665.07809692 Ry

     iteration #  4     ecut=    80.00 Ry     beta=0.70
     Davidson diagonalization with overlap
     ethr =  1.00E-02,  avg # of iterations =  3.2

     negative rho (up, down):  1.571E+01 0.000E+00

     total cpu time spent up to now is     5746.8 secs

     total energy              =  -12745.69717129 Ry
     Harris-Foulkes estimate   =  -12743.88637720 Ry
     estimated scf accuracy    <    1211.32488895 Ry

     iteration #  5     ecut=    80.00 Ry     beta=0.70
     Davidson diagonalization with overlap
     ethr =  1.00E-02,  avg # of iterations =  1.8

     negative rho (up, down):  1.252E+01 0.000E+00

     total cpu time spent up to now is     6060.4 secs

     total energy              =  -12713.96612864 Ry
     Harris-Foulkes estimate   =  -12746.86719686 Ry
     estimated scf accuracy    <    1353.94703665 Ry

     iteration #  6     ecut=    80.00 Ry     beta=0.70
     Davidson diagonalization with overlap
     ethr =  1.00E-02,  avg # of iterations =  3.7

     negative rho (up, down):  7.571E+00 0.000E+00

     total cpu time spent up to now is     6459.7 secs

     total energy              =  -12668.70410823 Ry
     Harris-Foulkes estimate   =  -12741.77603549 Ry
     estimated scf accuracy    <    1540.50405775 Ry

     iteration #  7     ecut=    80.00 Ry     beta=0.70
     Davidson diagonalization with overlap
     ethr =  1.00E-02,  avg # of iterations =  4.0

     negative rho (up, down):  6.231E+00 0.000E+00

     total cpu time spent up to now is     6828.5 secs

     total energy              =  -12676.89427475 Ry
     Harris-Foulkes estimate   =  -12714.77806525 Ry
     estimated scf accuracy    <     554.95323623 Ry

     iteration #  8     ecut=    80.00 Ry     beta=0.70
     Davidson diagonalization with overlap
     ethr =  1.00E-02,  avg # of iterations =  4.3

     negative rho (up, down):  5.164E+00 0.000E+00

     total cpu time spent up to now is     7210.4 secs

     total energy              =  -12656.71121714 Ry
     Harris-Foulkes estimate   =  -12680.90007489 Ry
     estimated scf accuracy    <     382.90577610 Ry

     iteration #  9     ecut=    80.00 Ry     beta=0.70
     Davidson diagonalization with overlap
     ethr =  1.00E-02,  avg # of iterations =  1.2

     negative rho (up, down):  3.448E+00 0.000E+00

     total cpu time spent up to now is     7511.3 secs

     total energy              =  -12639.73980479 Ry
     Harris-Foulkes estimate   =  -12660.60547660 Ry
     estimated scf accuracy    <     218.37481476 Ry

     iteration # 10     ecut=    80.00 Ry     beta=0.70
     Davidson diagonalization with overlap
     ethr =  1.00E-02,  avg # of iterations =  1.0

     negative rho (up, down):  1.760E+00 0.000E+00

     total cpu time spent up to now is     7810.2 secs

     total energy              =  -12589.52841378 Ry
     Harris-Foulkes estimate   =  -12643.50302849 Ry
     estimated scf accuracy    <     255.23420774 Ry

     iteration # 11     ecut=    80.00 Ry     beta=0.70
     Davidson diagonalization with overlap
     ethr =  1.00E-02,  avg # of iterations =  2.0

     negative rho (up, down):  3.533E+00 0.000E+00

     total cpu time spent up to now is     8129.2 secs

     total energy              =  -12584.87368381 Ry
     Harris-Foulkes estimate   =  -12613.05046862 Ry
     estimated scf accuracy    <     562.80467436 Ry

     iteration # 12     ecut=    80.00 Ry     beta=0.70
     Davidson diagonalization with overlap
     ethr =  1.00E-02,  avg # of iterations =  1.0

     negative rho (up, down):  7.691E+00 0.000E+00

     total cpu time spent up to now is     8426.9 secs

     total energy              =  -12581.50433072 Ry
     Harris-Foulkes estimate   =  -12595.18566096 Ry
     estimated scf accuracy    <     106.30495008 Ry

     iteration # 13     ecut=    80.00 Ry     beta=0.70
     Davidson diagonalization with overlap
     ethr =  8.56E-03,  avg # of iterations =  1.0

     negative rho (up, down):  6.655E+00 0.000E+00

     total cpu time spent up to now is     8724.6 secs

     total energy              =  -12582.06007402 Ry
     Harris-Foulkes estimate   =  -12586.57616554 Ry
     estimated scf accuracy    <      34.24843734 Ry

     iteration # 14     ecut=    80.00 Ry     beta=0.70
     Davidson diagonalization with overlap
     ethr =  2.76E-03,  avg # of iterations =  2.0

     negative rho (up, down):  6.927E+00 0.000E+00

     total cpu time spent up to now is     9041.2 secs

     total energy              =  -12581.49396986 Ry
     Harris-Foulkes estimate   =  -12583.90902079 Ry
     estimated scf accuracy    <      22.50631585 Ry

     iteration # 15     ecut=    80.00 Ry     beta=0.70
     Davidson diagonalization with overlap
     ethr =  1.81E-03,  avg # of iterations =  1.7

     negative rho (up, down):  5.302E+00 0.000E+00

     total cpu time spent up to now is     9351.7 secs

     total energy              =  -12579.72872662 Ry
     Harris-Foulkes estimate   =  -12581.96225681 Ry
     estimated scf accuracy    <      14.56709201 Ry

     iteration # 16     ecut=    80.00 Ry     beta=0.70
     Davidson diagonalization with overlap
     ethr =  1.17E-03,  avg # of iterations =  7.0

     negative rho (up, down):  5.463E+00 0.000E+00

     total cpu time spent up to now is     9767.8 secs

     total energy              =  -12578.80223812 Ry
     Harris-Foulkes estimate   =  -12580.44956180 Ry
     estimated scf accuracy    <      28.24822899 Ry

     iteration # 17     ecut=    80.00 Ry     beta=0.70
     Davidson diagonalization with overlap
     ethr =  1.17E-03,  avg # of iterations =  4.8

     negative rho (up, down):  4.668E+00 0.000E+00

     total cpu time spent up to now is    10150.9 secs

     total energy              =  -12578.94866274 Ry
     Harris-Foulkes estimate   =  -12579.96597785 Ry
     estimated scf accuracy    <      16.39472241 Ry

     iteration # 18     ecut=    80.00 Ry     beta=0.70
     Davidson diagonalization with overlap
     ethr =  1.17E-03,  avg # of iterations =  1.5

     negative rho (up, down):  3.002E+00 0.000E+00

     total cpu time spent up to now is    10458.9 secs

     total energy              =  -12577.56279049 Ry
     Harris-Foulkes estimate   =  -12579.12636501 Ry
     estimated scf accuracy    <       9.62732747 Ry

     iteration # 19     ecut=    80.00 Ry     beta=0.70
     Davidson diagonalization with overlap
     ethr =  7.75E-04,  avg # of iterations =  2.5

     negative rho (up, down):  7.905E-01 0.000E+00

     total cpu time spent up to now is    10785.3 secs

     total energy              =  -12575.42812736 Ry
     Harris-Foulkes estimate   =  -12577.96847366 Ry
     estimated scf accuracy    <      15.46681432 Ry

     iteration # 20     ecut=    80.00 Ry     beta=0.70
     Davidson diagonalization with overlap
     ethr =  7.75E-04,  avg # of iterations =  7.2

     negative rho (up, down):  6.308E-01 0.000E+00

     total cpu time spent up to now is    11204.6 secs

     total energy              =  -12575.33372564 Ry
     Harris-Foulkes estimate   =  -12576.27121423 Ry
     estimated scf accuracy    <      37.81194309 Ry

     iteration # 21     ecut=    80.00 Ry     beta=0.70
     Davidson diagonalization with overlap
     ethr =  7.75E-04,  avg # of iterations =  1.2

     negative rho (up, down):  4.522E-01 0.000E+00

     total cpu time spent up to now is    11505.3 secs

     total energy              =  -12574.95977947 Ry
     Harris-Foulkes estimate   =  -12575.51467207 Ry
     estimated scf accuracy    <      12.43880611 Ry

     iteration # 22     ecut=    80.00 Ry     beta=0.70
     Davidson diagonalization with overlap
     ethr =  7.75E-04,  avg # of iterations =  6.5

     negative rho (up, down):  4.603E-01 0.000E+00

     total cpu time spent up to now is    11902.5 secs

     total energy              =  -12573.91037277 Ry
     Harris-Foulkes estimate   =  -12575.01103738 Ry
     estimated scf accuracy    <       8.18421629 Ry

     iteration # 23     ecut=    80.00 Ry     beta=0.70
     Davidson diagonalization with overlap
     ethr =  6.59E-04,  avg # of iterations =  2.5

     negative rho (up, down):  4.908E-01 0.000E+00

     total cpu time spent up to now is    12230.4 secs

     total energy              =  -12573.43016151 Ry
     Harris-Foulkes estimate   =  -12574.05430065 Ry
     estimated scf accuracy    <       5.25878224 Ry

     iteration # 24     ecut=    80.00 Ry     beta=0.70
     Davidson diagonalization with overlap
     ethr =  4.23E-04,  avg # of iterations =  2.5

     negative rho (up, down):  5.802E-01 0.000E+00

     total cpu time spent up to now is    12558.7 secs

     total energy              =  -12573.10444682 Ry
     Harris-Foulkes estimate   =  -12573.71923995 Ry
     estimated scf accuracy    <      21.02822363 Ry

     iteration # 25     ecut=    80.00 Ry     beta=0.70
     Davidson diagonalization with overlap
     ethr =  4.23E-04,  avg # of iterations =  5.2

     negative rho (up, down):  4.011E-01 0.000E+00

     total cpu time spent up to now is    12937.3 secs

     total energy              =  -12572.75716809 Ry
     Harris-Foulkes estimate   =  -12573.22401968 Ry
     estimated scf accuracy    <       6.69016867 Ry

     iteration # 26     ecut=    80.00 Ry     beta=0.70
     Davidson diagonalization with overlap
     ethr =  4.23E-04,  avg # of iterations =  8.5

     negative rho (up, down):  2.609E-01 0.000E+00

     total cpu time spent up to now is    13410.0 secs

     total energy              =  -12572.64285708 Ry
     Harris-Foulkes estimate   =  -12572.88405236 Ry
     estimated scf accuracy    <       3.61426376 Ry

     iteration # 27     ecut=    80.00 Ry     beta=0.70
     Davidson diagonalization with overlap
     ethr =  2.91E-04,  avg # of iterations =  6.0

     negative rho (up, down):  3.309E-01 0.000E+00

     total cpu time spent up to now is    13809.7 secs

     total energy              =  -12572.70370862 Ry
     Harris-Foulkes estimate   =  -12572.76611371 Ry
     estimated scf accuracy    <       0.69863914 Ry

     iteration # 28     ecut=    80.00 Ry     beta=0.70
     Davidson diagonalization with overlap
     ethr =  5.63E-05,  avg # of iterations =  7.7

     negative rho (up, down):  2.269E-01 0.000E+00

     total cpu time spent up to now is    14284.0 secs

     total energy              =  -12572.72154135 Ry
     Harris-Foulkes estimate   =  -12572.74423170 Ry
     estimated scf accuracy    <       0.41442270 Ry

     iteration # 29     ecut=    80.00 Ry     beta=0.70
     Davidson diagonalization with overlap
     ethr =  3.34E-05,  avg # of iterations =  6.2

     negative rho (up, down):  2.136E-01 0.000E+00

     total cpu time spent up to now is    14699.6 secs

     total energy              =  -12572.72187078 Ry
     Harris-Foulkes estimate   =  -12572.72805086 Ry
     estimated scf accuracy    <       0.19537457 Ry

     iteration # 30     ecut=    80.00 Ry     beta=0.70
     Davidson diagonalization with overlap
     ethr =  1.57E-05,  avg # of iterations =  5.7

     negative rho (up, down):  1.719E-01 0.000E+00

     total cpu time spent up to now is    15092.0 secs

     total energy              =  -12572.71291978 Ry
     Harris-Foulkes estimate   =  -12572.72361096 Ry
     estimated scf accuracy    <       0.10986387 Ry

     iteration # 31     ecut=    80.00 Ry     beta=0.70
     Davidson diagonalization with overlap
     ethr =  8.85E-06,  avg # of iterations =  8.7

     negative rho (up, down):  1.331E-01 0.000E+00

     total cpu time spent up to now is    15586.4 secs

     total energy              =  -12572.71268753 Ry
     Harris-Foulkes estimate   =  -12572.71610674 Ry
     estimated scf accuracy    <       0.03612231 Ry

     iteration # 32     ecut=    80.00 Ry     beta=0.70
     Davidson diagonalization with overlap
     ethr =  2.91E-06,  avg # of iterations = 11.8

     negative rho (up, down):  6.555E-02 0.000E+00

     total cpu time spent up to now is    16127.1 secs

     total energy              =  -12572.71040478 Ry
     Harris-Foulkes estimate   =  -12572.71357180 Ry
     estimated scf accuracy    <       0.01450032 Ry

     iteration # 33     ecut=    80.00 Ry     beta=0.70
     Davidson diagonalization with overlap
     ethr =  1.17E-06,  avg # of iterations = 13.3

     negative rho (up, down):  1.344E-02 0.000E+00

     total cpu time spent up to now is    16742.3 secs

     total energy              =  -12572.70999494 Ry
     Harris-Foulkes estimate   =  -12572.71106011 Ry
     estimated scf accuracy    <       0.00273647 Ry

     iteration # 34     ecut=    80.00 Ry     beta=0.70
     Davidson diagonalization with overlap
     ethr =  2.20E-07,  avg # of iterations = 14.5

     negative rho (up, down):  9.301E-03 0.000E+00

     total cpu time spent up to now is    17412.7 secs

     total energy              =  -12572.71019683 Ry
     Harris-Foulkes estimate   =  -12572.71029664 Ry
     estimated scf accuracy    <       0.00149762 Ry

     iteration # 35     ecut=    80.00 Ry     beta=0.70
     Davidson diagonalization with overlap
     ethr =  1.21E-07,  avg # of iterations =  7.5

     negative rho (up, down):  1.346E-03 0.000E+00

     total cpu time spent up to now is    17859.9 secs

     total energy              =  -12572.71011053 Ry
     Harris-Foulkes estimate   =  -12572.71031793 Ry
     estimated scf accuracy    <       0.00061748 Ry

     iteration # 36     ecut=    80.00 Ry     beta=0.70
     Davidson diagonalization with overlap
     ethr =  4.97E-08,  avg # of iterations = 13.0

     negative rho (up, down):  1.044E-03 0.000E+00

     total cpu time spent up to now is    18464.6 secs

     total energy              =  -12572.71020770 Ry
     Harris-Foulkes estimate   =  -12572.71018608 Ry
     estimated scf accuracy    <       0.00022817 Ry

     iteration # 37     ecut=    80.00 Ry     beta=0.70
     Davidson diagonalization with overlap
     ethr =  1.84E-08,  avg # of iterations =  5.0

     negative rho (up, down):  1.897E-03 0.000E+00

     total cpu time spent up to now is    18876.7 secs

     total energy              =  -12572.71024427 Ry
     Harris-Foulkes estimate   =  -12572.71023212 Ry
     estimated scf accuracy    <       0.00014424 Ry

     iteration # 38     ecut=    80.00 Ry     beta=0.70
     Davidson diagonalization with overlap
     ethr =  1.16E-08,  avg # of iterations =  6.7

     negative rho (up, down):  1.314E-03 0.000E+00

     total cpu time spent up to now is    19323.3 secs

     total energy              =  -12572.71025505 Ry
     Harris-Foulkes estimate   =  -12572.71025788 Ry
     estimated scf accuracy    <       0.00005540 Ry

     iteration # 39     ecut=    80.00 Ry     beta=0.70
     Davidson diagonalization with overlap
     ethr =  4.46E-09,  avg # of iterations =  5.0

     negative rho (up, down):  1.715E-03 0.000E+00

     total cpu time spent up to now is    19727.9 secs

     total energy              =  -12572.71026451 Ry
     Harris-Foulkes estimate   =  -12572.71026109 Ry
     estimated scf accuracy    <       0.00001129 Ry

     iteration # 40     ecut=    80.00 Ry     beta=0.70
     Davidson diagonalization with overlap
     ethr =  9.09E-10,  avg # of iterations =  2.8

     negative rho (up, down):  1.899E-03 0.000E+00

     total cpu time spent up to now is    20080.0 secs

     total energy              =  -12572.71026725 Ry
     Harris-Foulkes estimate   =  -12572.71026588 Ry
     estimated scf accuracy    <       0.00000418 Ry

     iteration # 41     ecut=    80.00 Ry     beta=0.70
     Davidson diagonalization with overlap
     ethr =  3.37E-10,  avg # of iterations =  2.8

     negative rho (up, down):  1.984E-03 0.000E+00

     total cpu time spent up to now is    20427.9 secs

     total energy              =  -12572.71026786 Ry
     Harris-Foulkes estimate   =  -12572.71026759 Ry
     estimated scf accuracy    <       0.00000160 Ry

     iteration # 42     ecut=    80.00 Ry     beta=0.70
     Davidson diagonalization with overlap
     ethr =  1.28E-10,  avg # of iterations =  2.0

     negative rho (up, down):  2.195E-03 0.000E+00

     total cpu time spent up to now is    20757.9 secs

     total energy              =  -12572.71026767 Ry
     Harris-Foulkes estimate   =  -12572.71026798 Ry
     estimated scf accuracy    <       0.00000099 Ry

     iteration # 43     ecut=    80.00 Ry     beta=0.70
     Davidson diagonalization with overlap
     ethr =  7.96E-11,  avg # of iterations =  3.0

     negative rho (up, down):  2.244E-03 0.000E+00

     total cpu time spent up to now is    21113.1 secs

     total energy              =  -12572.71026770 Ry
     Harris-Foulkes estimate   =  -12572.71026776 Ry
     estimated scf accuracy    <       0.00000036 Ry

     iteration # 44     ecut=    80.00 Ry     beta=0.70
     Davidson diagonalization with overlap
     ethr =  2.91E-11,  avg # of iterations =  2.2

     negative rho (up, down):  2.209E-03 0.000E+00

     total cpu time spent up to now is    21454.2 secs

     total energy              =  -12572.71026781 Ry
     Harris-Foulkes estimate   =  -12572.71026773 Ry
     estimated scf accuracy    <       0.00000016 Ry

     iteration # 45     ecut=    80.00 Ry     beta=0.70
     Davidson diagonalization with overlap
     ethr =  1.26E-11,  avg # of iterations =  2.8

     negative rho (up, down):  2.190E-03 0.000E+00

     total cpu time spent up to now is    21808.7 secs

     total energy              =  -12572.71026784 Ry
     Harris-Foulkes estimate   =  -12572.71026783 Ry
     estimated scf accuracy    <       0.00000005 Ry

     iteration # 46     ecut=    80.00 Ry     beta=0.70
     Davidson diagonalization with overlap
     ethr =  3.91E-12,  avg # of iterations =  3.0

     negative rho (up, down):  2.179E-03 0.000E+00

     total cpu time spent up to now is    22203.5 secs

     total energy              =  -12572.71026784 Ry
     Harris-Foulkes estimate   =  -12572.71026785 Ry
     estimated scf accuracy    <       0.00000003 Ry

     iteration # 47     ecut=    80.00 Ry     beta=0.70
     Davidson diagonalization with overlap
     ethr =  2.41E-12,  avg # of iterations =  3.0

     negative rho (up, down):  2.169E-03 0.000E+00

     total cpu time spent up to now is    22563.7 secs

     total energy              =  -12572.71026787 Ry
     Harris-Foulkes estimate   =  -12572.71026784 Ry
     estimated scf accuracy    <       0.00000001 Ry

     iteration # 48     ecut=    80.00 Ry     beta=0.70
     Davidson diagonalization with overlap
     ethr =  1.03E-12,  avg # of iterations =  2.7

     negative rho (up, down):  2.166E-03 0.000E+00

     total cpu time spent up to now is    22895.8 secs

     End of self-consistent calculation

          k = 0.0000 0.0000 0.0000 (256287 PWs)   bands (ev):

   -20.5575 -18.0153 -16.2354 -15.6498 -14.7284 -14.2803 -14.2686 -13.7385
   -13.6850 -13.5081 -12.8699 -12.7966 -12.1306 -11.7359 -11.6070 -10.5494
   -10.2607  -9.6870  -9.1496  -8.9936  -8.6841  -8.2397  -8.1384  -7.4835
    -7.4005  -7.3272  -7.0271  -6.9174  -6.4133  -6.2749  -6.1541  -5.8968
    -5.6812  -5.6230  -5.6160  -5.5835  -5.3628  -5.2251  -5.1593  -5.0379
    -4.7056  -4.6872  -4.4939  -4.4341  -4.3220  -4.1328  -4.1222  -4.0524
    -3.8546  -3.7797  -3.5407  -3.5388  -3.4034  -3.2776  -3.2074  -3.1538
    -3.1474  -3.1437  -3.1414  -3.1375  -3.1301  -3.1047  -3.0857  -3.0649
    -2.9269  -2.8511  -2.8450  -2.7855  -2.7394  -2.7302  -2.7114  -2.6331
    -2.5007  -2.4741  -2.4672  -2.4639  -2.4121  -2.3335  -2.3281  -2.3066
    -2.2980  -2.2899  -2.2896  -2.2862  -2.2850  -2.1625  -2.1610  -2.1529
    -2.1520  -2.0919  -2.0408  -2.0044  -1.9794  -1.9737  -1.9135  -1.8794
    -1.8780  -1.8737  -1.8636  -1.8436  -1.8150  -1.8079  -1.8040  -1.7885
    -1.7833  -1.7564  -1.7503  -1.7112  -1.7084  -1.7058  -1.6904  -1.6867
    -1.6575  -1.6504  -1.6439  -1.6274  -1.6212  -1.5879  -1.5826  -1.5505
    -1.5320  -1.5082  -1.4968  -1.4884  -1.4420  -1.4294  -1.4126  -1.4058
    -1.3941  -1.3838  -1.3486  -1.3463  -1.3298  -1.3238  -1.3053  -1.2981
    -1.2419  -1.2376  -1.2006  -1.1896  -1.1882  -1.1763  -1.1725  -1.1686
    -1.1674  -1.1629  -1.1625  -1.1575  -1.1565  -1.1432  -1.1390  -1.1379
    -1.1328  -1.1266  -1.0894  -1.0807  -1.0791  -1.0727  -1.0648  -1.0566
    -1.0559  -1.0541  -1.0216  -1.0065  -1.0006  -0.9962  -0.9935  -0.9924
    -0.9915  -0.9900  -0.9867  -0.9854  -0.9844  -0.9831  -0.9828  -0.9772
    -0.9757  -0.9748  -0.9631  -0.9386  -0.9129  -0.8618  -0.8326  -0.8244
    -0.8195  -0.8185  -0.8119  -0.8044  -0.7937  -0.7799  -0.7776  -0.7647
    -0.7537  -0.7435  -0.7372  -0.7349  -0.7335  -0.7278  -0.7029  -0.7025
    -0.6973  -0.6946  -0.6936  -0.6903  -0.6855  -0.6802  -0.6343  -0.6246
    -0.5987  -0.5785  -0.5772  -0.5717  -0.5681  -0.5642  -0.5612  -0.5526
    -0.5470  -0.5451  -0.5437  -0.5412  -0.5386  -0.5369  -0.5369  -0.5287
    -0.5242  -0.5223  -0.5215  -0.5201  -0.5074  -0.4874  -0.4839  -0.4804
    -0.4483  -0.4355  -0.4320  -0.4318  -0.4283  -0.4073  -0.4072  -0.4003
    -0.3994  -0.3927  -0.3911  -0.3866  -0.3822  -0.3799  -0.3667  -0.3637
    -0.3613  -0.3607  -0.3577  -0.3549  -0.3503  -0.3497  -0.3492  -0.3479
    -0.3362  -0.3346  -0.3276  -0.3239  -0.3232  -0.3085  -0.2902  -0.2670
    -0.2607  -0.2592  -0.2565  -0.2501  -0.2296  -0.2239  -0.2135  -0.2115
    -0.2065  -0.2016  -0.2010  -0.1992  -0.1975  -0.1965  -0.1699  -0.1572
    -0.1553  -0.1533  -0.1473  -0.1409  -0.1382  -0.1356  -0.1200  -0.1177
    -0.1122  -0.1096  -0.1043  -0.1016  -0.0954  -0.0929  -0.0924  -0.0876
    -0.0825  -0.0807  -0.0803  -0.0780  -0.0763  -0.0709  -0.0569  -0.0531
    -0.0418  -0.0363  -0.0244  -0.0083  -0.0046   0.0052   0.0150   0.0281
     0.0492   0.0566   0.0797   0.0888   0.0906   0.0917   0.1012   0.1076
     0.1088   0.1130   0.1229   0.1265   0.1352   0.1386   0.1468   0.1556
     0.1630   0.1894   0.1939   0.1957   0.1970   0.2010   0.2080   0.2135
     0.2222   0.2288   0.2346   0.2400   0.2455   0.2488   0.2688   0.2759
     0.2848   0.2858   0.2956   0.2993   0.3042   0.3081   0.3325   0.3368
     0.3469   0.3491   0.3498   0.3621   0.3637   0.3683   0.3719   0.3740
     0.3757   0.3831   0.3869   0.3884   0.3935   0.3954   0.3966   0.4037
     0.4066   0.4079   0.4108   0.4133   0.4156   0.4274   0.4291   0.4366
     0.4599   0.4610   0.4620   0.4639   0.4726   0.4761   0.4837   0.5007
     0.5046   0.5068   0.5081   0.5120   0.5131   0.5156   0.5170   0.5306
     0.5327   0.5386   0.5415   0.5446   0.5465   0.5479   0.5542   0.5560
     0.5589   0.5610   0.5758   0.5837   0.5861   0.5929   0.5939   0.5987
     0.6039   0.6040   0.6051   0.6132   0.6144   0.6186   0.6224   0.6279
     0.6522   0.6651   0.6656   0.6733   0.6754   0.6763   0.6844   0.6859
     0.6878   0.7129   0.7154   0.7232   0.7269   0.7367   0.7371   0.7462
     0.7483   0.7526   0.7538   0.7586   0.7624   0.7677   0.7765   0.7813
     0.7839   0.7899   0.7945   0.7978   0.8011   0.8077   0.8134   0.8188
     0.8312   0.8382   0.8396   0.8438   0.8470   0.8559   0.8624   0.8642
     0.8679   0.8700   0.8708   0.8731   0.8774   0.8788   0.8828   0.8916
     0.8922   0.8958   0.8979   0.9009   0.9069   0.9147   0.9239   0.9257
     0.9334   0.9413   0.9414   0.9459   0.9550   0.9582   0.9641   0.9675
     0.9695   0.9716   0.9727   0.9731   0.9760   0.9780   0.9892   0.9907
     0.9955   1.0005   1.0111   1.0223   1.0333   1.0357   1.0523   1.0542
     1.0581   1.0615   1.0639   1.0663   1.0682   1.0715   1.0756   1.0812
     1.0835   1.0932   1.0939   1.0970   1.0982   1.1026   1.1087   1.1113
     1.1152   1.1176   1.1218   1.1287   1.1331   1.1349   1.1368   1.1413
     1.1423   1.1477   1.1497   1.1518   1.1567   1.1595   1.1619   1.1660
     1.1687   1.1702   1.1719   1.1724   1.1768   1.1872   1.1903   1.1998
     1.2058   1.2094   1.2098   1.2146   1.2179   1.2243   1.2275   1.2392
     1.2446   1.2471   1.2514   1.2614   1.2646   1.2667   1.2691   1.2699
     1.2743   1.2799   1.2821   1.2855   1.2886   1.2924   1.2962   1.2996
     1.3031   1.3076   1.3088   1.3098   1.3179   1.3218   1.3251   1.3276
     1.3297   1.3327   1.3374   1.3392   1.3442   1.3481   1.3751   1.3793
     1.3877   1.4140   1.4157   1.4222   1.4272   1.4305   1.4421   1.4431
     1.4559   1.4637   1.4698   1.4826   1.4885   1.4909   1.4988   1.5039
     1.5059   1.5136   1.5224   1.7478   1.8130   1.8685   1.9259   1.9454
     1.9808   2.0151   2.0493   2.0631   2.0697   2.0700   2.0768   2.0857
     2.0985   2.1397   2.1782   2.2750   2.3064   2.3179   2.3280   2.3366
     2.3387   2.3705   2.3831   2.5685   2.5920   2.6035   2.6501   3.0095
     3.3293   3.3450   3.3948   3.5207   3.6305   3.6556   3.6928   3.7035
     3.7225   3.7373   3.7752   3.7956   3.8236   3.8385   3.8531   3.8661
     3.8822   3.8912   3.9384   3.9603   4.0740   4.0932   4.1415   4.2083
     4.3456   4.5477   4.6440   4.8142   5.0096   5.1059   5.1424   5.2759
     5.4195   5.4813   5.5380   5.6172   5.6723   5.7364   5.7978   5.8448
     6.0138   6.1423   6.1949   6.2560   6.2901   6.3225   6.3352   6.3933
     6.4700   6.5408   6.5604   6.5749   6.5947   6.6178   6.6504   6.7802
     6.8698   6.8952   6.9207   6.9665   6.9951   7.1195   7.2064   7.2139
     7.2862   7.3382   7.4481   7.5011   7.5112   7.5370   7.5496   7.5680
     7.5880   7.6739   7.7548   7.8170   7.9488   7.9838   7.9856   8.0215
     8.0361   8.1522   8.1920   8.2004   8.2075   8.2576   8.2775   8.3258
     8.3941   8.4055   8.4144   8.4615   8.4988   8.5218   8.5565   8.5663
     8.6539   8.6582   8.6906   8.6999   8.7613   8.7852   8.8204   8.8410
     8.8790   8.9128   8.9579   8.9998   9.0179   9.0718   9.1854   9.1938
     9.2222   9.3187   9.3650   9.4250   9.4383   9.4605   9.5610   9.6198
     9.6338

          k = 0.0000-0.2165 0.0000 (256176 PWs)   bands (ev):

   -20.5575 -18.0153 -16.2354 -15.6498 -14.7284 -14.2804 -14.2686 -13.7385
   -13.6850 -13.5080 -12.8700 -12.7966 -12.1309 -11.7357 -11.6069 -10.5496
   -10.2608  -9.6852  -9.1503  -8.9936  -8.6865  -8.2396  -8.1388  -7.4816
    -7.4005  -7.3256  -7.0266  -6.9179  -6.4129  -6.2753  -6.0283  -6.0135
    -5.8982  -5.6680  -5.5944  -5.3633  -5.2249  -5.1065  -5.0386  -4.9943
    -4.9677  -4.9219  -4.5440  -4.4506  -4.4086  -4.2338  -4.0149  -3.9094
    -3.7871  -3.6923  -3.4470  -3.4447  -3.4274  -3.4201  -3.2671  -3.2305
    -3.1965  -3.1703  -3.1606  -3.1423  -3.1019  -3.0954  -3.0539  -3.0076
    -2.7916  -2.7310  -2.7291  -2.7235  -2.7159  -2.7148  -2.6985  -2.6976
    -2.6324  -2.5962  -2.5805  -2.4468  -2.4014  -2.3862  -2.3594  -2.3238
    -2.3154  -2.2860  -2.2803  -2.2709  -2.2665  -2.2566  -2.1224  -2.1219
    -2.0979  -2.0977  -2.0553  -2.0227  -1.9905  -1.9787  -1.9236  -1.9057
    -1.8989  -1.8851  -1.8790  -1.8780  -1.8710  -1.8640  -1.8520  -1.8352
    -1.8168  -1.8070  -1.7814  -1.7750  -1.7546  -1.7379  -1.6488  -1.5972
    -1.5962  -1.5886  -1.5870  -1.5280  -1.5202  -1.5083  -1.5070  -1.4550
    -1.4505  -1.4348  -1.4164  -1.4160  -1.4115  -1.4090  -1.4048  -1.4026
    -1.3805  -1.3758  -1.3746  -1.3638  -1.3577  -1.3541  -1.3481  -1.3448
    -1.3231  -1.2946  -1.2917  -1.2706  -1.2674  -1.2257  -1.2241  -1.1893
    -1.1863  -1.1845  -1.1820  -1.1579  -1.1369  -1.1303  -1.1289  -1.1213
    -1.1182  -1.1114  -1.1098  -1.1097  -1.0774  -1.0699  -1.0598  -1.0584
    -1.0567  -1.0553  -1.0509  -1.0477  -1.0437  -1.0386  -1.0219  -1.0128
    -0.9748  -0.9681  -0.9670  -0.9600  -0.9563  -0.9478  -0.9418  -0.9377
    -0.9258  -0.9188  -0.9081  -0.8943  -0.8892  -0.8869  -0.8814  -0.8320
    -0.7999  -0.7993  -0.7937  -0.7822  -0.7776  -0.7695  -0.7685  -0.7475
    -0.7461  -0.7403  -0.7387  -0.7374  -0.7330  -0.7172  -0.7166  -0.6907
    -0.6889  -0.6799  -0.6771  -0.6742  -0.6724  -0.6698  -0.6672  -0.6466
    -0.6449  -0.6343  -0.6261  -0.6260  -0.6076  -0.5920  -0.5900  -0.5891
    -0.5890  -0.5842  -0.5819  -0.5588  -0.5543  -0.5368  -0.5171  -0.5117
    -0.5066  -0.4994  -0.4871  -0.4846  -0.4789  -0.4681  -0.4597  -0.4441
    -0.4418  -0.4370  -0.4322  -0.4301  -0.4267  -0.4194  -0.4185  -0.4002
    -0.3985  -0.3943  -0.3927  -0.3848  -0.3847  -0.3838  -0.3798  -0.3774
    -0.3721  -0.3630  -0.3567  -0.3492  -0.3482  -0.3406  -0.3402  -0.3281
    -0.3110  -0.2878  -0.2842  -0.2805  -0.2774  -0.2747  -0.2740  -0.2681
    -0.2630  -0.2505  -0.2466  -0.2409  -0.2348  -0.2294  -0.2276  -0.2235
    -0.2220  -0.2204  -0.2178  -0.2099  -0.2077  -0.2048  -0.1662  -0.1638
    -0.1621  -0.1600  -0.1586  -0.1556  -0.1432  -0.1323  -0.1313  -0.1262
    -0.1236  -0.1137  -0.1128  -0.1086  -0.1070  -0.0998  -0.0822  -0.0795
    -0.0692  -0.0674  -0.0660  -0.0640  -0.0502  -0.0449  -0.0408  -0.0335
    -0.0306  -0.0240  -0.0212  -0.0188  -0.0133  -0.0067   0.0026   0.0243
     0.0348   0.0407   0.0462   0.0491   0.0528   0.0630   0.0647   0.0701
     0.0776   0.0880   0.0992   0.1216   0.1260   0.1278   0.1375   0.1517
     0.1787   0.1821   0.2128   0.2235   0.2305   0.2390   0.2433   0.2482
     0.2515   0.2619   0.2699   0.2747   0.2852   0.2910   0.2942   0.2991
     0.3023   0.3049   0.3125   0.3141   0.3211   0.3237   0.3297   0.3316
     0.3327   0.3382   0.3414   0.3434   0.3584   0.3628   0.3654   0.3735
     0.3792   0.3812   0.3850   0.3905   0.3919   0.3921   0.3938   0.4008
     0.4071   0.4158   0.4161   0.4186   0.4212   0.4232   0.4306   0.4316
     0.4369   0.4425   0.4438   0.4462   0.4490   0.4542   0.4575   0.4629
     0.4778   0.4794   0.4951   0.5000   0.5095   0.5152   0.5158   0.5200
     0.5239   0.5286   0.5319   0.5335   0.5373   0.5390   0.5404   0.5416
     0.5548   0.5638   0.5739   0.5795   0.5857   0.5883   0.5889   0.5965
     0.6023   0.6043   0.6130   0.6213   0.6219   0.6273   0.6291   0.6331
     0.6375   0.6457   0.6476   0.6774   0.6820   0.6922   0.6981   0.7313
     0.7431   0.7478   0.7487   0.7499   0.7544   0.7587   0.7631   0.7634
     0.7673   0.7709   0.7743   0.7779   0.7815   0.7844   0.7887   0.7935
     0.7945   0.7973   0.8006   0.8072   0.8105   0.8151   0.8183   0.8190
     0.8219   0.8224   0.8234   0.8258   0.8293   0.8328   0.8374   0.8425
     0.8451   0.8455   0.8487   0.8512   0.8516   0.8585   0.8635   0.8689
     0.8716   0.8816   0.8859   0.8879   0.8900   0.8923   0.8945   0.8956
     0.8993   0.9001   0.9049   0.9079   0.9250   0.9409   0.9471   0.9806
     0.9843   0.9909   0.9934   0.9983   1.0076   1.0101   1.0128   1.0248
     1.0260   1.0290   1.0351   1.0374   1.0385   1.0432   1.0445   1.0532
     1.0571   1.0577   1.0587   1.0606   1.0625   1.0645   1.0660   1.0688
     1.0721   1.0729   1.0808   1.0838   1.0874   1.0901   1.0931   1.0948
     1.0997   1.1078   1.1138   1.1202   1.1251   1.1264   1.1285   1.1313
     1.1339   1.1367   1.1385   1.1516   1.1535   1.1549   1.1580   1.1636
     1.1643   1.1689   1.1754   1.1800   1.1825   1.1897   1.1906   1.1939
     1.1982   1.2079   1.2110   1.2130   1.2224   1.2323   1.2357   1.2373
     1.2419   1.2437   1.2476   1.2499   1.2506   1.2545   1.2560   1.2675
     1.2719   1.2790   1.2838   1.2873   1.2899   1.2997   1.3016   1.3062
     1.3079   1.3087   1.3097   1.3115   1.3132   1.3365   1.3397   1.3445
     1.3456   1.3509   1.3663   1.3685   1.3719   1.3751   1.3815   1.3826
     1.3867   1.3885   1.3942   1.3992   1.4118   1.4520   1.4539   1.4574
     1.4711   1.5368   1.5649   1.5866   1.5928   1.6017   1.6113   1.6200
     1.6324   1.6360   1.6489   1.6564   1.6613   1.6745   1.6779   1.6793
     1.6934   1.7087   1.7116   2.0123   2.0936   2.2579   2.2627   2.3019
     2.3082   2.3414   2.3562   2.4217   2.4287   2.4434   2.4500   2.4838
     2.5312   2.5604   2.5613   2.5699   2.6416   2.6491   2.6674   2.7795
     2.7806   3.0179   3.0180   3.0378   3.0533   3.2332   3.3034   3.3884
     3.5027   3.5362   3.6001   3.8821   3.9211   3.9685   4.0036   4.1677
     4.1811   4.1935   4.2025   4.2079   4.3161   4.4476   4.5628   4.5925
     4.6950   4.7483   4.8876   4.9284   4.9683   5.0813   5.1327   5.2080
     5.2121   5.2288   5.2684   5.3142   5.4280   5.5108   5.7111   6.0265
     6.0851   6.1183   6.1810   6.3094   6.3331   6.3896   6.4051   6.4426
     6.4617   6.5272   6.5555   6.6144   6.6481   6.7640   6.8052   6.8503
     6.8823   6.9183   6.9578   6.9617   6.9734   6.9856   6.9984   7.0024
     7.0947   7.1241   7.1949   7.2531   7.2922   7.4282   7.4867   7.5277
     7.5439   7.6575   7.6706   7.7677   7.8096   7.9369   7.9725   8.0287
     8.1214   8.1658   8.2095   8.2235   8.2690   8.3402   8.3784   8.4564
     8.5080   8.5224   8.5502   8.5612   8.5693   8.6288   8.6318   8.6603
     8.6734   8.7009   8.7279   8.7692   8.7891   8.8521   8.8815   8.9471
     9.0386   9.0747   9.1246   9.2172   9.2410   9.2450   9.2765   9.2825
     9.2998   9.3338   9.3984   9.4052   9.4958   9.5421   9.5614   9.6099
     9.6500

          k = 0.2500 0.0000 0.0000 (256240 PWs)   bands (ev):

   -20.5574 -18.0156 -16.1114 -15.5273 -15.1247 -14.6091 -14.5497 -13.6583
   -13.3917 -13.1983 -12.6577 -12.4783 -12.0089 -11.8008 -11.1499 -10.8499
   -10.3447  -9.9758  -9.5558  -9.2072  -9.0076  -8.7918  -8.3525  -7.8166
    -7.3597  -7.1009  -6.7494  -6.4888  -6.3569  -5.9746  -5.9251  -5.7674
    -5.5748  -5.4583  -5.4425  -5.3793  -5.0168  -4.9286  -4.6971  -4.6338
    -4.5894  -4.5514  -4.5099  -4.3149  -4.2241  -4.1521  -4.1336  -4.1145
    -3.9873  -3.9756  -3.9379  -3.8275  -3.7177  -3.6830  -3.6561  -3.6240
    -3.4067  -3.3470  -3.3191  -3.2581  -3.2150  -3.1650  -3.1403  -3.1023
    -3.0446  -3.0287  -2.9374  -2.9342  -2.8312  -2.8058  -2.7476  -2.7318
    -2.6578  -2.5353  -2.4696  -2.4514  -2.4176  -2.2393  -2.2369  -2.2208
    -2.2169  -2.2057  -2.1213  -2.0657  -2.0409  -2.0030  -1.9833  -1.9771
    -1.9648  -1.9401  -1.9397  -1.9340  -1.9283  -1.9257  -1.9099  -1.8903
    -1.8563  -1.8206  -1.8029  -1.7836  -1.7777  -1.7703  -1.7434  -1.7189
    -1.7183  -1.7169  -1.7133  -1.7066  -1.6936  -1.6772  -1.6588  -1.6412
    -1.6369  -1.6334  -1.6324  -1.5571  -1.5084  -1.5034  -1.4712  -1.4668
    -1.4485  -1.4465  -1.3975  -1.3933  -1.3854  -1.3793  -1.3725  -1.3635
    -1.3465  -1.3452  -1.3300  -1.3216  -1.3170  -1.3143  -1.3073  -1.2855
    -1.2796  -1.2741  -1.2683  -1.2649  -1.2528  -1.2499  -1.2463  -1.2412
    -1.2135  -1.2026  -1.1962  -1.1851  -1.1735  -1.1645  -1.1609  -1.1533
    -1.1452  -1.1433  -1.1387  -1.1355  -1.1293  -1.1248  -1.1245  -1.1210
    -1.1165  -1.1140  -1.1127  -1.1101  -1.1000  -1.0900  -1.0832  -1.0662
    -1.0473  -1.0373  -1.0314  -0.9975  -0.9917  -0.9894  -0.9516  -0.9487
    -0.9388  -0.9309  -0.9236  -0.9091  -0.9075  -0.8998  -0.8928  -0.8895
    -0.8848  -0.8819  -0.8779  -0.8662  -0.8619  -0.7948  -0.7602  -0.7473
    -0.7388  -0.7279  -0.7154  -0.7063  -0.7052  -0.7007  -0.6969  -0.6909
    -0.6888  -0.6841  -0.6745  -0.6729  -0.6696  -0.6627  -0.6495  -0.6366
    -0.6286  -0.6262  -0.6241  -0.6212  -0.6097  -0.6002  -0.5990  -0.5946
    -0.5891  -0.5779  -0.5460  -0.5398  -0.5386  -0.5351  -0.5296  -0.5238
    -0.5203  -0.5175  -0.5164  -0.4958  -0.4921  -0.4781  -0.4766  -0.4736
    -0.4635  -0.4381  -0.4354  -0.4317  -0.4305  -0.4237  -0.4203  -0.4152
    -0.4076  -0.4001  -0.3863  -0.3847  -0.3834  -0.3730  -0.3711  -0.3557
    -0.3529  -0.3401  -0.3382  -0.3335  -0.3280  -0.3209  -0.3206  -0.3134
    -0.3046  -0.2938  -0.2924  -0.2843  -0.2747  -0.2590  -0.2556  -0.2540
    -0.2489  -0.2341  -0.2140  -0.2100  -0.2071  -0.2014  -0.1983  -0.1836
    -0.1793  -0.1724  -0.1631  -0.1588  -0.1526  -0.1510  -0.1491  -0.1403
    -0.1364  -0.1351  -0.1319  -0.1310  -0.1298  -0.1266  -0.1212  -0.1158
    -0.1104  -0.1063  -0.1029  -0.0982  -0.0906  -0.0864  -0.0817  -0.0734
    -0.0659  -0.0576  -0.0542  -0.0397  -0.0309  -0.0258  -0.0228  -0.0174
    -0.0110  -0.0061  -0.0024   0.0002   0.0044   0.0098   0.0315   0.0428
     0.0731   0.0813   0.1031   0.1076   0.1143   0.1177   0.1220   0.1270
     0.1295   0.1322   0.1358   0.1402   0.1429   0.1473   0.1511   0.1534
     0.1557   0.1578   0.1641   0.1705   0.1716   0.1775   0.1832   0.1884
     0.1925   0.1952   0.1996   0.2031   0.2115   0.2186   0.2245   0.2432
     0.2644   0.2707   0.2776   0.2794   0.2853   0.2903   0.2959   0.3003
     0.3065   0.3133   0.3269   0.3291   0.3313   0.3333   0.3435   0.3466
     0.3497   0.3541   0.3582   0.3613   0.3652   0.3734   0.3754   0.3820
     0.3863   0.3910   0.3996   0.4062   0.4113   0.4123   0.4145   0.4190
     0.4298   0.4363   0.4390   0.4438   0.4487   0.4517   0.4561   0.4606
     0.4623   0.4663   0.4724   0.4760   0.4777   0.4915   0.4972   0.5005
     0.5106   0.5139   0.5185   0.5212   0.5247   0.5319   0.5394   0.5437
     0.5584   0.5674   0.5770   0.5860   0.5966   0.5988   0.6031   0.6066
     0.6126   0.6158   0.6245   0.6267   0.6342   0.6355   0.6393   0.6408
     0.6456   0.6572   0.6623   0.6730   0.6762   0.6831   0.6867   0.6931
     0.7003   0.7076   0.7128   0.7160   0.7201   0.7369   0.7392   0.7397
     0.7474   0.7487   0.7503   0.7509   0.7525   0.7624   0.7660   0.7751
     0.7855   0.7962   0.8048   0.8110   0.8159   0.8192   0.8272   0.8310
     0.8369   0.8438   0.8468   0.8487   0.8527   0.8562   0.8600   0.8621
     0.8656   0.8700   0.8722   0.8743   0.8762   0.8790   0.8806   0.8834
     0.8873   0.8891   0.8938   0.8956   0.8977   0.9033   0.9114   0.9141
     0.9189   0.9240   0.9257   0.9280   0.9323   0.9367   0.9451   0.9485
     0.9558   0.9585   0.9626   0.9666   0.9689   0.9732   0.9752   0.9803
     0.9847   0.9872   0.9954   1.0022   1.0058   1.0108   1.0124   1.0189
     1.0282   1.0387   1.0444   1.0472   1.0498   1.0557   1.0648   1.0683
     1.0752   1.0896   1.0934   1.0998   1.1023   1.1082   1.1128   1.1160
     1.1177   1.1199   1.1241   1.1279   1.1339   1.1369   1.1440   1.1459
     1.1481   1.1522   1.1543   1.1557   1.1577   1.1619   1.1634   1.1677
     1.1727   1.1779   1.1792   1.1825   1.1868   1.1900   1.1935   1.1975
     1.2081   1.2103   1.2149   1.2191   1.2224   1.2268   1.2310   1.2352
     1.2391   1.2427   1.2512   1.2546   1.2572   1.2632   1.2676   1.2738
     1.2762   1.2792   1.2813   1.2845   1.2862   1.2872   1.2892   1.2938
     1.2959   1.2976   1.3005   1.3016   1.3143   1.3201   1.3256   1.3285
     1.3296   1.3303   1.3382   1.3403   1.3418   1.3466   1.3498   1.3564
     1.3652   1.3668   1.3763   1.3794   1.3906   1.4019   1.4058   1.4162
     1.4358   1.4469   1.4639   1.4788   1.4812   1.4838   1.4897   1.5332
     1.5727   1.6102   1.6223   1.6269   1.6349   1.6594   1.6725   1.6937
     1.8860   1.8932   1.9229   1.9423   1.9597   1.9786   2.0383   2.1013
     2.1717   2.3848   2.4005   2.4180   2.4245   2.5664   2.6834   2.8311
     2.8374   2.8938   3.0419   3.0562   3.0744   3.0752   3.1007   3.1848
     3.2740   3.3322   3.4221   3.4828   3.4929   3.5022   3.5480   3.5621
     3.5948   3.6149   3.6674   3.6945   3.7270   3.7845   3.8444   3.9676
     4.0811   4.1276   4.1542   4.2443   4.3707   4.6073   4.6364   4.6963
     4.7812   4.9388   4.9511   5.0733   5.0886   5.1102   5.1715   5.2414
     5.3132   5.3397   5.3452   5.3706   5.4195   5.4723   5.5567   5.5831
     5.6394   5.7004   5.7298   5.8025   5.8519   5.8751   5.8776   5.9332
     6.0747   6.2871   6.4372   6.5357   6.5511   6.5938   6.6128   6.6407
     6.7625   6.8581   6.8689   6.8807   6.8930   6.9052   6.9745   7.0277
     7.0704   7.1843   7.2133   7.2660   7.2974   7.3664   7.4135   7.4314
     7.5077   7.5719   7.5853   7.6636   7.6929   7.7175   7.8134   7.8907
     7.8984   7.9141   7.9690   8.0000   8.0605   8.1300   8.1554   8.1643
     8.2010   8.2137   8.2447   8.3001   8.3667   8.4195   8.4727   8.4930
     8.5985   8.6144   8.6973   8.7848   8.8517   8.8661   8.9544   8.9950
     9.0050   9.0144   9.0374   9.0499   9.0638   9.0723   9.0883   9.1235
     9.1447   9.1681   9.2531   9.2954   9.3492   9.3809   9.4531   9.4865
     9.5202

          k = 0.2500-0.2165 0.0000 (256316 PWs)   bands (ev):

   -20.5574 -18.0156 -16.1114 -15.5273 -15.1247 -14.6091 -14.5497 -13.6583
   -13.3915 -13.1983 -12.6577 -12.4782 -12.0092 -11.8008 -11.1501 -10.8498
   -10.3443  -9.9757  -9.5546  -9.2073  -9.0081  -8.7919  -8.3556  -7.8168
    -7.3565  -7.0989  -6.7495  -6.4886  -6.3574  -5.9275  -5.8501  -5.8373
    -5.7656  -5.5696  -5.3902  -4.9764  -4.9194  -4.8287  -4.8063  -4.7647
    -4.6929  -4.6101  -4.4909  -4.4670  -4.3858  -4.2587  -4.1895  -4.0768
    -3.9309  -3.7997  -3.7218  -3.6856  -3.6629  -3.6464  -3.6059  -3.5961
    -3.5705  -3.4695  -3.3846  -3.2229  -3.2187  -3.1512  -3.1257  -3.0755
    -3.0571  -3.0404  -3.0198  -2.9839  -2.8965  -2.8462  -2.7310  -2.6541
    -2.4570  -2.4441  -2.4253  -2.3374  -2.3324  -2.3063  -2.3054  -2.3023
    -2.2340  -2.1836  -2.1497  -2.1456  -2.1337  -2.0825  -2.0591  -2.0089
    -1.9592  -1.9514  -1.9481  -1.9372  -1.8813  -1.8693  -1.8591  -1.8514
    -1.8421  -1.8369  -1.8331  -1.8217  -1.8167  -1.8123  -1.8108  -1.8044
    -1.8002  -1.7822  -1.7612  -1.7172  -1.7110  -1.6369  -1.6094  -1.6024
    -1.5605  -1.5292  -1.4706  -1.4667  -1.4645  -1.4324  -1.4157  -1.4143
    -1.4074  -1.4003  -1.3989  -1.3872  -1.3827  -1.3786  -1.3753  -1.3711
    -1.3688  -1.3625  -1.3556  -1.3533  -1.3466  -1.3402  -1.3312  -1.3200
    -1.3185  -1.3111  -1.3091  -1.2750  -1.2676  -1.2609  -1.2528  -1.2490
    -1.2478  -1.2348  -1.2204  -1.2127  -1.1843  -1.1799  -1.1754  -1.1723
    -1.1671  -1.1551  -1.1381  -1.1342  -1.1318  -1.1289  -1.1206  -1.1024
    -1.0993  -1.0968  -1.0940  -1.0916  -1.0861  -1.0697  -1.0641  -1.0574
    -1.0538  -1.0266  -1.0149  -1.0057  -0.9996  -0.9947  -0.9851  -0.9268
    -0.9213  -0.9160  -0.9078  -0.9046  -0.8996  -0.8680  -0.8628  -0.8580
    -0.8526  -0.8509  -0.8427  -0.8411  -0.8386  -0.8226  -0.7945  -0.7891
    -0.7851  -0.7596  -0.7481  -0.7458  -0.7208  -0.7098  -0.7022  -0.7001
    -0.6978  -0.6760  -0.6745  -0.6730  -0.6637  -0.6508  -0.6460  -0.6412
    -0.6401  -0.6323  -0.6270  -0.6077  -0.6053  -0.5896  -0.5852  -0.5719
    -0.5673  -0.5536  -0.5499  -0.5484  -0.5418  -0.5300  -0.5287  -0.5280
    -0.5126  -0.5109  -0.5048  -0.5036  -0.5026  -0.4943  -0.4915  -0.4872
    -0.4825  -0.4788  -0.4660  -0.4568  -0.4555  -0.4313  -0.4220  -0.4162
    -0.4056  -0.4001  -0.3945  -0.3882  -0.3802  -0.3784  -0.3655  -0.3608
    -0.3601  -0.3563  -0.3474  -0.3397  -0.3265  -0.3193  -0.2976  -0.2946
    -0.2592  -0.2516  -0.2501  -0.2486  -0.2477  -0.2454  -0.2366  -0.2267
    -0.2241  -0.2139  -0.2102  -0.2086  -0.2016  -0.1992  -0.1920  -0.1873
    -0.1804  -0.1757  -0.1711  -0.1644  -0.1588  -0.1543  -0.1494  -0.1467
    -0.1449  -0.1413  -0.1393  -0.1321  -0.1307  -0.1275  -0.1227  -0.1189
    -0.1138  -0.1127  -0.1111  -0.1064  -0.1012  -0.0824  -0.0768  -0.0703
    -0.0645  -0.0618  -0.0569  -0.0399  -0.0343  -0.0211  -0.0133  -0.0108
    -0.0046   0.0011   0.0055   0.0099   0.0115   0.0234   0.0252   0.0329
     0.0344   0.0422   0.0576   0.0610   0.0843   0.1061   0.1199   0.1269
     0.1301   0.1327   0.1368   0.1408   0.1447   0.1503   0.1528   0.1607
     0.1650   0.1664   0.1716   0.1757   0.1800   0.1854   0.1906   0.1939
     0.1980   0.2008   0.2158   0.2187   0.2254   0.2302   0.2361   0.2471
     0.2474   0.2530   0.2607   0.2701   0.2779   0.2876   0.2962   0.3022
     0.3086   0.3123   0.3152   0.3201   0.3298   0.3328   0.3353   0.3399
     0.3430   0.3450   0.3488   0.3552   0.3712   0.3748   0.3762   0.3831
     0.3868   0.4004   0.4236   0.4271   0.4298   0.4308   0.4470   0.4514
     0.4527   0.4595   0.4630   0.4680   0.4731   0.4758   0.4801   0.4820
     0.4860   0.4969   0.5013   0.5036   0.5063   0.5112   0.5144   0.5207
     0.5236   0.5264   0.5275   0.5338   0.5367   0.5422   0.5456   0.5482
     0.5519   0.5558   0.5596   0.5611   0.5661   0.5678   0.5708   0.5739
     0.5768   0.5821   0.5856   0.6023   0.6115   0.6133   0.6212   0.6230
     0.6271   0.6446   0.6538   0.6703   0.6779   0.6815   0.6826   0.6846
     0.6863   0.6891   0.6916   0.7058   0.7084   0.7092   0.7125   0.7141
     0.7161   0.7188   0.7291   0.7375   0.7434   0.7455   0.7541   0.7569
     0.7595   0.7649   0.7771   0.7805   0.7840   0.7893   0.8009   0.8127
     0.8176   0.8205   0.8226   0.8246   0.8290   0.8368   0.8412   0.8503
     0.8567   0.8585   0.8689   0.8713   0.8783   0.8861   0.8933   0.9012
     0.9067   0.9161   0.9298   0.9327   0.9402   0.9434   0.9444   0.9448
     0.9469   0.9481   0.9491   0.9514   0.9547   0.9595   0.9613   0.9646
     0.9675   0.9751   0.9788   0.9832   0.9870   0.9940   1.0068   1.0154
     1.0174   1.0222   1.0260   1.0271   1.0325   1.0345   1.0361   1.0414
     1.0434   1.0476   1.0506   1.0514   1.0561   1.0573   1.0613   1.0634
     1.0694   1.0742   1.0758   1.0782   1.0812   1.0834   1.0859   1.0898
     1.0956   1.1079   1.1102   1.1141   1.1258   1.1265   1.1291   1.1343
     1.1380   1.1443   1.1521   1.1564   1.1610   1.1657   1.1679   1.1771
     1.1790   1.1851   1.1861   1.1890   1.1918   1.1939   1.2018   1.2040
     1.2086   1.2114   1.2137   1.2179   1.2257   1.2311   1.2335   1.2374
     1.2380   1.2394   1.2414   1.2446   1.2508   1.2527   1.2537   1.2576
     1.2607   1.2635   1.2676   1.2746   1.2785   1.2886   1.2908   1.2933
     1.2947   1.2978   1.2997   1.3016   1.3033   1.3093   1.3105   1.3125
     1.3140   1.3331   1.3342   1.3357   1.3418   1.3528   1.3572   1.3602
     1.3665   1.3756   1.3794   1.3852   1.4034   1.4074   1.4089   1.4146
     1.4166   1.4339   1.4504   1.4690   1.5153   1.5240   1.5444   1.5585
     1.6067   1.6103   1.6143   1.6322   1.6464   1.6552   1.6758   1.7165
     1.7509   1.7762   1.9752   1.9819   2.0082   2.0137   2.1212   2.1497
     2.4250   2.4416   2.5213   2.5871   2.6024   2.6240   2.6500   2.6562
     2.6627   2.6830   2.7065   2.7651   2.8381   2.8794   2.9388   2.9908
     3.3881   3.4220   3.4346   3.4605   3.5504   3.5907   3.6504   3.7017
     3.7037   3.7360   3.8356   3.8452   3.9212   3.9399   4.0139   4.0198
     4.1923   4.2359   4.2501   4.3251   4.3495   4.4264   4.5194   4.5392
     4.5878   4.7442   4.7875   4.9097   4.9832   5.0198   5.0933   5.1328
     5.1810   5.2353   5.2750   5.3102   5.3376   5.3882   5.5245   5.6138
     5.6359   5.6945   5.7327   5.7737   5.8619   6.0278   6.2121   6.3217
     6.4111   6.4482   6.4569   6.5082   6.5864   6.6356   6.6764   6.7372
     6.7937   6.8825   6.9304   6.9614   6.9677   7.0022   7.0210   7.0616
     7.0905   7.1117   7.1794   7.2097   7.2623   7.2672   7.2877   7.2927
     7.3803   7.5034   7.5648   7.6141   7.6406   7.7247   7.7504   7.8371
     7.8455   7.9271   7.9514   8.0327   8.0513   8.0832   8.1511   8.2864
     8.3327   8.3704   8.4015   8.4286   8.4812   8.5026   8.5298   8.5559
     8.5754   8.6074   8.6242   8.6937   8.7305   8.7912   8.8440   8.8670
     8.8951   8.9440   8.9615   8.9980   9.0347   9.0603   9.0844   9.0999
     9.1182   9.1282   9.1642   9.2011   9.2251   9.2469   9.2670   9.3201
     9.3619

          k =-0.5000 0.0000 0.0000 (256496 PWs)   bands (ev):

   -20.5573 -18.0159 -15.7520 -15.7285 -15.1757 -15.1419 -14.2592 -14.2371
   -13.0990 -12.9928 -11.9374 -11.9338 -11.7795 -11.5807 -11.4632 -11.4559
   -10.5903 -10.3351  -9.6718  -9.2443  -9.1011  -8.9706  -8.4633  -8.1039
    -7.9570  -7.2219  -7.0918  -5.8311  -5.5004  -5.4451  -5.4371  -5.3574
    -5.3376  -5.1333  -4.9495  -4.9420  -4.9375  -4.9352  -4.9316  -4.8559
    -4.5981  -4.5868  -4.4818  -4.4732  -4.3081  -4.2826  -4.1334  -4.0974
    -4.0723  -4.0263  -3.9825  -3.9605  -3.8187  -3.7623  -3.6377  -3.6044
    -3.5626  -3.5603  -3.5593  -3.5498  -3.5351  -3.4397  -3.3917  -3.3517
    -3.3479  -3.0281  -2.9035  -2.8828  -2.7885  -2.7831  -2.7733  -2.7423
    -2.6272  -2.5424  -2.5089  -2.4720  -2.4252  -2.4182  -2.3998  -2.3686
    -2.2461  -2.1346  -2.0205  -2.0168  -2.0160  -2.0148  -2.0127  -2.0105
    -1.9553  -1.9477  -1.8830  -1.8679  -1.7911  -1.7896  -1.7893  -1.7872
    -1.7648  -1.7409  -1.7389  -1.7365  -1.7342  -1.6402  -1.6376  -1.6288
    -1.6267  -1.6202  -1.5874  -1.5728  -1.5584  -1.5563  -1.5483  -1.5465
    -1.5128  -1.5040  -1.4990  -1.4974  -1.4921  -1.4861  -1.4829  -1.4820
    -1.4795  -1.4770  -1.4397  -1.4380  -1.4353  -1.4324  -1.4092  -1.4069
    -1.4029  -1.4006  -1.3762  -1.3697  -1.3421  -1.3405  -1.3252  -1.3210
    -1.3181  -1.3155  -1.3041  -1.2884  -1.2822  -1.2781  -1.2748  -1.2709
    -1.2506  -1.2463  -1.2444  -1.2419  -1.2234  -1.2217  -1.2158  -1.1945
    -1.1912  -1.1814  -1.1690  -1.1497  -1.1456  -1.1289  -1.1217  -1.1179
    -1.1158  -1.1134  -1.0898  -1.0886  -1.0855  -1.0783  -1.0758  -1.0742
    -1.0670  -1.0637  -1.0577  -1.0515  -1.0446  -1.0388  -0.9933  -0.9817
    -0.9787  -0.9768  -0.9746  -0.9725  -0.9343  -0.9305  -0.9246  -0.8507
    -0.8482  -0.8464  -0.8427  -0.8160  -0.8140  -0.8119  -0.8103  -0.8032
    -0.8026  -0.7815  -0.7771  -0.7715  -0.7666  -0.7547  -0.7503  -0.7472
    -0.7452  -0.7428  -0.7397  -0.7168  -0.7146  -0.6978  -0.6943  -0.6100
    -0.6078  -0.6008  -0.5980  -0.5956  -0.5902  -0.5765  -0.5718  -0.5645
    -0.5595  -0.5526  -0.5465  -0.5392  -0.5350  -0.5156  -0.5142  -0.5099
    -0.5088  -0.4916  -0.4880  -0.4741  -0.4717  -0.4695  -0.4664  -0.4554
    -0.4479  -0.4387  -0.4373  -0.4333  -0.4311  -0.4227  -0.4215  -0.4149
    -0.4109  -0.3906  -0.3876  -0.3865  -0.3856  -0.3559  -0.3541  -0.3477
    -0.3431  -0.2835  -0.2811  -0.2785  -0.2767  -0.2716  -0.2699  -0.2688
    -0.2649  -0.2409  -0.2353  -0.2273  -0.2187  -0.2002  -0.1971  -0.1753
    -0.1728  -0.1698  -0.1689  -0.1681  -0.1642  -0.1634  -0.1608  -0.1603
    -0.1601  -0.1581  -0.1551  -0.1132  -0.1035  -0.0944  -0.0908  -0.0892
    -0.0836  -0.0747  -0.0707  -0.0694  -0.0690  -0.0636  -0.0614  -0.0596
    -0.0578  -0.0566  -0.0530  -0.0510  -0.0500  -0.0410  -0.0405  -0.0369
    -0.0286  -0.0277  -0.0262  -0.0259  -0.0224  -0.0217  -0.0182  -0.0154
    -0.0141  -0.0130  -0.0091  -0.0039   0.0017   0.0049   0.0090   0.0118
     0.0130   0.0153   0.0243   0.0275   0.0431   0.0507   0.0659   0.1125
     0.1317   0.1362   0.1415   0.1528   0.1691   0.1737   0.1773   0.1781
     0.1849   0.1882   0.1883   0.1914   0.1946   0.1956   0.2023   0.2040
     0.2099   0.2130   0.2175   0.2204   0.2213   0.2222   0.2228   0.2306
     0.2346   0.2368   0.2379   0.2416   0.2470   0.2549   0.2591   0.2614
     0.2631   0.2652   0.2750   0.2905   0.3217   0.3311   0.3487   0.3504
     0.3535   0.3553   0.3710   0.3737   0.3754   0.3785   0.3805   0.3826
     0.3853   0.3883   0.3905   0.3918   0.3938   0.3960   0.4002   0.4032
     0.4046   0.4069   0.4127   0.4191   0.4258   0.4347   0.4402   0.4424
     0.4500   0.4553   0.4600   0.4660   0.4777   0.4840   0.4890   0.4926
     0.4932   0.4942   0.4963   0.5026   0.5041   0.5054   0.5080   0.5109
     0.5195   0.5221   0.5264   0.5272   0.5387   0.5457   0.5544   0.5645
     0.5683   0.5687   0.5701   0.5731   0.5765   0.5849   0.5949   0.6042
     0.6109   0.6165   0.6202   0.6265   0.6492   0.6585   0.6646   0.6719
     0.6776   0.6882   0.6939   0.6946   0.6959   0.6966   0.7000   0.7025
     0.7074   0.7121   0.7126   0.7241   0.7274   0.7379   0.7408   0.7445
     0.7475   0.7504   0.7526   0.7619   0.7634   0.7638   0.7676   0.7690
     0.7787   0.7844   0.7993   0.8092   0.8143   0.8174   0.8452   0.8518
     0.8667   0.8680   0.8742   0.8772   0.8788   0.8885   0.8983   0.9008
     0.9068   0.9100   0.9201   0.9284   0.9342   0.9368   0.9404   0.9454
     0.9576   0.9631   0.9675   0.9695   0.9731   0.9740   0.9780   0.9787
     0.9816   0.9825   0.9877   0.9887   0.9899   0.9917   0.9944   0.9948
     1.0011   1.0034   1.0081   1.0266   1.0304   1.0323   1.0327   1.0331
     1.0419   1.0491   1.0526   1.0633   1.0670   1.0679   1.0699   1.0758
     1.0867   1.0897   1.0946   1.0976   1.1001   1.1004   1.1018   1.1042
     1.1075   1.1126   1.1165   1.1215   1.1260   1.1383   1.1489   1.1518
     1.1578   1.1627   1.1700   1.1728   1.1733   1.1752   1.1768   1.1770
     1.1813   1.1824   1.1845   1.1861   1.1888   1.1909   1.1918   1.1922
     1.1936   1.1957   1.1961   1.1971   1.2012   1.2034   1.2047   1.2078
     1.2161   1.2223   1.2236   1.2321   1.2386   1.2406   1.2464   1.2519
     1.2572   1.2586   1.2703   1.2725   1.2728   1.2748   1.2794   1.2849
     1.2879   1.2902   1.2952   1.2960   1.3012   1.3043   1.3054   1.3193
     1.3237   1.3272   1.3285   1.3294   1.3321   1.3354   1.3375   1.3413
     1.3494   1.3537   1.3577   1.3671   1.3690   1.3701   1.3708   1.3709
     1.3744   1.3809   1.3894   1.3934   1.4264   1.4339   1.4401   1.4476
     1.4630   1.4652   1.4669   1.4687   1.8756   1.8822   1.8841   1.9263
     2.0419   2.0571   2.1177   2.1337   2.1388   2.1443   2.1452   2.1613
     2.3835   2.4271   2.4417   2.5075   2.5779   2.6736   2.6831   2.6917
     2.6966   2.7133   3.0380   3.0408   3.0613   3.0693   3.3423   3.3622
     3.5272   3.5602   3.5937   3.6660   3.7518   3.7617   3.7816   3.7877
     3.9162   3.9185   3.9537   3.9668   4.0258   4.0972   4.3856   4.4625
     4.5298   4.5810   4.6099   4.6442   4.6758   4.6847   4.7247   4.7573
     4.7699   4.8282   4.8551   4.8652   4.8740   4.8833   4.9120   4.9231
     4.9344   4.9610   5.0039   5.0797   5.1995   5.2226   5.3132   5.3386
     5.3655   5.4282   5.4684   5.4921   5.5475   5.7993   5.8315   5.8438
     5.8553   5.9051   5.9214   5.9479   6.0296   6.1235   6.1818   6.3957
     6.4587   6.5081   6.6754   6.8994   6.9503   6.9775   6.9983   7.0375
     7.0596   7.3691   7.3772   7.4352   7.4381   7.4509   7.4571   7.4682
     7.5008   7.5485   7.6397   7.6774   7.6875   7.6996   7.7109   7.7416
     7.7610   7.7814   7.8150   7.8288   7.8480   7.8946   7.9273   7.9792
     8.0193   8.0732   8.1377   8.1598   8.1642   8.2177   8.2209   8.5335
     8.5487   8.5772   8.6149   8.6474   8.6683   8.6816   8.6999   8.7808
     8.8007   8.8161   8.8613   8.8702   8.9098   8.9190   8.9897   9.1116
     9.1189   9.1385   9.1681   9.2123   9.2485   9.3060   9.4103   9.4412
     9.4544

          k =-0.5000-0.2165 0.0000 (256328 PWs)   bands (ev):

   -20.5573 -18.0159 -15.7520 -15.7285 -15.1757 -15.1419 -14.2593 -14.2371
   -13.0987 -12.9928 -11.9374 -11.9338 -11.7800 -11.5808 -11.4632 -11.4559
   -10.5900 -10.3351  -9.6707  -9.2442  -9.1005  -8.9706  -8.4671  -8.1041
    -7.9580  -7.2221  -7.0856  -5.8302  -5.5032  -5.3750  -5.3420  -5.3254
    -5.3233  -5.2980  -5.2919  -5.1268  -4.9474  -4.8563  -4.5937  -4.5709
    -4.4635  -4.4405  -4.3731  -4.3503  -4.3414  -4.3271  -4.3093  -4.2996
    -4.2421  -4.2261  -4.0177  -3.9828  -3.9358  -3.9133  -3.6973  -3.6724
    -3.5953  -3.5610  -3.5484  -3.4243  -3.4044  -3.3707  -3.3399  -3.2635
    -3.1956  -3.0215  -2.7512  -2.7393  -2.7171  -2.7143  -2.7034  -2.6947
    -2.6853  -2.6671  -2.6197  -2.5679  -2.5207  -2.4476  -2.2557  -2.2250
    -2.2214  -2.2115  -2.2050  -2.1664  -2.1599  -2.1354  -2.0887  -2.0712
    -1.9472  -1.9415  -1.9366  -1.9293  -1.7805  -1.7711  -1.7633  -1.7177
    -1.7154  -1.6698  -1.6366  -1.6335  -1.6302  -1.6272  -1.6084  -1.5871
    -1.5818  -1.5809  -1.5752  -1.5746  -1.5707  -1.5645  -1.5302  -1.5270
    -1.5231  -1.5186  -1.5180  -1.5146  -1.5061  -1.5033  -1.4997  -1.4978
    -1.4967  -1.4943  -1.4488  -1.4469  -1.4450  -1.4429  -1.4167  -1.3895
    -1.3774  -1.3733  -1.3686  -1.3620  -1.3296  -1.3284  -1.3278  -1.3267
    -1.3124  -1.3085  -1.2969  -1.2884  -1.2741  -1.2707  -1.2635  -1.2614
    -1.2589  -1.2579  -1.2555  -1.2519  -1.2514  -1.2458  -1.2195  -1.2024
    -1.1990  -1.1883  -1.1859  -1.1845  -1.1817  -1.1797  -1.1769  -1.1743
    -1.1709  -1.1689  -1.1615  -1.1528  -1.1285  -1.0919  -1.0290  -1.0268
    -1.0188  -1.0133  -0.9913  -0.9898  -0.9891  -0.9884  -0.9687  -0.9268
    -0.9146  -0.9111  -0.9085  -0.9028  -0.9023  -0.8999  -0.8967  -0.8961
    -0.8875  -0.8720  -0.8688  -0.8409  -0.8407  -0.8358  -0.8320  -0.8311
    -0.8246  -0.8188  -0.8145  -0.8072  -0.8047  -0.7948  -0.7844  -0.7292
    -0.7273  -0.7148  -0.7123  -0.6905  -0.6826  -0.6771  -0.6747  -0.6449
    -0.6403  -0.6353  -0.6285  -0.5901  -0.5887  -0.5877  -0.5862  -0.5728
    -0.5720  -0.5656  -0.5616  -0.5491  -0.5448  -0.5329  -0.5313  -0.5297
    -0.5294  -0.5269  -0.5234  -0.4848  -0.4736  -0.4653  -0.4560  -0.4201
    -0.4182  -0.4066  -0.4055  -0.3974  -0.3968  -0.3919  -0.3914  -0.3826
    -0.3816  -0.3782  -0.3740  -0.3189  -0.3147  -0.3025  -0.3011  -0.2973
    -0.2947  -0.2924  -0.2910  -0.2903  -0.2882  -0.2856  -0.2804  -0.2565
    -0.2559  -0.2543  -0.2517  -0.2468  -0.2439  -0.2415  -0.2405  -0.2358
    -0.2328  -0.2321  -0.2300  -0.1804  -0.1748  -0.1698  -0.1686  -0.1552
    -0.1510  -0.1426  -0.1326  -0.1171  -0.1016  -0.0926  -0.0859  -0.0840
    -0.0784  -0.0768  -0.0674  -0.0631  -0.0621  -0.0611  -0.0555  -0.0537
    -0.0513  -0.0497  -0.0468  -0.0439  -0.0417  -0.0393  -0.0384  -0.0369
    -0.0357  -0.0348  -0.0339  -0.0319  -0.0270  -0.0229  -0.0208  -0.0160
    -0.0147   0.0009   0.0062   0.0078   0.0085   0.0106   0.0171   0.0205
     0.0246   0.0292   0.0403   0.0483   0.0508   0.0673   0.0711   0.0749
     0.0770   0.1027   0.1051   0.1073   0.1077   0.1354   0.1718   0.1763
     0.1816   0.1853   0.1867   0.1921   0.2007   0.2034   0.2061   0.2111
     0.2140   0.2176   0.2207   0.2242   0.2256   0.2301   0.2339   0.2346
     0.2350   0.2366   0.2383   0.2436   0.2488   0.2578   0.2890   0.2932
     0.3045   0.3066   0.3123   0.3137   0.3177   0.3204   0.3213   0.3218
     0.3239   0.3392   0.3488   0.3546   0.3574   0.3584   0.3636   0.3677
     0.3697   0.3705   0.3837   0.3930   0.4023   0.4068   0.4092   0.4104
     0.4125   0.4172   0.4225   0.4234   0.4242   0.4261   0.4310   0.4335
     0.4367   0.4380   0.4407   0.4453   0.4464   0.4544   0.4625   0.4652
     0.4771   0.4780   0.4916   0.5026   0.5051   0.5170   0.5242   0.5278
     0.5374   0.5385   0.5441   0.5454   0.5467   0.5498   0.5535   0.5579
     0.5648   0.5725   0.5804   0.5816   0.5844   0.5855   0.5862   0.5882
     0.5896   0.5954   0.6077   0.6276   0.6373   0.6389   0.6453   0.6529
     0.6665   0.6681   0.6724   0.6734   0.6789   0.6930   0.7008   0.7011
     0.7059   0.7122   0.7300   0.7359   0.7408   0.7445   0.7816   0.7828
     0.7841   0.7864   0.8021   0.8053   0.8119   0.8132   0.8187   0.8236
     0.8333   0.8449   0.8539   0.8588   0.8626   0.8690   0.8744   0.8775
     0.8867   0.8915   0.8952   0.8987   0.8998   0.9004   0.9008   0.9020
     0.9031   0.9037   0.9059   0.9077   0.9088   0.9153   0.9188   0.9234
     0.9296   0.9323   0.9357   0.9389   0.9433   0.9460   0.9509   0.9535
     0.9573   0.9605   0.9670   0.9688   0.9742   0.9777   0.9834   0.9885
     0.9911   0.9949   0.9985   1.0001   1.0048   1.0073   1.0292   1.0361
     1.0410   1.0434   1.0455   1.0476   1.0503   1.0509   1.0625   1.0713
     1.0754   1.0800   1.0813   1.0835   1.1018   1.1053   1.1121   1.1147
     1.1181   1.1210   1.1229   1.1256   1.1294   1.1345   1.1370   1.1408
     1.1413   1.1422   1.1446   1.1461   1.1490   1.1524   1.1752   1.1870
     1.1921   1.1967   1.1980   1.2023   1.2040   1.2069   1.2085   1.2118
     1.2131   1.2132   1.2156   1.2209   1.2240   1.2280   1.2340   1.2378
     1.2423   1.2430   1.2439   1.2467   1.2478   1.2495   1.2498   1.2546
     1.2550   1.2562   1.2590   1.2606   1.2650   1.2674   1.2714   1.2782
     1.2801   1.2819   1.2987   1.3064   1.3107   1.3107   1.3186   1.3199
     1.3229   1.3306   1.3319   1.3342   1.3390   1.3433   1.3453   1.3568
     1.3608   1.3640   1.3798   1.3861   1.4052   1.4223   1.4259   1.4286
     1.4296   1.4320   1.4513   1.4539   1.4586   1.4623   1.4662   1.4703
     1.4728   1.4743   1.4777   1.4843   1.5183   1.5357   1.6851   1.6947
     1.6950   1.7047   2.1455   2.1913   2.2105   2.2392   2.3206   2.3490
     2.4187   2.4233   2.5374   2.6102   2.6331   2.6552   2.6628   2.6965
     2.9230   2.9331   2.9832   3.0527   3.3010   3.3093   3.3112   3.3135
     3.4903   3.4993   3.5280   3.5462   3.7862   3.7891   3.7920   3.7956
     4.0117   4.0453   4.0549   4.0821   4.0887   4.1316   4.2161   4.2450
     4.2971   4.3710   4.3855   4.4268   4.4655   4.4970   4.5349   4.5539
     4.6275   4.7669   4.7898   4.8950   4.9722   4.9953   5.0041   5.0277
     5.0364   5.0747   5.0896   5.1224   5.1384   5.1985   5.2381   5.2812
[...]
     4.2504   4.2628   4.2925   4.3237   4.4943   4.5273   4.5281   4.5530
     4.6914   4.8417   4.8557   4.8942   4.9169   4.9417   4.9575   4.9630
     4.9711   4.9796   5.0001   5.0069   5.0553   5.1002   5.1034   5.2251
     5.3353   5.3879   5.4567   5.5367   5.5616   5.5752   5.6236   5.6326
     5.6569   5.6821   5.7639   6.5597   6.5626   6.6298   6.6802   6.7188
     6.7647   6.7748   6.7941   6.8160   6.8282   6.8323   6.8754   6.8903
     6.9069   6.9178   6.9606   7.0053   7.0683   7.1360   7.1489   7.1519
     7.1529   7.1713   7.2067   7.2522   7.3192   7.5050   7.5537   7.6539
     7.6717   7.7420   7.7850   7.8044   7.8352   8.0069   8.0223   8.0707
     8.0876   8.1224   8.2148   8.3393   8.3415   8.3696   8.4143   8.4909
     8.4997   8.5103   8.5248   8.6199   8.6546   8.6634   8.6798   8.6828
     8.6851   8.8257   8.8493   8.8579   8.8766   8.8897   8.8927   8.9296
     8.9477   8.9807   9.0417   9.0489   9.1179   9.1686   9.1720   9.2084
     9.2447

     the Fermi energy is     3.1538 ev

!    total energy              =  -12572.76238881 Ry
     Harris-Foulkes estimate   =  -12572.76238884 Ry
     estimated scf accuracy    <          4.7E-09 Ry

     The total energy is the sum of the following terms:

     one-electron contribution = -103916.32153382 Ry
     hartree contribution      =   53298.78210605 Ry
     xc contribution           =   -4403.67884445 Ry
     ewald contribution        =   42451.82057816 Ry
     smearing contrib. (-TS)   =      -3.36469474 Ry

     convergence has been achieved in  20 iterations

     negative rho (up, down):  1.959E-03 0.000E+00

     Forces acting on atoms (Ry/au):

     atom    1 type  1   force =     0.00000522   -0.00000306   -0.00211159
     atom    2 type  1   force =    -0.00011935    0.00047721   -0.00154673
     atom    3 type  1   force =    -0.00023584    0.00010363   -0.00235530
     atom    4 type  1   force =    -0.00015255    0.00032294   -0.00159282
     atom    5 type  1   force =    -0.00023211    0.00016643   -0.00062792
     atom    6 type  1   force =    -0.00014838   -0.00062253   -0.00028886
     atom    7 type  1   force =    -0.00004746    0.00000118   -0.00111206
     atom    8 type  1   force =    -0.00010812   -0.00057968   -0.00062634
     atom    9 type  1   force =    -0.00002796   -0.00076066   -0.00090977
     atom   10 type  1   force =    -0.00013148   -0.00035615   -0.00193397
     atom   11 type  1   force =    -0.00020536   -0.00088895   -0.00070068
     atom   12 type  1   force =    -0.00005584   -0.00042204   -0.00167081
     atom   13 type  1   force =    -0.00004825    0.00020381   -0.00204844
     atom   14 type  1   force =    -0.00006296    0.00017364   -0.00188403
     atom   15 type  1   force =    -0.00010845    0.00010938   -0.00190591
     atom   16 type  1   force =    -0.00011583    0.00022055   -0.00190622
     atom   17 type  1   force =    -0.00016909   -0.00028852   -0.00206974
     atom   18 type  1   force =    -0.00018410   -0.00040192   -0.00257758
     atom   19 type  1   force =    -0.00002703   -0.00000413   -0.00216819
     atom   20 type  1   force =    -0.00001884   -0.00018648   -0.00220071
     atom   21 type  1   force =    -0.00012694   -0.00044790    0.00199550
     atom   22 type  1   force =    -0.00004969    0.00090982    0.00118509
     atom   23 type  1   force =    -0.00009162   -0.00007030    0.00237108
     atom   24 type  1   force =    -0.00011880    0.00026294    0.00185027
     atom   25 type  1   force =    -0.00000442    0.00030575    0.00184185
     atom   26 type  1   force =     0.00008881   -0.00032373    0.00213815
     atom   27 type  1   force =    -0.00014729   -0.00016161    0.00247269
     atom   28 type  1   force =    -0.00033571   -0.00017319    0.00220921
     atom   29 type  1   force =    -0.00000543   -0.00079460    0.00192357
     atom   30 type  1   force =    -0.00000416   -0.00044795    0.00239577
     atom   31 type  1   force =    -0.00000134   -0.00055097    0.00127935
     atom   32 type  1   force =    -0.00007110   -0.00034014    0.00205361
     atom   33 type  1   force =     0.00014125   -0.00029276    0.00198496
     atom   34 type  1   force =    -0.00001465    0.00027497    0.00222589
     atom   35 type  1   force =    -0.00010120   -0.00032371    0.00207192
     atom   36 type  1   force =     0.00002300   -0.00009417    0.00203442
     atom   37 type  1   force =    -0.00034119    0.00071872    0.00172650
     atom   38 type  1   force =     0.00003375   -0.00062821    0.00143813
     atom   39 type  1   force =     0.00021901    0.00051995    0.00117600
     atom   40 type  1   force =    -0.00003726   -0.00010176    0.00159177
     atom   41 type  1   force =    -0.00045497    0.00065223    0.00198717
     atom   42 type  1   force =     0.00025923    0.00261844    0.00195922
     atom   43 type  1   force =     0.00045543   -0.00023340    0.00134574
     atom   44 type  1   force =    -0.00026873    0.00337907    0.00177765
     atom   45 type  1   force =     0.00002773    0.00303814    0.00068275
     atom   46 type  1   force =     0.00016454   -0.00089640    0.00122058
     atom   47 type  1   force =    -0.00000398    0.00216298    0.00277864
     atom   48 type  1   force =     0.00000242   -0.00109868    0.00196271
     atom   49 type  1   force =     0.00018603   -0.00296494    0.00165540
     atom   50 type  1   force =     0.00029264   -0.00168266    0.00176805
     atom   51 type  1   force =    -0.00000862   -0.00191116    0.00132622
     atom   52 type  1   force =    -0.00012981   -0.00122689    0.00095754
     atom   53 type  1   force =    -0.00038365    0.00031182    0.00139714
     atom   54 type  1   force =     0.00040533    0.00194687    0.00376082
     atom   55 type  1   force =     0.00039927    0.00036486    0.00229058
     atom   56 type  1   force =    -0.00028261    0.00164100    0.00507443
     atom   57 type  1   force =     0.00000778    0.00017184    0.00381733
     atom   58 type  1   force =     0.00027632   -0.00155066    0.00232901
     atom   59 type  1   force =     0.00024495    0.00008099    0.00479812
     atom   60 type  1   force =    -0.00003066   -0.00253321    0.00297605
     atom   61 type  1   force =     0.00056707   -0.00102635   -0.00390686
     atom   62 type  1   force =    -0.00105732    0.00173575   -0.00114801
     atom   63 type  1   force =    -0.00003280    0.00070184   -0.00266751
     atom   64 type  1   force =     0.00166353    0.00363799   -0.00114453
     atom   65 type  1   force =    -0.00015198    0.00271490   -0.00363829
     atom   66 type  1   force =     0.00241982   -0.00001497   -0.00400174
     atom   67 type  1   force =     0.00008403    0.00053034   -0.00422279
     atom   68 type  1   force =    -0.00205075    0.00005948   -0.00373576
     atom   69 type  1   force =     0.00006241   -0.00117539   -0.00259758
     atom   70 type  1   force =    -0.00082333   -0.00023550   -0.00324392
     atom   71 type  1   force =    -0.00026305   -0.00224964   -0.00214570
     atom   72 type  1   force =     0.00067897   -0.00090839   -0.00238939
     atom   73 type  1   force =     0.00182342   -0.00070121   -0.00154998
     atom   74 type  1   force =    -0.00026217    0.00076933   -0.00190156
     atom   75 type  1   force =    -0.00228530   -0.00011487    0.00003427
     atom   76 type  1   force =    -0.00029627   -0.00007106   -0.00206008
     atom   77 type  1   force =     0.00045539    0.00189873   -0.00390205
     atom   78 type  1   force =    -0.00005990   -0.00650161    0.00136680
     atom   79 type  1   force =    -0.00041752    0.00394139    0.00011070
     atom   80 type  1   force =    -0.00081504   -0.00174976   -0.00495770
     atom   81 type  1   force =     0.00011905   -0.00026217   -0.00413409
     atom   82 type  1   force =     0.00182938   -0.00082613    0.00213863
     atom   83 type  1   force =     0.00007148    0.00026874   -0.00570951
     atom   84 type  1   force =    -0.00117415   -0.00090205    0.00213687
     atom   85 type  1   force =     0.00017128   -0.00175567   -0.00340875
     atom   86 type  1   force =     0.00137146    0.00014347    0.00168685
     atom   87 type  1   force =     0.00016999   -0.00149324   -0.00047021
     atom   88 type  1   force =    -0.00187965    0.00023933    0.00085346
     atom   89 type  1   force =     0.00061870    0.00109017    0.00197672
     atom   90 type  1   force =    -0.00007111    0.00107424   -0.00385397
     atom   91 type  1   force =    -0.00092361    0.00099500    0.00057044
     atom   92 type  1   force =     0.00060031    0.00219110   -0.00672151
     atom   93 type  1   force =     0.00035518   -0.00052636   -0.00258857
     atom   94 type  1   force =    -0.00148843   -0.00079549    0.00271085
     atom   95 type  1   force =    -0.00061685    0.00048475    0.00081559
     atom   96 type  1   force =     0.00167189   -0.00052886   -0.00525915
     atom   97 type  1   force =     0.00290663   -0.00164428   -0.00016680
     atom   98 type  1   force =    -0.00038329    0.00031961   -0.00401281
     atom   99 type  1   force =    -0.00283098   -0.00251575   -0.00231770
     atom  100 type  1   force =    -0.00018787    0.00038187   -0.00302942
     atom  101 type  3   force =     0.00080683    0.00230402   -0.00051135
     atom  102 type  3   force =    -0.00343357    0.00344682    0.00318443
     atom  103 type  3   force =     0.00136405    0.00251191   -0.00113686
     atom  104 type  3   force =     0.00284163    0.00166812    0.00134698
     atom  105 type  3   force =    -0.00159855   -0.00030187    0.00609719
     atom  106 type  3   force =     0.00281298    0.00210539    0.00034839
     atom  107 type  3   force =     0.00161838    0.00190868    0.00397719
     atom  108 type  3   force =    -0.00236701    0.00226834   -0.00435335
     atom  109 type  3   force =     0.00244073   -0.00050649    0.00819380
     atom  110 type  3   force =     0.00062425    0.00410808    0.00323532
     atom  111 type  3   force =    -0.00299865    0.00354759   -0.00090397
     atom  112 type  3   force =     0.00247423    0.00218913    0.00182813
     atom  113 type  3   force =     0.00339949   -0.00156378   -0.00235667
     atom  114 type  3   force =    -0.00201666   -0.00338915    0.00069192
     atom  115 type  3   force =    -0.00301219    0.00161160   -0.00047832
     atom  116 type  3   force =     0.00162937   -0.00171823    0.00146890
     atom  117 type  3   force =     0.00060546    0.00169698    0.00223103
     atom  118 type  3   force =    -0.00219715   -0.00024849    0.00494847
     atom  119 type  3   force =     0.00260177    0.00260828   -0.00192629
     atom  120 type  3   force =    -0.00296953   -0.00075068    0.00310308
     atom  121 type  3   force =    -0.00311359    0.00152442   -0.00139437
     atom  122 type  3   force =     0.00504950   -0.00179327   -0.00136604
     atom  123 type  3   force =    -0.00009283    0.00022003   -0.00245042
     atom  124 type  3   force =    -0.00305395   -0.00003173   -0.00174927
     atom  125 type  3   force =     0.00140181    0.00210740    0.00424859
     atom  126 type  3   force =    -0.00283766   -0.00532447    0.00288343
     atom  127 type  3   force =    -0.00141138   -0.00377321   -0.00025495
     atom  128 type  3   force =     0.00336845   -0.00361938   -0.00084561
     atom  129 type  3   force =    -0.00485763   -0.00409438    0.00311700
     atom  130 type  3   force =    -0.00095201   -0.00318438    0.00367951
     atom  131 type  5   force =     0.00097135    0.00087580   -0.00039016
     atom  132 type  5   force =    -0.00080917    0.00011242   -0.00467543
     atom  133 type  5   force =    -0.00107853   -0.00068899   -0.00107103
     atom  134 type  5   force =     0.00570393   -0.00393963    0.00045709
     atom  135 type  5   force =    -0.00462168   -0.00103142   -0.00025501
     atom  136 type  3   force =     0.00744856   -0.00245748   -0.00511565
     atom  137 type  4   force =     0.00918169    0.00612957    0.00197228
     atom  138 type  4   force =    -0.00369861   -0.00151378    0.00208011
     atom  139 type  5   force =    -0.00681256    0.00203087   -0.00296650

     Total force =     0.044481     Total SCF correction =     0.000221

     number of scf cycles    =  20
     number of bfgs steps    =  19

     energy   old            =  -12572.7593426028 Ry
     energy   new            =  -12572.7623888055 Ry

     CASE: energy  _new < energy  _old

     new trust radius        =       0.1012849141 bohr
     new conv_thr            =       0.0000000100 Ry


ATOMIC_POSITIONS (angstrom)
Cu      -0.005853387  -0.027764878   7.182667181
Cu       1.842326314   1.673194522   7.186390412
Cu       3.690933509  -0.027244295   7.183690383
Cu       5.532390936   1.685492004   7.183085849
Cu       0.002776492   3.399173791   7.189022018
Cu       1.842599159   5.126063742   7.192460292
Cu       3.682890930   3.398183415   7.191820022
Cu       5.531441267   5.117196722   7.194827692
Cu      -0.005352045   6.839129249   7.191678231
Cu       1.841407952   8.547408002   7.183098792
Cu       3.689505806   6.842466750   7.188819366
Cu       5.531007985   8.551897849   7.182532155
Cu      -0.002948493  10.251928375   7.177462803
Cu       1.841228780  11.945811135   7.181246430
Cu       3.685814178  10.250411835   7.177511876
Cu       5.530831185  11.947654576   7.179299951
Cu      -0.000002068  13.634643756   7.183172646
Cu       1.843043754  15.324120954   7.186075218
Cu       3.683507401  13.633659777   7.184998684
Cu       5.530252100  15.314445693   7.183022812
Cu      -0.002991163   1.671305220   9.024646415
Cu       1.839125775  -0.032132380   9.037271266
Cu       3.683830603   1.669739227   9.024272241
Cu       5.530157099  -0.027664422   9.026568554
Cu      -0.004885567   5.114013864   9.033682244
Cu       1.840062965   3.387017376   9.027461811
Cu       3.684634362   5.116468998   9.027743521
Cu       5.529578644   3.385179379   9.030272413
Cu      -0.005747342   8.560568905   9.029016502
Cu       1.838131004   6.846064912   9.029523790
Cu       3.684236197   8.557798728   9.031840003
Cu       5.529912109   6.844981281   9.027629805
Cu      -0.004893575  11.942898348   9.038320436
Cu       1.839072809  10.251209188   9.027940085
Cu       3.682792358  11.942604887   9.036294438
Cu       5.528004356  10.253916800   9.029426356
Cu      -0.005042603  15.317460501   9.042689335
Cu       1.838692451  13.634769476   9.047560771
Cu       3.684159661  15.320922934   9.044104389
Cu       5.528411027  13.631499730   9.046861078
Cu      -0.003621994  -0.035662818  10.956267079
Cu       1.836699176   1.643821350  10.944796078
Cu       3.674294599  -0.033310935  10.959345374
Cu       5.523014353   1.634297435  10.942877658
Cu      -0.012078022   3.352453149  10.917717527
Cu       1.834195886   5.111768907  10.905890808
Cu       3.682846451   3.356074681  10.918102461
Cu       5.526078849   5.117900374  10.907651757
Cu      -0.008101020   6.863228372  10.924619443
Cu       1.835250417   8.574931087  10.943456220
Cu       3.679782851   6.854497995  10.918301985
Cu       5.526073469   8.569923414  10.938597614
Cu      -0.005765035  10.255473752  10.960807994
Cu       1.833157303  11.934499421  10.954756545
Cu       3.678614091  10.257189358  10.953787185
Cu       5.527660308  11.934025121  10.954065851
Cu      -0.010542943  13.630768129  10.962011863
Cu       1.834814299  15.325011149  10.966280950
Cu       3.681124612  13.633457941  10.952261617
Cu       5.524481602  15.333497895  10.953951377
Cu      -0.015956928   1.654983421  12.867606882
Cu       1.846266855  -0.050238894  12.918105647
Cu       3.675898353   1.634900157  12.893261960
Cu       5.505964996  -0.055374887  12.900671459
Cu      -0.014924325   5.090849509  12.775919855
Cu       1.827607971   3.382758566  12.795686783
Cu       3.682038280   5.102570122  12.779582206
Cu       5.523873505   3.378145257  12.799320298
Cu      -0.006161808   8.560638099  12.870467750
Cu       1.835702551   6.830257244  12.804496599
Cu       3.676214185   8.547263829  12.846616285
Cu       5.522598464   6.851285270  12.814742169
Cu      -0.013997944  11.945510471  12.913061357
Cu       1.832118204  10.273651758  12.918191257
Cu       3.682040259  11.960547715  12.889332199
Cu       5.530352233  10.240165286  12.896309989
Cu      -0.009781415  15.326384987  12.907147833
Cu       1.832271670  13.631123504  12.897303487
Cu       3.675245196  15.324841239  12.914622408
Cu       5.524701625  13.645957836  12.894376746
Cu       0.003312724  -0.004610523  14.785600732
Cu       1.826979923   1.741840609  14.657618128
Cu       3.653482935  -0.027446940  14.967088457
Cu       5.518120011   1.711998164  14.657343941
Cu      -0.022929798   3.426135880  14.664298073
Cu       1.825501162   5.096766181  14.608193597
Cu       3.682557432   3.434045811  14.640759815
Cu       5.529062094   5.107616032  14.612551152
Cu      -0.011516840   6.775694600  14.612861873
Cu       1.833230348   8.486771831  14.702084892
Cu       3.677903972   6.776103636  14.631361397
Cu       5.517900582   8.483279362  14.772513283
Cu      -0.026992763  10.227380817  14.756863744
Cu       1.850318803  11.965614844  14.874456406
Cu       3.695344898  10.210522627  14.681246442
Cu       5.494958338  11.940569020  14.779106180
Cu      -0.055795375  13.635279477  14.759668873
Cu       1.818390207  15.275597657  14.782358050
Cu       3.713697583  13.664148120  14.780034301
Cu       5.532281094  15.337360383  14.780171229
C        0.014237530   0.643786806  17.795484620
C        0.014255017   2.083154658  17.897481421
C        1.242447013  -0.043742572  17.712665325
C        1.245139868   2.793340872  17.939870885
C        2.465752118   0.647604648  17.678090374
C        2.471723356   2.080920944  17.839873052
C        3.702160823  -0.034198288  17.496135239
C        3.701895643   2.792512304  17.906932469
C        4.938909907   0.650281484  17.663357490
C        4.935176824   2.083560246  17.831915272
C        6.162129363  -0.040434180  17.699787729
C        6.164554130   2.794416814  17.942645733
C        0.023321857   4.939470550  18.040212625
C        0.029022974   6.371012658  17.961497265
C        1.249066258   4.225528249  18.012988023
C        1.253439865   7.102327470  17.876715528
C        2.477287992   4.947927889  18.003648584
C        2.479609695   6.385262425  17.950441460
C        3.704046123   4.222204909  18.010467071
C        3.707034696   7.106637497  17.929352373
C        4.931344850   4.939215960  18.037594987
C        4.932691305   6.371567884  17.987358958
C        6.166063247   4.226156325  18.037461533
C        6.168372387   7.059406269  17.914742314
C       -0.004013438   9.185515590  17.605840035
C        1.241930138   8.545781258  17.722568922
C        2.477273574   9.282253428  17.758594577
C        3.717697977   8.553719673  17.830978327
C        4.959257566   9.181529494  17.663536065
C        6.168964403   8.471016148  17.718923897
H        1.234699181  -1.135702365  17.648831864
H        3.706922561  -1.125011008  17.558144878
H        6.170498040  -1.133466391  17.649051815
H       -0.078040877  10.266596117  17.511353344
H        5.043193413  10.259609408  17.550532565
C        2.444565982  10.745804012  17.698971115
O        1.594800562  11.451832882  17.076357914
O        3.440103011  11.376111610  18.400444026
H        3.412219026  12.338407235  18.179299283



     Writing output data file gc.save
     Check: negative starting charge=   -0.001967
     NEW-OLD atomic charge density approx. for the potential
     Check: negative starting charge=   -0.001951

     negative rho (up, down):  1.884E-03 0.000E+00

     total cpu time spent up to now is   153150.3 secs

     Self-consistent Calculation

     iteration #  1     ecut=    80.00 Ry     beta=0.70
     Davidson diagonalization with overlap
     c_bands:  2 eigenvalues not converged
