
     Program PWSCF v.5.4.0 starts on 20Apr2017 at 11:46:45 

     This program is part of the open-source Quantum ESPRESSO suite
     for quantum simulation of materials; please cite
         "P. Giannozzi et al., J. Phys.:Condens. Matter 21 395502 (2009);
          URL http://www.quantum-espresso.org", 
     in publications or presentations arising from this work. More details at
     http://www.quantum-espresso.org/quote

     Parallel version (MPI & OpenMP), running on      56 processor cores
     Number of MPI processes:                56
     Threads/MPI process:                     1
     R & G space division:  proc/nbgrp/npool/nimage =      56
     Waiting for input...
     Reading input from standard input
Warning: card &IONS ignored
Warning: card / ignored

     Current dimensions of program PWSCF are:
     Max number of different atomic species (ntypx) = 10
     Max number of k-points (npk) =  40000
     Max angular momentum in pseudopotentials (lmaxx) =  3

     -------------------------------------
     Parameters for Dispersion Correction:
     -------------------------------------
       atom      VdW radius       C_6     

        Cu         2.952        374.666
        C_h        2.744         60.710
        C          2.744         60.710

     Subspace diagonalization in iterative solution of the eigenvalue problem:
     one sub-group per band group will be used
     scalapack distributed-memory algorithm (size of sub-group:  5*  5 procs)

 
     Parallelization info
     --------------------
     sticks:   dense  smooth     PW     G-vecs:    dense   smooth      PW
     Min         204     204     54                36612    36612    4962
     Max         205     205     55                36617    36617    4968
     Sum       11433   11433   3039              2050409  2050409  278033
 


     bravais-lattice index     =            0
     lattice parameter (alat)  =      13.9425  a.u.
     unit-cell volume          =   21209.0878 (a.u.)^3
     number of atoms/cell      =          156
     number of atomic types    =            3
     number of electrons       =      1380.00
     number of Kohn-Sham states=          828
     kinetic-energy cutoff     =      80.0000  Ry
     charge density cutoff     =     320.0000  Ry
     convergence threshold     =      1.0E-08
     mixing beta               =       0.7000
     number of iterations used =            8  local-TF  mixing
     Exchange-correlation      =  SLA  PW   PBX  PBC ( 1  4  3  4 0 0)

     celldm(1)=  13.942539  celldm(2)=   0.000000  celldm(3)=   0.000000
     celldm(4)=   0.000000  celldm(5)=   0.000000  celldm(6)=   0.000000

     crystal axes: (cart. coord. in units of alat)
               a(1) = (   1.000000   0.000000   0.000000 )  
               a(2) = (   0.000000   2.309401   0.000000 )  
               a(3) = (   0.000000   0.000000   3.388418 )  

     reciprocal axes: (cart. coord. in units 2 pi/alat)
               b(1) = (  1.000000  0.000000  0.000000 )  
               b(2) = (  0.000000  0.433013  0.000000 )  
               b(3) = (  0.000000  0.000000  0.295123 )  


     PseudoPot. # 1 for Cu read from file:
     /home/549/hxw549/Short/pseudopotentials/Cu.pbe-n-van_ak.UPF
     MD5 check sum: 601f7c30f7467666bec936e0661ce3e1
     Pseudo is Ultrasoft + core correction, Zval = 11.0
     Generated by new atomic code, or converted to UPF format
     Using radial grid of  867 points,  6 beta functions with: 
                l(1) =   0
                l(2) =   0
                l(3) =   1
                l(4) =   1
                l(5) =   2
                l(6) =   2
     Q(r) pseudized with  8 coefficients,  rinner =    1.400   1.400   1.400
                                                       1.400   1.400

     PseudoPot. # 2 for C  read from file:
     /home/549/hxw549/Short/pseudopotentials/C.star1s-pbe-mt_gipaw.UPF
     MD5 check sum: ef0cb3dee31bd9e4ba2a832a2c716264
     Pseudo is Norm-conserving, Zval =  5.0
     Generated by new atomic code, or converted to UPF format
     Using radial grid of 1073 points,  1 beta functions with: 
                l(1) =   0

     PseudoPot. # 3 for C  read from file:
     /home/549/hxw549/Short/pseudopotentials/C.pbe-mt_gipaw.UPF
     MD5 check sum: 5ac2f21f2c440b14befe521540822c15
     Pseudo is Norm-conserving, Zval =  4.0
     Generated by new atomic code, or converted to UPF format
     Using radial grid of 1073 points,  1 beta functions with: 
                l(1) =   0

     atomic species   valence    mass     pseudopotential
        Cu            11.00    63.54600     Cu( 1.00)
        C_h            5.00    12.01070     C ( 1.00)
        C              4.00    12.01070     C ( 1.00)

     No symmetry found



   Cartesian axes

     site n.     atom                  positions (alat units)
         1           Cu  tau(   1) = (  -0.0000549   0.0038944   0.8895039  )
         2           Cu  tau(   2) = (   0.2498561   0.2364069   0.8931545  )
         3           Cu  tau(   3) = (   0.4999834   0.0040272   0.8891076  )
         4           Cu  tau(   4) = (   0.7500655   0.2365774   0.8930538  )
         5           Cu  tau(   5) = (  -0.0000562   0.4680485   0.8986857  )
         6           Cu  tau(   6) = (   0.2499204   0.6979601   0.9023997  )
         7           Cu  tau(   7) = (   0.4999770   0.4680600   0.8986438  )
         8           Cu  tau(   8) = (   0.7499919   0.6979170   0.9024188  )
         9           Cu  tau(   9) = (  -0.0000103   0.9272203   0.9035556  )
        10           Cu  tau(  10) = (   0.2499589   1.1564729   0.9037066  )
        11           Cu  tau(  11) = (   0.4999145   0.9271629   0.9034395  )
        12           Cu  tau(  12) = (   0.7499463   1.1564243   0.9036188  )
        13           Cu  tau(  13) = (  -0.0001139   1.3860246   0.9027183  )
        14           Cu  tau(  14) = (   0.2498801   1.6163418   0.8986746  )
        15           Cu  tau(  15) = (   0.5000280   1.3859803   0.9024834  )
        16           Cu  tau(  16) = (   0.7500312   1.6160597   0.8985479  )
        17           Cu  tau(  17) = (   0.0000423   1.8478793   0.8927838  )
        18           Cu  tau(  18) = (   0.2500275   2.0802463   0.8891797  )
        19           Cu  tau(  19) = (   0.4998824   1.8476458   0.8930400  )
        20           Cu  tau(  20) = (   0.7499023   2.0802466   0.8892023  )
        21           Cu  tau(  21) = (  -0.0000006   0.2314407   1.1418707  )
        22           Cu  tau(  22) = (   0.2498892   0.0016921   1.1383038  )
        23           Cu  tau(  23) = (   0.4999305   0.2313254   1.1417344  )
        24           Cu  tau(  24) = (   0.7500314   0.0017233   1.1384329  )
        25           Cu  tau(  25) = (  -0.0000709   0.6957747   1.1517252  )
        26           Cu  tau(  26) = (   0.2500244   0.4632860   1.1474081  )
        27           Cu  tau(  27) = (   0.4999876   0.6957836   1.1516684  )
        28           Cu  tau(  28) = (   0.7498984   0.4632432   1.1473117  )
        29           Cu  tau(  29) = (  -0.0000630   1.1568679   1.1543012  )
        30           Cu  tau(  30) = (   0.2499277   0.9268448   1.1543638  )
        31           Cu  tau(  31) = (   0.4999724   1.1568693   1.1541867  )
        32           Cu  tau(  32) = (   0.7500027   0.9269784   1.1543223  )
        33           Cu  tau(  33) = (  -0.0000082   1.6210599   1.1470060  )
        34           Cu  tau(  34) = (   0.2498596   1.3881448   1.1514236  )
        35           Cu  tau(  35) = (   0.4999174   1.6209561   1.1473344  )
        36           Cu  tau(  36) = (   0.7500490   1.3882920   1.1514093  )
        37           Cu  tau(  37) = (  -0.0001368   2.0821940   1.1384383  )
        38           Cu  tau(  38) = (   0.2500917   1.8528039   1.1417247  )
        39           Cu  tau(  39) = (   0.5000439   2.0824138   1.1382179  )
        40           Cu  tau(  40) = (   0.7498259   1.8528944   1.1417626  )
        41           Cu  tau(  41) = (  -0.0001378   0.0006883   1.3919862  )
        42           Cu  tau(  42) = (   0.2499845   0.2287190   1.3929011  )
        43           Cu  tau(  43) = (   0.5000483   0.0010692   1.3920855  )
        44           Cu  tau(  44) = (   0.7499379   0.2286829   1.3928022  )
        45           Cu  tau(  45) = (   0.0000062   0.4584630   1.3955340  )
        46           Cu  tau(  46) = (   0.2499963   0.6914661   1.3999671  )
        47           Cu  tau(  47) = (   0.4999185   0.4580848   1.3951344  )
        48           Cu  tau(  48) = (   0.7499533   0.6912121   1.4000695  )
        49           Cu  tau(  49) = (  -0.0000360   0.9252124   1.4043059  )
        50           Cu  tau(  50) = (   0.2499282   1.1590389   1.4037961  )
        51           Cu  tau(  51) = (   0.4999469   0.9251753   1.4044409  )
        52           Cu  tau(  52) = (   0.7500253   1.1590458   1.4042624  )
        53           Cu  tau(  53) = (  -0.0000739   1.3928481   1.3993409  )
        54           Cu  tau(  54) = (   0.2500691   1.6257625   1.3946926  )
        55           Cu  tau(  55) = (   0.4999884   1.3926344   1.3994945  )
        56           Cu  tau(  56) = (   0.7498314   1.6259215   1.3947318  )
        57           Cu  tau(  57) = (  -0.0000489   1.8554057   1.3928460  )
        58           Cu  tau(  58) = (   0.2499235   2.0832681   1.3919605  )
        59           Cu  tau(  59) = (   0.4999390   1.8556516   1.3922941  )
        60           Cu  tau(  60) = (   0.7499778   2.0829845   1.3920999  )
        61           Cu  tau(  61) = (  -0.0000594   0.2275935   1.6471819  )
        62           Cu  tau(  62) = (   0.2501001   0.0001540   1.6468201  )
        63           Cu  tau(  63) = (   0.4999427   0.2275226   1.6475724  )
        64           Cu  tau(  64) = (   0.7498079   0.0002051   1.6469932  )
        65           Cu  tau(  65) = (   0.0000357   0.6849101   1.6488244  )
        66           Cu  tau(  66) = (   0.2501027   0.4550203   1.6471545  )
        67           Cu  tau(  67) = (   0.4999170   0.6842384   1.6480417  )
        68           Cu  tau(  68) = (   0.7498109   0.4548594   1.6471270  )
        69           Cu  tau(  69) = (  -0.0000527   1.1637303   1.6506847  )
        70           Cu  tau(  70) = (   0.2501509   0.9216146   1.6509466  )
        71           Cu  tau(  71) = (   0.5000517   1.1629157   1.6515761  )
        72           Cu  tau(  72) = (   0.7497688   0.9213551   1.6514686  )
        73           Cu  tau(  73) = (  -0.0001140   1.6285458   1.6471528  )
        74           Cu  tau(  74) = (   0.2500948   1.3996204   1.6478345  )
        75           Cu  tau(  75) = (   0.5000089   1.6292832   1.6462570  )
        76           Cu  tau(  76) = (   0.7498648   1.4001992   1.6480762  )
        77           Cu  tau(  77) = (  -0.0001698   2.0839327   1.6471420  )
        78           Cu  tau(  78) = (   0.2497414   1.8566981   1.6467677  )
        79           Cu  tau(  79) = (   0.5001041   2.0836196   1.6465065  )
        80           Cu  tau(  80) = (   0.7501418   1.8567086   1.6473694  )
        81           Cu  tau(  81) = (   0.0000606   0.0005566   1.9026502  )
        82           Cu  tau(  82) = (   0.2503732   0.2248242   1.9015096  )
        83           Cu  tau(  83) = (   0.4998202  -0.0005144   1.9024713  )
        84           Cu  tau(  84) = (   0.7495713   0.2246990   1.9014783  )
        85           Cu  tau(  85) = (   0.0000338   0.4467760   1.9043256  )
        86           Cu  tau(  86) = (   0.2493514   0.6728710   1.9029509  )
        87           Cu  tau(  87) = (   0.4998802   0.4455824   1.9021670  )
        88           Cu  tau(  88) = (   0.7505658   0.6721677   1.9028605  )
        89           Cu  tau(  89) = (   0.0006263   0.9184138   1.8867044  )
        90           Cu  tau(  90) = (   0.2497779   1.1671666   1.8871488  )
        91           Cu  tau(  91) = (   0.4991665   0.9167096   1.8870412  )
        92           Cu  tau(  92) = (   0.7501328   1.1676623   1.8863851  )
        93           Cu  tau(  93) = (   0.0000031   1.4129974   1.9041958  )
        94           Cu  tau(  94) = (   0.2501514   1.6381240   1.9026581  )
        95           Cu  tau(  95) = (   0.4998962   1.4122563   1.9006415  )
        96           Cu  tau(  96) = (   0.7497848   1.6384651   1.9031469  )
        97           Cu  tau(  97) = (  -0.0000327   1.8590214   1.9016926  )
        98           Cu  tau(  98) = (   0.2493588   2.0836751   1.9022804  )
        99           Cu  tau(  99) = (   0.4999181   1.8599112   1.9009201  )
       100           Cu  tau( 100) = (   0.7504827   2.0840516   1.9026399  )
       101           Cu  tau( 101) = (   0.2536675   1.3944837   2.1357621  )
       102           Cu  tau( 102) = (   0.7464037   1.3942318   2.1363374  )
       103           Cu  tau( 103) = (  -0.0004629   1.1583394   2.1209052  )
       104           Cu  tau( 104) = (   0.2505084   0.9288428   2.1206185  )
       105           Cu  tau( 105) = (   0.5002771   1.1562048   2.1193217  )
       106           Cu  tau( 106) = (   0.7495267   0.9280549   2.1199382  )
       107           Cu  tau( 107) = (  -0.0000193   0.6948418   2.1354509  )
       108           Cu  tau( 108) = (   0.4998810   0.6882222   2.1355829  )
       109           C   tau( 109) = (   0.0000991   0.0901428   2.4031502  )
       110           C   tau( 110) = (   0.0000930   0.2823830   2.4180114  )
       111           C   tau( 111) = (   0.1666773  -0.0064510   2.3996578  )
       112           C   tau( 112) = (   0.1668787   0.3782408   2.4277671  )
       113           C   tau( 113) = (   0.3333089   0.0900211   2.4026227  )
       114           C   tau( 114) = (   0.3334028   0.2822316   2.4161361  )
       115           C   tau( 115) = (   0.5000830  -0.0063283   2.3982863  )
       116           C   tau( 116) = (   0.5000767   0.3780919   2.4227795  )
       117           C   tau( 117) = (   0.6669041   0.0900346   2.4025061  )
       118           C   tau( 118) = (   0.6667952   0.2822435   2.4160878  )
       119           C   tau( 119) = (   0.8334865  -0.0064471   2.3995724  )
       120           C   tau( 120) = (   0.8332736   0.3782539   2.4277003  )
       121           C   tau( 121) = (   0.0000735   0.6670179   2.4604097  )
       122           C   tau( 122) = (   0.0001050   0.8588633   2.4907114  )
       123           C   tau( 123) = (   0.1672571   0.5698504   2.4498428  )
       124           C   tau( 124) = (   0.1665971   0.9552497   2.4963875  )
       125           C   tau( 125) = (   0.3330385   0.6665151   2.4637668  )
       126           C   tau( 126) = (   0.3335343   0.8585536   2.4894103  )
       127           C   tau( 127) = (   0.5001160   0.5707969   2.4446470  )
       128           C_h tau( 128) = (   0.5000868   0.9548012   2.4981070  )
       129           C   tau( 129) = (   0.6671111   0.6664905   2.4640110  )
       130           C   tau( 130) = (   0.6666802   0.8585370   2.4895177  )
       131           C   tau( 131) = (   0.8329626   0.5698624   2.4498385  )
       132           C   tau( 132) = (   0.8335464   0.9552517   2.4962856  )
       133           C   tau( 133) = (   0.0000911   1.2451825   2.4876213  )
       134           C   tau( 134) = (   0.0001131   1.4371710   2.4617966  )
       135           C   tau( 135) = (   0.1670675   1.1488169   2.4970265  )
       136           C   tau( 136) = (   0.1662741   1.5330753   2.4437487  )
       137           C   tau( 137) = (   0.3332653   1.2449196   2.4879988  )
       138           C   tau( 138) = (   0.3337767   1.4368407   2.4576005  )
       139           C   tau( 139) = (   0.5001230   1.1482862   2.4940804  )
       140           C   tau( 140) = (   0.5000809   1.5342903   2.4464359  )
       141           C   tau( 141) = (   0.6669118   1.2449151   2.4881715  )
       142           C   tau( 142) = (   0.6664409   1.4368275   2.4575860  )
       143           C   tau( 143) = (   0.8331701   1.1488111   2.4971678  )
       144           C   tau( 144) = (   0.8339073   1.5330595   2.4436703  )
       145           C   tau( 145) = (   0.0001003   1.8211673   2.4126494  )
       146           C   tau( 146) = (   0.0000762   2.0135533   2.4010454  )
       147           C   tau( 147) = (   0.1666886   1.7253778   2.4216854  )
       148           C   tau( 148) = (   0.1666494   2.1103073   2.3983956  )
       149           C   tau( 149) = (   0.3333114   1.8216121   2.4144844  )
       150           C   tau( 150) = (   0.3333631   2.0140026   2.4017749  )
       151           C   tau( 151) = (   0.5000809   1.7256607   2.4249251  )
       152           C   tau( 152) = (   0.5001229   2.1104737   2.3992384  )
       153           C   tau( 153) = (   0.6668851   1.8216063   2.4144419  )
       154           C   tau( 154) = (   0.6667882   2.0139890   2.4016302  )
       155           C   tau( 155) = (   0.8334653   1.7253669   2.4216510  )
       156           C   tau( 156) = (   0.8335837   2.1103089   2.3982893  )

     number of k points=     6  gaussian smearing, width (Ry)=  0.1000
                       cart. coord. in units 2pi/alat
        k(    1) = (   0.0000000   0.0000000   0.0000000), wk =   0.2500000
        k(    2) = (   0.0000000  -0.2165064   0.0000000), wk =   0.2500000
        k(    3) = (   0.2500000   0.0000000   0.0000000), wk =   0.5000000
        k(    4) = (   0.2500000  -0.2165064   0.0000000), wk =   0.5000000
        k(    5) = (  -0.5000000   0.0000000   0.0000000), wk =   0.2500000
        k(    6) = (  -0.5000000  -0.2165064   0.0000000), wk =   0.2500000

     Dense  grid:  2050409 G-vectors     FFT dimensions: (  80, 192, 270)

     Largest allocated arrays     est. size (Mb)     dimensions
        Kohn-Sham Wavefunctions        58.17 Mb     (    4604,  828)
        NL pseudopotentials           139.94 Mb     (    4604, 1992)
        Each V/rho on FFT grid          1.17 Mb     (   76800)
        Each G-vector array             0.28 Mb     (   36616)
        G-vector shells                 0.14 Mb     (   17932)
     Largest temporary arrays     est. size (Mb)     dimensions
        Auxiliary wavefunctions       232.67 Mb     (    4604, 3312)
        Each subspace H/S matrix        6.69 Mb     (     662,  662)
        Each <psi_i|beta_j> matrix     25.17 Mb     (    1992,  828)
        Arrays for rho mixing           9.38 Mb     (   76800,    8)

     Initial potential from superposition of free atoms
     Check: negative starting charge=   -0.001554

     starting charge 1354.72292, renormalised to 1380.00000

     negative rho (up, down):  1.583E-03 0.000E+00
     Starting wfc are 1356 randomized atomic wfcs

     total cpu time spent up to now is      117.2 secs

     Self-consistent Calculation

     iteration #  1     ecut=    80.00 Ry     beta=0.70
     Davidson diagonalization with overlap
     c_bands:  1 eigenvalues not converged
     c_bands:  3 eigenvalues not converged
     c_bands:  5 eigenvalues not converged
     ethr =  1.00E-04,  avg # of iterations = 33.8

     negative rho (up, down):  2.563E+01 0.000E+00

     total cpu time spent up to now is     2389.5 secs

     total energy              =  -10769.55474762 Ry
     Harris-Foulkes estimate   =  -19032.55011359 Ry
     estimated scf accuracy    <  214824.15510704 Ry

     iteration #  2     ecut=    80.00 Ry     beta=0.70
     Davidson diagonalization with overlap
     ethr =  1.00E-02,  avg # of iterations = 14.7

     negative rho (up, down):  3.149E+01 0.000E+00

     total cpu time spent up to now is     3575.0 secs

     total energy              =  -13083.27645053 Ry
     Harris-Foulkes estimate   =  -14668.15079491 Ry
     estimated scf accuracy    <   24998.13831249 Ry

     iteration #  3     ecut=    80.00 Ry     beta=0.70
     Davidson diagonalization with overlap
     ethr =  1.00E-02,  avg # of iterations =  6.7

     negative rho (up, down):  3.353E+01 0.000E+00

     total cpu time spent up to now is     4154.1 secs

     total energy              =  -13415.21701084 Ry
     Harris-Foulkes estimate   =  -14410.52974997 Ry
     estimated scf accuracy    <    7928.18293768 Ry

     iteration #  4     ecut=    80.00 Ry     beta=0.70
     Davidson diagonalization with overlap
     ethr =  1.00E-02,  avg # of iterations =  5.2

     negative rho (up, down):  2.773E+01 0.000E+00

     total cpu time spent up to now is     4700.3 secs

     total energy              =  -13751.65338942 Ry
     Harris-Foulkes estimate   =  -14109.16680459 Ry
     estimated scf accuracy    <    4524.28720559 Ry

     iteration #  5     ecut=    80.00 Ry     beta=0.70
     Davidson diagonalization with overlap
     ethr =  1.00E-02,  avg # of iterations =  4.0

     negative rho (up, down):  1.763E+01 0.000E+00

     total cpu time spent up to now is     5061.6 secs

     total energy              =  -13814.29441424 Ry
     Harris-Foulkes estimate   =  -13970.05142793 Ry
     estimated scf accuracy    <    1207.79851550 Ry

     iteration #  6     ecut=    80.00 Ry     beta=0.70
     Davidson diagonalization with overlap
     ethr =  1.00E-02,  avg # of iterations =  2.0

     negative rho (up, down):  1.269E+01 0.000E+00

     total cpu time spent up to now is     5287.5 secs

     total energy              =  -13798.34376859 Ry
     Harris-Foulkes estimate   =  -13846.35519624 Ry
     estimated scf accuracy    <     500.45295750 Ry

     iteration #  7     ecut=    80.00 Ry     beta=0.70
     Davidson diagonalization with overlap
     ethr =  1.00E-02,  avg # of iterations =  2.0

     negative rho (up, down):  8.700E+00 0.000E+00

     total cpu time spent up to now is     5486.9 secs

     total energy              =  -13779.21433847 Ry
     Harris-Foulkes estimate   =  -13812.80562849 Ry
     estimated scf accuracy    <     367.32639478 Ry

     iteration #  8     ecut=    80.00 Ry     beta=0.70
     Davidson diagonalization with overlap
     ethr =  1.00E-02,  avg # of iterations =  1.0

     negative rho (up, down):  7.037E+00 0.000E+00

     total cpu time spent up to now is     5672.1 secs

     total energy              =  -13765.53373641 Ry
     Harris-Foulkes estimate   =  -13784.32665049 Ry
     estimated scf accuracy    <     269.01348832 Ry

     iteration #  9     ecut=    80.00 Ry     beta=0.70
     Davidson diagonalization with overlap
     ethr =  1.00E-02,  avg # of iterations =  1.8

     negative rho (up, down):  4.740E+00 0.000E+00

     total cpu time spent up to now is     5868.8 secs

     total energy              =  -13747.51193697 Ry
     Harris-Foulkes estimate   =  -13769.96937809 Ry
     estimated scf accuracy    <     211.11953990 Ry

     iteration # 10     ecut=    80.00 Ry     beta=0.70
     Davidson diagonalization with overlap
     ethr =  1.00E-02,  avg # of iterations =  1.0

     negative rho (up, down):  9.551E-01 0.000E+00

     total cpu time spent up to now is     6054.2 secs

     total energy              =  -13707.96009204 Ry
     Harris-Foulkes estimate   =  -13750.14884046 Ry
     estimated scf accuracy    <     144.76790522 Ry

     iteration # 11     ecut=    80.00 Ry     beta=0.70
     Davidson diagonalization with overlap
     ethr =  1.00E-02,  avg # of iterations =  1.0

     negative rho (up, down):  2.656E+00 0.000E+00

     total cpu time spent up to now is     6239.9 secs

     total energy              =  -13694.49905179 Ry
     Harris-Foulkes estimate   =  -13713.17898700 Ry
     estimated scf accuracy    <      94.32725098 Ry

     iteration # 12     ecut=    80.00 Ry     beta=0.70
     Davidson diagonalization with overlap
     ethr =  6.84E-03,  avg # of iterations =  3.8

     negative rho (up, down):  1.771E+00 0.000E+00

     total cpu time spent up to now is     6464.2 secs

     total energy              =  -13692.75388786 Ry
     Harris-Foulkes estimate   =  -13701.49375350 Ry
     estimated scf accuracy    <     126.98193231 Ry

     iteration # 13     ecut=    80.00 Ry     beta=0.70
     Davidson diagonalization with overlap
     ethr =  6.84E-03,  avg # of iterations =  1.2

     negative rho (up, down):  5.336E+00 0.000E+00

     total cpu time spent up to now is     6651.8 secs

     total energy              =  -13688.96675058 Ry
     Harris-Foulkes estimate   =  -13697.91688082 Ry
     estimated scf accuracy    <      42.19901820 Ry

     iteration # 14     ecut=    80.00 Ry     beta=0.70
     Davidson diagonalization with overlap
     ethr =  3.06E-03,  avg # of iterations =  4.0

     negative rho (up, down):  7.357E+00 0.000E+00

     total cpu time spent up to now is     6877.0 secs

     total energy              =  -13686.78507428 Ry
     Harris-Foulkes estimate   =  -13691.85751226 Ry
     estimated scf accuracy    <      48.70091029 Ry

     iteration # 15     ecut=    80.00 Ry     beta=0.70
     Davidson diagonalization with overlap
     ethr =  3.06E-03,  avg # of iterations =  4.3

     negative rho (up, down):  6.358E+00 0.000E+00

     total cpu time spent up to now is     7106.8 secs

     total energy              =  -13686.81876957 Ry
     Harris-Foulkes estimate   =  -13688.52658904 Ry
     estimated scf accuracy    <      13.95277228 Ry

     iteration # 16     ecut=    80.00 Ry     beta=0.70
     Davidson diagonalization with overlap
     ethr =  1.01E-03,  avg # of iterations =  7.8

     negative rho (up, down):  4.873E+00 0.000E+00

     total cpu time spent up to now is     7396.5 secs

     total energy              =  -13685.80735758 Ry
     Harris-Foulkes estimate   =  -13687.40753733 Ry
     estimated scf accuracy    <      12.28522215 Ry

     iteration # 17     ecut=    80.00 Ry     beta=0.70
     Davidson diagonalization with overlap
     ethr =  8.90E-04,  avg # of iterations =  2.0

     negative rho (up, down):  2.388E+00 0.000E+00

     total cpu time spent up to now is     7594.7 secs

     total energy              =  -13684.21253471 Ry
     Harris-Foulkes estimate   =  -13686.11026595 Ry
     estimated scf accuracy    <      10.95968613 Ry

     iteration # 18     ecut=    80.00 Ry     beta=0.70
     Davidson diagonalization with overlap
     ethr =  7.94E-04,  avg # of iterations =  1.0

     negative rho (up, down):  2.066E+00 0.000E+00

     total cpu time spent up to now is     7780.8 secs

     total energy              =  -13683.79596189 Ry
     Harris-Foulkes estimate   =  -13684.40598315 Ry
     estimated scf accuracy    <      10.43592055 Ry

     iteration # 19     ecut=    80.00 Ry     beta=0.70
     Davidson diagonalization with overlap
     ethr =  7.56E-04,  avg # of iterations =  1.0

     negative rho (up, down):  6.088E-01 0.000E+00

     total cpu time spent up to now is     7967.0 secs

     total energy              =  -13681.85492023 Ry
     Harris-Foulkes estimate   =  -13683.99852521 Ry
     estimated scf accuracy    <       8.01240921 Ry

     iteration # 20     ecut=    80.00 Ry     beta=0.70
     Davidson diagonalization with overlap
     ethr =  5.81E-04,  avg # of iterations =  6.7

     negative rho (up, down):  4.028E-01 0.000E+00

     total cpu time spent up to now is     8227.3 secs

     total energy              =  -13680.69460214 Ry
     Harris-Foulkes estimate   =  -13682.09302011 Ry
     estimated scf accuracy    <       8.44033527 Ry

     iteration # 21     ecut=    80.00 Ry     beta=0.70
     Davidson diagonalization with overlap
     ethr =  5.81E-04,  avg # of iterations =  3.3

     negative rho (up, down):  3.145E-01 0.000E+00

     total cpu time spent up to now is     8445.3 secs

     total energy              =  -13680.00760951 Ry
     Harris-Foulkes estimate   =  -13680.84932227 Ry
     estimated scf accuracy    <       6.70395582 Ry

     iteration # 22     ecut=    80.00 Ry     beta=0.70
     Davidson diagonalization with overlap
     ethr =  4.86E-04,  avg # of iterations =  4.5

     negative rho (up, down):  6.987E-01 0.000E+00

     total cpu time spent up to now is     8678.9 secs

     total energy              =  -13679.27389206 Ry
     Harris-Foulkes estimate   =  -13680.20961894 Ry
     estimated scf accuracy    <       4.29570363 Ry

     iteration # 23     ecut=    80.00 Ry     beta=0.70
     Davidson diagonalization with overlap
     ethr =  3.11E-04,  avg # of iterations =  7.0

     negative rho (up, down):  1.075E+00 0.000E+00

     total cpu time spent up to now is     8959.6 secs

     total energy              =  -13679.35606039 Ry
     Harris-Foulkes estimate   =  -13679.56358275 Ry
     estimated scf accuracy    <       1.59519413 Ry

     iteration # 24     ecut=    80.00 Ry     beta=0.70
     Davidson diagonalization with overlap
     ethr =  1.16E-04,  avg # of iterations =  7.5

     negative rho (up, down):  7.336E-01 0.000E+00

     total cpu time spent up to now is     9247.9 secs

     total energy              =  -13679.25949799 Ry
     Harris-Foulkes estimate   =  -13679.43681761 Ry
     estimated scf accuracy    <       0.73921846 Ry

     iteration # 25     ecut=    80.00 Ry     beta=0.70
     Davidson diagonalization with overlap
     ethr =  5.36E-05,  avg # of iterations =  7.8

     negative rho (up, down):  5.279E-01 0.000E+00

     total cpu time spent up to now is     9549.8 secs

     total energy              =  -13679.25975611 Ry
     Harris-Foulkes estimate   =  -13679.32117811 Ry
     estimated scf accuracy    <       0.44024694 Ry

     iteration # 26     ecut=    80.00 Ry     beta=0.70
     Davidson diagonalization with overlap
     ethr =  3.19E-05,  avg # of iterations =  4.0

     negative rho (up, down):  1.688E-01 0.000E+00

     total cpu time spent up to now is     9778.9 secs

     total energy              =  -13679.26145137 Ry
     Harris-Foulkes estimate   =  -13679.29226600 Ry
     estimated scf accuracy    <       0.16550466 Ry

     iteration # 27     ecut=    80.00 Ry     beta=0.70
     Davidson diagonalization with overlap
     ethr =  1.20E-05,  avg # of iterations =  6.8

     negative rho (up, down):  1.605E-01 0.000E+00

     total cpu time spent up to now is    10078.7 secs

     total energy              =  -13679.27076962 Ry
     Harris-Foulkes estimate   =  -13679.28122051 Ry
     estimated scf accuracy    <       0.07254831 Ry

     iteration # 28     ecut=    80.00 Ry     beta=0.70
     Davidson diagonalization with overlap
     ethr =  5.26E-06,  avg # of iterations =  6.0

     negative rho (up, down):  8.033E-02 0.000E+00

     total cpu time spent up to now is    10337.1 secs

     total energy              =  -13679.27628528 Ry
     Harris-Foulkes estimate   =  -13679.27673456 Ry
     estimated scf accuracy    <       0.01426806 Ry

     iteration # 29     ecut=    80.00 Ry     beta=0.70
     Davidson diagonalization with overlap
     ethr =  1.03E-06,  avg # of iterations = 10.7

     negative rho (up, down):  5.158E-02 0.000E+00

     total cpu time spent up to now is    10691.6 secs

     total energy              =  -13679.27615271 Ry
     Harris-Foulkes estimate   =  -13679.27726378 Ry
     estimated scf accuracy    <       0.00635948 Ry

     iteration # 30     ecut=    80.00 Ry     beta=0.70
     Davidson diagonalization with overlap
     ethr =  4.61E-07,  avg # of iterations = 11.0

     negative rho (up, down):  5.094E-03 0.000E+00

     total cpu time spent up to now is    11031.6 secs

     total energy              =  -13679.27615749 Ry
     Harris-Foulkes estimate   =  -13679.27672033 Ry
     estimated scf accuracy    <       0.00386800 Ry

     iteration # 31     ecut=    80.00 Ry     beta=0.70
     Davidson diagonalization with overlap
     c_bands:  1 eigenvalues not converged
     ethr =  2.80E-07,  avg # of iterations = 15.3

     negative rho (up, down):  1.918E-03 0.000E+00

     total cpu time spent up to now is    11461.1 secs

     total energy              =  -13679.27661365 Ry
     Harris-Foulkes estimate   =  -13679.27646081 Ry
     estimated scf accuracy    <       0.00125466 Ry

     iteration # 32     ecut=    80.00 Ry     beta=0.70
     Davidson diagonalization with overlap
     ethr =  9.09E-08,  avg # of iterations =  7.7

     negative rho (up, down):  4.292E-03 0.000E+00

     total cpu time spent up to now is    11753.3 secs

     total energy              =  -13679.27697672 Ry
     Harris-Foulkes estimate   =  -13679.27671239 Ry
     estimated scf accuracy    <       0.00036776 Ry

     iteration # 33     ecut=    80.00 Ry     beta=0.70
     Davidson diagonalization with overlap
     c_bands:  1 eigenvalues not converged
     ethr =  2.66E-08,  avg # of iterations = 10.0

     negative rho (up, down):  4.408E-03 0.000E+00

     total cpu time spent up to now is    12088.5 secs

     total energy              =  -13679.27700381 Ry
     Harris-Foulkes estimate   =  -13679.27700012 Ry
     estimated scf accuracy    <       0.00003983 Ry

     iteration # 34     ecut=    80.00 Ry     beta=0.70
     Davidson diagonalization with overlap
     ethr =  2.89E-09,  avg # of iterations =  4.0

     negative rho (up, down):  3.205E-03 0.000E+00

     total cpu time spent up to now is    12332.4 secs

     total energy              =  -13679.27698949 Ry
     Harris-Foulkes estimate   =  -13679.27700778 Ry
     estimated scf accuracy    <       0.00001345 Ry

     iteration # 35     ecut=    80.00 Ry     beta=0.70
     Davidson diagonalization with overlap
     ethr =  9.75E-10,  avg # of iterations =  5.5

     negative rho (up, down):  2.200E-03 0.000E+00

     total cpu time spent up to now is    12607.1 secs

     total energy              =  -13679.27697836 Ry
     Harris-Foulkes estimate   =  -13679.27699148 Ry
     estimated scf accuracy    <       0.00000810 Ry

     iteration # 36     ecut=    80.00 Ry     beta=0.70
     Davidson diagonalization with overlap
     ethr =  5.87E-10,  avg # of iterations =  7.3

     negative rho (up, down):  2.147E-03 0.000E+00

     total cpu time spent up to now is    12895.2 secs

     total energy              =  -13679.27697793 Ry
     Harris-Foulkes estimate   =  -13679.27697911 Ry
     estimated scf accuracy    <       0.00000185 Ry

     iteration # 37     ecut=    80.00 Ry     beta=0.70
     Davidson diagonalization with overlap
     ethr =  1.34E-10,  avg # of iterations =  2.3

     negative rho (up, down):  1.782E-03 0.000E+00

     total cpu time spent up to now is    13136.1 secs

     total energy              =  -13679.27697803 Ry
     Harris-Foulkes estimate   =  -13679.27697832 Ry
     estimated scf accuracy    <       0.00000111 Ry

     iteration # 38     ecut=    80.00 Ry     beta=0.70
     Davidson diagonalization with overlap
     ethr =  8.07E-11,  avg # of iterations =  2.7

     negative rho (up, down):  1.691E-03 0.000E+00

     total cpu time spent up to now is    13353.2 secs

     total energy              =  -13679.27697814 Ry
     Harris-Foulkes estimate   =  -13679.27697813 Ry
     estimated scf accuracy    <       0.00000023 Ry

     iteration # 39     ecut=    80.00 Ry     beta=0.70
     Davidson diagonalization with overlap
     ethr =  1.69E-11,  avg # of iterations =  2.0

     negative rho (up, down):  1.666E-03 0.000E+00

     total cpu time spent up to now is    13558.5 secs

     total energy              =  -13679.27697823 Ry
     Harris-Foulkes estimate   =  -13679.27697817 Ry
     estimated scf accuracy    <       0.00000009 Ry

     iteration # 40     ecut=    80.00 Ry     beta=0.70
     Davidson diagonalization with overlap
     ethr =  6.85E-12,  avg # of iterations =  3.0

     negative rho (up, down):  1.693E-03 0.000E+00

     total cpu time spent up to now is    13782.8 secs

     total energy              =  -13679.27697824 Ry
     Harris-Foulkes estimate   =  -13679.27697824 Ry
     estimated scf accuracy    <       0.00000001 Ry

     iteration # 41     ecut=    80.00 Ry     beta=0.70
     Davidson diagonalization with overlap
     ethr =  1.05E-12,  avg # of iterations =  3.0

     negative rho (up, down):  1.712E-03 0.000E+00

     total cpu time spent up to now is    14069.9 secs

     End of self-consistent calculation

          k = 0.0000 0.0000 0.0000 (256287 PWs)   bands (ev):

   -16.7151 -15.5201 -15.4410 -14.8075 -14.3776 -14.1974 -14.1395 -13.5468
   -13.5397 -13.4730 -13.4097 -12.8175 -12.6752 -12.5037 -12.4767 -12.4227
   -12.4201 -11.0353 -10.8798 -10.8477 -10.7571 -10.5989  -9.7060  -9.1619
    -9.1477  -9.0051  -8.9198  -8.3006  -8.1478  -8.0090  -7.9713  -7.4391
    -7.2033  -7.1389  -6.9818  -6.9469  -6.9126  -6.8894  -6.8809  -5.7159
    -5.7136  -5.4935  -5.4125  -5.3787  -5.3279  -5.2748  -5.2464  -5.2208
    -4.9862  -4.8622  -4.8041  -4.3772  -4.1941  -4.1499  -4.0501  -4.0263
    -3.9179  -3.8524  -3.7436  -3.5815  -3.4106  -3.3726  -3.3661  -3.3621
    -3.0649  -3.0341  -2.9716  -2.9565  -2.8617  -2.8253  -2.8163  -2.7967
    -2.7787  -2.6361  -2.5639  -2.4547  -2.4477  -2.4016  -2.3922  -2.3843
    -2.3839  -2.3575  -2.3372  -2.3184  -2.2998  -2.2712  -2.1155  -2.1086
    -2.0782  -2.0407  -1.9935  -1.9422  -1.8208  -1.7905  -1.7518  -1.7453
    -1.7030  -1.6684  -1.6261  -1.5874  -1.5816  -1.5294  -1.5287  -1.5189
    -1.5181  -1.4885  -1.4595  -1.4297  -1.4281  -1.3928  -1.3922  -1.3897
    -1.3600  -1.3467  -1.2632  -1.2548  -1.2525  -1.2319  -1.1802  -1.1572
    -1.1569  -1.1540  -1.1389  -1.1150  -1.1123  -1.0905  -1.0395  -1.0378
    -1.0340  -1.0331  -0.9894  -0.9769  -0.9594  -0.9580  -0.9560  -0.9309
    -0.9305  -0.9181  -0.9166  -0.9031  -0.8622  -0.8620  -0.8408  -0.8052
    -0.7890  -0.7866  -0.7547  -0.7405  -0.7147  -0.6872  -0.6711  -0.6634
    -0.6393  -0.6386  -0.6370  -0.6073  -0.6006  -0.5984  -0.5816  -0.5737
    -0.5682  -0.5671  -0.5515  -0.5271  -0.5221  -0.4941  -0.4852  -0.4683
    -0.4591  -0.4573  -0.4511  -0.4477  -0.4472  -0.4371  -0.4287  -0.4285
    -0.4270  -0.4258  -0.3994  -0.3792  -0.3791  -0.3673  -0.3543  -0.3533
    -0.3501  -0.3453  -0.3384  -0.3317  -0.3282  -0.3268  -0.3215  -0.3189
    -0.2842  -0.2837  -0.2811  -0.2689  -0.2678  -0.2670  -0.2546  -0.2538
    -0.2328  -0.2324  -0.2316  -0.2289  -0.2222  -0.2205  -0.2168  -0.2159
    -0.2015  -0.1923  -0.1468  -0.1463  -0.1372  -0.1183  -0.1118  -0.0981
    -0.0700  -0.0655  -0.0645  -0.0562  -0.0545  -0.0424  -0.0371  -0.0335
    -0.0234  -0.0184  -0.0091  -0.0078  -0.0070   0.0021   0.0098   0.0234
     0.0239   0.0264   0.0402   0.0410   0.0416   0.0732   0.0781   0.0864
     0.1105   0.1268   0.1348   0.1367   0.1431   0.1439   0.1642   0.1653
     0.1712   0.1750   0.1954   0.1958   0.1966   0.2065   0.2070   0.2088
     0.2093   0.2114   0.2152   0.2295   0.2394   0.2437   0.2503   0.2556
     0.2557   0.2600   0.2603   0.2782   0.2807   0.2919   0.2920   0.2997
     0.3142   0.3152   0.3277   0.3280   0.3285   0.3317   0.3344   0.3447
     0.3477   0.3552   0.3573   0.3680   0.3686   0.3694   0.3726   0.3739
     0.3871   0.3873   0.4088   0.4128   0.4149   0.4160   0.4204   0.4207
     0.4223   0.4231   0.4282   0.4290   0.4567   0.4613   0.4619   0.4649
     0.4841   0.4871   0.5112   0.5121   0.5129   0.5147   0.5221   0.5339
     0.5368   0.5437   0.5475   0.5502   0.5534   0.5543   0.5703   0.5776
     0.5822   0.5826   0.5870   0.5900   0.5907   0.5982   0.6101   0.6140
     0.6148   0.6205   0.6208   0.6381   0.6395   0.6408   0.6455   0.6461
     0.6473   0.6495   0.6568   0.6695   0.6699   0.6736   0.6737   0.6762
     0.6773   0.6789   0.6818   0.6927   0.7165   0.7201   0.7345   0.7506
     0.7515   0.7689   0.7710   0.7740   0.7766   0.7779   0.7823   0.8059
     0.8079   0.8261   0.8267   0.8394   0.8404   0.8418   0.8423   0.8522
     0.8545   0.8644   0.8864   0.8919   0.8960   0.8961   0.9003   0.9042
     0.9056   0.9300   0.9319   0.9361   0.9447   0.9452   0.9514   0.9603
     0.9610   0.9903   0.9967   0.9984   1.0058   1.0082   1.0133   1.0153
     1.0169   1.0195   1.0270   1.0315   1.0343   1.0383   1.0387   1.0447
     1.0667   1.0669   1.0756   1.0769   1.0818   1.0908   1.1025   1.1028
     1.1258   1.1415   1.1417   1.1456   1.1553   1.1558   1.1589   1.1618
     1.1628   1.1643   1.1717   1.1781   1.1841   1.1877   1.1896   1.1908
     1.2008   1.2009   1.2045   1.2068   1.2137   1.2225   1.2265   1.2281
     1.2328   1.2340   1.2394   1.2451   1.2483   1.2534   1.2609   1.2628
     1.2632   1.2701   1.2799   1.2831   1.2832   1.2834   1.2862   1.2892
     1.2992   1.2999   1.3144   1.3152   1.3214   1.3282   1.3307   1.3330
     1.3341   1.3346   1.3404   1.3435   1.3459   1.3464   1.3572   1.3582
     1.3609   1.3680   1.3714   1.3745   1.3754   1.3800   1.3851   1.3950
     1.3974   1.4025   1.4259   1.4321   1.4337   1.4379   1.4428   1.4507
     1.4542   1.4615   1.4681   1.4738   1.4755   1.4769   1.4825   1.4843
     1.4898   1.4901   1.4914   1.5034   1.5092   1.5111   1.5118   1.5209
     1.5319   1.5333   1.5373   1.5388   1.5438   1.5478   1.5512   1.5560
     1.5591   1.5657   1.5672   1.5678   1.5807   1.5839   1.5863   1.5972
     1.5986   1.5987   1.6039   1.6079   1.6107   1.6153   1.6189   1.6322
     1.6376   1.6386   1.6447   1.6504   1.6514   1.6588   1.6681   1.6689
     1.6761   1.6795   1.6812   1.6822   1.6856   1.6866   1.6894   1.6922
     1.6976   1.7041   1.7079   1.7101   1.7124   1.7195   1.7212   1.7223
     1.7225   1.7290   1.7320   1.7380   1.7405   1.7473   1.7474   1.7521
     1.7549   1.7628   1.7650   1.7694   1.7778   1.7891   1.7934   1.7985
     1.7997   1.8009   1.8092   1.8094   1.8207   1.8278   1.8335   1.8347
     1.8376   1.8402   1.8438   1.8455   1.8515   1.8588   1.8591   1.8711
     1.8742   1.8765   1.8783   1.8795   1.8808   1.8846   1.8873   1.8965
     1.8990   1.9035   1.9040   1.9101   1.9127   1.9162   1.9171   1.9266
     1.9294   1.9444   1.9446   1.9460   1.9489   1.9490   1.9520   1.9547
     1.9568   1.9582   1.9613   1.9761   1.9769   1.9843   1.9872   1.9893
     1.9911   1.9930   1.9943   1.9957   1.9992   2.0022   2.0055   2.0064
     2.0066   2.0073   2.0124   2.0140   2.0149   2.0247   2.0262   2.0300
     2.0321   2.0363   2.0380   2.0381   2.0415   2.0535   2.0556   2.0634
     2.0673   2.0691   2.0697   2.0713   2.0826   2.0849   2.0851   2.1133
     2.1151   2.1156   2.1364   2.1382   2.1388   2.1581   2.1607   2.1629
     2.1665   2.1901   2.1915   2.1916   2.2196   2.2226   2.2286   2.2306
     2.2344   2.2356   2.2413   2.2541   2.2979   2.4061   2.4823   2.5531
     2.5819   2.6464   2.6506   2.6602   2.7446   2.7476   2.7768   2.7784
     2.8041   2.8048   2.8161   2.8166   2.8871   2.8875   2.9260   2.9406
     2.9411   2.9857   2.9901   3.1679   3.1690   3.2212   3.2309   3.2683
     3.3978   3.5264   3.5760   3.6119   3.6456   3.8004   3.8033   3.9734
     4.0301   4.0343   4.0756   4.2059   4.2114   4.2857   4.2875   4.4707
     4.4875   4.5075   4.5076   4.5424   4.5436   4.5797   4.6056   4.6059
     4.6101   4.6105   4.8668   5.0013   5.0068   5.0592   5.0752   5.2074
     5.3239   5.4657   5.4782   5.5071   5.5392   5.5404   5.6522   5.6530
     5.7949   5.9059   6.0986   6.1151   6.2535   6.3547   6.3626   6.4664
     6.5100   6.7433   6.8098   6.8123   6.8373   6.9523   7.0552   7.0568
     7.1096   7.2021   7.2397   7.2628   7.3274   7.3806   7.3891   7.4057
     7.4063   7.4196   7.4246   7.4443   7.5516   7.6775   7.6811   7.7160
     7.8476   7.9370   7.9446   8.0354   8.0965   8.1178   8.1529   8.2803
     8.2805   8.3042   8.3050   8.4956   8.5760   8.5791   8.6333   8.6598
     8.6817   8.7084   8.7327   8.7940   8.8249   8.8278   8.8953   8.9043
     8.9254   8.9682   9.1032   9.1223   9.1415   9.1427   9.1670   9.2014
     9.2018   9.2840   9.2913   9.2970   9.3003   9.3357   9.3384   9.3616
     9.3929   9.5148   9.5690   9.6805   9.6879   9.7908   9.8066   9.8086
     9.8364  10.0010  10.0510  10.0581  10.0757  10.0867  10.0877  10.2798
    10.3587  10.4174  10.4910  10.5088  10.5213  10.5258  10.5892  10.5938
    10.6120  10.6256  10.6355  10.6415

          k = 0.0000-0.2165 0.0000 (256176 PWs)   bands (ev):

   -16.7148 -15.6058 -15.2383 -14.9999 -14.4836 -14.1347 -13.6782 -13.6462
   -13.6322 -13.5585 -13.1466 -13.0994 -13.0574 -13.0212 -11.9649 -11.7871
   -11.7327 -11.6656 -11.5505 -11.4050 -10.0350  -9.9334  -9.9105  -9.7301
    -8.8667  -8.8333  -8.6647  -8.5114  -8.3334  -8.2839  -7.7286  -7.6130
    -7.5413  -7.5070  -6.8992  -6.7046  -6.3479  -6.3358  -6.2434  -6.2260
    -6.2059  -6.1878  -5.6044  -5.4804  -5.3048  -5.2544  -4.9251  -4.9172
    -4.7790  -4.5347  -4.4521  -4.3416  -4.3170  -4.2639  -4.1948  -4.1779
    -4.1595  -4.0216  -4.0061  -3.9441  -3.3772  -3.3546  -3.3230  -3.2410
    -3.1093  -3.1012  -2.9283  -2.7379  -2.7199  -2.6965  -2.6742  -2.6736
    -2.6369  -2.5930  -2.5549  -2.5027  -2.4721  -2.4107  -2.4099  -2.3234
    -2.2892  -2.2318  -2.1598  -2.1552  -2.1318  -2.1219  -2.0547  -2.0422
    -2.0069  -1.9870  -1.9731  -1.9614  -1.9567  -1.9332  -1.9297  -1.8963
    -1.8756  -1.8742  -1.7580  -1.7266  -1.7098  -1.6515  -1.5827  -1.5778
    -1.5655  -1.5602  -1.5224  -1.5213  -1.4726  -1.3770  -1.3618  -1.3617
    -1.3432  -1.3431  -1.2407  -1.2330  -1.1927  -1.1854  -1.1766  -1.1717
    -1.1570  -1.1420  -1.1123  -1.1121  -1.1004  -1.0973  -1.0961  -1.0589
    -1.0460  -1.0448  -1.0266  -1.0219  -1.0215  -0.9973  -0.9555  -0.9546
    -0.9234  -0.9072  -0.8795  -0.8779  -0.8542  -0.8120  -0.7923  -0.7638
    -0.7536  -0.7179  -0.7117  -0.7083  -0.7080  -0.7001  -0.6930  -0.6885
    -0.6762  -0.6687  -0.6550  -0.6524  -0.6518  -0.6500  -0.6415  -0.6349
    -0.6245  -0.6116  -0.6102  -0.5863  -0.5425  -0.5364  -0.5161  -0.5158
    -0.4905  -0.4747  -0.4712  -0.4522  -0.4506  -0.4346  -0.4303  -0.4288
    -0.4274  -0.4147  -0.4067  -0.3869  -0.3739  -0.3726  -0.3665  -0.3539
    -0.3524  -0.3519  -0.3472  -0.3235  -0.3147  -0.3137  -0.3126  -0.3019
    -0.2989  -0.2661  -0.2646  -0.2638  -0.2505  -0.2428  -0.2338  -0.2326
    -0.2266  -0.2153  -0.2053  -0.1928  -0.1745  -0.1725  -0.1722  -0.1353
    -0.1173  -0.1135  -0.1041  -0.0888  -0.0855  -0.0601  -0.0579  -0.0533
    -0.0527  -0.0290  -0.0263  -0.0244  -0.0243  -0.0159  -0.0145  -0.0059
     0.0057   0.0066   0.0151   0.0154   0.0192   0.0240   0.0284   0.0364
     0.0492   0.0504   0.0622   0.0644   0.0783   0.0808   0.0922   0.0990
     0.1226   0.1229   0.1240   0.1247   0.1261   0.1327   0.1384   0.1394
     0.1497   0.1532   0.1606   0.1977   0.2054   0.2058   0.2162   0.2288
     0.2376   0.2463   0.2468   0.2558   0.2604   0.2650   0.2653   0.2762
     0.2787   0.2843   0.2933   0.2936   0.2944   0.3008   0.3053   0.3159
     0.3171   0.3179   0.3189   0.3222   0.3261   0.3265   0.3335   0.3457
     0.3548   0.3549   0.3583   0.3677   0.3684   0.3711   0.3834   0.3870
     0.3940   0.4022   0.4036   0.4069   0.4069   0.4130   0.4172   0.4216
     0.4268   0.4354   0.4390   0.4482   0.4492   0.4644   0.4735   0.4780
     0.4802   0.4860   0.4891   0.4981   0.5047   0.5101   0.5158   0.5227
     0.5252   0.5254   0.5275   0.5308   0.5402   0.5440   0.5616   0.5633
     0.5733   0.5770   0.5788   0.5806   0.5878   0.5894   0.5967   0.5983
     0.6155   0.6172   0.6220   0.6278   0.6295   0.6358   0.6368   0.6467
     0.6493   0.6565   0.6582   0.6711   0.6807   0.6811   0.6896   0.6906
     0.6951   0.6976   0.7017   0.7068   0.7077   0.7164   0.7223   0.7225
     0.7293   0.7303   0.7345   0.7479   0.7519   0.7539   0.7571   0.7706
     0.7726   0.7819   0.7934   0.8006   0.8144   0.8195   0.8375   0.8441
     0.8487   0.8523   0.8535   0.8648   0.8810   0.8884   0.8894   0.8915
     0.8949   0.9096   0.9105   0.9246   0.9276   0.9300   0.9505   0.9511
     0.9521   0.9695   0.9734   0.9896   0.9897   1.0014   1.0074   1.0171
     1.0211   1.0216   1.0359   1.0360   1.0493   1.0527   1.0530   1.0685
     1.0695   1.0846   1.0866   1.0911   1.0941   1.1022   1.1026   1.1188
     1.1252   1.1274   1.1325   1.1333   1.1367   1.1380   1.1450   1.1482
     1.1511   1.1566   1.1649   1.1693   1.1702   1.1706   1.1739   1.1765
     1.1787   1.1919   1.1931   1.2100   1.2102   1.2168   1.2182   1.2226
     1.2232   1.2280   1.2321   1.2329   1.2378   1.2442   1.2444   1.2566
     1.2581   1.2689   1.2691   1.2692   1.2728   1.2778   1.2886   1.2899
     1.2911   1.2922   1.2931   1.2938   1.3016   1.3057   1.3145   1.3147
     1.3227   1.3247   1.3268   1.3295   1.3297   1.3379   1.3381   1.3546
     1.3553   1.3559   1.3600   1.3723   1.3863   1.4000   1.4011   1.4061
     1.4087   1.4104   1.4150   1.4169   1.4330   1.4575   1.4601   1.4762
     1.4801   1.4868   1.4925   1.4950   1.4959   1.4965   1.5055   1.5081
     1.5098   1.5138   1.5143   1.5170   1.5253   1.5264   1.5267   1.5336
     1.5356   1.5367   1.5456   1.5570   1.5612   1.5630   1.5645   1.5708
     1.5729   1.5742   1.5769   1.5792   1.5829   1.5855   1.5860   1.5861
     1.5878   1.5895   1.6027   1.6051   1.6056   1.6075   1.6080   1.6144
     1.6161   1.6185   1.6194   1.6207   1.6278   1.6426   1.6432   1.6435
     1.6510   1.6580   1.6648   1.6710   1.6743   1.6787   1.6796   1.6828
     1.6919   1.6952   1.6961   1.7117   1.7142   1.7191   1.7220   1.7292
     1.7294   1.7308   1.7371   1.7419   1.7556   1.7649   1.7706   1.7759
     1.7761   1.7794   1.7804   1.7873   1.7902   1.7915   1.7967   1.7996
     1.8028   1.8037   1.8077   1.8078   1.8109   1.8200   1.8206   1.8236
     1.8250   1.8303   1.8322   1.8478   1.8489   1.8532   1.8587   1.8600
     1.8641   1.8658   1.8741   1.8762   1.8771   1.8778   1.8839   1.8870
     1.8881   1.8952   1.9014   1.9049   1.9077   1.9146   1.9179   1.9187
     1.9204   1.9249   1.9287   1.9298   1.9350   1.9359   1.9440   1.9469
     1.9562   1.9565   1.9649   1.9681   1.9746   1.9747   1.9813   1.9890
     1.9893   1.9931   1.9952   1.9970   1.9981   2.0007   2.0063   2.0090
     2.0219   2.0221   2.0281   2.0304   2.0389   2.0395   2.0458   2.0458
     2.0496   2.0516   2.0519   2.0529   2.0679   2.0700   2.0726   2.0766
     2.0826   2.0923   2.1075   2.1076   2.1121   2.1194   2.1214   2.1228
     2.1254   2.1265   2.1269   2.1334   2.1377   2.1439   2.1449   2.1503
     2.1742   2.2027   2.2248   2.2453   2.2462   2.3170   2.3366   2.3448
     2.3450   2.3680   2.3700   2.3783   2.3901   2.4154   2.4263   2.4290
     2.4357   2.4540   2.4551   2.6027   2.6294   2.6657   2.6982   2.7190
     2.7354   2.8159   2.8828   2.8842   2.9833   2.9859   3.0061   3.0317
     3.0338   3.0851   3.1607   3.1760   3.1764   3.2660   3.2673   3.2675
     3.3114   3.5114   3.5115   3.5639   3.5823   3.5847   3.7679   3.7681
     3.7773   3.7973   4.0300   4.0708   4.1277   4.1504   4.1975   4.2938
     4.3122   4.4671   4.5033   4.5625   4.5783   4.6188   4.6324   4.6613
     4.6626   4.7922   4.9978   5.0224   5.1559   5.1615   5.3552   5.4969
     5.5897   5.5955   5.6439   5.6513   5.6895   5.8383   5.8732   5.8746
     5.9531   5.9760   5.9801   6.0649   6.1145   6.2162   6.3256   6.3326
     6.3778   6.3935   6.5295   6.5425   6.5588   6.7061   6.8230   6.9521
     7.0480   7.0519   7.1976   7.1978   7.2093   7.2924   7.5158   7.5397
     7.5505   7.6018   7.6148   7.6175   7.6684   7.7276   7.7278   7.7493
     7.7495   7.7726   7.8880   8.0128   8.0143   8.1477   8.1674   8.1808
     8.1993   8.2072   8.3034   8.3040   8.4303   8.5510   8.5987   8.6000
     8.7588   8.7972   8.8465   8.8638   8.9120   8.9311   8.9693   8.9910
     8.9938   9.0363   9.0365   9.0518   9.1189   9.1207   9.1271   9.2283
     9.2809   9.2886   9.3277   9.3727   9.4788   9.4892   9.4934   9.5324
     9.7189   9.7241   9.7291   9.7302   9.8702   9.8738   9.9247   9.9267
     9.9300   9.9364   9.9618   9.9758   9.9993  10.0350  10.1011  10.1014
    10.2792  10.2846  10.2998  10.3192  10.3920  10.4599  10.4647  10.4832
    10.5941  10.6031  10.6665  10.6970

          k = 0.2500 0.0000 0.0000 (256240 PWs)   bands (ev):

   -16.6607 -15.4212 -15.3419 -15.0659 -14.4517 -14.3879 -14.2435 -14.2253
   -13.4756 -13.2861 -13.1883 -12.6029 -12.5249 -12.4402 -12.3477 -11.7116
   -11.5901 -11.4983 -11.4166 -10.6410 -10.5506 -10.1428  -9.9245  -9.7435
    -9.5816  -9.3344  -9.3146  -8.8574  -8.5843  -8.4817  -8.0465  -7.3670
    -7.1628  -7.1202  -6.9492  -6.9152  -6.8296  -6.4545  -6.3553  -5.6597
    -5.5570  -5.3971  -5.3332  -5.2353  -5.2318  -4.8583  -4.8027  -4.7061
    -4.6889  -4.6457  -4.3226  -4.2148  -4.0228  -3.9291  -3.8914  -3.8688
    -3.8598  -3.7642  -3.7435  -3.6415  -3.6173  -3.5407  -3.4016  -3.3771
    -3.3275  -3.2701  -3.2179  -3.2152  -3.2146  -3.0396  -3.0157  -2.9406
    -2.9087  -2.8568  -2.8367  -2.7202  -2.6946  -2.6930  -2.5912  -2.5724
    -2.5312  -2.5058  -2.4561  -2.4101  -2.2569  -2.2320  -2.2004  -2.1879
    -2.1746  -2.1732  -2.0024  -1.8576  -1.8439  -1.8395  -1.7939  -1.7518
    -1.7076  -1.6099  -1.5098  -1.5008  -1.4921  -1.4845  -1.4677  -1.4576
    -1.4287  -1.4178  -1.3996  -1.3255  -1.2970  -1.2795  -1.2532  -1.2374
    -1.1857  -1.1788  -1.1765  -1.1735  -1.1706  -1.1644  -1.1586  -1.1550
    -1.1116  -1.1062  -1.0920  -1.0792  -1.0479  -1.0464  -1.0427  -0.9958
    -0.9719  -0.9694  -0.9657  -0.9499  -0.9394  -0.9382  -0.9147  -0.9080
    -0.8975  -0.8860  -0.8840  -0.8469  -0.8371  -0.7894  -0.7720  -0.7508
    -0.7214  -0.7008  -0.6943  -0.6852  -0.6629  -0.6542  -0.6427  -0.6345
    -0.6277  -0.6254  -0.6205  -0.6134  -0.5940  -0.5912  -0.5813  -0.5754
    -0.5727  -0.5544  -0.5491  -0.5300  -0.5294  -0.5278  -0.5193  -0.5128
    -0.5108  -0.5065  -0.5007  -0.4852  -0.4816  -0.4625  -0.4503  -0.4439
    -0.4401  -0.4277  -0.4243  -0.4190  -0.4141  -0.4126  -0.4089  -0.4082
    -0.4029  -0.4007  -0.3954  -0.3801  -0.3736  -0.3720  -0.3687  -0.3672
    -0.3614  -0.3595  -0.3559  -0.3454  -0.3332  -0.2995  -0.2881  -0.2845
    -0.2766  -0.2701  -0.2553  -0.2513  -0.2326  -0.1971  -0.1955  -0.1865
    -0.1822  -0.1755  -0.1684  -0.1676  -0.1517  -0.1428  -0.1368  -0.1282
    -0.1270  -0.1143  -0.1114  -0.0984  -0.0704  -0.0253  -0.0184  -0.0078
    -0.0037   0.0120   0.0176   0.0197   0.0243   0.0428   0.0537   0.0558
     0.0616   0.0628   0.0718   0.0762   0.0881   0.0957   0.1041   0.1061
     0.1096   0.1126   0.1170   0.1399   0.1403   0.1410   0.1432   0.1583
     0.1734   0.1765   0.1939   0.2012   0.2070   0.2091   0.2125   0.2171
     0.2192   0.2217   0.2294   0.2321   0.2365   0.2410   0.2419   0.2510
     0.2681   0.2755   0.2803   0.2846   0.2894   0.2947   0.2975   0.3031
     0.3076   0.3122   0.3182   0.3210   0.3243   0.3292   0.3300   0.3339
     0.3378   0.3529   0.3574   0.3722   0.3749   0.3772   0.3908   0.3992
     0.4033   0.4116   0.4139   0.4178   0.4246   0.4297   0.4345   0.4380
     0.4465   0.4495   0.4627   0.4721   0.4778   0.4789   0.4892   0.4911
     0.4941   0.4989   0.5067   0.5109   0.5119   0.5219   0.5278   0.5414
     0.5479   0.5525   0.5541   0.5664   0.5701   0.5761   0.5813   0.5904
     0.5942   0.5995   0.6009   0.6061   0.6067   0.6069   0.6127   0.6142
     0.6248   0.6281   0.6303   0.6316   0.6542   0.6554   0.6562   0.6615
     0.6639   0.6691   0.6732   0.6780   0.6795   0.6808   0.6850   0.6924
     0.6983   0.7074   0.7189   0.7228   0.7344   0.7408   0.7462   0.7516
     0.7529   0.7595   0.7621   0.7805   0.7915   0.7958   0.7985   0.8046
     0.8171   0.8228   0.8319   0.8442   0.8572   0.8618   0.8625   0.8667
     0.8723   0.8804   0.8853   0.8971   0.9003   0.9047   0.9065   0.9104
     0.9132   0.9188   0.9208   0.9232   0.9270   0.9327   0.9336   0.9374
     0.9405   0.9504   0.9544   0.9549   0.9578   0.9619   0.9650   0.9695
     0.9794   0.9921   0.9982   1.0112   1.0143   1.0302   1.0368   1.0447
     1.0475   1.0549   1.0568   1.0586   1.0601   1.0634   1.0665   1.0732
     1.0769   1.0872   1.0972   1.1022   1.1026   1.1088   1.1166   1.1256
     1.1284   1.1304   1.1412   1.1465   1.1473   1.1574   1.1607   1.1639
     1.1659   1.1701   1.1835   1.1854   1.1888   1.1951   1.1983   1.2008
     1.2025   1.2139   1.2159   1.2216   1.2263   1.2299   1.2353   1.2401
     1.2426   1.2433   1.2549   1.2570   1.2574   1.2633   1.2657   1.2671
     1.2828   1.2847   1.2870   1.2905   1.2930   1.3107   1.3138   1.3167
     1.3265   1.3341   1.3401   1.3442   1.3482   1.3564   1.3578   1.3634
     1.3645   1.3754   1.3790   1.3824   1.3856   1.3898   1.3957   1.4041
     1.4118   1.4134   1.4161   1.4191   1.4314   1.4377   1.4391   1.4513
     1.4519   1.4544   1.4600   1.4619   1.4655   1.4748   1.4776   1.4824
     1.4848   1.4867   1.4899   1.4933   1.5006   1.5086   1.5118   1.5172
     1.5191   1.5213   1.5267   1.5323   1.5472   1.5536   1.5560   1.5610
     1.5694   1.5728   1.5775   1.5822   1.5882   1.5902   1.5919   1.6018
     1.6060   1.6074   1.6120   1.6134   1.6150   1.6245   1.6274   1.6293
     1.6298   1.6322   1.6427   1.6436   1.6468   1.6473   1.6496   1.6554
     1.6578   1.6588   1.6632   1.6654   1.6656   1.6699   1.6744   1.6812
     1.6882   1.6897   1.6939   1.6980   1.7006   1.7072   1.7090   1.7125
     1.7179   1.7228   1.7259   1.7266   1.7328   1.7403   1.7472   1.7492
     1.7554   1.7603   1.7685   1.7700   1.7751   1.7860   1.7913   1.7948
     1.7968   1.7997   1.8045   1.8091   1.8158   1.8189   1.8200   1.8282
     1.8304   1.8396   1.8415   1.8442   1.8517   1.8553   1.8569   1.8592
     1.8696   1.8711   1.8728   1.8747   1.8764   1.8781   1.8808   1.8820
     1.8898   1.8933   1.8995   1.9001   1.9032   1.9065   1.9133   1.9145
     1.9165   1.9194   1.9261   1.9287   1.9367   1.9514   1.9528   1.9622
     1.9632   1.9665   1.9707   1.9724   1.9736   1.9760   1.9791   1.9861
     1.9867   1.9916   1.9934   1.9955   2.0097   2.0105   2.0107   2.0147
     2.0156   2.0220   2.0245   2.0260   2.0285   2.0310   2.0361   2.0371
     2.0393   2.0405   2.0441   2.0461   2.0540   2.0554   2.0626   2.0671
     2.0690   2.0711   2.0736   2.0808   2.0824   2.0890   2.0917   2.0976
     2.1018   2.1043   2.1070   2.1090   2.1181   2.1279   2.1296   2.1381
     2.1489   2.1613   2.1657   2.1719   2.1830   2.1947   2.2038   2.2130
     2.2199   2.2330   2.2397   2.3264   2.3345   2.3403   2.3747   2.3929
     2.4112   2.4329   2.4453   2.5045   2.5143   2.5997   2.6113   2.6289
     2.6441   2.6796   2.7015   2.9705   3.0433   3.0604   3.0724   3.1084
     3.1829   3.3393   3.4801   3.5143   3.5717   3.5729   3.6010   3.6954
     3.7347   3.7669   3.8154   3.8198   3.8498   3.9955   4.0482   4.0702
     4.1406   4.1801   4.2179   4.2369   4.2464   4.2691   4.2789   4.2816
     4.2844   4.3437   4.5647   4.6980   4.7649   4.8057   4.8512   4.8816
     4.9590   5.0270   5.0928   5.1601   5.1798   5.2015   5.2282   5.3602
     5.4009   5.5867   5.6183   5.6611   5.6740   5.7234   5.7622   5.8033
     5.8043   5.8855   5.9468   5.9654   5.9791   6.1013   6.1869   6.1884
     6.2709   6.3692   6.4538   6.4781   6.5305   6.5453   6.5607   6.5863
     6.8115   6.8854   6.9911   7.0872   7.1504   7.1759   7.2356   7.2786
     7.3314   7.3458   7.3590   7.4003   7.4336   7.4563   7.4805   7.5159
     7.5295   7.5494   7.6269   7.6456   7.7758   7.8945   7.8958   7.9336
     8.0985   8.1031   8.2123   8.2399   8.2899   8.3134   8.3590   8.3968
     8.4596   8.4907   8.5220   8.6029   8.6181   8.6498   8.7113   8.7644
     8.8410   8.9627   8.9707   8.9773   9.0211   9.0397   9.1022   9.1532
     9.2246   9.3110   9.3637   9.3838   9.4175   9.4625   9.4779   9.4883
     9.5318   9.5376   9.5700   9.6159   9.7041   9.7424   9.7641   9.7725
     9.8330   9.8577   9.9689   9.9734   9.9839  10.0098  10.0711  10.0738
    10.1803  10.2334  10.2742  10.3156  10.3386  10.3660  10.3757  10.4225
    10.5114  10.5302  10.5740  10.5986

          k = 0.2500-0.2165 0.0000 (256316 PWs)   bands (ev):

   -16.6605 -15.4831 -15.2736 -14.8850 -14.8345 -14.4919 -14.0401 -13.9010
   -13.6092 -13.4621 -13.1576 -12.6119 -12.5701 -12.5048 -12.0910 -11.9954
   -11.5692 -11.3466 -10.9029 -10.7789 -10.6772 -10.4612 -10.3589  -9.8838
    -9.2397  -9.1905  -8.7793  -8.7251  -8.4184  -8.4000  -8.0703  -7.9715
    -7.8299  -7.7698  -6.7127  -6.4331  -6.2161  -6.0635  -5.9303  -5.8736
    -5.7034  -5.6574  -5.4907  -5.4263  -5.1281  -5.0761  -4.8205  -4.7569
    -4.6070  -4.4526  -4.3189  -4.1828  -4.1025  -4.0315  -4.0126  -3.9598
    -3.8886  -3.7956  -3.7644  -3.7170  -3.6017  -3.5814  -3.5081  -3.4917
    -3.2160  -3.2096  -3.1831  -3.0724  -3.0215  -2.9730  -2.8943  -2.8830
    -2.8578  -2.8063  -2.7848  -2.7802  -2.6855  -2.6523  -2.6141  -2.5239
    -2.4905  -2.4554  -2.3998  -2.3671  -2.2886  -2.2881  -2.1803  -2.1670
    -2.1190  -2.0867  -2.0538  -1.9144  -1.9054  -1.8843  -1.7963  -1.7161
    -1.6938  -1.6559  -1.5868  -1.5487  -1.5414  -1.5299  -1.5198  -1.4850
    -1.4594  -1.4078  -1.4062  -1.3705  -1.3478  -1.3228  -1.3179  -1.2923
    -1.2661  -1.2011  -1.1884  -1.1857  -1.1489  -1.1455  -1.1419  -1.0971
    -1.0939  -1.0894  -1.0837  -1.0825  -1.0784  -1.0740  -1.0639  -1.0555
    -1.0504  -0.9947  -0.9891  -0.9619  -0.9590  -0.9527  -0.9371  -0.8860
    -0.8625  -0.8394  -0.8356  -0.7785  -0.7631  -0.7534  -0.7490  -0.7189
    -0.7165  -0.7026  -0.6744  -0.6713  -0.6699  -0.6682  -0.6477  -0.6345
    -0.6297  -0.6213  -0.6188  -0.6134  -0.5997  -0.5948  -0.5917  -0.5895
    -0.5889  -0.5798  -0.5764  -0.5472  -0.5398  -0.5129  -0.5056  -0.5042
    -0.5025  -0.4999  -0.4927  -0.4744  -0.4632  -0.4617  -0.4521  -0.4479
    -0.4422  -0.4406  -0.4343  -0.4295  -0.4288  -0.4197  -0.4031  -0.4000
    -0.3922  -0.3795  -0.3720  -0.3709  -0.3620  -0.3614  -0.3586  -0.3556
    -0.3433  -0.3422  -0.3305  -0.3125  -0.2955  -0.2794  -0.2768  -0.2739
    -0.2659  -0.2564  -0.2504  -0.2342  -0.2241  -0.2148  -0.2079  -0.1997
    -0.1881  -0.1755  -0.1640  -0.1588  -0.1348  -0.1311  -0.1243  -0.1066
    -0.0973  -0.0870  -0.0815  -0.0691  -0.0674  -0.0550  -0.0422  -0.0122
    -0.0037   0.0050   0.0142   0.0215   0.0325   0.0329   0.0357   0.0420
     0.0473   0.0541   0.0629   0.0698   0.0732   0.0928   0.0941   0.1079
     0.1088   0.1150   0.1287   0.1327   0.1448   0.1494   0.1554   0.1561
     0.1577   0.1715   0.1822   0.1851   0.1890   0.2036   0.2093   0.2106
     0.2141   0.2164   0.2251   0.2289   0.2324   0.2338   0.2373   0.2472
     0.2479   0.2541   0.2597   0.2605   0.2611   0.2749   0.2773   0.2807
     0.2862   0.2972   0.3032   0.3100   0.3297   0.3318   0.3454   0.3465
     0.3558   0.3597   0.3641   0.3693   0.3760   0.3828   0.3874   0.3938
     0.4004   0.4033   0.4164   0.4192   0.4243   0.4317   0.4396   0.4424
     0.4533   0.4742   0.4820   0.4875   0.4884   0.4906   0.4924   0.4961
     0.5056   0.5102   0.5106   0.5212   0.5305   0.5317   0.5377   0.5443
     0.5459   0.5532   0.5567   0.5613   0.5663   0.5671   0.5795   0.5812
     0.5909   0.5939   0.5957   0.5980   0.6002   0.6058   0.6105   0.6269
     0.6299   0.6324   0.6377   0.6385   0.6392   0.6516   0.6528   0.6592
     0.6878   0.6902   0.6910   0.6937   0.6945   0.6962   0.6984   0.7115
     0.7152   0.7320   0.7382   0.7416   0.7475   0.7520   0.7547   0.7580
     0.7613   0.7658   0.7680   0.7753   0.7793   0.7854   0.7899   0.7920
     0.8012   0.8049   0.8083   0.8178   0.8195   0.8334   0.8411   0.8594
     0.8682   0.8716   0.8806   0.8848   0.8904   0.8940   0.9066   0.9076
     0.9127   0.9171   0.9225   0.9252   0.9271   0.9279   0.9330   0.9421
     0.9509   0.9558   0.9564   0.9594   0.9624   0.9723   0.9784   0.9826
     0.9889   0.9926   0.9948   0.9972   1.0071   1.0169   1.0231   1.0287
     1.0300   1.0344   1.0374   1.0434   1.0503   1.0575   1.0765   1.0854
     1.0951   1.1044   1.1076   1.1112   1.1124   1.1157   1.1175   1.1216
     1.1343   1.1424   1.1503   1.1543   1.1639   1.1779   1.1810   1.1828
     1.1852   1.1877   1.1967   1.1983   1.1994   1.2032   1.2051   1.2140
     1.2178   1.2200   1.2256   1.2345   1.2408   1.2427   1.2479   1.2523
     1.2603   1.2624   1.2626   1.2688   1.2708   1.2802   1.2831   1.2875
     1.2891   1.2946   1.2991   1.3021   1.3054   1.3087   1.3100   1.3160
     1.3221   1.3270   1.3373   1.3402   1.3420   1.3437   1.3475   1.3496
     1.3552   1.3565   1.3606   1.3646   1.3680   1.3762   1.3793   1.3906
     1.3953   1.3966   1.3988   1.4081   1.4226   1.4250   1.4314   1.4324
     1.4434   1.4449   1.4470   1.4528   1.4550   1.4562   1.4714   1.4773
     1.4779   1.4854   1.4865   1.4886   1.4894   1.4914   1.4948   1.4977
     1.5046   1.5180   1.5201   1.5234   1.5275   1.5284   1.5352   1.5369
     1.5499   1.5552   1.5638   1.5676   1.5695   1.5739   1.5758   1.5898
     1.5910   1.5954   1.5976   1.6079   1.6093   1.6197   1.6340   1.6355
     1.6401   1.6510   1.6552   1.6562   1.6586   1.6659   1.6704   1.6767
     1.6835   1.6841   1.6875   1.6908   1.6920   1.6992   1.7024   1.7042
     1.7048   1.7080   1.7089   1.7129   1.7178   1.7224   1.7255   1.7275
     1.7464   1.7485   1.7539   1.7568   1.7580   1.7658   1.7661   1.7672
     1.7683   1.7718   1.7738   1.7741   1.7791   1.7802   1.7821   1.7830
     1.7960   1.7985   1.8022   1.8026   1.8059   1.8063   1.8082   1.8121
     1.8144   1.8260   1.8282   1.8350   1.8406   1.8442   1.8459   1.8540
     1.8567   1.8590   1.8605   1.8667   1.8704   1.8726   1.8826   1.8911
     1.8951   1.8960   1.9016   1.9076   1.9112   1.9139   1.9156   1.9212
     1.9269   1.9307   1.9362   1.9393   1.9420   1.9483   1.9516   1.9561
     1.9591   1.9615   1.9656   1.9680   1.9710   1.9746   1.9760   1.9810
     1.9816   1.9847   1.9854   1.9962   1.9989   1.9995   2.0065   2.0120
     2.0198   2.0214   2.0220   2.0249   2.0278   2.0310   2.0324   2.0335
     2.0363   2.0440   2.0457   2.0496   2.0502   2.0523   2.0574   2.0638
     2.0682   2.0713   2.0724   2.0748   2.0754   2.0834   2.0850   2.0879
     2.0954   2.0963   2.1011   2.1065   2.1121   2.1208   2.1239   2.1377
     2.1384   2.1455   2.1472   2.1516   2.1714   2.1758   2.1900   2.2249
     2.2383   2.2574   2.2835   2.3055   2.3133   2.3260   2.3276   2.3383
     2.3477   2.3525   2.3734   2.4822   2.6989   2.7078   2.7254   2.7374
     2.7656   2.8264   2.8303   2.8526   2.9524   3.0771   3.1554   3.1609
     3.1728   3.2193   3.2818   3.3727   3.3797   3.4234   3.4609   3.4887
     3.5190   3.6764   3.7524   3.7626   3.7885   3.9793   4.1148   4.2033
     4.2385   4.2630   4.3190   4.3941   4.4181   4.4487   4.4560   4.6084
     4.6666   4.6741   4.7390   4.7397   4.7713   4.8334   4.8541   4.8983
     4.9247   4.9450   4.9965   5.0471   5.1110   5.1775   5.1927   5.2534
     5.2867   5.3507   5.4013   5.4417   5.4865   5.5806   5.5891   5.7503
     5.7888   5.7991   5.9795   6.0054   6.0512   6.0666   6.1395   6.2118
     6.3134   6.3175   6.3850   6.4500   6.5281   6.6018   6.6335   6.6531
     6.8229   6.8657   7.0078   7.0340   7.0499   7.0890   7.1525   7.3276
     7.3460   7.3845   7.4268   7.5457   7.5861   7.6145   7.6750   7.6810
     7.7000   7.7119   7.7273   7.7447   7.7811   7.9207   7.9261   7.9653
     8.0163   8.0851   8.0883   8.1804   8.3456   8.3989   8.4213   8.4791
     8.5083   8.5615   8.5985   8.6278   8.6854   8.7811   8.7894   8.8013
     8.8263   8.8736   8.8868   8.9448   9.0310   9.0816   9.0967   9.1011
     9.1570   9.1801   9.2304   9.2829   9.3181   9.3256   9.3361   9.3456
     9.4409   9.5095   9.5961   9.6205   9.6395   9.6575   9.7036   9.7233
     9.7773   9.8051   9.8285   9.8659   9.8798   9.9442  10.0253  10.0615
    10.0962  10.1005  10.1541  10.2134  10.2327  10.2935  10.3382  10.4247
    10.4437  10.4763  10.5009  10.5709

          k =-0.5000 0.0000 0.0000 (256496 PWs)   bands (ev):

   -16.5951 -15.4502 -15.0549 -14.9605 -14.9597 -14.8413 -14.1590 -13.9458
   -13.8599 -13.8223 -12.5772 -12.2644 -12.1374 -12.0703 -11.8844 -11.8783
   -11.2618 -11.1798 -11.1639 -11.0675 -10.5507 -10.4916 -10.3540 -10.1514
    -9.7281  -9.6794  -9.4329  -9.1041  -8.5068  -8.4903  -8.3591  -8.3031
    -7.1917  -7.0045  -6.9465  -6.8048  -6.7537  -6.7372  -5.7181  -5.6039
    -5.2298  -4.7406  -4.7248  -4.6986  -4.5964  -4.4610  -4.2934  -4.2519
    -4.2371  -4.1972  -4.1851  -4.1785  -4.1769  -4.0930  -4.0598  -4.0561
    -4.0262  -3.9432  -3.9250  -3.9125  -3.7822  -3.7567  -3.7391  -3.6154
    -3.4580  -3.4084  -3.2944  -3.2833  -3.1579  -3.1314  -3.0519  -3.0317
    -2.9223  -2.8963  -2.7988  -2.7988  -2.7956  -2.7942  -2.7882  -2.7828
    -2.7348  -2.7341  -2.4785  -2.4312  -2.3138  -2.3031  -2.2399  -2.1929
    -2.1836  -2.1713  -2.1676  -2.1030  -2.0813  -1.9221  -1.9001  -1.8943
    -1.8912  -1.8609  -1.8539  -1.8086  -1.3679  -1.3393  -1.3365  -1.3329
    -1.2790  -1.2665  -1.2634  -1.2604  -1.2576  -1.2546  -1.2524  -1.2408
    -1.2076  -1.2037  -1.1277  -1.0475  -1.0469  -1.0447  -1.0432  -0.9952
    -0.9938  -0.9915  -0.9880  -0.9779  -0.9748  -0.9320  -0.9288  -0.9017
    -0.8794  -0.8790  -0.8539  -0.8525  -0.8386  -0.8377  -0.8215  -0.8201
    -0.7964  -0.7782  -0.7742  -0.7738  -0.7514  -0.7477  -0.7400  -0.7388
    -0.7225  -0.7146  -0.7049  -0.7020  -0.6891  -0.6887  -0.6831  -0.6814
    -0.6724  -0.6702  -0.6669  -0.6641  -0.6155  -0.6063  -0.6038  -0.5935
    -0.5851  -0.5825  -0.5685  -0.5679  -0.5490  -0.5490  -0.5423  -0.5419
    -0.5203  -0.5198  -0.5057  -0.5016  -0.4951  -0.4943  -0.4822  -0.4795
    -0.4771  -0.4752  -0.4615  -0.4390  -0.4303  -0.4262  -0.4215  -0.4020
    -0.3897  -0.3769  -0.3760  -0.3746  -0.3642  -0.3624  -0.3619  -0.3606
    -0.3538  -0.3507  -0.3431  -0.3355  -0.3354  -0.3283  -0.3226  -0.3098
    -0.3090  -0.2989  -0.2982  -0.2945  -0.2938  -0.2807  -0.2801  -0.2359
    -0.2351  -0.1646  -0.1620  -0.1288  -0.1261  -0.1184  -0.1158  -0.0921
    -0.0905  -0.0763  -0.0737  -0.0713  -0.0652  -0.0628  -0.0535  -0.0524
    -0.0405  -0.0301  -0.0175  -0.0170  -0.0047  -0.0041  -0.0006   0.0063
     0.0076   0.0185   0.0254   0.0273   0.0484   0.0491   0.0666   0.0729
     0.0922   0.0924   0.1074   0.1167   0.1237   0.1296   0.1422   0.1431
     0.1444   0.1450   0.1715   0.1749   0.1828   0.1846   0.1978   0.2001
     0.2159   0.2264   0.2312   0.2332   0.2480   0.2526   0.2533   0.2552
     0.2673   0.2689   0.2765   0.2798   0.2998   0.3001   0.3071   0.3100
     0.3141   0.3209   0.3329   0.3387   0.3410   0.3455   0.3530   0.3553
     0.3585   0.3593   0.3624   0.3654   0.3923   0.3998   0.4068   0.4199
     0.4259   0.4357   0.4382   0.4444   0.4517   0.4601   0.4622   0.4640
     0.4757   0.4783   0.4841   0.4908   0.4981   0.5123   0.5253   0.5358
     0.5377   0.5393   0.5420   0.5505   0.5533   0.5603   0.5680   0.5685
     0.5691   0.5715   0.5851   0.5860   0.5889   0.5904   0.5914   0.5956
     0.6064   0.6128   0.6196   0.6305   0.6349   0.6375   0.6542   0.6545
     0.6761   0.6791   0.6806   0.6935   0.6943   0.6953   0.6967   0.6973
     0.6976   0.7022   0.7036   0.7084   0.7127   0.7130   0.7156   0.7225
     0.7275   0.7310   0.7312   0.7326   0.7338   0.7389   0.7407   0.7422
     0.7474   0.7483   0.7509   0.7634   0.7671   0.7680   0.7708   0.7956
     0.8004   0.8120   0.8129   0.8288   0.8326   0.8362   0.8598   0.8716
     0.8781   0.8830   0.8846   0.8869   0.8987   0.9008   0.9036   0.9075
     0.9085   0.9332   0.9357   0.9409   0.9433   0.9510   0.9527   0.9580
     0.9599   0.9607   0.9677   0.9680   0.9708   0.9867   0.9873   0.9883
     0.9895   0.9909   0.9930   0.9961   0.9968   1.0098   1.0103   1.0160
     1.0183   1.0232   1.0274   1.0480   1.0536   1.0598   1.0691   1.0714
     1.0724   1.0916   1.0926   1.0930   1.1013   1.1046   1.1069   1.1107
     1.1125   1.1226   1.1261   1.1389   1.1430   1.1447   1.1489   1.1517
     1.1531   1.1618   1.1635   1.1685   1.1703   1.1741   1.1769   1.1781
     1.1796   1.2036   1.2088   1.2101   1.2104   1.2172   1.2179   1.2231
     1.2242   1.2309   1.2314   1.2394   1.2433   1.2467   1.2494   1.2586
     1.2611   1.2623   1.2648   1.2730   1.2787   1.2794   1.2878   1.2879
     1.2920   1.2943   1.3058   1.3065   1.3342   1.3344   1.3377   1.3428
     1.3476   1.3482   1.3574   1.3583   1.3644   1.3646   1.3662   1.3681
     1.3820   1.3837   1.3862   1.3900   1.3909   1.4003   1.4036   1.4157
     1.4158   1.4343   1.4348   1.4369   1.4371   1.4450   1.4573   1.4583
     1.4593   1.4615   1.4633   1.4664   1.4666   1.4704   1.4706   1.4769
     1.4915   1.4931   1.4997   1.5019   1.5033   1.5049   1.5236   1.5249
     1.5290   1.5339   1.5454   1.5517   1.5594   1.5636   1.5728   1.5792
     1.5914   1.5947   1.6050   1.6057   1.6118   1.6188   1.6220   1.6349
     1.6357   1.6367   1.6530   1.6585   1.6615   1.6673   1.6785   1.6805
     1.6811   1.6825   1.6856   1.6868   1.6879   1.6932   1.6983   1.7042
     1.7084   1.7145   1.7208   1.7218   1.7259   1.7283   1.7291   1.7296
     1.7363   1.7401   1.7403   1.7507   1.7512   1.7522   1.7633   1.7705
     1.7727   1.7753   1.7767   1.7826   1.7832   1.7839   1.7877   1.7967
     1.8043   1.8050   1.8104   1.8109   1.8125   1.8177   1.8182   1.8255
     1.8264   1.8284   1.8288   1.8305   1.8365   1.8411   1.8419   1.8481
     1.8588   1.8650   1.8670   1.8733   1.8819   1.8868   1.8894   1.8894
     1.8913   1.8933   1.8975   1.8984   1.9055   1.9078   1.9088   1.9161
     1.9162   1.9194   1.9203   1.9220   1.9243   1.9244   1.9275   1.9290
     1.9322   1.9379   1.9406   1.9481   1.9504   1.9569   1.9600   1.9638
     1.9699   1.9714   1.9724   1.9728   1.9747   1.9869   1.9897   1.9950
     1.9963   1.9979   1.9982   2.0129   2.0139   2.0143   2.0160   2.0190
     2.0194   2.0215   2.0275   2.0296   2.0345   2.0363   2.0421   2.0427
     2.0448   2.0449   2.0567   2.0623   2.0673   2.0680   2.0766   2.0773
     2.0873   2.0928   2.0941   2.0946   2.1061   2.1062   2.1065   2.1068
     2.1135   2.1153   2.1187   2.1409   2.1447   2.1536   2.1615   2.1624
     2.1700   2.1724   2.2017   2.2023   2.2089   2.2136   2.3350   2.3441
     2.3846   2.3869   2.5364   2.5365   2.7982   2.8047   2.8520   2.8537
     2.8588   2.8628   2.8787   2.8811   2.9034   2.9041   3.3127   3.3171
     3.3551   3.3577   3.6225   3.6522   3.6772   3.6860   3.7332   3.7418
     3.7699   3.7714   3.9019   3.9026   3.9300   3.9405   4.3330   4.3800
     4.3919   4.4003   4.4124   4.5267   4.5280   4.5946   4.6029   4.6044
     4.6514   4.7272   4.7445   4.9744   4.9874   5.0402   5.2308   5.2621
     5.2676   5.2740   5.2881   5.3171   5.4012   5.4252   5.4541   5.4577
     5.4817   5.5140   5.5897   5.6001   5.6164   5.6222   5.6634   5.6967
     5.6978   5.7122   5.7263   5.7542   5.7797   5.8010   5.8935   5.9065
     5.9113   6.0178   6.3031   6.3373   6.3562   6.3894   6.4646   6.4686
     6.4855   6.5116   6.5154   6.5713   6.6005   6.6046   6.6412   6.6572
     6.8485   7.0429   7.0739   7.1005   7.1067   7.1329   7.2044   7.2151
     7.6820   7.7056   7.7119   7.7241   7.8105   7.8153   7.8647   7.8781
     8.1173   8.1233   8.1890   8.1931   8.2160   8.2210   8.2547   8.2580
     8.4045   8.4093   8.4649   8.4662   8.5027   8.5043   8.6761   8.7082
     8.7678   8.7757   8.8389   8.8441   8.8598   8.8617   9.1353   9.1472
     9.1565   9.2148   9.2607   9.2651   9.3074   9.3235   9.4304   9.4473
     9.4711   9.4721   9.5414   9.6349   9.6520   9.6663   9.6667   9.7648
     9.7750   9.8818   9.9027   9.9123   9.9575   9.9576   9.9638   9.9733
     9.9761  10.0396  10.1610  10.1635  10.1757  10.1808  10.2680  10.2745
    10.3271  10.3376  10.4527  10.4757

          k =-0.5000-0.2165 0.0000 (256328 PWs)   bands (ev):

   -16.5950 -15.4393 -15.1364 -15.0845 -14.7210 -14.5495 -14.4827 -14.4432
   -13.4054 -13.1832 -13.0665 -13.0231 -12.1009 -11.9202 -11.3736 -11.3227
   -11.2747 -11.0928 -11.0875 -10.9123 -10.8914 -10.8871 -10.6903 -10.6841
    -9.4577  -9.4435  -9.0909  -9.0330  -8.6202  -8.2575  -8.1943  -8.1100
    -7.6870  -7.6619  -7.3335  -7.3075  -5.9265  -5.7589  -5.5168  -5.3408
    -5.2433  -5.0329  -4.8285  -4.6893  -4.6625  -4.6349  -4.6216  -4.5911
    -4.5529  -4.5492  -4.4843  -4.3066  -4.2730  -4.0336  -3.8682  -3.7280
    -3.6827  -3.6303  -3.6284  -3.6025  -3.5873  -3.5625  -3.5553  -3.5376
    -3.5354  -3.5267  -3.4912  -3.3778  -3.3264  -3.3069  -3.1233  -3.1047
    -3.0881  -3.0410  -2.8874  -2.8744  -2.8241  -2.7923  -2.7875  -2.7823
    -2.7648  -2.5700  -2.5516  -2.4789  -2.3799  -2.3684  -2.0846  -2.0840
    -2.0818  -1.9873  -1.9577  -1.9569  -1.9555  -1.9543  -1.8339  -1.7608
    -1.6847  -1.6740  -1.6590  -1.6379  -1.5448  -1.5238  -1.4909  -1.4787
    -1.4677  -1.4647  -1.4155  -1.3393  -1.3333  -1.2310  -1.2240  -1.1989
    -1.1968  -1.1877  -1.1855  -1.1306  -1.1206  -1.1154  -1.0636  -0.9890
    -0.9840  -0.9739  -0.9736  -0.9105  -0.8761  -0.8732  -0.8713  -0.8684
    -0.8436  -0.8294  -0.8276  -0.8258  -0.8247  -0.8231  -0.8219  -0.8135
    -0.8121  -0.8104  -0.7873  -0.7818  -0.7782  -0.7776  -0.7582  -0.7576
    -0.7568  -0.7546  -0.7461  -0.7453  -0.7426  -0.7419  -0.7033  -0.6998
    -0.6552  -0.6343  -0.6324  -0.6239  -0.6198  -0.6148  -0.5989  -0.5895
    -0.5877  -0.5764  -0.5761  -0.5547  -0.5523  -0.5417  -0.5410  -0.5246
    -0.5240  -0.5219  -0.5201  -0.5115  -0.5086  -0.5040  -0.5039  -0.4968
    -0.4938  -0.4885  -0.4656  -0.4651  -0.4611  -0.4587  -0.4416  -0.4400
    -0.4366  -0.4356  -0.4180  -0.4169  -0.4169  -0.4156  -0.3788  -0.3755
    -0.3719  -0.3709  -0.3505  -0.3360  -0.3213  -0.3204  -0.3161  -0.3133
    -0.2600  -0.2587  -0.2373  -0.2346  -0.2138  -0.2112  -0.2025  -0.2010
    -0.1787  -0.1606  -0.1596  -0.1493  -0.1466  -0.1458  -0.1438  -0.1355
    -0.1260  -0.1248  -0.1157  -0.0999  -0.0941  -0.0865  -0.0845  -0.0810
    -0.0763  -0.0683  -0.0652  -0.0598  -0.0596  -0.0336   0.0184   0.0271
     0.0397   0.0404   0.0587   0.0611   0.0665   0.0683   0.0716   0.0752
     0.0785   0.1041   0.1127   0.1186   0.1193   0.1208   0.1456   0.1539
     0.1659   0.1677   0.1683   0.1688   0.1701   0.1710   0.1954   0.1963
     0.2036   0.2059   0.2259   0.2264   0.2330   0.2382   0.2716   0.2762
     0.2843   0.2876   0.3110   0.3146   0.3247   0.3397   0.3405   0.3414
     0.3430   0.3438   0.3453   0.3493   0.3563   0.3572   0.3629   0.3639
     0.3737   0.3749   0.3953   0.4000   0.4233   0.4313   0.4316   0.4325
     0.4390   0.4401   0.4508   0.4577   0.4712   0.4781   0.4805   0.4808
     0.4849   0.4856   0.4862   0.4889   0.4908   0.4917   0.4942   0.5058
     0.5147   0.5222   0.5328   0.5350   0.5424   0.5450   0.5530   0.5627
     0.5664   0.5834   0.5937   0.6020   0.6030   0.6251   0.6284   0.6333
     0.6361   0.6372   0.6382   0.6414   0.6463   0.6595   0.6622   0.6642
     0.6692   0.6730   0.6775   0.6796   0.6800   0.6935   0.6954   0.6956
     0.6976   0.6979   0.7060   0.7086   0.7115   0.7139   0.7144   0.7156
     0.7271   0.7337   0.7377   0.7395   0.7407   0.7413   0.7442   0.7486
     0.7539   0.7564   0.7686   0.7689   0.7970   0.8049   0.8077   0.8088
     0.8160   0.8178   0.8202   0.8260   0.8450   0.8474   0.8497   0.8507
     0.8525   0.8650   0.8694   0.8737   0.8798   0.8845   0.8866   0.8991
     0.9068   0.9125   0.9218   0.9396   0.9434   0.9567   0.9597   0.9617
     0.9628   0.9733   0.9756   0.9788   0.9910   0.9913   0.9952   0.9965
     0.9968   1.0071   1.0082   1.0134   1.0139   1.0226   1.0229   1.0332
     1.0356   1.0373   1.0399   1.0470   1.0492   1.0564   1.0614   1.0675
     1.0704   1.0749   1.0778   1.0795   1.0833   1.0864   1.0983   1.1023
     1.1061   1.1064   1.1180   1.1239   1.1347   1.1376   1.1404   1.1523
     1.1555   1.1600   1.1642   1.1703   1.1741   1.1756   1.1761   1.1994
     1.2011   1.2040   1.2059   1.2068   1.2090   1.2173   1.2223   1.2237
     1.2256   1.2291   1.2306   1.2321   1.2347   1.2533   1.2562   1.2637
     1.2683   1.2711   1.2720   1.2734   1.2811   1.2849   1.2853   1.2863
     1.2993   1.3044   1.3110   1.3149   1.3192   1.3227   1.3241   1.3269
     1.3298   1.3346   1.3385   1.3438   1.3484   1.3500   1.3554   1.3624
     1.3666   1.3742   1.3779   1.3800   1.3826   1.3880   1.3886   1.3946
     1.3986   1.4070   1.4103   1.4123   1.4152   1.4263   1.4373   1.4492
     1.4572   1.4618   1.4649   1.4753   1.4823   1.4843   1.4849   1.4938
     1.5061   1.5137   1.5274   1.5346   1.5496   1.5538   1.5643   1.5675
     1.5705   1.5746   1.5788   1.5798   1.6036   1.6048   1.6075   1.6150
     1.6184   1.6201   1.6213   1.6236   1.6241   1.6275   1.6291   1.6296
     1.6326   1.6338   1.6384   1.6390   1.6422   1.6435   1.6458   1.6472
     1.6479   1.6480   1.6515   1.6579   1.6699   1.6852   1.6855   1.6860
     1.6930   1.6949   1.6971   1.7003   1.7019   1.7089   1.7131   1.7140
     1.7214   1.7255   1.7284   1.7319   1.7348   1.7369   1.7383   1.7390
     1.7403   1.7413   1.7495   1.7600   1.7769   1.7776   1.7792   1.7811
     1.7937   1.7990   1.8026   1.8058   1.8106   1.8188   1.8192   1.8219
     1.8235   1.8288   1.8338   1.8423   1.8542   1.8547   1.8589   1.8608
     1.8722   1.8772   1.8779   1.8779   1.8808   1.8864   1.8887   1.8892
     1.8935   1.9026   1.9061   1.9072   1.9211   1.9218   1.9239   1.9245
     1.9338   1.9364   1.9367   1.9386   1.9399   1.9404   1.9449   1.9453
     1.9510   1.9513   1.9538   1.9575   1.9578   1.9619   1.9672   1.9680
     1.9693   1.9705   1.9729   1.9744   1.9790   1.9803   1.9847   1.9909
     1.9915   2.0028   2.0051   2.0054   2.0071   2.0110   2.0114   2.0138
     2.0218   2.0246   2.0255   2.0308   2.0323   2.0334   2.0449   2.0465
     2.0468   2.0477   2.0637   2.0639   2.0717   2.0747   2.0907   2.0924
     2.0949   2.0965   2.1018   2.1029   2.1060   2.1065   2.1209   2.1213
     2.1257   2.1272   2.1284   2.1366   2.1716   2.1723   2.1728   2.1734
     2.1789   2.1806   2.1990   2.2016   2.2141   2.2162   2.2201   2.2346
     2.3884   2.3901   2.3912   2.3983   2.4408   2.4451   2.7092   2.7102
     2.9892   2.9980   3.0173   3.0268   3.1187   3.1255   3.1436   3.1442
     3.3416   3.3478   3.3867   3.3922   3.8425   3.8525   3.9999   4.0189
     4.0277   4.0332   4.0337   4.0488   4.1733   4.1760   4.2592   4.2640
     4.3710   4.4418   4.4923   4.5210   4.5222   4.5292   4.5298   4.6033
     4.6399   4.8098   4.8149   4.8184   4.8210   4.9715   5.0229   5.0778
     5.1254   5.1311   5.2321   5.2346   5.2500   5.2880   5.3352   5.3967
     5.4083   5.4791   5.5370   5.5819   5.5877   5.6212   5.6225   5.6349
     5.6520   5.6826   5.7306   5.7439   5.7856   5.8761   5.9585   6.0514
     6.0559   6.0957   6.1365   6.1557   6.1728   6.1812   6.3775   6.3893
     6.3933   6.4058   6.4695   6.5256   6.7637   6.7793   6.8080   6.8186
     7.1871   7.1911   7.2656   7.2699   7.4886   7.4964   7.4977   7.5177
     7.5772   7.5863   7.7210   7.7289   7.7339   7.7386   7.9357   7.9364
     7.9386   7.9394   8.1010   8.1242   8.1516   8.1921   8.1932   8.3938
     8.4117   8.4873   8.5157   8.5332   8.5995   8.6271   8.6364   8.6382
     8.6658   8.6767   8.8832   8.8967   8.9168   8.9541   9.0281   9.0297
     9.2250   9.2340   9.2700   9.2949   9.4110   9.4122   9.4130   9.4150
     9.5032   9.5057   9.5125   9.5167   9.5867   9.5898   9.6006   9.6024
     9.6268   9.6346   9.6457   9.6669   9.7178   9.7301   9.9659   9.9808
    10.0302  10.0505  10.2649  10.2691  10.2746  10.2802  10.3539  10.3547
    10.5160  10.5179  10.5290  10.5357

     the Fermi energy is     3.9148 ev

!    total energy              =  -13679.27697826 Ry
     Harris-Foulkes estimate   =  -13679.27697825 Ry
     estimated scf accuracy    <          9.7E-09 Ry

     The total energy is the sum of the following terms:

     one-electron contribution = -106314.66405700 Ry
     hartree contribution      =   54652.65544949 Ry
     xc contribution           =   -4789.49713160 Ry
     ewald contribution        =   42778.93883404 Ry
     Dispersion Correction     =      -3.10053462 Ry
     smearing contrib. (-TS)   =      -3.60953857 Ry

     convergence has been achieved in  41 iterations

     Writing output data file gc.save
 
     init_run     :    109.41s CPU    117.03s WALL (       1 calls)
     electrons    :  13111.45s CPU  13952.89s WALL (       1 calls)

     Called by init_run:
     wfcinit      :    106.98s CPU    114.28s WALL (       1 calls)
     potinit      :      0.36s CPU      0.37s WALL (       1 calls)

     Called by electrons:
     c_bands      :  12101.18s CPU  12848.62s WALL (      41 calls)
     sum_band     :    838.55s CPU    907.52s WALL (      41 calls)
     v_of_rho     :      2.71s CPU      3.41s WALL (      42 calls)
     newd         :      8.29s CPU     13.29s WALL (      42 calls)
     mix_rho      :    160.59s CPU    179.94s WALL (      41 calls)

     Called by c_bands:
     init_us_2    :     37.19s CPU     37.63s WALL (     498 calls)
     cegterg      :  11936.94s CPU  12677.93s WALL (     252 calls)

     Called by sum_band:
     sum_band:bec :      5.06s CPU      5.64s WALL (     246 calls)
     addusdens    :      7.94s CPU     12.81s WALL (      41 calls)

     Called by *egterg:
     h_psi        :   4307.07s CPU   4639.87s WALL (    1677 calls)
     s_psi        :   1082.46s CPU   1095.20s WALL (    1677 calls)
     g_psi        :     10.63s CPU     10.63s WALL (    1419 calls)
     cdiaghg      :   3473.99s CPU   3600.60s WALL (    1665 calls)

     Called by h_psi:
     add_vuspsi   :   1092.01s CPU   1105.76s WALL (    1677 calls)

     General routines
     calbec       :   1505.96s CPU   1516.79s WALL (    1923 calls)
     fft          :      3.41s CPU      3.99s WALL (     545 calls)
     ffts         :     95.35s CPU    107.02s WALL (   24046 calls)
     fftw         :   2387.18s CPU   2649.91s WALL ( 1304984 calls)
     davcio       :      0.38s CPU      4.73s WALL (       6 calls)
 
     Parallel routines
     fft_scatter  :   1542.93s CPU   1696.41s WALL ( 1329575 calls)
 
     PWSCF        :     3h40m CPU        3h54m WALL

 
   This run was terminated on:  15:41:29  20Apr2017            

=------------------------------------------------------------------------------=
   JOB DONE.
=------------------------------------------------------------------------------=
