
     Program PWSCF v.5.4.0 starts on 11Mar2017 at 11: 4: 7 

     This program is part of the open-source Quantum ESPRESSO suite
     for quantum simulation of materials; please cite
         "P. Giannozzi et al., J. Phys.:Condens. Matter 21 395502 (2009);
          URL http://www.quantum-espresso.org", 
     in publications or presentations arising from this work. More details at
     http://www.quantum-espresso.org/quote

     Parallel version (MPI & OpenMP), running on      56 processor cores
     Number of MPI processes:                56
     Threads/MPI process:                     1
     R & G space division:  proc/nbgrp/npool/nimage =      56
     Waiting for input...
     Reading input from standard input
Warning: card &IONS ignored
Warning: card / ignored

     Current dimensions of program PWSCF are:
     Max number of different atomic species (ntypx) = 10
     Max number of k-points (npk) =  40000
     Max angular momentum in pseudopotentials (lmaxx) =  3

     -------------------------------------
     Parameters for Dispersion Correction:
     -------------------------------------
       atom      VdW radius       C_6     

        Cu         2.952        374.666
        C_h        2.744         60.710
        C          2.744         60.710

     Subspace diagonalization in iterative solution of the eigenvalue problem:
     one sub-group per band group will be used
     scalapack distributed-memory algorithm (size of sub-group:  5*  5 procs)

 
     Parallelization info
     --------------------
     sticks:   dense  smooth     PW     G-vecs:    dense   smooth      PW
     Min         204     204     54                36612    36612    4962
     Max         205     205     55                36617    36617    4968
     Sum       11433   11433   3039              2050409  2050409  278033
 


     bravais-lattice index     =            0
     lattice parameter (alat)  =      13.9425  a.u.
     unit-cell volume          =   21209.0878 (a.u.)^3
     number of atoms/cell      =          148
     number of atomic types    =            3
     number of electrons       =      1292.00
     number of Kohn-Sham states=          775
     kinetic-energy cutoff     =      80.0000  Ry
     charge density cutoff     =     320.0000  Ry
     convergence threshold     =      1.0E-08
     mixing beta               =       0.7000
     number of iterations used =            8  local-TF  mixing
     Exchange-correlation      =  SLA  PW   PBX  PBC ( 1  4  3  4 0 0)

     celldm(1)=  13.942539  celldm(2)=   0.000000  celldm(3)=   0.000000
     celldm(4)=   0.000000  celldm(5)=   0.000000  celldm(6)=   0.000000

     crystal axes: (cart. coord. in units of alat)
               a(1) = (   1.000000   0.000000   0.000000 )  
               a(2) = (   0.000000   2.309401   0.000000 )  
               a(3) = (   0.000000   0.000000   3.388418 )  

     reciprocal axes: (cart. coord. in units 2 pi/alat)
               b(1) = (  1.000000  0.000000  0.000000 )  
               b(2) = (  0.000000  0.433013  0.000000 )  
               b(3) = (  0.000000  0.000000  0.295123 )  


     PseudoPot. # 1 for Cu read from file:
     /home/549/hxw549/Short/pseudopotentials/Cu.pbe-n-van_ak.UPF
     MD5 check sum: 601f7c30f7467666bec936e0661ce3e1
     Pseudo is Ultrasoft + core correction, Zval = 11.0
     Generated by new atomic code, or converted to UPF format
     Using radial grid of  867 points,  6 beta functions with: 
                l(1) =   0
                l(2) =   0
                l(3) =   1
                l(4) =   1
                l(5) =   2
                l(6) =   2
     Q(r) pseudized with  8 coefficients,  rinner =    1.400   1.400   1.400
                                                       1.400   1.400

     PseudoPot. # 2 for C  read from file:
     /home/549/hxw549/Short/pseudopotentials/C.star1s-pbe-mt_gipaw.UPF
     MD5 check sum: ef0cb3dee31bd9e4ba2a832a2c716264
     Pseudo is Norm-conserving, Zval =  5.0
     Generated by new atomic code, or converted to UPF format
     Using radial grid of 1073 points,  1 beta functions with: 
                l(1) =   0

     PseudoPot. # 3 for C  read from file:
     /home/549/hxw549/Short/pseudopotentials/C.pbe-mt_gipaw.UPF
     MD5 check sum: 5ac2f21f2c440b14befe521540822c15
     Pseudo is Norm-conserving, Zval =  4.0
     Generated by new atomic code, or converted to UPF format
     Using radial grid of 1073 points,  1 beta functions with: 
                l(1) =   0

     atomic species   valence    mass     pseudopotential
        Cu            11.00    63.54600     Cu( 1.00)
        C_h            5.00    12.01070     C ( 1.00)
        C              4.00    12.01070     C ( 1.00)

      2 Sym. Ops. (no inversion) found



   Cartesian axes

     site n.     atom                  positions (alat units)
         1           Cu  tau(   1) = (   0.0000000   0.0000567   0.9971194  )
         2           Cu  tau(   2) = (   0.2499927   0.2309760   0.9972946  )
         3           Cu  tau(   3) = (   0.5000000   0.0000313   0.9971490  )
         4           Cu  tau(   4) = (   0.7500073   0.2309760   0.9972946  )
         5           Cu  tau(   5) = (   0.0000000   0.4618437   0.9973425  )
         6           Cu  tau(   6) = (   0.2499840   0.6927701   0.9971914  )
         7           Cu  tau(   7) = (   0.5000000   0.4618722   0.9973119  )
         8           Cu  tau(   8) = (   0.7500160   0.6927701   0.9971914  )
         9           Cu  tau(   9) = (   0.0000000   0.9237521   0.9970621  )
        10           Cu  tau(  10) = (   0.2500157   1.1547420   0.9971373  )
        11           Cu  tau(  11) = (   0.5000000   0.9237453   0.9970727  )
        12           Cu  tau(  12) = (   0.7499843   1.1547420   0.9971373  )
        13           Cu  tau(  13) = (   0.0000000   1.3856555   0.9972830  )
        14           Cu  tau(  14) = (   0.2500029   1.6165618   0.9973242  )
        15           Cu  tau(  15) = (   0.5000000   1.3857014   0.9973005  )
        16           Cu  tau(  16) = (   0.7499971   1.6165618   0.9973242  )
        17           Cu  tau(  17) = (   0.0000000   1.8474941   0.9971969  )
        18           Cu  tau(  18) = (   0.2500043   2.0784518   0.9970745  )
        19           Cu  tau(  19) = (   0.5000000   1.8474499   0.9971773  )
        20           Cu  tau(  20) = (   0.7499957   2.0784518   0.9970745  )
        21           Cu  tau(  21) = (   0.0000000   0.2308065   1.2457643  )
        22           Cu  tau(  22) = (   0.2499892  -0.0001010   1.2455764  )
        23           Cu  tau(  23) = (   0.5000000   0.2308938   1.2456746  )
        24           Cu  tau(  24) = (   0.7500108  -0.0001010   1.2455764  )
        25           Cu  tau(  25) = (   0.0000000   0.6929786   1.2456406  )
        26           Cu  tau(  26) = (   0.2499874   0.4619293   1.2457459  )
        27           Cu  tau(  27) = (   0.5000000   0.6929012   1.2456074  )
        28           Cu  tau(  28) = (   0.7500126   0.4619293   1.2457459  )
        29           Cu  tau(  29) = (   0.0000000   1.1546142   1.2455676  )
        30           Cu  tau(  30) = (   0.2499981   0.9237849   1.2455149  )
        31           Cu  tau(  31) = (   0.5000000   1.1545763   1.2455800  )
        32           Cu  tau(  32) = (   0.7500019   0.9237849   1.2455149  )
        33           Cu  tau(  33) = (   0.0000000   1.6166029   1.2456910  )
        34           Cu  tau(  34) = (   0.2500161   1.3855492   1.2457134  )
        35           Cu  tau(  35) = (   0.5000000   1.6166555   1.2458019  )
        36           Cu  tau(  36) = (   0.7499839   1.3855492   1.2457134  )
        37           Cu  tau(  37) = (   0.0000000   2.0784993   1.2455162  )
        38           Cu  tau(  38) = (   0.2500161   1.8476387   1.2456210  )
        39           Cu  tau(  39) = (   0.5000000   2.0784755   1.2455152  )
        40           Cu  tau(  40) = (   0.7499839   1.8476387   1.2456210  )
        41           Cu  tau(  41) = (   0.0000000  -0.0003182   1.4954305  )
        42           Cu  tau(  42) = (   0.2500224   0.2307186   1.4951678  )
        43           Cu  tau(  43) = (   0.5000000  -0.0002059   1.4952775  )
        44           Cu  tau(  44) = (   0.7499776   0.2307186   1.4951678  )
        45           Cu  tau(  45) = (   0.0000000   0.4620254   1.4950571  )
        46           Cu  tau(  46) = (   0.2500339   0.6931225   1.4952807  )
        47           Cu  tau(  47) = (   0.5000000   0.4619896   1.4952144  )
        48           Cu  tau(  48) = (   0.7499661   0.6931225   1.4952807  )
        49           Cu  tau(  49) = (   0.0000000   0.9238798   1.4954544  )
        50           Cu  tau(  50) = (   0.2499708   1.1544329   1.4953374  )
        51           Cu  tau(  51) = (   0.5000000   0.9237633   1.4954072  )
        52           Cu  tau(  52) = (   0.7500292   1.1544329   1.4953374  )
        53           Cu  tau(  53) = (   0.0000000   1.3854453   1.4952066  )
        54           Cu  tau(  54) = (   0.2499861   1.6167017   1.4951298  )
        55           Cu  tau(  55) = (   0.5000000   1.3853760   1.4951346  )
        56           Cu  tau(  56) = (   0.7500139   1.6167017   1.4951298  )
        57           Cu  tau(  57) = (   0.0000000   1.8477718   1.4952308  )
        58           Cu  tau(  58) = (   0.2499930   2.0785254   1.4954090  )
        59           Cu  tau(  59) = (   0.5000000   1.8478762   1.4953503  )
        60           Cu  tau(  60) = (   0.7500070   2.0785254   1.4954090  )
        61           Cu  tau(  61) = (   0.0000000   0.2310733   1.7440777  )
        62           Cu  tau(  62) = (   0.2501089  -0.0001294   1.7450479  )
        63           Cu  tau(  63) = (   0.5000000   0.2306045   1.7445985  )
        64           Cu  tau(  64) = (   0.7498911  -0.0001294   1.7450479  )
        65           Cu  tau(  65) = (   0.0000000   0.6927994   1.7446059  )
        66           Cu  tau(  66) = (   0.2502918   0.4619532   1.7441197  )
        67           Cu  tau(  67) = (   0.5000000   0.6931011   1.7451318  )
        68           Cu  tau(  68) = (   0.7497082   0.4619532   1.7441197  )
        69           Cu  tau(  69) = (   0.0000000   1.1545789   1.7453503  )
        70           Cu  tau(  70) = (   0.2500220   0.9237908   1.7453835  )
        71           Cu  tau(  71) = (   0.5000000   1.1545999   1.7449118  )
        72           Cu  tau(  72) = (   0.7499780   0.9237908   1.7453835  )
        73           Cu  tau(  73) = (   0.0000000   1.6167791   1.7444075  )
        74           Cu  tau(  74) = (   0.2497438   1.3855115   1.7442733  )
        75           Cu  tau(  75) = (   0.5000000   1.6164906   1.7439233  )
        76           Cu  tau(  76) = (   0.7502562   1.3855115   1.7442733  )
        77           Cu  tau(  77) = (   0.0000000   2.0782721   1.7455014  )
        78           Cu  tau(  78) = (   0.2498426   1.8476765   1.7447807  )
        79           Cu  tau(  79) = (   0.5000000   2.0787016   1.7454002  )
        80           Cu  tau(  80) = (   0.7501574   1.8476765   1.7447807  )
        81           Cu  tau(  81) = (   0.0000000   0.0010732   1.9906710  )
        82           Cu  tau(  82) = (   0.2503054   0.2314650   1.9904877  )
        83           Cu  tau(  83) = (   0.5000000   0.0001335   1.9924670  )
        84           Cu  tau(  84) = (   0.7496946   0.2314650   1.9904877  )
        85           Cu  tau(  85) = (   0.0000000   0.4618379   1.9901778  )
        86           Cu  tau(  86) = (   0.2508441   0.6921348   1.9910282  )
        87           Cu  tau(  87) = (   0.5000000   0.4613052   1.9913358  )
        88           Cu  tau(  88) = (   0.7491559   0.6921348   1.9910282  )
        89           Cu  tau(  89) = (   0.0000000   0.9224699   1.9915918  )
        90           Cu  tau(  90) = (   0.2491275   1.1552920   1.9912642  )
        91           Cu  tau(  91) = (   0.5000000   0.9247757   1.9920574  )
        92           Cu  tau(  92) = (   0.7508725   1.1552920   1.9912642  )
        93           Cu  tau(  93) = (   0.0000000   1.3865904   1.9916296  )
        94           Cu  tau(  94) = (   0.2499532   1.6162906   1.9903050  )
        95           Cu  tau(  95) = (   0.5000000   1.3858063   1.9901800  )
        96           Cu  tau(  96) = (   0.7500468   1.6162906   1.9903050  )
        97           Cu  tau(  97) = (   0.0000000   1.8468318   1.9923212  )
        98           Cu  tau(  98) = (   0.2497561   2.0783183   1.9915134  )
        99           Cu  tau(  99) = (   0.5000000   1.8467805   1.9903847  )
       100           Cu  tau( 100) = (   0.7502439   2.0783183   1.9915134  )
       101           C   tau( 101) = (   0.0000000   0.0962962   2.4228003  )
       102           C   tau( 102) = (   0.0000000   0.2886925   2.4578366  )
       103           C   tau( 103) = (   0.1666323   0.0000435   2.3878590  )
       104           C   tau( 104) = (   0.1664900   0.3848966   2.4473596  )
       105           C   tau( 105) = (   0.3331238   0.0962174   2.4198998  )
       106           C   tau( 106) = (   0.3331280   0.2886629   2.4534452  )
       107           C   tau( 107) = (   0.5000000  -0.0000818   2.3845383  )
       108           C   tau( 108) = (   0.5000000   0.3849277   2.4429275  )
       109           C   tau( 109) = (   0.6668762   0.0962174   2.4198998  )
       110           C   tau( 110) = (   0.6668720   0.2886629   2.4534452  )
       111           C   tau( 111) = (   0.8333677   0.0000435   2.3878590  )
       112           C   tau( 112) = (   0.8335100   0.3848966   2.4473596  )
       113           C   tau( 113) = (   0.0000000   0.6735163   2.3553844  )
       114           C   tau( 114) = (   0.0000000   0.8659398   2.3193316  )
       115           C   tau( 115) = (   0.1664759   0.5773226   2.3882927  )
       116           C   tau( 116) = (   0.1667428   0.9622141   2.3283312  )
       117           C   tau( 117) = (   0.3332094   0.6735984   2.3519146  )
       118           C   tau( 118) = (   0.3332031   0.8660537   2.3188436  )
       119           C   tau( 119) = (   0.5000000   0.5773685   2.3848365  )
       120           C_h tau( 120) = (   0.5000000   0.9623380   2.3274096  )
       121           C   tau( 121) = (   0.6667906   0.6735984   2.3519146  )
       122           C   tau( 122) = (   0.6667969   0.8660537   2.3188436  )
       123           C   tau( 123) = (   0.8335241   0.5773226   2.3882927  )
       124           C   tau( 124) = (   0.8332572   0.9622141   2.3283312  )
       125           C   tau( 125) = (   0.0000000   1.2508867   2.4191408  )
       126           C   tau( 126) = (   0.0000000   1.4433300   2.4518594  )
       127           C   tau( 127) = (   0.1667360   1.1546708   2.3859614  )
       128           C   tau( 128) = (   0.1668939   1.5396104   2.4444049  )
       129           C   tau( 129) = (   0.3335095   1.2509657   2.4217973  )
       130           C   tau( 130) = (   0.3334866   1.4433958   2.4564270  )
       131           C   tau( 131) = (   0.5000000   1.1547731   2.3885773  )
       132           C   tau( 132) = (   0.5000000   1.5396099   2.4488369  )
       133           C   tau( 133) = (   0.6664905   1.2509657   2.4217973  )
       134           C   tau( 134) = (   0.6665134   1.4433958   2.4564270  )
       135           C   tau( 135) = (   0.8332640   1.1546708   2.3859614  )
       136           C   tau( 136) = (   0.8331061   1.5396104   2.4444049  )
       137           C   tau( 137) = (   0.0000000   1.8283510   2.3502882  )
       138           C   tau( 138) = (   0.0000000   2.0207949   2.3185726  )
       139           C   tau( 139) = (   0.1668959   1.7320513   2.3858666  )
       140           C   tau( 140) = (   0.1666186   2.1169980   2.3278568  )
       141           C   tau( 141) = (   0.3334155   1.8282368   2.3543407  )
       142           C   tau( 142) = (   0.3334352   2.0206763   2.3191825  )
       143           C   tau( 143) = (   0.5000000   1.7319961   2.3895667  )
       144           C   tau( 144) = (   0.5000000   2.1168754   2.3283177  )
       145           C   tau( 145) = (   0.6665845   1.8282368   2.3543407  )
       146           C   tau( 146) = (   0.6665648   2.0206763   2.3191825  )
       147           C   tau( 147) = (   0.8331041   1.7320513   2.3858666  )
       148           C   tau( 148) = (   0.8333814   2.1169980   2.3278568  )

     number of k points=     6  gaussian smearing, width (Ry)=  0.1000
                       cart. coord. in units 2pi/alat
        k(    1) = (   0.0000000   0.0000000   0.0000000), wk =   0.2500000
        k(    2) = (   0.0000000  -0.2165064   0.0000000), wk =   0.2500000
        k(    3) = (   0.2500000   0.0000000   0.0000000), wk =   0.5000000
        k(    4) = (   0.2500000  -0.2165064   0.0000000), wk =   0.5000000
        k(    5) = (  -0.5000000   0.0000000   0.0000000), wk =   0.2500000
        k(    6) = (  -0.5000000  -0.2165064   0.0000000), wk =   0.2500000

     Dense  grid:  2050409 G-vectors     FFT dimensions: (  80, 192, 270)

     Largest allocated arrays     est. size (Mb)     dimensions
        Kohn-Sham Wavefunctions        54.44 Mb     (    4604,  775)
        NL pseudopotentials           129.82 Mb     (    4604, 1848)
        Each V/rho on FFT grid          1.17 Mb     (   76800)
        Each G-vector array             0.28 Mb     (   36616)
        G-vector shells                 0.14 Mb     (   17932)
     Largest temporary arrays     est. size (Mb)     dimensions
        Auxiliary wavefunctions       217.78 Mb     (    4604, 3100)
        Each subspace H/S matrix        5.87 Mb     (     620,  620)
        Each <psi_i|beta_j> matrix     21.85 Mb     (    1848,  775)
        Arrays for rho mixing           9.38 Mb     (   76800,    8)

     Initial potential from superposition of free atoms
     Check: negative starting charge=   -0.001810

     starting charge 1266.81751, renormalised to 1292.00000

     negative rho (up, down):  1.846E-03 0.000E+00
     Starting wfc are 1284 randomized atomic wfcs

     total cpu time spent up to now is      108.1 secs

     Self-consistent Calculation

     iteration #  1     ecut=    80.00 Ry     beta=0.70
     Davidson diagonalization with overlap
     ethr =  1.00E-04,  avg # of iterations = 31.3

     negative rho (up, down):  2.614E+01 0.000E+00

     total cpu time spent up to now is     2010.6 secs

     total energy              =   -9666.87744433 Ry
     Harris-Foulkes estimate   =  -17259.31058573 Ry
     estimated scf accuracy    <  177465.50238639 Ry

     iteration #  2     ecut=    80.00 Ry     beta=0.70
     Davidson diagonalization with overlap
     ethr =  1.00E-02,  avg # of iterations = 11.3

     negative rho (up, down):  3.067E+01 0.000E+00

     total cpu time spent up to now is     2907.0 secs

     total energy              =  -12309.06368501 Ry
     Harris-Foulkes estimate   =  -13631.27723627 Ry
     estimated scf accuracy    <   22036.67801640 Ry

     iteration #  3     ecut=    80.00 Ry     beta=0.70
     Davidson diagonalization with overlap
     ethr =  1.00E-02,  avg # of iterations =  7.0

     negative rho (up, down):  3.079E+01 0.000E+00

     total cpu time spent up to now is     3435.2 secs

     total energy              =  -12442.67457807 Ry
     Harris-Foulkes estimate   =  -13361.59955588 Ry
     estimated scf accuracy    <    5993.26283842 Ry

     iteration #  4     ecut=    80.00 Ry     beta=0.70
     Davidson diagonalization with overlap
     ethr =  1.00E-02,  avg # of iterations =  5.7

     negative rho (up, down):  2.351E+01 0.000E+00

     total cpu time spent up to now is     3912.3 secs

     total energy              =  -12818.70475975 Ry
     Harris-Foulkes estimate   =  -13078.43704690 Ry
     estimated scf accuracy    <    2433.27502767 Ry

     iteration #  5     ecut=    80.00 Ry     beta=0.70
     Davidson diagonalization with overlap
     ethr =  1.00E-02,  avg # of iterations =  4.0

     negative rho (up, down):  1.737E+01 0.000E+00

     total cpu time spent up to now is     4205.8 secs

     total energy              =  -12840.40854302 Ry
     Harris-Foulkes estimate   =  -12971.41036567 Ry
     estimated scf accuracy    <    1159.90026946 Ry

     iteration #  6     ecut=    80.00 Ry     beta=0.70
     Davidson diagonalization with overlap
     ethr =  1.00E-02,  avg # of iterations =  3.0

     negative rho (up, down):  1.212E+01 0.000E+00

     total cpu time spent up to now is     4416.1 secs

     total energy              =  -12827.01719704 Ry
     Harris-Foulkes estimate   =  -12900.39878568 Ry
     estimated scf accuracy    <     601.29483657 Ry

     iteration #  7     ecut=    80.00 Ry     beta=0.70
     Davidson diagonalization with overlap
     ethr =  1.00E-02,  avg # of iterations =  2.0

     negative rho (up, down):  8.398E+00 0.000E+00

     total cpu time spent up to now is     4600.5 secs

     total energy              =  -12800.83922481 Ry
     Harris-Foulkes estimate   =  -12846.16284889 Ry
     estimated scf accuracy    <     413.94073844 Ry

     iteration #  8     ecut=    80.00 Ry     beta=0.70
     Davidson diagonalization with overlap
     ethr =  1.00E-02,  avg # of iterations =  2.0

     negative rho (up, down):  7.072E+00 0.000E+00

     total cpu time spent up to now is     4779.1 secs

     total energy              =  -12785.54430719 Ry
     Harris-Foulkes estimate   =  -12813.89253025 Ry
     estimated scf accuracy    <     525.85210437 Ry

     iteration #  9     ecut=    80.00 Ry     beta=0.70
     Davidson diagonalization with overlap
     ethr =  1.00E-02,  avg # of iterations =  1.2

     negative rho (up, down):  5.887E+00 0.000E+00

     total cpu time spent up to now is     4946.8 secs

     total energy              =  -12782.51409187 Ry
     Harris-Foulkes estimate   =  -12796.56929913 Ry
     estimated scf accuracy    <     206.59785323 Ry

     iteration # 10     ecut=    80.00 Ry     beta=0.70
     Davidson diagonalization with overlap
     ethr =  1.00E-02,  avg # of iterations =  1.0

     negative rho (up, down):  1.383E+00 0.000E+00

     total cpu time spent up to now is     5112.8 secs

     total energy              =  -12740.52687490 Ry
     Harris-Foulkes estimate   =  -12784.50174871 Ry
     estimated scf accuracy    <     154.72557134 Ry

     iteration # 11     ecut=    80.00 Ry     beta=0.70
     Davidson diagonalization with overlap
     ethr =  1.00E-02,  avg # of iterations =  1.7

     negative rho (up, down):  7.917E-01 0.000E+00

     total cpu time spent up to now is     5286.7 secs

     total energy              =  -12729.57280565 Ry
     Harris-Foulkes estimate   =  -12748.43472857 Ry
     estimated scf accuracy    <     327.74694651 Ry

     iteration # 12     ecut=    80.00 Ry     beta=0.70
     Davidson diagonalization with overlap
     ethr =  1.00E-02,  avg # of iterations =  1.5

     negative rho (up, down):  6.026E-01 0.000E+00

     total cpu time spent up to now is     5458.9 secs

     total energy              =  -12722.59229520 Ry
     Harris-Foulkes estimate   =  -12741.75087017 Ry
     estimated scf accuracy    <     237.71139825 Ry

     iteration # 13     ecut=    80.00 Ry     beta=0.70
     Davidson diagonalization with overlap
     ethr =  1.00E-02,  avg # of iterations =  2.8

     negative rho (up, down):  2.752E+00 0.000E+00

     total cpu time spent up to now is     5649.9 secs

     total energy              =  -12714.25289543 Ry
     Harris-Foulkes estimate   =  -12736.50104011 Ry
     estimated scf accuracy    <     217.60217529 Ry

     iteration # 14     ecut=    80.00 Ry     beta=0.70
     Davidson diagonalization with overlap
     ethr =  1.00E-02,  avg # of iterations =  2.0

     negative rho (up, down):  5.417E+00 0.000E+00

     total cpu time spent up to now is     5830.5 secs

     total energy              =  -12719.77834343 Ry
     Harris-Foulkes estimate   =  -12727.04431577 Ry
     estimated scf accuracy    <      83.28112471 Ry

     iteration # 15     ecut=    80.00 Ry     beta=0.70
     Davidson diagonalization with overlap
     ethr =  6.45E-03,  avg # of iterations =  1.0

     negative rho (up, down):  5.384E+00 0.000E+00

     total cpu time spent up to now is     5996.7 secs

     total energy              =  -12716.61297825 Ry
     Harris-Foulkes estimate   =  -12721.34663082 Ry
     estimated scf accuracy    <      49.69641063 Ry

     iteration # 16     ecut=    80.00 Ry     beta=0.70
     Davidson diagonalization with overlap
     ethr =  3.85E-03,  avg # of iterations =  2.2

     negative rho (up, down):  5.087E+00 0.000E+00

     total cpu time spent up to now is     6176.8 secs

     total energy              =  -12715.40835301 Ry
     Harris-Foulkes estimate   =  -12718.81554062 Ry
     estimated scf accuracy    <      37.42626365 Ry

     iteration # 17     ecut=    80.00 Ry     beta=0.70
     Davidson diagonalization with overlap
     ethr =  2.90E-03,  avg # of iterations =  2.2

     negative rho (up, down):  5.095E+00 0.000E+00

     total cpu time spent up to now is     6356.7 secs

     total energy              =  -12714.50044893 Ry
     Harris-Foulkes estimate   =  -12716.73130433 Ry
     estimated scf accuracy    <      25.69565272 Ry

     iteration # 18     ecut=    80.00 Ry     beta=0.70
     Davidson diagonalization with overlap
     ethr =  1.99E-03,  avg # of iterations =  5.5

     negative rho (up, down):  4.218E+00 0.000E+00

     total cpu time spent up to now is     6575.3 secs

     total energy              =  -12712.53540590 Ry
     Harris-Foulkes estimate   =  -12715.20484329 Ry
     estimated scf accuracy    <      18.09074316 Ry

     iteration # 19     ecut=    80.00 Ry     beta=0.70
     Davidson diagonalization with overlap
     ethr =  1.40E-03,  avg # of iterations =  7.0

     negative rho (up, down):  3.012E+00 0.000E+00

     total cpu time spent up to now is     6818.2 secs

     total energy              =  -12711.79729331 Ry
     Harris-Foulkes estimate   =  -12712.97864491 Ry
     estimated scf accuracy    <       8.49492292 Ry

     iteration # 20     ecut=    80.00 Ry     beta=0.70
     Davidson diagonalization with overlap
     ethr =  6.58E-04,  avg # of iterations =  2.7

     negative rho (up, down):  1.621E+00 0.000E+00

     total cpu time spent up to now is     7003.9 secs

     total energy              =  -12710.81513590 Ry
     Harris-Foulkes estimate   =  -12712.02994363 Ry
     estimated scf accuracy    <       7.31764292 Ry

     iteration # 21     ecut=    80.00 Ry     beta=0.70
     Davidson diagonalization with overlap
     ethr =  5.66E-04,  avg # of iterations =  2.2

     negative rho (up, down):  2.017E+00 0.000E+00

     total cpu time spent up to now is     7185.3 secs

     total energy              =  -12710.98586099 Ry
     Harris-Foulkes estimate   =  -12710.95887509 Ry
     estimated scf accuracy    <       9.83711572 Ry

     iteration # 22     ecut=    80.00 Ry     beta=0.70
     Davidson diagonalization with overlap
     ethr =  5.66E-04,  avg # of iterations =  1.2

     negative rho (up, down):  1.624E+00 0.000E+00

     total cpu time spent up to now is     7353.6 secs

     total energy              =  -12710.32283033 Ry
     Harris-Foulkes estimate   =  -12711.33498132 Ry
     estimated scf accuracy    <       7.01955698 Ry

     iteration # 23     ecut=    80.00 Ry     beta=0.70
     Davidson diagonalization with overlap
     ethr =  5.43E-04,  avg # of iterations =  1.0

     negative rho (up, down):  3.411E-01 0.000E+00

     total cpu time spent up to now is     7520.1 secs

     total energy              =  -12709.45261916 Ry
     Harris-Foulkes estimate   =  -12710.60967053 Ry
     estimated scf accuracy    <       5.99032521 Ry

     iteration # 24     ecut=    80.00 Ry     beta=0.70
     Davidson diagonalization with overlap
     ethr =  4.64E-04,  avg # of iterations = 10.2

     total cpu time spent up to now is     7793.2 secs

     total energy              =  -12708.31698659 Ry
     Harris-Foulkes estimate   =  -12709.66828619 Ry
     estimated scf accuracy    <       4.35296224 Ry

     iteration # 25     ecut=    80.00 Ry     beta=0.70
     Davidson diagonalization with overlap
     ethr =  3.37E-04,  avg # of iterations =  2.8

     total cpu time spent up to now is     7980.7 secs

     total energy              =  -12707.73648462 Ry
     Harris-Foulkes estimate   =  -12708.57373424 Ry
     estimated scf accuracy    <       7.52842016 Ry

     iteration # 26     ecut=    80.00 Ry     beta=0.70
     Davidson diagonalization with overlap
     ethr =  3.37E-04,  avg # of iterations =  2.5

     negative rho (up, down):  2.852E-01 0.000E+00

     total cpu time spent up to now is     8165.0 secs

     total energy              =  -12707.14097788 Ry
     Harris-Foulkes estimate   =  -12707.99847651 Ry
     estimated scf accuracy    <       2.89388237 Ry

     iteration # 27     ecut=    80.00 Ry     beta=0.70
     Davidson diagonalization with overlap
     ethr =  2.24E-04,  avg # of iterations =  6.8

     negative rho (up, down):  4.881E-02 0.000E+00

     total cpu time spent up to now is     8405.2 secs

     total energy              =  -12706.87460532 Ry
     Harris-Foulkes estimate   =  -12707.34914270 Ry
     estimated scf accuracy    <       5.13525254 Ry

     iteration # 28     ecut=    80.00 Ry     beta=0.70
     Davidson diagonalization with overlap
     ethr =  2.24E-04,  avg # of iterations =  2.0

     negative rho (up, down):  4.315E-01 0.000E+00

     total cpu time spent up to now is     8584.7 secs

     total energy              =  -12706.82547207 Ry
     Harris-Foulkes estimate   =  -12707.27719149 Ry
     estimated scf accuracy    <       1.65259122 Ry

     iteration # 29     ecut=    80.00 Ry     beta=0.70
     Davidson diagonalization with overlap
     ethr =  1.28E-04,  avg # of iterations =  8.2

     negative rho (up, down):  2.009E-01 0.000E+00

     total cpu time spent up to now is     8860.7 secs

     total energy              =  -12706.82197900 Ry
     Harris-Foulkes estimate   =  -12706.90600784 Ry
     estimated scf accuracy    <       0.65087428 Ry

     iteration # 30     ecut=    80.00 Ry     beta=0.70
     Davidson diagonalization with overlap
     ethr =  5.04E-05,  avg # of iterations =  3.5

     negative rho (up, down):  1.709E-01 0.000E+00

     total cpu time spent up to now is     9056.5 secs

     total energy              =  -12706.80983324 Ry
     Harris-Foulkes estimate   =  -12706.85632131 Ry
     estimated scf accuracy    <       0.32328408 Ry

     iteration # 31     ecut=    80.00 Ry     beta=0.70
     Davidson diagonalization with overlap
     ethr =  2.50E-05,  avg # of iterations =  8.0

     negative rho (up, down):  8.503E-02 0.000E+00

     total cpu time spent up to now is     9325.3 secs

     total energy              =  -12706.81910561 Ry
     Harris-Foulkes estimate   =  -12706.83526643 Ry
     estimated scf accuracy    <       0.11477665 Ry

     iteration # 32     ecut=    80.00 Ry     beta=0.70
     Davidson diagonalization with overlap
     ethr =  8.88E-06,  avg # of iterations = 10.5

     negative rho (up, down):  1.835E-02 0.000E+00

     total cpu time spent up to now is     9625.1 secs

     total energy              =  -12706.82790142 Ry
     Harris-Foulkes estimate   =  -12706.83084543 Ry
     estimated scf accuracy    <       0.03088053 Ry

     iteration # 33     ecut=    80.00 Ry     beta=0.70
     Davidson diagonalization with overlap
     c_bands:  1 eigenvalues not converged
     c_bands:  2 eigenvalues not converged
     ethr =  2.39E-06,  avg # of iterations = 14.7

     negative rho (up, down):  1.368E-02 0.000E+00

     total cpu time spent up to now is     9974.7 secs

     total energy              =  -12706.82821214 Ry
     Harris-Foulkes estimate   =  -12706.82977026 Ry
     estimated scf accuracy    <       0.00918882 Ry

     iteration # 34     ecut=    80.00 Ry     beta=0.70
     Davidson diagonalization with overlap
     c_bands:  1 eigenvalues not converged
     ethr =  7.11E-07,  avg # of iterations =  9.8

     negative rho (up, down):  1.205E-02 0.000E+00

     total cpu time spent up to now is    10257.6 secs

     total energy              =  -12706.82918410 Ry
     Harris-Foulkes estimate   =  -12706.82919854 Ry
     estimated scf accuracy    <       0.00557738 Ry

     iteration # 35     ecut=    80.00 Ry     beta=0.70
     Davidson diagonalization with overlap
     c_bands:  1 eigenvalues not converged
     ethr =  4.32E-07,  avg # of iterations =  9.5

     negative rho (up, down):  8.771E-03 0.000E+00

     total cpu time spent up to now is    10535.3 secs

     total energy              =  -12706.82938166 Ry
     Harris-Foulkes estimate   =  -12706.82946464 Ry
     estimated scf accuracy    <       0.00109750 Ry

     iteration # 36     ecut=    80.00 Ry     beta=0.70
     Davidson diagonalization with overlap
     c_bands:  1 eigenvalues not converged
     ethr =  8.49E-08,  avg # of iterations = 10.7

     negative rho (up, down):  9.631E-03 0.000E+00

     total cpu time spent up to now is    10843.8 secs

     total energy              =  -12706.82954584 Ry
     Harris-Foulkes estimate   =  -12706.82951995 Ry
     estimated scf accuracy    <       0.00044413 Ry

     iteration # 37     ecut=    80.00 Ry     beta=0.70
     Davidson diagonalization with overlap
     ethr =  3.44E-08,  avg # of iterations =  4.2

     negative rho (up, down):  5.920E-03 0.000E+00

     total cpu time spent up to now is    11061.5 secs

     total energy              =  -12706.82953111 Ry
     Harris-Foulkes estimate   =  -12706.82957164 Ry
     estimated scf accuracy    <       0.00005356 Ry

     iteration # 38     ecut=    80.00 Ry     beta=0.70
     Davidson diagonalization with overlap
     ethr =  4.15E-09,  avg # of iterations =  5.3

     negative rho (up, down):  5.570E-03 0.000E+00

     total cpu time spent up to now is    11295.7 secs

     total energy              =  -12706.82954009 Ry
     Harris-Foulkes estimate   =  -12706.82953710 Ry
     estimated scf accuracy    <       0.00003799 Ry

     iteration # 39     ecut=    80.00 Ry     beta=0.70
     Davidson diagonalization with overlap
     ethr =  2.94E-09,  avg # of iterations =  4.8

     negative rho (up, down):  3.478E-03 0.000E+00

     total cpu time spent up to now is    11513.1 secs

     total energy              =  -12706.82951208 Ry
     Harris-Foulkes estimate   =  -12706.82954331 Ry
     estimated scf accuracy    <       0.00001239 Ry

     iteration # 40     ecut=    80.00 Ry     beta=0.70
     Davidson diagonalization with overlap
     ethr =  9.59E-10,  avg # of iterations =  5.0

     negative rho (up, down):  2.485E-03 0.000E+00

     total cpu time spent up to now is    11739.1 secs

     total energy              =  -12706.82950695 Ry
     Harris-Foulkes estimate   =  -12706.82951305 Ry
     estimated scf accuracy    <       0.00000425 Ry

     iteration # 41     ecut=    80.00 Ry     beta=0.70
     Davidson diagonalization with overlap
     ethr =  3.29E-10,  avg # of iterations =  3.2

     negative rho (up, down):  2.458E-03 0.000E+00

     total cpu time spent up to now is    11943.5 secs

     total energy              =  -12706.82950740 Ry
     Harris-Foulkes estimate   =  -12706.82950751 Ry
     estimated scf accuracy    <       0.00000211 Ry

     iteration # 42     ecut=    80.00 Ry     beta=0.70
     Davidson diagonalization with overlap
     ethr =  1.63E-10,  avg # of iterations =  2.0

     negative rho (up, down):  2.163E-03 0.000E+00

     total cpu time spent up to now is    12133.2 secs

     total energy              =  -12706.82950760 Ry
     Harris-Foulkes estimate   =  -12706.82950773 Ry
     estimated scf accuracy    <       0.00000093 Ry

     iteration # 43     ecut=    80.00 Ry     beta=0.70
     Davidson diagonalization with overlap
     ethr =  7.19E-11,  avg # of iterations =  2.0

     negative rho (up, down):  2.123E-03 0.000E+00

     total cpu time spent up to now is    12318.1 secs

     total energy              =  -12706.82950794 Ry
     Harris-Foulkes estimate   =  -12706.82950771 Ry
     estimated scf accuracy    <       0.00000020 Ry

     iteration # 44     ecut=    80.00 Ry     beta=0.70
     Davidson diagonalization with overlap
     ethr =  1.53E-11,  avg # of iterations =  3.0

     negative rho (up, down):  2.091E-03 0.000E+00

     total cpu time spent up to now is    12522.7 secs

     total energy              =  -12706.82950807 Ry
     Harris-Foulkes estimate   =  -12706.82950796 Ry
     estimated scf accuracy    <       0.00000005 Ry

     iteration # 45     ecut=    80.00 Ry     beta=0.70
     Davidson diagonalization with overlap
     ethr =  3.50E-12,  avg # of iterations =  3.0

     negative rho (up, down):  2.097E-03 0.000E+00

     total cpu time spent up to now is    12750.9 secs

     total energy              =  -12706.82950808 Ry
     Harris-Foulkes estimate   =  -12706.82950808 Ry
     estimated scf accuracy    <       0.00000001 Ry

     iteration # 46     ecut=    80.00 Ry     beta=0.70
     Davidson diagonalization with overlap
     ethr =  9.76E-13,  avg # of iterations =  2.0

     negative rho (up, down):  2.078E-03 0.000E+00

     total cpu time spent up to now is    12929.1 secs

     End of self-consistent calculation

          k = 0.0000 0.0000 0.0000 (256287 PWs)   bands (ev):

   -17.1052 -16.0787 -15.7599 -15.2623 -14.8451 -14.5583 -14.5041 -14.0983
   -14.0777 -13.8013 -13.7836 -13.3376 -13.1215 -13.1091 -13.0551 -12.7564
   -12.6953 -11.6090 -11.3781 -11.3706 -11.2742 -11.2230 -10.0278  -9.8140
    -9.7662  -9.4135  -9.4067  -8.7985  -8.6940  -8.3768  -8.3052  -7.9538
    -7.8186  -7.7849  -7.6220  -7.3389  -7.3342  -7.1820  -7.1436  -6.3442
    -6.3149  -6.0590  -5.9908  -5.8810  -5.8672  -5.7832  -5.7417  -5.7237
    -5.5992  -5.4980  -5.4534  -4.9977  -4.8662  -4.8656  -4.8172  -4.7227
    -4.4865  -4.4051  -4.2239  -4.0148  -4.0090  -4.0047  -3.9907  -3.9672
    -3.8247  -3.6113  -3.5504  -3.4768  -3.4302  -3.4109  -3.2747  -3.2534
    -3.2338  -3.1712  -3.1169  -3.0661  -3.0243  -3.0238  -3.0041  -2.9286
    -2.8946  -2.8827  -2.8622  -2.7939  -2.7796  -2.7494  -2.7478  -2.7196
    -2.7100  -2.6008  -2.5901  -2.5363  -2.3663  -2.3308  -2.3271  -2.3249
    -2.2342  -2.2124  -2.1807  -2.1771  -2.1743  -2.1741  -2.1701  -2.1488
    -2.1266  -2.0445  -2.0442  -2.0440  -2.0418  -2.0359  -1.9707  -1.8634
    -1.8101  -1.7990  -1.7957  -1.7782  -1.7603  -1.7592  -1.7565  -1.7466
    -1.7139  -1.7015  -1.6919  -1.6800  -1.6788  -1.6313  -1.6034  -1.5881
    -1.5821  -1.5686  -1.5600  -1.5540  -1.5434  -1.5414  -1.5365  -1.5286
    -1.5278  -1.5045  -1.4590  -1.4541  -1.4384  -1.4053  -1.3911  -1.3893
    -1.3853  -1.3749  -1.3219  -1.2892  -1.2836  -1.2727  -1.2363  -1.2327
    -1.2146  -1.2132  -1.2128  -1.1894  -1.1869  -1.1323  -1.1212  -1.1050
    -1.0999  -1.0803  -1.0731  -1.0686  -1.0536  -1.0527  -1.0472  -1.0462
    -1.0447  -1.0429  -1.0401  -1.0359  -1.0344  -1.0247  -1.0004  -0.9811
    -0.9774  -0.9615  -0.9574  -0.9499  -0.9458  -0.9388  -0.8962  -0.8917
    -0.8905  -0.8885  -0.8797  -0.8786  -0.8781  -0.8768  -0.8758  -0.8753
    -0.8712  -0.8706  -0.8704  -0.8659  -0.8654  -0.8647  -0.8548  -0.8473
    -0.8439  -0.8181  -0.7910  -0.7726  -0.7159  -0.7145  -0.7105  -0.7068
    -0.7058  -0.7000  -0.6853  -0.6783  -0.6666  -0.6625  -0.6458  -0.6444
    -0.6384  -0.6365  -0.6203  -0.6140  -0.6139  -0.5865  -0.5861  -0.5845
    -0.5838  -0.5813  -0.5805  -0.5805  -0.5631  -0.5212  -0.5190  -0.4785
    -0.4652  -0.4645  -0.4617  -0.4601  -0.4492  -0.4475  -0.4370  -0.4324
    -0.4304  -0.4283  -0.4278  -0.4264  -0.4259  -0.4248  -0.4105  -0.4095
    -0.4085  -0.4018  -0.3925  -0.3882  -0.3766  -0.3753  -0.3428  -0.3270
    -0.3174  -0.3143  -0.3141  -0.2866  -0.2865  -0.2860  -0.2860  -0.2827
    -0.2814  -0.2731  -0.2661  -0.2654  -0.2528  -0.2511  -0.2494  -0.2426
    -0.2394  -0.2390  -0.2388  -0.2383  -0.2375  -0.2358  -0.2314  -0.2170
    -0.2161  -0.2146  -0.2141  -0.2079  -0.1841  -0.1564  -0.1514  -0.1487
    -0.1421  -0.1414  -0.1148  -0.1144  -0.1079  -0.1049  -0.0967  -0.0887
    -0.0887  -0.0820  -0.0820  -0.0799  -0.0741  -0.0423  -0.0388  -0.0323
    -0.0291  -0.0226  -0.0083  -0.0059  -0.0022  -0.0022   0.0021   0.0075
     0.0124   0.0147   0.0214   0.0219   0.0251   0.0258   0.0263   0.0319
     0.0380   0.0380   0.0423   0.0449   0.0462   0.0541   0.0555   0.0802
     0.0825   0.0930   0.1047   0.1105   0.1278   0.1454   0.1490   0.1648
     0.1819   0.2014   0.2093   0.2113   0.2129   0.2146   0.2164   0.2165
     0.2304   0.2308   0.2339   0.2378   0.2384   0.2404   0.2419   0.2550
     0.2989   0.2995   0.3054   0.3176   0.3193   0.3349   0.3394   0.3477
     0.3486   0.3533   0.3582   0.3583   0.3724   0.3757   0.3906   0.3966
     0.3984   0.4040   0.4073   0.4112   0.4135   0.4284   0.4583   0.4609
     0.4668   0.4675   0.4679   0.4698   0.4703   0.4792   0.4798   0.4918
     0.4941   0.5047   0.5071   0.5083   0.5107   0.5109   0.5122   0.5137
     0.5175   0.5235   0.5252   0.5264   0.5441   0.5446   0.5569   0.5700
     0.5714   0.5758   0.5829   0.5829   0.6017   0.6061   0.6087   0.6144
     0.6195   0.6254   0.6272   0.6282   0.6309   0.6332   0.6351   0.6516
     0.6547   0.6601   0.6612   0.6640   0.6644   0.6681   0.6712   0.6726
     0.6779   0.6848   0.6851   0.6916   0.7107   0.7177   0.7192   0.7220
     0.7221   0.7271   0.7271   0.7307   0.7345   0.7409   0.7410   0.7634
     0.7792   0.7842   0.7855   0.7892   0.7894   0.7900   0.7935   0.7979
     0.7981   0.8044   0.8276   0.8277   0.8485   0.8503   0.8534   0.8537
     0.8545   0.8662   0.8691   0.8775   0.8785   0.8798   0.8818   0.8850
     0.8995   0.9064   0.9091   0.9148   0.9238   0.9241   0.9260   0.9438
     0.9478   0.9514   0.9572   0.9602   0.9664   0.9696   0.9738   0.9764
     0.9795   0.9820   0.9858   0.9876   0.9899   0.9919   0.9934   0.9996
     1.0014   1.0031   1.0046   1.0127   1.0138   1.0218   1.0263   1.0290
     1.0408   1.0531   1.0567   1.0577   1.0650   1.0705   1.0705   1.0748
     1.0764   1.0949   1.0954   1.0979   1.0980   1.1054   1.1116   1.1120
     1.1174   1.1189   1.1234   1.1485   1.1521   1.1690   1.1707   1.1768
     1.1772   1.1819   1.1863   1.1883   1.1895   1.1967   1.1980   1.2039
     1.2047   1.2061   1.2080   1.2095   1.2183   1.2194   1.2255   1.2259
     1.2285   1.2327   1.2349   1.2390   1.2455   1.2459   1.2494   1.2500
     1.2531   1.2543   1.2604   1.2696   1.2717   1.2783   1.2804   1.2828
     1.2861   1.2868   1.2875   1.2875   1.2907   1.2972   1.3191   1.3250
     1.3317   1.3337   1.3361   1.3374   1.3384   1.3415   1.3457   1.3539
     1.3585   1.3596   1.3628   1.3644   1.3785   1.3894   1.3919   1.3947
     1.3967   1.3978   1.3989   1.4015   1.4016   1.4073   1.4100   1.4130
     1.4169   1.4191   1.4235   1.4248   1.4269   1.4311   1.4436   1.4471
     1.4475   1.4488   1.4572   1.4668   1.4792   1.4890   1.4894   1.4929
     1.4988   1.5050   1.5204   1.5251   1.5311   1.5317   1.5577   1.5583
     1.5693   1.5778   1.5817   1.5843   1.6030   1.6189   1.6196   1.6219
     1.6226   1.6313   1.6449   1.6541   1.8504   1.9344   2.0707   2.1206
     2.1363   2.1771   2.1771   2.1803   2.1811   2.1862   2.1939   2.1944
     2.1963   2.2363   2.3902   2.4005   2.4198   2.4381   2.4552   2.4802
     2.5092   2.5115   2.5182   2.5700   2.6472   2.6572   2.8372   2.9787
     3.0109   3.0615   3.1917   3.4175   3.5912   3.7137   3.7886   3.8324
     3.8479   3.8554   3.8772   3.8778   3.9398   3.9465   3.9751   3.9759
     3.9890   3.9952   4.0766   4.0993   4.1664   4.2029   4.2146   4.2589
     4.3386   4.3401   4.5151   4.5523   4.5652   4.7253   4.7320   4.7427
     5.2682   5.3025   5.3154   5.3757   5.5723   5.8238   5.8393   5.8925
     5.9146   5.9236   5.9626   6.0950   6.3364   6.3487   6.3508   6.4279
     6.4290   6.4761   6.4951   6.5304   6.5424   6.5696   6.5796   6.6472
     6.7189   6.7217   6.7650   6.7668   6.9496   6.9504   6.9673   7.0105
     7.1408   7.2117   7.2944   7.3239   7.4764   7.6005   7.6518   7.6618
     7.6697   7.7193   7.7373   7.7523   7.7590   8.0266   8.0292   8.0601
     8.0692   8.1341   8.1742   8.2418   8.2573   8.3010   8.3020   8.3085
     8.3135   8.3187   8.3223   8.4014   8.4485   8.4560   8.5081   8.5227
     8.5496   8.6592   8.6752   8.7458   8.7491   8.7574   8.7644   8.8257
     8.8285   8.8557   8.9401   8.9679   9.0791   9.0795   9.1562   9.2372
     9.2643   9.3006   9.3255   9.3432   9.3871   9.5225   9.5637   9.6136
     9.6306   9.6644   9.6910   9.7566   9.8007   9.8105  10.0270

          k = 0.0000-0.2165 0.0000 (256176 PWs)   bands (ev):

   -17.1049 -16.1078 -15.6049 -15.4580 -14.9033 -14.4972 -14.1412 -14.1366
   -14.0646 -14.0289 -13.5629 -13.5262 -13.5116 -13.4805 -12.4150 -12.2641
   -12.1565 -12.1238 -12.0642 -12.0304 -10.5742 -10.4448 -10.4341 -10.3320
    -9.3642  -9.3153  -9.1511  -8.9851  -8.8126  -8.7562  -8.1959  -8.1180
    -7.9798  -7.9482  -7.3062  -7.1888  -6.8119  -6.7961  -6.7089  -6.6768
    -6.6635  -6.6238  -6.3163  -6.2640  -5.9222  -5.9095  -5.4131  -5.3774
    -5.3124  -5.1794  -5.0968  -5.0373  -4.9453  -4.8524  -4.8502  -4.8055
    -4.7364  -4.6824  -4.6437  -4.4541  -3.9957  -3.9647  -3.7524  -3.6784
    -3.6406  -3.5455  -3.3665  -3.3393  -3.3357  -3.3295  -3.1945  -3.1840
    -3.1426  -3.1293  -3.0600  -3.0551  -3.0542  -3.0228  -2.9790  -2.9766
    -2.9530  -2.9422  -2.9205  -2.9147  -2.8675  -2.7318  -2.6378  -2.6266
    -2.5955  -2.5934  -2.5855  -2.5804  -2.4576  -2.4274  -2.3770  -2.3506
    -2.3315  -2.3291  -2.2602  -2.2566  -2.2483  -2.2467  -2.1532  -2.1470
    -2.1378  -2.1349  -2.0712  -2.0538  -2.0100  -2.0099  -1.9824  -1.9821
    -1.8713  -1.8533  -1.7907  -1.7823  -1.7711  -1.7702  -1.7656  -1.7653
    -1.7512  -1.7479  -1.7451  -1.7396  -1.7288  -1.7162  -1.6685  -1.6680
    -1.5572  -1.5102  -1.5056  -1.4980  -1.4748  -1.4743  -1.4658  -1.4637
    -1.4048  -1.3999  -1.3932  -1.3925  -1.3398  -1.3396  -1.3103  -1.3080
    -1.2982  -1.2978  -1.2953  -1.2951  -1.2765  -1.2725  -1.2528  -1.2523
    -1.2482  -1.2466  -1.2404  -1.2391  -1.2041  -1.1747  -1.1646  -1.1615
    -1.1548  -1.1492  -1.1489  -1.1378  -1.1117  -1.1114  -1.0741  -1.0738
    -1.0702  -1.0698  -1.0489  -1.0457  -1.0090  -1.0086  -1.0069  -1.0050
    -1.0049  -1.0047  -0.9550  -0.9549  -0.9432  -0.9424  -0.9369  -0.9368
    -0.9225  -0.9201  -0.9191  -0.9185  -0.8605  -0.8576  -0.8448  -0.8446
    -0.8445  -0.8345  -0.8340  -0.8293  -0.8272  -0.8254  -0.8086  -0.8055
    -0.7823  -0.7815  -0.7810  -0.7742  -0.7189  -0.6793  -0.6787  -0.6770
    -0.6763  -0.6551  -0.6547  -0.6337  -0.6335  -0.6270  -0.6263  -0.6226
    -0.6226  -0.6091  -0.6087  -0.5726  -0.5720  -0.5705  -0.5700  -0.5690
    -0.5683  -0.5634  -0.5618  -0.5326  -0.5323  -0.5317  -0.5152  -0.5054
    -0.5054  -0.5027  -0.4874  -0.4809  -0.4805  -0.4708  -0.4692  -0.4612
    -0.4589  -0.4486  -0.4460  -0.4434  -0.3827  -0.3824  -0.3810  -0.3803
    -0.3683  -0.3630  -0.3589  -0.3274  -0.3263  -0.3262  -0.3246  -0.3154
    -0.3117  -0.3018  -0.2994  -0.2948  -0.2941  -0.2844  -0.2803  -0.2791
    -0.2780  -0.2768  -0.2738  -0.2725  -0.2698  -0.2691  -0.2612  -0.2604
    -0.2586  -0.2404  -0.2290  -0.2286  -0.2269  -0.2266  -0.1744  -0.1673
    -0.1659  -0.1628  -0.1622  -0.1584  -0.1580  -0.1561  -0.1560  -0.1444
    -0.1344  -0.1312  -0.1306  -0.1231  -0.1187  -0.1147  -0.1139  -0.1059
    -0.1048  -0.1040  -0.1030  -0.0847  -0.0826  -0.0800  -0.0654  -0.0385
    -0.0377  -0.0362  -0.0331  -0.0252  -0.0242  -0.0157  -0.0140  -0.0119
    -0.0119  -0.0004   0.0011   0.0029   0.0152   0.0204   0.0255   0.0339
     0.0359   0.0416   0.0528   0.0541   0.0544   0.0560   0.0683   0.0731
     0.0886   0.0895   0.0895   0.0903   0.1036   0.1048   0.1115   0.1115
     0.1513   0.1529   0.1567   0.1579   0.1734   0.1740   0.1789   0.1791
     0.2006   0.2008   0.2324   0.2383   0.2389   0.2390   0.2758   0.2758
     0.3102   0.3220   0.3515   0.3545   0.3594   0.3607   0.3634   0.3640
     0.3661   0.3749   0.3764   0.3849   0.3918   0.3928   0.4198   0.4199
     0.4201   0.4240   0.4242   0.4259   0.4268   0.4279   0.4412   0.4479
     0.4486   0.4490   0.4513   0.4519   0.4693   0.4705   0.4879   0.4880
     0.4985   0.4988   0.4999   0.5007   0.5144   0.5145   0.5158   0.5173
     0.5225   0.5249   0.5271   0.5297   0.5434   0.5450   0.5482   0.5529
     0.5537   0.5555   0.5560   0.5574   0.5605   0.5621   0.5627   0.5675
     0.5798   0.5805   0.6216   0.6229   0.6334   0.6338   0.6364   0.6403
     0.6416   0.6418   0.6446   0.6458   0.6496   0.6507   0.6626   0.6634
     0.6646   0.6698   0.6909   0.6936   0.6979   0.6982   0.7003   0.7020
     0.7153   0.7155   0.7216   0.7222   0.7440   0.7458   0.7475   0.7510
     0.7514   0.7525   0.7635   0.7651   0.8066   0.8090   0.8287   0.8311
     0.8592   0.8598   0.8651   0.8673   0.8773   0.8791   0.8795   0.8816
     0.8838   0.8849   0.8858   0.8874   0.8904   0.8920   0.8925   0.8945
     0.9143   0.9225   0.9225   0.9230   0.9258   0.9300   0.9359   0.9361
     0.9406   0.9409   0.9450   0.9450   0.9479   0.9541   0.9553   0.9567
     0.9675   0.9676   0.9680   0.9689   0.9742   0.9788   0.9855   0.9868
     0.9887   0.9895   0.9985   1.0001   1.0046   1.0053   1.0111   1.0115
     1.0175   1.0182   1.0184   1.0194   1.0560   1.0587   1.0885   1.0928
     1.0937   1.1008   1.1023   1.1054   1.1055   1.1115   1.1240   1.1247
     1.1469   1.1477   1.1514   1.1532   1.1565   1.1569   1.1611   1.1637
     1.1725   1.1732   1.1757   1.1828   1.1841   1.1851   1.1861   1.1864
     1.1864   1.1865   1.1955   1.1969   1.2013   1.2054   1.2058   1.2093
     1.2147   1.2160   1.2322   1.2329   1.2420   1.2439   1.2496   1.2506
     1.2531   1.2532   1.2585   1.2595   1.2789   1.2794   1.2826   1.2827
     1.2860   1.2863   1.2884   1.2920   1.2948   1.2991   1.3031   1.3038
     1.3214   1.3266   1.3287   1.3292   1.3469   1.3475   1.3583   1.3607
     1.3612   1.3617   1.3620   1.3621   1.3719   1.3720   1.3863   1.3865
     1.3892   1.3906   1.4007   1.4012   1.4193   1.4196   1.4236   1.4238
     1.4254   1.4254   1.4273   1.4279   1.4527   1.4529   1.4655   1.4666
     1.4732   1.4741   1.4751   1.4759   1.4979   1.4981   1.4983   1.5013
     1.5072   1.5073   1.5192   1.5192   1.5715   1.5797   1.5840   1.5927
     1.6669   1.6722   1.6774   1.6907   1.7045   1.7121   1.7261   1.7286
     1.7459   1.7463   1.7686   1.7762   1.7841   1.7954   1.7965   1.8036
     1.8311   1.8311   1.9103   2.0344   2.0836   2.1133   2.4061   2.4111
     2.4130   2.4234   2.4608   2.4634   2.5562   2.5571   2.5687   2.6052
     2.6539   2.6656   2.6807   2.6818   2.7247   2.7332   2.7926   2.8028
     2.8982   2.8988   3.0506   3.0877   3.1484   3.1484   3.4588   3.4863
     3.5547   3.6287   3.6561   3.7272   3.7799   3.9477   4.1007   4.1009
     4.1042   4.1071   4.3126   4.3418   4.3631   4.3726   4.3869   4.3881
     4.6263   4.6346   4.8941   4.9955   5.0255   5.0627   5.0709   5.0833
     5.2248   5.3326   5.3358   5.3431   5.3560   5.3910   5.4254   5.4563
     5.5068   5.5187   5.6169   5.6310   6.4000   6.4075   6.4633   6.4698
     6.5116   6.5165   6.5630   6.5691   6.6216   6.6336   6.8142   6.8961
     6.9563   6.9919   7.0007   7.0053   7.0107   7.0415   7.0588   7.1023
     7.1056   7.1289   7.1494   7.1566   7.1776   7.2030   7.2507   7.2768
     7.4392   7.4781   7.6892   7.7281   7.7462   7.7691   7.7891   7.9301
     8.1053   8.1230   8.1258   8.1260   8.1962   8.2537   8.3837   8.4176
     8.4351   8.4431   8.4913   8.5011   8.5177   8.5450   8.6753   8.6841
     8.7103   8.7145   8.7310   8.7430   8.7546   8.7796   8.8343   8.8448
     9.0718   9.0886   9.1843   9.2026   9.2970   9.3415   9.3530   9.3596
     9.3597   9.3681   9.4031   9.4510   9.4570   9.4743   9.4860   9.5002
     9.6623   9.7173   9.7311   9.7533   9.7601   9.8658   9.8666

          k = 0.2500 0.0000 0.0000 (256240 PWs)   bands (ev):

   -17.0524 -15.9618 -15.6409 -15.4978 -14.9885 -14.8829 -14.6643 -14.5460
   -14.0020 -13.7069 -13.5215 -13.1021 -12.9935 -12.9742 -12.7129 -12.2422
   -12.0847 -12.0473 -11.7157 -11.3494 -10.9802 -10.5667 -10.5012 -10.4430
    -9.9214  -9.8004  -9.7007  -9.1935  -9.1772  -8.8756  -8.7021  -7.8995
    -7.7194  -7.6812  -7.5239  -7.4222  -7.3052  -6.9200  -6.8222  -6.2824
    -6.1081  -5.9407  -5.8858  -5.7712  -5.6900  -5.4611  -5.3739  -5.3264
    -5.3201  -5.2117  -4.8671  -4.8038  -4.7522  -4.5401  -4.5041  -4.4712
    -4.3449  -4.2958  -4.2606  -4.1385  -4.1040  -4.0409  -4.0138  -3.9842
    -3.9299  -3.8613  -3.8560  -3.8248  -3.7314  -3.6755  -3.6122  -3.5552
    -3.4741  -3.4178  -3.3939  -3.2560  -3.2084  -3.1888  -3.1478  -3.1163
    -3.0608  -3.0278  -2.9528  -2.8215  -2.8188  -2.8020  -2.7538  -2.6752
    -2.6412  -2.6239  -2.5989  -2.4694  -2.4286  -2.3576  -2.3520  -2.2168
    -2.1536  -2.1203  -2.1193  -2.1030  -2.1001  -2.0471  -2.0268  -2.0097
    -1.9806  -1.9086  -1.8914  -1.8718  -1.8530  -1.8460  -1.8354  -1.8251
    -1.8246  -1.8158  -1.8127  -1.7968  -1.7722  -1.7431  -1.7320  -1.7161
    -1.6763  -1.6609  -1.6541  -1.6243  -1.6083  -1.6050  -1.6035  -1.6031
    -1.5987  -1.5921  -1.5661  -1.5550  -1.5442  -1.5287  -1.5253  -1.5144
    -1.5129  -1.4113  -1.3958  -1.3475  -1.3364  -1.3035  -1.2951  -1.2736
    -1.2680  -1.2652  -1.2608  -1.2591  -1.2494  -1.2328  -1.2321  -1.2265
    -1.2108  -1.2102  -1.2048  -1.1947  -1.1922  -1.1698  -1.1583  -1.1569
    -1.1429  -1.1378  -1.1326  -1.1273  -1.1234  -1.1043  -1.0908  -1.0840
    -1.0703  -1.0632  -1.0613  -1.0484  -1.0430  -1.0372  -1.0354  -1.0352
    -1.0321  -1.0277  -1.0229  -1.0052  -1.0033  -1.0025  -1.0022  -1.0015
    -0.9992  -0.9920  -0.9781  -0.9717  -0.9642  -0.9596  -0.9480  -0.9252
    -0.9247  -0.8836  -0.8797  -0.8752  -0.8398  -0.8392  -0.8230  -0.8210
    -0.8156  -0.7961  -0.7947  -0.7892  -0.7835  -0.7803  -0.7760  -0.7751
    -0.7687  -0.7517  -0.7443  -0.7035  -0.6501  -0.6327  -0.6158  -0.6094
    -0.5946  -0.5935  -0.5889  -0.5814  -0.5781  -0.5743  -0.5718  -0.5687
    -0.5551  -0.5511  -0.5489  -0.5436  -0.5374  -0.5208  -0.5176  -0.5077
    -0.5064  -0.5043  -0.4975  -0.4848  -0.4841  -0.4836  -0.4658  -0.4368
    -0.4312  -0.4235  -0.4214  -0.4162  -0.4157  -0.4147  -0.4051  -0.3943
    -0.3881  -0.3842  -0.3798  -0.3730  -0.3647  -0.3575  -0.3547  -0.3194
    -0.3178  -0.3167  -0.3144  -0.3138  -0.3104  -0.3100  -0.2924  -0.2912
    -0.2800  -0.2783  -0.2700  -0.2626  -0.2528  -0.2424  -0.2357  -0.2317
    -0.2224  -0.2194  -0.2093  -0.2082  -0.2078  -0.2038  -0.2022  -0.1762
    -0.1745  -0.1655  -0.1620  -0.1606  -0.1485  -0.1444  -0.1421  -0.1360
    -0.1273  -0.0926  -0.0900  -0.0882  -0.0877  -0.0816  -0.0809  -0.0681
    -0.0561  -0.0541  -0.0414  -0.0368  -0.0328  -0.0318  -0.0309  -0.0265
    -0.0238  -0.0227  -0.0198  -0.0166  -0.0157  -0.0137   0.0014   0.0065
     0.0109   0.0137   0.0151   0.0200   0.0299   0.0326   0.0481   0.0559
     0.0661   0.0729   0.0848   0.0867   0.0891   0.0946   0.1000   0.1123
     0.1147   0.1153   0.1178   0.1227   0.1354   0.1487   0.1523   0.1706
     0.1772   0.2005   0.2187   0.2255   0.2308   0.2332   0.2390   0.2422
     0.2484   0.2557   0.2573   0.2591   0.2600   0.2616   0.2620   0.2650
     0.2710   0.2733   0.2772   0.2832   0.2851   0.2879   0.2899   0.3048
     0.3085   0.3114   0.3120   0.3137   0.3193   0.3389   0.3499   0.3525
     0.3796   0.3817   0.3823   0.3848   0.4102   0.4138   0.4158   0.4200
     0.4220   0.4350   0.4475   0.4490   0.4516   0.4546   0.4560   0.4590
     0.4614   0.4626   0.4690   0.4727   0.4839   0.4964   0.5002   0.5036
     0.5059   0.5079   0.5139   0.5222   0.5245   0.5267   0.5284   0.5301
     0.5386   0.5487   0.5512   0.5542   0.5600   0.5715   0.5726   0.5753
     0.5810   0.5828   0.5833   0.5851   0.5912   0.6052   0.6106   0.6159
     0.6260   0.6356   0.6379   0.6388   0.6444   0.6453   0.6556   0.6586
     0.6692   0.6824   0.6877   0.6939   0.7117   0.7129   0.7183   0.7225
     0.7295   0.7362   0.7464   0.7475   0.7483   0.7528   0.7529   0.7568
     0.7617   0.7669   0.7732   0.7776   0.7798   0.7882   0.7904   0.7972
     0.8211   0.8238   0.8313   0.8328   0.8398   0.8535   0.8577   0.8590
     0.8624   0.8656   0.8697   0.8722   0.8733   0.8786   0.8819   0.8840
     0.8918   0.9086   0.9164   0.9211   0.9284   0.9328   0.9426   0.9442
     0.9532   0.9581   0.9637   0.9654   0.9673   0.9688   0.9715   0.9813
     0.9835   0.9859   0.9873   0.9890   0.9930   0.9944   0.9949   0.9972
     0.9977   1.0030   1.0059   1.0083   1.0115   1.0130   1.0188   1.0361
     1.0390   1.0421   1.0444   1.0455   1.0464   1.0525   1.0572   1.0616
     1.0638   1.0657   1.0758   1.0825   1.0834   1.0877   1.0967   1.1013
     1.1023   1.1106   1.1151   1.1189   1.1203   1.1260   1.1355   1.1371
     1.1460   1.1559   1.1635   1.1641   1.1665   1.1708   1.1888   1.1941
     1.2003   1.2061   1.2112   1.2180   1.2222   1.2262   1.2281   1.2315
     1.2363   1.2385   1.2439   1.2468   1.2529   1.2545   1.2563   1.2597
     1.2647   1.2672   1.2683   1.2708   1.2789   1.2802   1.2822   1.2839
     1.2842   1.2873   1.2926   1.2996   1.3094   1.3109   1.3158   1.3229
     1.3267   1.3280   1.3300   1.3312   1.3372   1.3470   1.3478   1.3591
     1.3596   1.3622   1.3624   1.3661   1.3725   1.3738   1.3765   1.3932
     1.3943   1.3947   1.3965   1.3981   1.3998   1.4023   1.4083   1.4090
     1.4110   1.4158   1.4191   1.4209   1.4339   1.4365   1.4405   1.4430
     1.4449   1.4457   1.4600   1.4606   1.4659   1.4673   1.4737   1.4839
     1.4846   1.4859   1.4879   1.4924   1.4945   1.5067   1.5202   1.5311
     1.5551   1.5612   1.5790   1.5958   1.5973   1.6055   1.6347   1.6793
     1.6995   1.7210   1.7380   1.7409   1.7442   1.7618   1.7990   1.8148
     1.8157   1.8976   2.0067   2.0142   2.0371   2.0519   2.1314   2.1877
     2.2205   2.2786   2.3460   2.5126   2.5339   2.5641   2.5673   2.9507
     2.9518   3.0334   3.1591   3.1628   3.1953   3.1958   3.2441   3.3332
     3.3808   3.4314   3.4728   3.5138   3.5727   3.5946   3.6503   3.6560
     3.6622   3.7083   3.7122   3.7602   3.7735   3.8496   3.8961   4.0507
     4.1102   4.1334   4.1693   4.1968   4.2219   4.2638   4.3830   4.5395
     4.7264   4.7876   4.8297   4.8446   5.1378   5.1829   5.1980   5.2392
     5.2920   5.3104   5.3973   5.4422   5.4477   5.4689   5.4956   5.5250
     5.5338   5.5585   5.5734   5.6868   5.7507   5.8781   5.9318   5.9803
     5.9924   6.0021   6.0297   6.0424   6.1600   6.3923   6.4295   6.5357
     6.6787   6.7219   6.7310   6.7566   6.8200   6.8525   6.8829   6.9415
     6.9785   7.0174   7.0439   7.0490   7.1623   7.2406   7.2974   7.3229
     7.4450   7.4685   7.5373   7.6419   7.7647   7.7742   7.8213   7.8241
     7.8301   7.8888   7.9312   8.0229   8.0455   8.0692   8.1943   8.2141
     8.2660   8.2903   8.3233   8.3270   8.3502   8.4749   8.4854   8.5196
     8.5885   8.6220   8.6563   8.8682   8.8852   8.9233   8.9446   8.9961
     9.0006   9.0803   9.1258   9.1575   9.1692   9.1940   9.2293   9.2412
     9.3167   9.3486   9.3725   9.3787   9.3891   9.4354   9.4552   9.5162
     9.5999   9.6755   9.6841   9.6913   9.7216   9.8020   9.8283

          k = 0.2500-0.2165 0.0000 (256316 PWs)   bands (ev):

   -17.0522 -15.9831 -15.6176 -15.3379 -15.2575 -14.9910 -14.4385 -14.3578
   -14.0561 -13.9173 -13.5517 -13.0576 -13.0382 -12.9627 -12.5007 -12.4445
   -12.1040 -11.9784 -11.3738 -11.2035 -11.1788 -11.0627 -10.7634 -10.3899
    -9.6560  -9.5586  -9.3149  -9.2736  -9.0876  -8.9392  -8.5427  -8.4005
    -8.3085  -8.2265  -7.2136  -6.9752  -6.7107  -6.5950  -6.4657  -6.3288
    -6.2439  -6.2107  -6.1417  -6.1094  -5.7488  -5.7319  -5.3432  -5.2983
    -5.1825  -4.9008  -4.8490  -4.8431  -4.6890  -4.6870  -4.5656  -4.5118
    -4.4682  -4.3762  -4.3747  -4.3079  -4.1249  -4.0791  -4.0009  -3.9565
    -3.8352  -3.8029  -3.7152  -3.6179  -3.5630  -3.4749  -3.4715  -3.4593
    -3.4434  -3.4314  -3.3972  -3.2818  -3.2500  -3.1785  -3.1641  -3.1264
    -2.9432  -2.9350  -2.9309  -2.9294  -2.8831  -2.8516  -2.8306  -2.8105
    -2.7361  -2.6861  -2.5432  -2.4768  -2.3537  -2.3395  -2.3227  -2.2894
    -2.2010  -2.1923  -2.1914  -2.1913  -2.0897  -2.0426  -2.0345  -2.0303
    -1.9854  -1.9775  -1.9755  -1.9481  -1.8684  -1.8361  -1.8342  -1.8115
    -1.7979  -1.7574  -1.7521  -1.7490  -1.7415  -1.7342  -1.7326  -1.7311
    -1.7009  -1.6993  -1.6985  -1.6974  -1.6886  -1.6874  -1.6760  -1.6201
    -1.6043  -1.6037  -1.5947  -1.4990  -1.4856  -1.3992  -1.3924  -1.3913
    -1.3755  -1.3556  -1.3533  -1.3496  -1.3017  -1.3004  -1.2883  -1.2879
    -1.2776  -1.2726  -1.2717  -1.2704  -1.2475  -1.2470  -1.2360  -1.2356
    -1.2287  -1.2257  -1.2171  -1.2136  -1.2102  -1.2100  -1.1838  -1.1628
    -1.1587  -1.1495  -1.1489  -1.1431  -1.1372  -1.1345  -1.1234  -1.1152
    -1.0940  -1.0752  -1.0630  -1.0625  -1.0565  -1.0553  -1.0335  -1.0237
    -1.0194  -1.0186  -1.0165  -1.0134  -0.9896  -0.9865  -0.9824  -0.9821
    -0.9763  -0.9732  -0.9616  -0.9513  -0.9502  -0.9353  -0.9065  -0.8919
    -0.8917  -0.8858  -0.8844  -0.8363  -0.8284  -0.8059  -0.8038  -0.8025
    -0.8005  -0.7983  -0.7953  -0.7568  -0.7539  -0.7505  -0.7390  -0.7389
    -0.7294  -0.7283  -0.7231  -0.7163  -0.6836  -0.6817  -0.6646  -0.6510
    -0.6439  -0.6388  -0.5924  -0.5922  -0.5876  -0.5871  -0.5679  -0.5647
    -0.5630  -0.5535  -0.5457  -0.5422  -0.5279  -0.5266  -0.5192  -0.5107
    -0.5095  -0.5015  -0.4871  -0.4812  -0.4751  -0.4702  -0.4688  -0.4682
    -0.4370  -0.4366  -0.4291  -0.4225  -0.4119  -0.4053  -0.3995  -0.3954
    -0.3918  -0.3899  -0.3856  -0.3854  -0.3791  -0.3783  -0.3669  -0.3596
    -0.3595  -0.3553  -0.3414  -0.3387  -0.3187  -0.3144  -0.2999  -0.2983
    -0.2803  -0.2770  -0.2669  -0.2666  -0.2532  -0.2504  -0.2475  -0.2461
    -0.2356  -0.2351  -0.2074  -0.2018  -0.1771  -0.1767  -0.1691  -0.1564
    -0.1365  -0.1355  -0.1328  -0.1327  -0.1198  -0.1160  -0.1065  -0.0968
    -0.0950  -0.0946  -0.0862  -0.0833  -0.0815  -0.0808  -0.0787  -0.0782
    -0.0718  -0.0713  -0.0449  -0.0431  -0.0356  -0.0335  -0.0323  -0.0272
    -0.0260  -0.0257  -0.0239  -0.0230  -0.0195  -0.0161  -0.0020   0.0024
     0.0033   0.0059   0.0092   0.0262   0.0291   0.0353   0.0439   0.0526
     0.0558   0.0686   0.0704   0.0886   0.0995   0.1030   0.1069   0.1144
     0.1164   0.1175   0.1248   0.1250   0.1333   0.1335   0.1421   0.1424
     0.1530   0.1539   0.1734   0.1746   0.2335   0.2350   0.2416   0.2492
     0.2523   0.2546   0.2572   0.2576   0.2596   0.2609   0.2639   0.2663
     0.2850   0.2900   0.2924   0.2929   0.2967   0.2997   0.3061   0.3104
     0.3105   0.3144   0.3259   0.3344   0.3406   0.3427   0.3445   0.3520
     0.3706   0.3717   0.3900   0.3958   0.3991   0.4273   0.4286   0.4317
     0.4325   0.4354   0.4417   0.4428   0.4438   0.4465   0.4514   0.4535
     0.4557   0.4567   0.4703   0.4717   0.4800   0.4849   0.5022   0.5051
     0.5298   0.5337   0.5355   0.5371   0.5398   0.5576   0.5635   0.5668
     0.5729   0.5735   0.5742   0.5779   0.5852   0.5882   0.5903   0.5917
     0.5973   0.6073   0.6107   0.6129   0.6242   0.6250   0.6262   0.6278
     0.6391   0.6399   0.6464   0.6470   0.6563   0.6621   0.6626   0.6650
     0.6660   0.6667   0.6785   0.6807   0.6810   0.6828   0.6835   0.6845
     0.6869   0.6882   0.6988   0.6996   0.7294   0.7302   0.7334   0.7365
     0.7476   0.7488   0.7796   0.7817   0.7931   0.7934   0.7941   0.7959
     0.8011   0.8015   0.8255   0.8275   0.8277   0.8291   0.8294   0.8320
     0.8331   0.8408   0.8410   0.8466   0.8533   0.8552   0.8672   0.8676
     0.8756   0.8804   0.9016   0.9029   0.9056   0.9097   0.9168   0.9184
     0.9263   0.9355   0.9406   0.9412   0.9486   0.9486   0.9697   0.9745
     0.9755   0.9780   0.9839   0.9850   0.9882   0.9975   1.0075   1.0084
     1.0184   1.0224   1.0434   1.0465   1.0492   1.0518   1.0608   1.0609
     1.0646   1.0650   1.0667   1.0670   1.0706   1.0717   1.0778   1.0787
     1.0850   1.0872   1.0956   1.0964   1.1067   1.1120   1.1268   1.1276
     1.1297   1.1343   1.1417   1.1425   1.1497   1.1545   1.1550   1.1555
     1.1594   1.1603   1.1623   1.1644   1.1710   1.1729   1.1737   1.1772
     1.1886   1.1898   1.1930   1.1941   1.1990   1.1995   1.2012   1.2028
     1.2198   1.2202   1.2385   1.2449   1.2462   1.2519   1.2528   1.2567
     1.2584   1.2644   1.2677   1.2699   1.2838   1.2840   1.2987   1.3019
     1.3030   1.3057   1.3063   1.3065   1.3087   1.3139   1.3167   1.3214
     1.3239   1.3243   1.3290   1.3364   1.3434   1.3457   1.3458   1.3519
     1.3560   1.3561   1.3571   1.3596   1.3681   1.3688   1.3707   1.3708
     1.3778   1.3815   1.3842   1.3903   1.3953   1.4000   1.4089   1.4104
     1.4106   1.4121   1.4158   1.4167   1.4177   1.4219   1.4275   1.4300
     1.4309   1.4371   1.4536   1.4536   1.4638   1.4640   1.4728   1.4768
     1.4847   1.4912   1.4955   1.4972   1.4991   1.5235   1.5241   1.5320
     1.5322   1.5363   1.5657   1.5727   1.6086   1.6208   1.6674   1.6712
     1.7230   1.7304   1.7421   1.7532   1.7556   1.7747   1.7853   1.8697
     1.8909   1.8994   1.9037   1.9124   2.0978   2.0996   2.1333   2.1348
     2.2772   2.2866   2.5578   2.5582   2.7235   2.7314   2.7537   2.7597
     2.7640   2.7644   2.8649   2.8814   2.9531   2.9533   3.0975   3.1092
     3.5133   3.5321   3.5624   3.6423   3.6579   3.7221   3.7351   3.7592
     3.7835   3.7928   3.8322   3.8934   3.9551   4.0032   4.0346   4.0950
     4.1258   4.1502   4.1737   4.3726   4.3818   4.3895   4.4020   4.5127
     4.6064   4.6564   4.6883   4.7225   4.8492   4.8583   5.0470   5.1242
     5.2149   5.2459   5.2988   5.3134   5.3977   5.4042   5.4185   5.4622
     5.4630   5.4686   5.6366   5.7251   5.7285   5.7866   5.9169   5.9208
     5.9372   5.9452   6.3021   6.4029   6.4948   6.5308   6.6596   6.7368
     6.7397   6.7455   6.7629   6.8224   6.9675   6.9878   6.9990   7.0017
     7.0783   7.0878   7.1376   7.1754   7.1902   7.2233   7.2426   7.2696
     7.3501   7.3897   7.4064   7.4437   7.4745   7.4815   7.6705   7.6912
     7.8537   7.9350   7.9585   8.0360   8.0701   8.0833   8.1709   8.1820
     8.2095   8.2220   8.4617   8.5627   8.6057   8.6090   8.6161   8.6223
     8.6672   8.6784   8.7179   8.7244   8.8691   8.9003   8.9125   8.9259
     8.9378   8.9449   9.1066   9.1339   9.1459   9.1543   9.1552   9.1590
     9.1819   9.2360   9.2484   9.2835   9.3293   9.3389   9.4035   9.4452
     9.4511   9.5083   9.5225   9.5382   9.6440   9.6446   9.6852

          k =-0.5000 0.0000 0.0000 (256496 PWs)   bands (ev):

   -16.9891 -15.8086 -15.5822 -15.5149 -15.2939 -15.2286 -14.6822 -14.4900
   -14.2843 -14.1008 -13.0645 -12.7100 -12.6766 -12.5478 -12.3303 -12.2492
   -11.8165 -11.6616 -11.5101 -11.3845 -11.1333 -11.1102 -10.9264 -10.8615
   -10.1629 -10.0217  -9.7393  -9.4371  -9.0743  -9.0508  -8.8283  -8.7462
    -7.7682  -7.6856  -7.6819  -7.4332  -7.4024  -7.3295  -6.1953  -5.9590
    -5.6701  -5.4326  -5.3446  -5.2669  -5.1075  -4.9635  -4.9635  -4.8861
    -4.8566  -4.8166  -4.8160  -4.7399  -4.7284  -4.6898  -4.6542  -4.6105
    -4.4722  -4.4177  -4.3711  -4.3680  -4.3444  -4.3309  -4.2525  -4.1879
    -3.9780  -3.8862  -3.8646  -3.8561  -3.7492  -3.6594  -3.5993  -3.5802
    -3.5588  -3.4470  -3.4397  -3.4379  -3.4363  -3.4346  -3.4026  -3.3918
    -3.1396  -3.1117  -2.9165  -2.8343  -2.8173  -2.7897  -2.7566  -2.7308
    -2.7024  -2.6952  -2.6293  -2.6268  -2.5695  -2.4798  -2.3746  -2.3477
    -2.3405  -2.2829  -2.2821  -2.2659  -1.9084  -1.9055  -1.9014  -1.9014
    -1.9010  -1.9004  -1.8731  -1.8566  -1.7875  -1.7856  -1.7719  -1.7534
    -1.7145  -1.7097  -1.6764  -1.6745  -1.6731  -1.6577  -1.6308  -1.6295
    -1.6236  -1.6233  -1.6168  -1.5929  -1.5359  -1.5167  -1.5103  -1.5100
    -1.4678  -1.4491  -1.4479  -1.4471  -1.4292  -1.4274  -1.3867  -1.3811
    -1.3806  -1.3783  -1.3782  -1.3767  -1.3758  -1.3723  -1.3585  -1.3543
    -1.3191  -1.3159  -1.3158  -1.3150  -1.3050  -1.3024  -1.2881  -1.2876
    -1.2719  -1.2276  -1.2275  -1.2126  -1.2110  -1.2051  -1.2049  -1.2015
    -1.1946  -1.1780  -1.1751  -1.1726  -1.1663  -1.1654  -1.1339  -1.1334
    -1.1291  -1.1290  -1.1127  -1.1090  -1.1087  -1.0788  -1.0787  -1.0377
    -1.0371  -1.0111  -1.0070  -1.0045  -1.0041  -1.0026  -1.0023  -0.9783
    -0.9766  -0.9714  -0.9619  -0.9570  -0.9566  -0.9565  -0.9522  -0.9519
    -0.9490  -0.9428  -0.9368  -0.9182  -0.8874  -0.8790  -0.8693  -0.8659
    -0.8454  -0.8218  -0.8214  -0.8011  -0.7461  -0.7461  -0.7333  -0.7328
    -0.7321  -0.7267  -0.7008  -0.7000  -0.6991  -0.6988  -0.6987  -0.6962
    -0.6721  -0.6696  -0.6554  -0.6549  -0.6544  -0.6456  -0.6353  -0.6270
    -0.6106  -0.6074  -0.6038  -0.5976  -0.5601  -0.5381  -0.4907  -0.4886
    -0.4858  -0.4858  -0.4780  -0.4750  -0.4666  -0.4573  -0.4435  -0.4335
    -0.4324  -0.4306  -0.4293  -0.4288  -0.4025  -0.3970  -0.3924  -0.3895
    -0.3890  -0.3882  -0.3632  -0.3627  -0.3556  -0.3551  -0.3304  -0.3229
    -0.3201  -0.3199  -0.3175  -0.3093  -0.3092  -0.2816  -0.2746  -0.2744
    -0.2733  -0.2732  -0.2616  -0.2593  -0.2436  -0.2398  -0.2099  -0.2092
    -0.1896  -0.1782  -0.1616  -0.1595  -0.1566  -0.1557  -0.1540  -0.1537
    -0.1530  -0.1518  -0.1228  -0.1194  -0.1182  -0.1157  -0.1145  -0.0838
    -0.0833  -0.0513  -0.0502  -0.0496  -0.0494  -0.0488  -0.0473  -0.0472
    -0.0446  -0.0419  -0.0403  -0.0385  -0.0380  -0.0059   0.0198   0.0209
     0.0351   0.0372   0.0395   0.0398   0.0430   0.0443   0.0462   0.0466
     0.0507   0.0525   0.0633   0.0646   0.0756   0.0786   0.0800   0.0800
     0.0945   0.0946   0.0950   0.0951   0.0978   0.0983   0.1012   0.1022
     0.1024   0.1038   0.1043   0.1090   0.1151   0.1223   0.1281   0.1288
     0.1303   0.1325   0.1513   0.1555   0.1573   0.1578   0.2483   0.2491
     0.2531   0.2531   0.2916   0.2923   0.2927   0.2933   0.2949   0.3014
     0.3049   0.3061   0.3151   0.3153   0.3189   0.3200   0.3207   0.3214
     0.3232   0.3246   0.3276   0.3310   0.3331   0.3433   0.3439   0.3442
     0.3643   0.3643   0.3675   0.3677   0.3713   0.3722   0.3740   0.3758
     0.4423   0.4436   0.4500   0.4504   0.4647   0.4689   0.4696   0.4729
     0.4846   0.4847   0.4884   0.4891   0.4924   0.4928   0.5069   0.5081
     0.5107   0.5108   0.5112   0.5113   0.5133   0.5137   0.5152   0.5154
     0.5293   0.5316   0.5394   0.5416   0.5457   0.5468   0.5509   0.5530
     0.5637   0.5699   0.5814   0.5826   0.5976   0.5983   0.5996   0.6024
     0.6064   0.6065   0.6108   0.6124   0.6211   0.6213   0.6305   0.6351
     0.6355   0.6399   0.6475   0.6582   0.6584   0.6655   0.6702   0.6705
     0.6796   0.6804   0.6847   0.6849   0.6981   0.6989   0.7163   0.7167
     0.7229   0.7253   0.7425   0.7426   0.7437   0.7560   0.7674   0.7799
     0.8139   0.8157   0.8163   0.8172   0.8184   0.8185   0.8196   0.8206
     0.8213   0.8223   0.8295   0.8399   0.8401   0.8486   0.8565   0.8584
     0.8609   0.8610   0.8629   0.8632   0.8669   0.8772   0.8780   0.8823
     0.8833   0.8843   0.9250   0.9297   0.9361   0.9367   0.9549   0.9581
     0.9864   0.9891   0.9919   0.9935   1.0078   1.0093   1.0135   1.0177
     1.0212   1.0228   1.0319   1.0374   1.0463   1.0508   1.0521   1.0597
     1.0630   1.0736   1.0794   1.0821   1.0855   1.0871   1.0903   1.0907
     1.0908   1.0938   1.0954   1.0974   1.1050   1.1069   1.1113   1.1115
     1.1122   1.1150   1.1160   1.1216   1.1538   1.1539   1.1567   1.1593
     1.1605   1.1627   1.1675   1.1755   1.1828   1.1850   1.2011   1.2027
     1.2040   1.2052   1.2141   1.2149   1.2162   1.2167   1.2179   1.2184
     1.2254   1.2278   1.2366   1.2418   1.2517   1.2518   1.2570   1.2595
     1.2704   1.2707   1.2835   1.2891   1.2898   1.2917   1.2931   1.2931
     1.2987   1.3008   1.3015   1.3018   1.3030   1.3038   1.3057   1.3064
     1.3096   1.3103   1.3106   1.3108   1.3144   1.3147   1.3164   1.3170
     1.3372   1.3381   1.3420   1.3476   1.3581   1.3582   1.3637   1.3642
     1.3678   1.3693   1.3803   1.3864   1.3910   1.3911   1.3937   1.3981
     1.4008   1.4023   1.4110   1.4117   1.4191   1.4206   1.4213   1.4222
     1.4431   1.4440   1.4465   1.4483   1.4494   1.4559   1.4561   1.4594
     1.4603   1.4621   1.4685   1.4799   1.4849   1.4859   1.4895   1.4908
     1.4909   1.4921   1.4921   1.4953   1.5151   1.5197   1.5470   1.5474
     1.5793   1.5803   1.5843   1.5843   1.5917   1.6185   1.9883   1.9923
     2.0734   2.0989   2.2091   2.2208   2.2551   2.2551   2.2675   2.2711
     2.2900   2.3062   2.5813   2.5839   2.7010   2.7068   2.7868   2.7908
     2.8252   2.8364   3.1495   3.1513   3.1664   3.1710   3.4281   3.4569
     3.5197   3.6143   3.7689   3.8003   3.8148   3.8381   3.8573   3.8992
     3.9488   3.9816   4.0109   4.0635   4.0785   4.2654   4.2676   4.3441
     4.3647   4.4751   4.6180   4.6681   4.6769   4.6784   4.7619   4.7812
     4.8156   4.8341   4.8992   4.9153   4.9363   4.9499   4.9944   4.9976
     5.0073   5.0182   5.0201   5.0469   5.0595   5.1168   5.1205   5.1881
     5.3681   5.3794   5.4459   5.4687   5.5586   5.5606   5.6492   5.6558
     5.7927   5.9320   5.9398   5.9736   5.9818   5.9914   6.1170   6.1218
     6.1279   6.1596   6.2167   6.2382   6.3506   6.3546   6.6551   6.6720
     7.0862   7.0964   7.1147   7.1806   7.1809   7.1925   7.4829   7.5707
     7.5716   7.5841   7.5861   7.6576   7.6636   7.6828   7.7146   7.7651
     7.7932   7.8013   7.8539   7.8728   7.8857   7.8874   7.9219   7.9247
     8.1118   8.1612   8.1869   8.2517   8.2789   8.3311   8.3984   8.4838
     8.6687   8.7108   8.7811   8.8243   8.8296   8.8335   8.8390   8.8405
     8.8425   8.8734   9.0018   9.0042   9.0468   9.1051   9.1286   9.1468
     9.1514   9.2079   9.2098   9.4159   9.4605   9.4985   9.4985   9.5015
     9.5040   9.5219   9.5362   9.6587   9.6817   9.8109   9.8146

          k =-0.5000-0.2165 0.0000 (256328 PWs)   bands (ev):

   -16.9890 -15.7842 -15.6147 -15.6058 -15.0930 -15.0104 -14.9248 -14.9139
   -13.8370 -13.6269 -13.5192 -13.4860 -12.4683 -12.3553 -11.8475 -11.8363
   -11.7002 -11.6638 -11.6325 -11.5740 -11.3569 -11.2845 -11.1891 -11.0924
    -9.8346  -9.8061  -9.6418  -9.5042  -9.1114  -8.7513  -8.6843  -8.6376
    -8.2210  -8.1899  -8.0032  -7.9923  -6.4960  -6.2672  -6.2303  -6.0215
    -5.9222  -5.5023  -5.3041  -5.2903  -5.2291  -5.2092  -5.2092  -5.2074
    -5.0937  -5.0186  -4.9828  -4.7539  -4.7483  -4.4881  -4.4373  -4.4308
    -4.2703  -4.2132  -4.2117  -4.2111  -4.2090  -4.1795  -4.0915  -4.0813
    -4.0328  -3.9834  -3.9301  -3.9211  -3.8630  -3.8315  -3.7503  -3.6149
    -3.5670  -3.5505  -3.5357  -3.5032  -3.4069  -3.3826  -3.3721  -3.3645
    -3.1177  -3.0495  -3.0190  -3.0054  -2.6733  -2.6327  -2.6034  -2.6024
    -2.6001  -2.5993  -2.5590  -2.5528  -2.5233  -2.5076  -2.4579  -2.4488
    -2.1829  -2.1309  -2.1288  -2.1264  -2.0781  -2.0773  -2.0598  -2.0538
    -2.0269  -2.0121  -1.9785  -1.9515  -1.8799  -1.8284  -1.8271  -1.8262
    -1.8218  -1.7648  -1.7609  -1.7289  -1.5876  -1.5605  -1.5575  -1.5500
    -1.5161  -1.5160  -1.5158  -1.5158  -1.4882  -1.4607  -1.4579  -1.4570
    -1.4561  -1.4551  -1.4518  -1.4454  -1.4109  -1.4103  -1.4098  -1.4097
    -1.4045  -1.4038  -1.4030  -1.4030  -1.3805  -1.3805  -1.3804  -1.3803
    -1.3565  -1.3421  -1.3373  -1.3332  -1.3276  -1.2682  -1.2604  -1.2592
    -1.2534  -1.2138  -1.2138  -1.2133  -1.2131  -1.2030  -1.2009  -1.2000
    -1.1969  -1.1611  -1.1560  -1.1540  -1.1497  -1.1436  -1.1427  -1.1403
    -1.1391  -1.1380  -1.1368  -1.1364  -1.1153  -1.0809  -1.0803  -1.0802
    -1.0789  -1.0634  -1.0633  -1.0631  -1.0630  -1.0623  -1.0620  -1.0619
    -1.0619  -0.9992  -0.9635  -0.9536  -0.9167  -0.9161  -0.9133  -0.9101
    -0.8768  -0.8760  -0.8760  -0.8758  -0.8544  -0.8369  -0.8094  -0.7981
    -0.7969  -0.7966  -0.7954  -0.7934  -0.7900  -0.7748  -0.7742  -0.7649
    -0.7418  -0.7330  -0.7258  -0.7228  -0.7192  -0.7167  -0.7159  -0.7129
    -0.7106  -0.7103  -0.7017  -0.6947  -0.6830  -0.6824  -0.6697  -0.6296
    -0.5898  -0.5872  -0.5870  -0.5854  -0.5285  -0.5276  -0.5264  -0.5259
    -0.5083  -0.4962  -0.4853  -0.4774  -0.4635  -0.4619  -0.4585  -0.4579
    -0.4553  -0.4545  -0.4491  -0.4345  -0.4168  -0.4163  -0.4156  -0.4155
    -0.3887  -0.3796  -0.3779  -0.3767  -0.3356  -0.2987  -0.2985  -0.2981
    -0.2980  -0.2832  -0.2826  -0.2826  -0.2819  -0.2798  -0.2684  -0.2647
    -0.2606  -0.2385  -0.1974  -0.1830  -0.1828  -0.1821  -0.1813  -0.1804
    -0.1801  -0.1791  -0.1784  -0.1768  -0.1649  -0.1577  -0.1353  -0.1348
    -0.1346  -0.1344  -0.1307  -0.1249  -0.1248  -0.1242  -0.1229  -0.1203
    -0.1198  -0.1195  -0.1153  -0.0594  -0.0555  -0.0552  -0.0535  -0.0340
    -0.0278  -0.0277  -0.0266  -0.0096   0.0119   0.0124   0.0165   0.0241
     0.0490   0.0523   0.0529   0.0537   0.0549   0.0564   0.0584   0.0604
     0.0709   0.0715   0.0727   0.0739   0.0746   0.0789   0.0821   0.0840
     0.0849   0.0853   0.0857   0.0858   0.0998   0.0998   0.1020   0.1022
     0.1263   0.1263   0.1266   0.1267   0.1333   0.1334   0.1341   0.1346
     0.1639   0.1872   0.1874   0.1878   0.1880   0.2172   0.2174   0.2178
     0.2186   0.2246   0.2289   0.2431   0.2548   0.2699   0.2726   0.2880
     0.2979   0.2985   0.3007   0.3075   0.3224   0.3224   0.3229   0.3234
     0.3356   0.3360   0.3361   0.3369   0.3413   0.3417   0.3421   0.3425
     0.3533   0.3543   0.3559   0.3573   0.4171   0.4182   0.4191   0.4194
     0.4321   0.4343   0.4360   0.4363   0.4454   0.4456   0.4458   0.4460
     0.4663   0.4679   0.4682   0.4695   0.4826   0.4837   0.4842   0.4851
     0.5094   0.5133   0.5143   0.5184   0.5264   0.5308   0.5357   0.5382
     0.5383   0.5389   0.5401   0.5410   0.5450   0.5461   0.5481   0.5484
     0.5527   0.5529   0.5542   0.5552   0.5664   0.5700   0.5718   0.5739
     0.5941   0.6083   0.6129   0.6244   0.6363   0.6383   0.6396   0.6397
     0.6513   0.6524   0.6576   0.6581   0.6594   0.6614   0.6630   0.6633
     0.6816   0.6871   0.6915   0.6942   0.7040   0.7042   0.7045   0.7047
     0.7055   0.7061   0.7093   0.7094   0.7569   0.7591   0.7639   0.7648
     0.7840   0.7853   0.7862   0.7871   0.8023   0.8163   0.8203   0.8208
     0.8215   0.8225   0.8246   0.8412   0.8563   0.8585   0.8595   0.8647
     0.8981   0.8988   0.8989   0.8994   0.9196   0.9203   0.9219   0.9225
     0.9686   0.9699   0.9737   0.9754   0.9868   0.9885   0.9897   0.9933
     0.9994   1.0037   1.0072   1.0096   1.0168   1.0174   1.0179   1.0189
     1.0196   1.0200   1.0210   1.0223   1.0254   1.0275   1.0295   1.0304
     1.0417   1.0421   1.0458   1.0536   1.0547   1.0589   1.0594   1.0635
     1.0802   1.0878   1.0919   1.0931   1.0964   1.0994   1.1026   1.1037
     1.1069   1.1119   1.1158   1.1161   1.1270   1.1274   1.1317   1.1351
     1.1523   1.1554   1.1557   1.1558   1.1634   1.1646   1.1662   1.1687
     1.1948   1.1977   1.1983   1.2001   1.2222   1.2268   1.2274   1.2327
     1.2342   1.2362   1.2374   1.2412   1.2424   1.2429   1.2461   1.2527
     1.2547   1.2577   1.2592   1.2595   1.2625   1.2639   1.2644   1.2777
     1.3163   1.3185   1.3191   1.3211   1.3227   1.3227   1.3233   1.3236
     1.3269   1.3280   1.3290   1.3309   1.3417   1.3444   1.3455   1.3484
     1.3520   1.3600   1.3602   1.3604   1.3604   1.3632   1.3653   1.3660
     1.3708   1.3717   1.3722   1.3727   1.3757   1.3788   1.3828   1.3855
     1.3912   1.3972   1.3981   1.3992   1.4307   1.4318   1.4325   1.4337
     1.4419   1.4448   1.4473   1.4478   1.4496   1.4506   1.4527   1.4532
     1.4736   1.4822   1.4848   1.4862   1.5119   1.5239   1.5315   1.5334
     1.5467   1.5473   1.5474   1.5481   1.5718   1.5764   1.5774   1.5819
     1.5901   1.5908   1.5918   1.5963   1.6291   1.6682   1.6703   1.6709
     1.8068   1.8130   1.8157   1.8165   2.3502   2.3613   2.3666   2.3681
     2.5293   2.5373   2.5386   2.5422   2.7511   2.7624   2.7641   2.7683
     3.1068   3.1382   3.1424   3.1425   3.4174   3.4250   3.4253   3.4257
     3.5970   3.6059   3.6162   3.6219   3.7662   3.8958   3.9014   3.9020
     3.9105   4.1696   4.1700   4.1742   4.1944   4.2984   4.3157   4.3215
     4.3307   4.3386   4.3879   4.4123   4.4340   4.4704   4.4789   4.5052
     4.6684   4.7394   4.7547   4.8096   4.8798   5.0347   5.0387   5.0511
     5.0981   5.1103   5.1244   5.1592   5.1809   5.2068   5.2105   5.2403
     5.3160   5.3511   5.3816   5.4118   5.4572   5.4710   5.4730   5.4837
     5.7382   5.7617   5.7654   5.7657   5.9600   5.9867   6.0013   6.0094
     6.7036   6.7395   6.7424   6.7431   6.8117   6.9225   6.9279   6.9583
     7.1000   7.1067   7.1081   7.1116   7.2057   7.3048   7.3074   7.3258
     7.3351   7.3419   7.3487   7.3499   7.3609   7.3789   7.3835   7.3899
     7.6593   7.7353   7.7614   7.7641   8.0809   8.1428   8.1730   8.1924
     8.1945   8.2156   8.2241   8.2336   8.3291   8.3778   8.4313   8.4342
     8.8452   8.8623   8.8824   8.8848   8.8999   8.9079   8.9081   8.9093
     8.9393   8.9509   8.9550   8.9600   9.0770   9.1180   9.1245   9.1300
     9.1307   9.1857   9.3035   9.3238   9.3706   9.4027   9.4044   9.4153
     9.4445   9.5740   9.6021   9.6185   9.6300   9.6617   9.7033

     the Fermi energy is     3.2992 ev

!    total energy              =  -12706.82950813 Ry
     Harris-Foulkes estimate   =  -12706.82950808 Ry
     estimated scf accuracy    <          5.1E-09 Ry

     The total energy is the sum of the following terms:

     one-electron contribution = -109289.68251950 Ry
     hartree contribution      =   56005.10273837 Ry
     xc contribution           =   -4446.48367022 Ry
     ewald contribution        =   45030.58993651 Ry
     Dispersion Correction     =      -2.97438890 Ry
     smearing contrib. (-TS)   =      -3.38160439 Ry

     convergence has been achieved in  46 iterations

     Writing output data file gc.save
 
     init_run     :     99.95s CPU    107.53s WALL (       1 calls)
     electrons    :  11980.31s CPU  12821.35s WALL (       1 calls)

     Called by init_run:
     wfcinit      :     97.66s CPU    104.71s WALL (       1 calls)
     potinit      :      0.36s CPU      0.38s WALL (       1 calls)

     Called by electrons:
     c_bands      :  10964.59s CPU  11705.06s WALL (      46 calls)
     sum_band     :    849.71s CPU    923.76s WALL (      46 calls)
     v_of_rho     :      3.03s CPU      3.74s WALL (      47 calls)
     newd         :      8.93s CPU     14.35s WALL (      47 calls)
     mix_rho      :    153.88s CPU    174.27s WALL (      46 calls)

     Called by c_bands:
     init_us_2    :     38.47s CPU     39.10s WALL (     558 calls)
     cegterg      :  10793.36s CPU  11527.89s WALL (     282 calls)

     Called by sum_band:
     sum_band:bec :      4.90s CPU      5.47s WALL (     276 calls)
     addusdens    :      8.38s CPU     13.94s WALL (      46 calls)

     Called by *egterg:
     h_psi        :   4135.65s CPU   4477.54s WALL (    1698 calls)
     s_psi        :    993.22s CPU   1004.51s WALL (    1698 calls)
     g_psi        :     10.53s CPU     10.54s WALL (    1410 calls)
     cdiaghg      :   2800.35s CPU   2909.99s WALL (    1686 calls)

     Called by h_psi:
     add_vuspsi   :    999.49s CPU   1012.01s WALL (    1698 calls)

     General routines
     calbec       :   1428.29s CPU   1438.73s WALL (    1974 calls)
     fft          :      3.11s CPU      3.66s WALL (     610 calls)
     ffts         :     89.56s CPU    101.67s WALL (   23711 calls)
     fftw         :   2385.95s CPU   2665.91s WALL ( 1325026 calls)
     davcio       :      0.35s CPU      5.00s WALL (       6 calls)
 
     Parallel routines
     fft_scatter  :   1543.56s CPU   1691.39s WALL ( 1349347 calls)
 
     PWSCF        :     3h21m CPU        3h35m WALL

 
   This run was terminated on:  14:39:44  11Mar2017            

=------------------------------------------------------------------------------=
   JOB DONE.
=------------------------------------------------------------------------------=
