mpirun: INFO: switching to OpenMPI runtime version 1.10.2

     Program PWSCF v.5.4.0 starts on  7Sep2017 at 19:20:46 

     This program is part of the open-source Quantum ESPRESSO suite
     for quantum simulation of materials; please cite
         "P. Giannozzi et al., J. Phys.:Condens. Matter 21 395502 (2009);
          URL http://www.quantum-espresso.org", 
     in publications or presentations arising from this work. More details at
     http://www.quantum-espresso.org/quote

     Parallel version (MPI & OpenMP), running on      56 processor cores
     Number of MPI processes:                56
     Threads/MPI process:                     1
     R & G space division:  proc/nbgrp/npool/nimage =      56
     Waiting for input...
     Reading input from standard input
Warning: card &IONS ignored
Warning: card / ignored

     Current dimensions of program PWSCF are:
     Max number of different atomic species (ntypx) = 10
     Max number of k-points (npk) =  40000
     Max angular momentum in pseudopotentials (lmaxx) =  3

     -------------------------------------
     Parameters for Dispersion Correction:
     -------------------------------------
       atom      VdW radius       C_6     

        Cu         2.952        374.666
        C_h        2.744         60.710
        C          2.744         60.710

     Subspace diagonalization in iterative solution of the eigenvalue problem:
     one sub-group per band group will be used
     scalapack distributed-memory algorithm (size of sub-group:  5*  5 procs)

 
     Parallelization info
     --------------------
     sticks:   dense  smooth     PW     G-vecs:    dense   smooth      PW
     Min         204     204     54                36612    36612    4962
     Max         205     205     55                36617    36617    4968
     Sum       11433   11433   3039              2050409  2050409  278033
 


     bravais-lattice index     =            0
     lattice parameter (alat)  =      13.9425  a.u.
     unit-cell volume          =   21209.0878 (a.u.)^3
     number of atoms/cell      =          148
     number of atomic types    =            3
     number of electrons       =      1292.00
     number of Kohn-Sham states=          775
     kinetic-energy cutoff     =      80.0000  Ry
     charge density cutoff     =     320.0000  Ry
     convergence threshold     =      1.0E-08
     mixing beta               =       0.7000
     number of iterations used =            8  local-TF  mixing
     Exchange-correlation      =  SLA  PW   PBX  PBC ( 1  4  3  4 0 0)

     celldm(1)=  13.942539  celldm(2)=   0.000000  celldm(3)=   0.000000
     celldm(4)=   0.000000  celldm(5)=   0.000000  celldm(6)=   0.000000

     crystal axes: (cart. coord. in units of alat)
               a(1) = (   1.000000   0.000000   0.000000 )  
               a(2) = (   0.000000   2.309401   0.000000 )  
               a(3) = (   0.000000   0.000000   3.388418 )  

     reciprocal axes: (cart. coord. in units 2 pi/alat)
               b(1) = (  1.000000  0.000000  0.000000 )  
               b(2) = (  0.000000  0.433013  0.000000 )  
               b(3) = (  0.000000  0.000000  0.295123 )  


     PseudoPot. # 1 for Cu read from file:
     /home/549/hxw549/Short/pseudopotentials/Cu.pbe-n-van_ak.UPF
     MD5 check sum: 601f7c30f7467666bec936e0661ce3e1
     Pseudo is Ultrasoft + core correction, Zval = 11.0
     Generated by new atomic code, or converted to UPF format
     Using radial grid of  867 points,  6 beta functions with: 
                l(1) =   0
                l(2) =   0
                l(3) =   1
                l(4) =   1
                l(5) =   2
                l(6) =   2
     Q(r) pseudized with  8 coefficients,  rinner =    1.400   1.400   1.400
                                                       1.400   1.400

     PseudoPot. # 2 for C  read from file:
     /home/549/hxw549/Short/pseudopotentials/C.star1s-pbe-mt_gipaw.UPF
     MD5 check sum: ef0cb3dee31bd9e4ba2a832a2c716264
     Pseudo is Norm-conserving, Zval =  5.0
     Generated by new atomic code, or converted to UPF format
     Using radial grid of 1073 points,  1 beta functions with: 
                l(1) =   0

     PseudoPot. # 3 for C  read from file:
     /home/549/hxw549/Short/pseudopotentials/C.pbe-mt_gipaw.UPF
     MD5 check sum: 5ac2f21f2c440b14befe521540822c15
     Pseudo is Norm-conserving, Zval =  4.0
     Generated by new atomic code, or converted to UPF format
     Using radial grid of 1073 points,  1 beta functions with: 
                l(1) =   0

     atomic species   valence    mass     pseudopotential
        Cu            11.00    63.54600     Cu( 1.00)
        C_h            5.00    12.01070     C ( 1.00)
        C              4.00    12.01070     C ( 1.00)

     No symmetry found



   Cartesian axes

     site n.     atom                  positions (alat units)
         1           Cu  tau(   1) = (   0.0000000   0.0000567   0.9971194  )
         2           Cu  tau(   2) = (   0.2499927   0.2309760   0.9972946  )
         3           Cu  tau(   3) = (   0.5000000   0.0000313   0.9971490  )
         4           Cu  tau(   4) = (   0.7500073   0.2309760   0.9972946  )
         5           Cu  tau(   5) = (   0.0000000   0.4618437   0.9973425  )
         6           Cu  tau(   6) = (   0.2499840   0.6927701   0.9971914  )
         7           Cu  tau(   7) = (   0.5000000   0.4618722   0.9973119  )
         8           Cu  tau(   8) = (   0.7500160   0.6927701   0.9971914  )
         9           Cu  tau(   9) = (   0.0000000   0.9237521   0.9970621  )
        10           Cu  tau(  10) = (   0.2500157   1.1547420   0.9971373  )
        11           Cu  tau(  11) = (   0.5000000   0.9237453   0.9970727  )
        12           Cu  tau(  12) = (   0.7499843   1.1547420   0.9971373  )
        13           Cu  tau(  13) = (   0.0000000   1.3856555   0.9972830  )
        14           Cu  tau(  14) = (   0.2500029   1.6165618   0.9973242  )
        15           Cu  tau(  15) = (   0.5000000   1.3857014   0.9973005  )
        16           Cu  tau(  16) = (   0.7499971   1.6165618   0.9973242  )
        17           Cu  tau(  17) = (   0.0000000   1.8474941   0.9971969  )
        18           Cu  tau(  18) = (   0.2500043   2.0784518   0.9970745  )
        19           Cu  tau(  19) = (   0.5000000   1.8474499   0.9971773  )
        20           Cu  tau(  20) = (   0.7499957   2.0784518   0.9970745  )
        21           Cu  tau(  21) = (   0.0000000   0.2308065   1.2457643  )
        22           Cu  tau(  22) = (   0.2499892  -0.0001010   1.2455764  )
        23           Cu  tau(  23) = (   0.5000000   0.2308938   1.2456746  )
        24           Cu  tau(  24) = (   0.7500108  -0.0001010   1.2455764  )
        25           Cu  tau(  25) = (   0.0000000   0.6929786   1.2456406  )
        26           Cu  tau(  26) = (   0.2499874   0.4619293   1.2457459  )
        27           Cu  tau(  27) = (   0.5000000   0.6929012   1.2456074  )
        28           Cu  tau(  28) = (   0.7500126   0.4619293   1.2457459  )
        29           Cu  tau(  29) = (   0.0000000   1.1546142   1.2455676  )
        30           Cu  tau(  30) = (   0.2499981   0.9237849   1.2455149  )
        31           Cu  tau(  31) = (   0.5000000   1.1545763   1.2455800  )
        32           Cu  tau(  32) = (   0.7500019   0.9237849   1.2455149  )
        33           Cu  tau(  33) = (   0.0000000   1.6166029   1.2456910  )
        34           Cu  tau(  34) = (   0.2500161   1.3855492   1.2457134  )
        35           Cu  tau(  35) = (   0.5000000   1.6166555   1.2458019  )
        36           Cu  tau(  36) = (   0.7499839   1.3855492   1.2457134  )
        37           Cu  tau(  37) = (   0.0000000   2.0784993   1.2455162  )
        38           Cu  tau(  38) = (   0.2500161   1.8476387   1.2456210  )
        39           Cu  tau(  39) = (   0.5000000   2.0784755   1.2455152  )
        40           Cu  tau(  40) = (   0.7499839   1.8476387   1.2456210  )
        41           Cu  tau(  41) = (   0.0000000  -0.0003182   1.4954305  )
        42           Cu  tau(  42) = (   0.2500224   0.2307186   1.4951678  )
        43           Cu  tau(  43) = (   0.5000000  -0.0002059   1.4952775  )
        44           Cu  tau(  44) = (   0.7499776   0.2307186   1.4951678  )
        45           Cu  tau(  45) = (   0.0000000   0.4620254   1.4950571  )
        46           Cu  tau(  46) = (   0.2500339   0.6931225   1.4952807  )
        47           Cu  tau(  47) = (   0.5000000   0.4619896   1.4952144  )
        48           Cu  tau(  48) = (   0.7499661   0.6931225   1.4952807  )
        49           Cu  tau(  49) = (   0.0000000   0.9238798   1.4954544  )
        50           Cu  tau(  50) = (   0.2499708   1.1544329   1.4953374  )
        51           Cu  tau(  51) = (   0.5000000   0.9237633   1.4954072  )
        52           Cu  tau(  52) = (   0.7500292   1.1544329   1.4953374  )
        53           Cu  tau(  53) = (   0.0000000   1.3854453   1.4952066  )
        54           Cu  tau(  54) = (   0.2499861   1.6167017   1.4951298  )
        55           Cu  tau(  55) = (   0.5000000   1.3853760   1.4951346  )
        56           Cu  tau(  56) = (   0.7500139   1.6167017   1.4951298  )
        57           Cu  tau(  57) = (   0.0000000   1.8477718   1.4952308  )
        58           Cu  tau(  58) = (   0.2499930   2.0785254   1.4954090  )
        59           Cu  tau(  59) = (   0.5000000   1.8478762   1.4953503  )
        60           Cu  tau(  60) = (   0.7500070   2.0785254   1.4954090  )
        61           Cu  tau(  61) = (   0.0000000   0.2310733   1.7440777  )
        62           Cu  tau(  62) = (   0.2501089  -0.0001294   1.7450479  )
        63           Cu  tau(  63) = (   0.5000000   0.2306045   1.7445985  )
        64           Cu  tau(  64) = (   0.7498911  -0.0001294   1.7450479  )
        65           Cu  tau(  65) = (   0.0000000   0.6927994   1.7446059  )
        66           Cu  tau(  66) = (   0.2502918   0.4619532   1.7441197  )
        67           Cu  tau(  67) = (   0.5000000   0.6931011   1.7451318  )
        68           Cu  tau(  68) = (   0.7497082   0.4619532   1.7441197  )
        69           Cu  tau(  69) = (   0.0000000   1.1545789   1.7453503  )
        70           Cu  tau(  70) = (   0.2500220   0.9237908   1.7453835  )
        71           Cu  tau(  71) = (   0.5000000   1.1545999   1.7449118  )
        72           Cu  tau(  72) = (   0.7499780   0.9237908   1.7453835  )
        73           Cu  tau(  73) = (   0.0000000   1.6167791   1.7444075  )
        74           Cu  tau(  74) = (   0.2497438   1.3855115   1.7442733  )
        75           Cu  tau(  75) = (   0.5000000   1.6164906   1.7439233  )
        76           Cu  tau(  76) = (   0.7502562   1.3855115   1.7442733  )
        77           Cu  tau(  77) = (   0.0000000   2.0782721   1.7455014  )
        78           Cu  tau(  78) = (   0.2498426   1.8476765   1.7447807  )
        79           Cu  tau(  79) = (   0.5000000   2.0787016   1.7454002  )
        80           Cu  tau(  80) = (   0.7501574   1.8476765   1.7447807  )
        81           Cu  tau(  81) = (   0.0000000   0.0010732   1.9906710  )
        82           Cu  tau(  82) = (   0.2503054   0.2314650   1.9904877  )
        83           Cu  tau(  83) = (   0.5000000   0.0001335   1.9924670  )
        84           Cu  tau(  84) = (   0.7496946   0.2314650   1.9904877  )
        85           Cu  tau(  85) = (   0.0000000   0.4618379   1.9901778  )
        86           Cu  tau(  86) = (   0.2508441   0.6921348   1.9910282  )
        87           Cu  tau(  87) = (   0.5000000   0.4613052   1.9913358  )
        88           Cu  tau(  88) = (   0.7491559   0.6921348   1.9910282  )
        89           Cu  tau(  89) = (   0.0000000   0.9224699   1.9915918  )
        90           Cu  tau(  90) = (   0.2491275   1.1552920   1.9912642  )
        91           Cu  tau(  91) = (   0.5000000   0.9247757   1.9920574  )
        92           Cu  tau(  92) = (   0.7508725   1.1552920   1.9912642  )
        93           Cu  tau(  93) = (   0.0000000   1.3865904   1.9916296  )
        94           Cu  tau(  94) = (   0.2499532   1.6162906   1.9903050  )
        95           Cu  tau(  95) = (   0.5000000   1.3858063   1.9901800  )
        96           Cu  tau(  96) = (   0.7500468   1.6162906   1.9903050  )
        97           Cu  tau(  97) = (   0.0000000   1.8468318   1.9923212  )
        98           Cu  tau(  98) = (   0.2497561   2.0783183   1.9915134  )
        99           Cu  tau(  99) = (   0.5000000   1.8467805   1.9903847  )
       100           Cu  tau( 100) = (   0.7502439   2.0783183   1.9915134  )
       101           C   tau( 101) = (   0.0166629   0.0962962   2.3888871  )
       102           C   tau( 102) = (   0.0166629   0.2886925   2.3900713  )
       103           C   tau( 103) = (   0.1832958   0.0000435   2.3878440  )
       104           C   tau( 104) = (   0.1831535   0.3848966   2.3886743  )
       105           C   tau( 105) = (   0.3497864   0.0962174   2.3860158  )
       106           C   tau( 106) = (   0.3497905   0.2886629   2.3856823  )
       107           C   tau( 107) = (   0.5166633  -0.0000818   2.3845687  )
       108           C   tau( 108) = (   0.5166633   0.3849277   2.3842391  )
       109           C   tau( 109) = (   0.6835388   0.0962174   2.3860158  )
       110           C   tau( 110) = (   0.6835348   0.2886629   2.3856823  )
       111           C   tau( 111) = (   0.8500308   0.0000435   2.3878440  )
       112           C   tau( 112) = (   0.8501731   0.3848966   2.3886743  )
       113           C   tau( 113) = (   0.0166629   0.6735163   2.3892509  )
       114           C   tau( 114) = (   0.0166629   0.8659398   2.3870960  )
       115           C   tau( 115) = (   0.1831386   0.5773226   2.3882842  )
       116           C   tau( 116) = (   0.1834056   0.9622141   2.3870264  )
       117           C   tau( 117) = (   0.3498718   0.6735984   2.3858047  )
       118           C   tau( 118) = (   0.3498664   0.8660537   2.3866148  )
       119           C   tau( 119) = (   0.5166633   0.5773685   2.3848465  )
       120           C_h tau( 120) = (   0.5166633   0.9623380   2.3860825  )
       121           C   tau( 121) = (   0.6834534   0.6735984   2.3858047  )
       122           C   tau( 122) = (   0.6834602   0.8660537   2.3866148  )
       123           C   tau( 123) = (   0.8501866   0.5773226   2.3882842  )
       124           C   tau( 124) = (   0.8499196   0.9622141   2.3870264  )
       125           C   tau( 125) = (   0.0166629   1.2508867   2.3852683  )
       126           C   tau( 126) = (   0.0166629   1.4433300   2.3840871  )
       127           C   tau( 127) = (   0.1833988   1.1546708   2.3859697  )
       128           C   tau( 128) = (   0.1835574   1.5396104   2.3857176  )
       129           C   tau( 129) = (   0.3501727   1.2509657   2.3878953  )
       130           C   tau( 130) = (   0.3501496   1.4433958   2.3886602  )
       131           C   tau( 131) = (   0.5166633   1.1547731   2.3885512  )
       132           C   tau( 132) = (   0.5166633   1.5396099   2.3901428  )
       133           C   tau( 133) = (   0.6831539   1.2509657   2.3878953  )
       134           C   tau( 134) = (   0.6831769   1.4433958   2.3886602  )
       135           C   tau( 135) = (   0.8499264   1.1546708   2.3859697  )
       136           C   tau( 136) = (   0.8497692   1.5396104   2.3857176  )
       137           C   tau( 137) = (   0.0166629   1.8283510   2.3842019  )
       138           C   tau( 138) = (   0.0166629   2.0207949   2.3863399  )
       139           C   tau( 139) = (   0.1835587   1.7320513   2.3858703  )
       140           C   tau( 140) = (   0.1832809   2.1169980   2.3865340  )
       141           C   tau( 141) = (   0.3500778   1.8282368   2.3882160  )
       142           C   tau( 142) = (   0.3500981   2.0206763   2.3869561  )
       143           C   tau( 143) = (   0.5166633   1.7319961   2.3895398  )
       144           C   tau( 144) = (   0.5166633   2.1168754   2.3870198  )
       145           C   tau( 145) = (   0.6832474   1.8282368   2.3882160  )
       146           C   tau( 146) = (   0.6832271   2.0206763   2.3869561  )
       147           C   tau( 147) = (   0.8497665   1.7320513   2.3858703  )
       148           C   tau( 148) = (   0.8500443   2.1169980   2.3865340  )

     number of k points=     6  gaussian smearing, width (Ry)=  0.1000
                       cart. coord. in units 2pi/alat
        k(    1) = (   0.0000000   0.0000000   0.0000000), wk =   0.2500000
        k(    2) = (   0.0000000  -0.2165064   0.0000000), wk =   0.2500000
        k(    3) = (   0.2500000   0.0000000   0.0000000), wk =   0.5000000
        k(    4) = (   0.2500000  -0.2165064   0.0000000), wk =   0.5000000
        k(    5) = (  -0.5000000   0.0000000   0.0000000), wk =   0.2500000
        k(    6) = (  -0.5000000  -0.2165064   0.0000000), wk =   0.2500000

     Dense  grid:  2050409 G-vectors     FFT dimensions: (  80, 192, 270)

     Largest allocated arrays     est. size (Mb)     dimensions
        Kohn-Sham Wavefunctions        54.44 Mb     (    4604,  775)
        NL pseudopotentials           129.82 Mb     (    4604, 1848)
        Each V/rho on FFT grid          1.17 Mb     (   76800)
        Each G-vector array             0.28 Mb     (   36616)
        G-vector shells                 0.14 Mb     (   17932)
     Largest temporary arrays     est. size (Mb)     dimensions
        Auxiliary wavefunctions       217.78 Mb     (    4604, 3100)
        Each subspace H/S matrix        5.87 Mb     (     620,  620)
        Each <psi_i|beta_j> matrix     21.85 Mb     (    1848,  775)
        Arrays for rho mixing           9.38 Mb     (   76800,    8)

     Initial potential from superposition of free atoms
     Check: negative starting charge=   -0.001843

     starting charge 1266.81751, renormalised to 1292.00000

     negative rho (up, down):  1.879E-03 0.000E+00
     Starting wfc are 1284 randomized atomic wfcs

     total cpu time spent up to now is      106.0 secs

     Self-consistent Calculation

     iteration #  1     ecut=    80.00 Ry     beta=0.70
     Davidson diagonalization with overlap
     c_bands:  4 eigenvalues not converged
     c_bands:  1 eigenvalues not converged
     ethr =  1.00E-04,  avg # of iterations = 35.8

     negative rho (up, down):  2.724E+01 0.000E+00

     total cpu time spent up to now is     2037.9 secs

     total energy              =   -9474.01177667 Ry
     Harris-Foulkes estimate   =  -17310.57635450 Ry
     estimated scf accuracy    <  180103.90896653 Ry

     iteration #  2     ecut=    80.00 Ry     beta=0.70
     Davidson diagonalization with overlap
     ethr =  1.00E-02,  avg # of iterations = 12.2

     negative rho (up, down):  3.147E+01 0.000E+00

     total cpu time spent up to now is     2934.9 secs

     total energy              =  -12202.01284338 Ry
     Harris-Foulkes estimate   =  -13664.72422904 Ry
     estimated scf accuracy    <   23998.66470458 Ry

     iteration #  3     ecut=    80.00 Ry     beta=0.70
     Davidson diagonalization with overlap
     ethr =  1.00E-02,  avg # of iterations =  7.3

     negative rho (up, down):  3.199E+01 0.000E+00

     total cpu time spent up to now is     3459.7 secs

     total energy              =  -12464.44815835 Ry
     Harris-Foulkes estimate   =  -13406.03969542 Ry
     estimated scf accuracy    <    5781.76224622 Ry

     iteration #  4     ecut=    80.00 Ry     beta=0.70
     Davidson diagonalization with overlap
     ethr =  1.00E-02,  avg # of iterations =  5.8

     negative rho (up, down):  2.375E+01 0.000E+00

     total cpu time spent up to now is     3939.5 secs

     total energy              =  -12846.94578058 Ry
     Harris-Foulkes estimate   =  -13083.24417251 Ry
     estimated scf accuracy    <    1753.46159371 Ry

     iteration #  5     ecut=    80.00 Ry     beta=0.70
     Davidson diagonalization with overlap
     ethr =  1.00E-02,  avg # of iterations =  3.5

     negative rho (up, down):  1.863E+01 0.000E+00

     total cpu time spent up to now is     4204.6 secs

     total energy              =  -12845.43640117 Ry
     Harris-Foulkes estimate   =  -12960.34731223 Ry
     estimated scf accuracy    <    1296.96122202 Ry

     iteration #  6     ecut=    80.00 Ry     beta=0.70
     Davidson diagonalization with overlap
     ethr =  1.00E-02,  avg # of iterations =  3.0

     negative rho (up, down):  1.295E+01 0.000E+00

     total cpu time spent up to now is     4410.1 secs

     total energy              =  -12834.19307700 Ry
     Harris-Foulkes estimate   =  -12908.43676487 Ry
     estimated scf accuracy    <     571.32003649 Ry

     iteration #  7     ecut=    80.00 Ry     beta=0.70
     Davidson diagonalization with overlap
     ethr =  1.00E-02,  avg # of iterations =  2.0

     negative rho (up, down):  9.279E+00 0.000E+00

     total cpu time spent up to now is     4588.7 secs

     total energy              =  -12808.73680236 Ry
     Harris-Foulkes estimate   =  -12852.14448841 Ry
     estimated scf accuracy    <     445.21190847 Ry

     iteration #  8     ecut=    80.00 Ry     beta=0.70
     Davidson diagonalization with overlap
     ethr =  1.00E-02,  avg # of iterations =  2.0

     negative rho (up, down):  7.218E+00 0.000E+00

     total cpu time spent up to now is     4763.5 secs

     total energy              =  -12787.49375768 Ry
     Harris-Foulkes estimate   =  -12823.99438586 Ry
     estimated scf accuracy    <     497.02695508 Ry

     iteration #  9     ecut=    80.00 Ry     beta=0.70
     Davidson diagonalization with overlap
     ethr =  1.00E-02,  avg # of iterations =  2.2

     negative rho (up, down):  5.564E+00 0.000E+00

     total cpu time spent up to now is     4939.1 secs

     total energy              =  -12781.13436688 Ry
     Harris-Foulkes estimate   =  -12799.75361257 Ry
     estimated scf accuracy    <     187.80104896 Ry

     iteration # 10     ecut=    80.00 Ry     beta=0.70
     Davidson diagonalization with overlap
     ethr =  1.00E-02,  avg # of iterations =  1.3

     negative rho (up, down):  1.189E+00 0.000E+00

     total cpu time spent up to now is     5106.4 secs

     total energy              =  -12735.98690508 Ry
     Harris-Foulkes estimate   =  -12782.69650528 Ry
     estimated scf accuracy    <     150.55632947 Ry

     iteration # 11     ecut=    80.00 Ry     beta=0.70
     Davidson diagonalization with overlap
     ethr =  1.00E-02,  avg # of iterations =  2.8

     negative rho (up, down):  9.167E-01 0.000E+00

     total cpu time spent up to now is     5291.2 secs

     total energy              =  -12727.83595699 Ry
     Harris-Foulkes estimate   =  -12746.48196919 Ry
     estimated scf accuracy    <     414.05062528 Ry

     iteration # 12     ecut=    80.00 Ry     beta=0.70
     Davidson diagonalization with overlap
     ethr =  1.00E-02,  avg # of iterations =  1.0

     negative rho (up, down):  5.277E-01 0.000E+00

     total cpu time spent up to now is     5454.8 secs

     total energy              =  -12725.18402165 Ry
     Harris-Foulkes estimate   =  -12740.10973927 Ry
     estimated scf accuracy    <     292.24011914 Ry

     iteration # 13     ecut=    80.00 Ry     beta=0.70
     Davidson diagonalization with overlap
     ethr =  1.00E-02,  avg # of iterations =  1.0

     negative rho (up, down):  2.281E+00 0.000E+00

     total cpu time spent up to now is     5618.5 secs

     total energy              =  -12717.45838758 Ry
     Harris-Foulkes estimate   =  -12735.14161551 Ry
     estimated scf accuracy    <     142.54056328 Ry

     iteration # 14     ecut=    80.00 Ry     beta=0.70
     Davidson diagonalization with overlap
     ethr =  1.00E-02,  avg # of iterations =  2.0

     negative rho (up, down):  4.717E+00 0.000E+00

     total cpu time spent up to now is     5792.6 secs

     total energy              =  -12717.63215534 Ry
     Harris-Foulkes estimate   =  -12726.10501992 Ry
     estimated scf accuracy    <      65.77647875 Ry

     iteration # 15     ecut=    80.00 Ry     beta=0.70
     Davidson diagonalization with overlap
     ethr =  5.09E-03,  avg # of iterations =  2.5

     negative rho (up, down):  4.522E+00 0.000E+00

     total cpu time spent up to now is     5974.0 secs

     total energy              =  -12716.95999261 Ry
     Harris-Foulkes estimate   =  -12721.67886100 Ry
     estimated scf accuracy    <      41.07221784 Ry

     iteration # 16     ecut=    80.00 Ry     beta=0.70
     Davidson diagonalization with overlap
     ethr =  3.18E-03,  avg # of iterations =  2.3

     negative rho (up, down):  4.672E+00 0.000E+00

     total cpu time spent up to now is     6152.5 secs

     total energy              =  -12715.45777118 Ry
     Harris-Foulkes estimate   =  -12719.00741133 Ry
     estimated scf accuracy    <      26.20598929 Ry

     iteration # 17     ecut=    80.00 Ry     beta=0.70
     Davidson diagonalization with overlap
     ethr =  2.03E-03,  avg # of iterations =  3.5

     negative rho (up, down):  5.542E+00 0.000E+00

     total cpu time spent up to now is     6343.8 secs

     total energy              =  -12714.38738385 Ry
     Harris-Foulkes estimate   =  -12716.34667208 Ry
     estimated scf accuracy    <      17.66338964 Ry

     iteration # 18     ecut=    80.00 Ry     beta=0.70
     Davidson diagonalization with overlap
     ethr =  1.37E-03,  avg # of iterations =  4.2

     negative rho (up, down):  5.023E+00 0.000E+00

     total cpu time spent up to now is     6547.2 secs

     total energy              =  -12713.53665929 Ry
     Harris-Foulkes estimate   =  -12715.42385375 Ry
     estimated scf accuracy    <      12.22593036 Ry

     iteration # 19     ecut=    80.00 Ry     beta=0.70
     Davidson diagonalization with overlap
     ethr =  9.46E-04,  avg # of iterations =  6.2

     negative rho (up, down):  3.593E+00 0.000E+00

     total cpu time spent up to now is     6770.2 secs

     total energy              =  -12712.24724482 Ry
     Harris-Foulkes estimate   =  -12713.81299166 Ry
     estimated scf accuracy    <       7.95338255 Ry

     iteration # 20     ecut=    80.00 Ry     beta=0.70
     Davidson diagonalization with overlap
     ethr =  6.16E-04,  avg # of iterations =  3.0

     negative rho (up, down):  2.900E+00 0.000E+00

     total cpu time spent up to now is     6956.2 secs

     total energy              =  -12712.19976523 Ry
     Harris-Foulkes estimate   =  -12712.52736743 Ry
     estimated scf accuracy    <      12.15779648 Ry

     iteration # 21     ecut=    80.00 Ry     beta=0.70
     Davidson diagonalization with overlap
     ethr =  6.16E-04,  avg # of iterations =  2.7

     negative rho (up, down):  2.610E+00 0.000E+00

     total cpu time spent up to now is     7139.8 secs

     total energy              =  -12711.94217796 Ry
     Harris-Foulkes estimate   =  -12712.43907491 Ry
     estimated scf accuracy    <       8.13827559 Ry

     iteration # 22     ecut=    80.00 Ry     beta=0.70
     Davidson diagonalization with overlap
     ethr =  6.16E-04,  avg # of iterations =  1.0

     negative rho (up, down):  6.466E-01 0.000E+00

     total cpu time spent up to now is     7304.1 secs

     total energy              =  -12710.34142159 Ry
     Harris-Foulkes estimate   =  -12712.13362905 Ry
     estimated scf accuracy    <       8.09409130 Ry

     iteration # 23     ecut=    80.00 Ry     beta=0.70
     Davidson diagonalization with overlap
     ethr =  6.16E-04,  avg # of iterations =  6.2

     negative rho (up, down):  1.059E+00 0.000E+00

     total cpu time spent up to now is     7528.3 secs

     total energy              =  -12710.21848942 Ry
     Harris-Foulkes estimate   =  -12710.55663802 Ry
     estimated scf accuracy    <      17.27005572 Ry

     iteration # 24     ecut=    80.00 Ry     beta=0.70
     Davidson diagonalization with overlap
     ethr =  6.16E-04,  avg # of iterations =  1.0

     negative rho (up, down):  1.945E-05 0.000E+00

     total cpu time spent up to now is     7691.9 secs

     total energy              =  -12709.23752173 Ry
     Harris-Foulkes estimate   =  -12710.73534054 Ry
     estimated scf accuracy    <       7.30063933 Ry

     iteration # 25     ecut=    80.00 Ry     beta=0.70
     Davidson diagonalization with overlap
     ethr =  5.65E-04,  avg # of iterations =  5.5

     negative rho (up, down):  1.065E-04 0.000E+00

     total cpu time spent up to now is     7906.3 secs

     total energy              =  -12708.40652470 Ry
     Harris-Foulkes estimate   =  -12709.46076161 Ry
     estimated scf accuracy    <       8.25023017 Ry

     iteration # 26     ecut=    80.00 Ry     beta=0.70
     Davidson diagonalization with overlap
     ethr =  5.65E-04,  avg # of iterations =  1.5

     negative rho (up, down):  1.043E-01 0.000E+00

     total cpu time spent up to now is     8076.6 secs

     total energy              =  -12707.86845081 Ry
     Harris-Foulkes estimate   =  -12708.62217972 Ry
     estimated scf accuracy    <       3.76421629 Ry

     iteration # 27     ecut=    80.00 Ry     beta=0.70
     Davidson diagonalization with overlap
     ethr =  2.91E-04,  avg # of iterations =  3.2

     negative rho (up, down):  2.996E-01 0.000E+00

     total cpu time spent up to now is     8265.3 secs

     total energy              =  -12707.41566307 Ry
     Harris-Foulkes estimate   =  -12708.00058641 Ry
     estimated scf accuracy    <       2.80012215 Ry

     iteration # 28     ecut=    80.00 Ry     beta=0.70
     Davidson diagonalization with overlap
     ethr =  2.17E-04,  avg # of iterations =  7.3

     negative rho (up, down):  5.234E-01 0.000E+00

     total cpu time spent up to now is     8505.1 secs

     total energy              =  -12707.16402815 Ry
     Harris-Foulkes estimate   =  -12707.55796016 Ry
     estimated scf accuracy    <       2.35323488 Ry

     iteration # 29     ecut=    80.00 Ry     beta=0.70
     Davidson diagonalization with overlap
     ethr =  1.82E-04,  avg # of iterations =  9.8

     negative rho (up, down):  3.557E-01 0.000E+00

     total cpu time spent up to now is     8786.9 secs

     total energy              =  -12707.18549020 Ry
     Harris-Foulkes estimate   =  -12707.28095691 Ry
     estimated scf accuracy    <       1.01450041 Ry

     iteration # 30     ecut=    80.00 Ry     beta=0.70
     Davidson diagonalization with overlap
     ethr =  7.85E-05,  avg # of iterations =  3.2

     negative rho (up, down):  3.808E-01 0.000E+00

     total cpu time spent up to now is     8978.2 secs

     total energy              =  -12707.16238887 Ry
     Harris-Foulkes estimate   =  -12707.22588928 Ry
     estimated scf accuracy    <       0.59819069 Ry

     iteration # 31     ecut=    80.00 Ry     beta=0.70
     Davidson diagonalization with overlap
     ethr =  4.63E-05,  avg # of iterations =  8.2

     negative rho (up, down):  2.512E-01 0.000E+00

     total cpu time spent up to now is     9241.4 secs

     total energy              =  -12707.15362707 Ry
     Harris-Foulkes estimate   =  -12707.18816919 Ry
     estimated scf accuracy    <       0.37803587 Ry

     iteration # 32     ecut=    80.00 Ry     beta=0.70
     Davidson diagonalization with overlap
     c_bands:  1 eigenvalues not converged
     ethr =  2.93E-05,  avg # of iterations =  6.7

     negative rho (up, down):  1.635E-01 0.000E+00

     total cpu time spent up to now is     9474.5 secs

     total energy              =  -12707.11915811 Ry
     Harris-Foulkes estimate   =  -12707.16219543 Ry
     estimated scf accuracy    <       0.14162111 Ry

     iteration # 33     ecut=    80.00 Ry     beta=0.70
     Davidson diagonalization with overlap
     ethr =  1.10E-05,  avg # of iterations = 12.2

     negative rho (up, down):  1.419E-01 0.000E+00

     total cpu time spent up to now is     9819.4 secs

     total energy              =  -12707.12759972 Ry
     Harris-Foulkes estimate   =  -12707.15434137 Ry
     estimated scf accuracy    <       0.17702189 Ry

     iteration # 34     ecut=    80.00 Ry     beta=0.70
     Davidson diagonalization with overlap
     ethr =  1.10E-05,  avg # of iterations =  8.0

     negative rho (up, down):  1.230E-01 0.000E+00

     total cpu time spent up to now is    10077.1 secs

     total energy              =  -12707.14520190 Ry
     Harris-Foulkes estimate   =  -12707.14757376 Ry
     estimated scf accuracy    <       0.02308561 Ry

     iteration # 35     ecut=    80.00 Ry     beta=0.70
     Davidson diagonalization with overlap
     c_bands:  1 eigenvalues not converged
     ethr =  1.79E-06,  avg # of iterations =  9.8

     negative rho (up, down):  8.614E-02 0.000E+00

     total cpu time spent up to now is    10354.7 secs

     total energy              =  -12707.14418471 Ry
     Harris-Foulkes estimate   =  -12707.14637003 Ry
     estimated scf accuracy    <       0.00779578 Ry

     iteration # 36     ecut=    80.00 Ry     beta=0.70
     Davidson diagonalization with overlap
     c_bands:  1 eigenvalues not converged
     c_bands:  1 eigenvalues not converged
     ethr =  6.03E-07,  avg # of iterations = 13.3

     negative rho (up, down):  4.364E-02 0.000E+00

     total cpu time spent up to now is    10677.9 secs

     total energy              =  -12707.14370204 Ry
     Harris-Foulkes estimate   =  -12707.14469626 Ry
     estimated scf accuracy    <       0.00181074 Ry

     iteration # 37     ecut=    80.00 Ry     beta=0.70
     Davidson diagonalization with overlap
     c_bands:  2 eigenvalues not converged
     c_bands:  1 eigenvalues not converged
     ethr =  1.40E-07,  avg # of iterations = 14.7

     negative rho (up, down):  3.721E-02 0.000E+00

     total cpu time spent up to now is    11037.6 secs

     total energy              =  -12707.14345761 Ry
     Harris-Foulkes estimate   =  -12707.14396581 Ry
     estimated scf accuracy    <       0.00260181 Ry

     iteration # 38     ecut=    80.00 Ry     beta=0.70
     Davidson diagonalization with overlap
     ethr =  1.40E-07,  avg # of iterations =  6.8

     negative rho (up, down):  1.621E-02 0.000E+00

     total cpu time spent up to now is    11280.0 secs

     total energy              =  -12707.14331272 Ry
     Harris-Foulkes estimate   =  -12707.14371677 Ry
     estimated scf accuracy    <       0.00044025 Ry

     iteration # 39     ecut=    80.00 Ry     beta=0.70
     Davidson diagonalization with overlap
     ethr =  3.41E-08,  avg # of iterations =  6.7

     negative rho (up, down):  8.168E-03 0.000E+00

     total cpu time spent up to now is    11524.2 secs

     total energy              =  -12707.14316207 Ry
     Harris-Foulkes estimate   =  -12707.14333423 Ry
     estimated scf accuracy    <       0.00037436 Ry

     iteration # 40     ecut=    80.00 Ry     beta=0.70
     Davidson diagonalization with overlap
     c_bands:  1 eigenvalues not converged
     ethr =  2.90E-08,  avg # of iterations =  9.3

     negative rho (up, down):  3.655E-03 0.000E+00

     total cpu time spent up to now is    11792.1 secs

     total energy              =  -12707.14309086 Ry
     Harris-Foulkes estimate   =  -12707.14317219 Ry
     estimated scf accuracy    <       0.00011879 Ry

     iteration # 41     ecut=    80.00 Ry     beta=0.70
     Davidson diagonalization with overlap
     c_bands:  2 eigenvalues not converged
     c_bands:  1 eigenvalues not converged
     ethr =  9.19E-09,  avg # of iterations =  9.7

     negative rho (up, down):  2.751E-03 0.000E+00

     total cpu time spent up to now is    12062.3 secs

     total energy              =  -12707.14308414 Ry
     Harris-Foulkes estimate   =  -12707.14309558 Ry
     estimated scf accuracy    <       0.00001735 Ry

     iteration # 42     ecut=    80.00 Ry     beta=0.70
     Davidson diagonalization with overlap
     ethr =  1.34E-09,  avg # of iterations =  6.0

     negative rho (up, down):  2.663E-03 0.000E+00

     total cpu time spent up to now is    12295.1 secs

     total energy              =  -12707.14308641 Ry
     Harris-Foulkes estimate   =  -12707.14308599 Ry
     estimated scf accuracy    <       0.00000211 Ry

     iteration # 43     ecut=    80.00 Ry     beta=0.70
     Davidson diagonalization with overlap
     ethr =  1.64E-10,  avg # of iterations =  3.0

     negative rho (up, down):  2.155E-03 0.000E+00

     total cpu time spent up to now is    12507.5 secs

     total energy              =  -12707.14308608 Ry
     Harris-Foulkes estimate   =  -12707.14308678 Ry
     estimated scf accuracy    <       0.00000111 Ry

     iteration # 44     ecut=    80.00 Ry     beta=0.70
     Davidson diagonalization with overlap
     ethr =  8.62E-11,  avg # of iterations =  2.3

     negative rho (up, down):  2.176E-03 0.000E+00

     total cpu time spent up to now is    12689.2 secs

     total energy              =  -12707.14308620 Ry
     Harris-Foulkes estimate   =  -12707.14308617 Ry
     estimated scf accuracy    <       0.00000018 Ry

     iteration # 45     ecut=    80.00 Ry     beta=0.70
     Davidson diagonalization with overlap
     ethr =  1.41E-11,  avg # of iterations =  3.0

     negative rho (up, down):  2.138E-03 0.000E+00

     total cpu time spent up to now is    12899.1 secs

     total energy              =  -12707.14308626 Ry
     Harris-Foulkes estimate   =  -12707.14308622 Ry
     estimated scf accuracy    <       0.00000008 Ry

     iteration # 46     ecut=    80.00 Ry     beta=0.70
     Davidson diagonalization with overlap
     ethr =  6.27E-12,  avg # of iterations =  2.0

     negative rho (up, down):  2.101E-03 0.000E+00

     total cpu time spent up to now is    13086.3 secs

     total energy              =  -12707.14308630 Ry
     Harris-Foulkes estimate   =  -12707.14308627 Ry
     estimated scf accuracy    <       0.00000003 Ry

     iteration # 47     ecut=    80.00 Ry     beta=0.70
     Davidson diagonalization with overlap
     ethr =  2.56E-12,  avg # of iterations =  2.7

     negative rho (up, down):  2.099E-03 0.000E+00

     total cpu time spent up to now is    13279.9 secs

     total energy              =  -12707.14308631 Ry
     Harris-Foulkes estimate   =  -12707.14308631 Ry
     estimated scf accuracy    <       0.00000002 Ry

     iteration # 48     ecut=    80.00 Ry     beta=0.70
     Davidson diagonalization with overlap
     ethr =  1.40E-12,  avg # of iterations =  3.0

     negative rho (up, down):  2.115E-03 0.000E+00

     total cpu time spent up to now is    13466.6 secs

     End of self-consistent calculation

          k = 0.0000 0.0000 0.0000 (256287 PWs)   bands (ev):

   -17.2880 -16.2344 -16.0877 -15.4319 -15.0439 -14.7913 -14.6919 -14.2523
   -14.1993 -14.1387 -14.1249 -13.4681 -13.3236 -13.1547 -13.1224 -13.0881
   -13.0792 -11.6692 -11.5334 -11.4882 -11.3889 -11.2059 -10.3537  -9.7706
    -9.7610  -9.6272  -9.5237  -8.9878  -8.8001  -8.6764  -8.6001  -8.0486
    -7.9028  -7.7625  -7.6420  -7.5794  -7.5755  -7.5357  -7.5222  -6.3593
    -6.3510  -6.1273  -6.0216  -6.0185  -5.9507  -5.8895  -5.8595  -5.8442
    -5.4988  -5.4851  -5.3073  -4.8937  -4.8393  -4.8005  -4.6366  -4.6216
    -4.5833  -4.4252  -4.2582  -4.1473  -3.9896  -3.9880  -3.9704  -3.9476
    -3.6181  -3.5512  -3.5315  -3.5264  -3.4210  -3.4179  -3.4077  -3.4002
    -3.2769  -3.1869  -3.1220  -3.0620  -3.0158  -3.0079  -3.0073  -3.0067
    -2.9916  -2.8587  -2.8351  -2.7995  -2.7815  -2.7430  -2.7416  -2.7397
    -2.7180  -2.7140  -2.5340  -2.4331  -2.3777  -2.3765  -2.3390  -2.3362
    -2.1948  -2.1922  -2.1810  -2.1776  -2.1522  -2.1520  -2.1520  -2.1518
    -2.1128  -2.0785  -2.0776  -2.0356  -2.0214  -2.0212  -2.0211  -2.0208
    -1.9611  -1.8419  -1.7772  -1.7450  -1.7389  -1.7380  -1.7378  -1.7028
    -1.6931  -1.6718  -1.6586  -1.6569  -1.6123  -1.6020  -1.5900  -1.5712
    -1.5648  -1.5632  -1.5608  -1.5511  -1.5397  -1.5353  -1.5348  -1.5157
    -1.5142  -1.4590  -1.4416  -1.4305  -1.4157  -1.3840  -1.3797  -1.3771
    -1.3717  -1.3530  -1.2991  -1.2906  -1.2636  -1.2623  -1.2509  -1.2118
    -1.2115  -1.1919  -1.1898  -1.1745  -1.1671  -1.1642  -1.1264  -1.1206
    -1.1089  -1.1078  -1.0495  -1.0470  -1.0357  -1.0294  -1.0272  -1.0249
    -1.0247  -1.0222  -1.0208  -1.0159  -1.0156  -0.9983  -0.9953  -0.9814
    -0.9519  -0.9407  -0.9381  -0.9349  -0.9235  -0.9192  -0.9181  -0.9173
    -0.8945  -0.8612  -0.8577  -0.8575  -0.8564  -0.8557  -0.8547  -0.8540
    -0.8528  -0.8526  -0.8507  -0.8484  -0.8483  -0.8481  -0.8459  -0.8427
    -0.8415  -0.8332  -0.8298  -0.8293  -0.8221  -0.7858  -0.6899  -0.6898
    -0.6858  -0.6832  -0.6829  -0.6604  -0.6586  -0.6416  -0.6414  -0.6202
    -0.6197  -0.6060  -0.6045  -0.6030  -0.6026  -0.5879  -0.5645  -0.5640
    -0.5620  -0.5614  -0.5540  -0.5531  -0.5424  -0.5421  -0.4923  -0.4922
    -0.4384  -0.4380  -0.4278  -0.4261  -0.4260  -0.4246  -0.4108  -0.4105
    -0.4050  -0.4049  -0.4047  -0.4042  -0.4000  -0.3999  -0.3863  -0.3852
    -0.3852  -0.3774  -0.3751  -0.3749  -0.3512  -0.3506  -0.2995  -0.2985
    -0.2967  -0.2912  -0.2910  -0.2646  -0.2645  -0.2645  -0.2645  -0.2495
    -0.2476  -0.2469  -0.2426  -0.2425  -0.2247  -0.2212  -0.2197  -0.2194
    -0.2151  -0.2146  -0.2145  -0.2142  -0.2118  -0.2088  -0.1926  -0.1903
    -0.1895  -0.1882  -0.1876  -0.1685  -0.1212  -0.1204  -0.1183  -0.1181
    -0.1155  -0.0733  -0.0725  -0.0698  -0.0684  -0.0684  -0.0625  -0.0622
    -0.0620  -0.0619  -0.0618  -0.0539  -0.0475  -0.0346  -0.0116  -0.0087
    -0.0082  -0.0078   0.0009   0.0195   0.0206   0.0211   0.0216   0.0263
     0.0301   0.0453   0.0460   0.0475   0.0478   0.0484   0.0491   0.0616
     0.0635   0.0637   0.0639   0.0693   0.0756   0.0771   0.0774   0.0984
     0.1021   0.1175   0.1351   0.1357   0.1571   0.1642   0.1646   0.1890
     0.1934   0.2332   0.2376   0.2380   0.2385   0.2397   0.2431   0.2497
     0.2694   0.2731   0.2735   0.2737   0.2744   0.2838   0.2843   0.2939
     0.3262   0.3407   0.3407   0.3480   0.3495   0.3501   0.3501   0.3773
     0.3831   0.3832   0.3840   0.3842   0.4099   0.4145   0.4148   0.4224
     0.4227   0.4359   0.4368   0.4390   0.4403   0.4769   0.4791   0.4924
     0.4943   0.4966   0.4967   0.4971   0.5096   0.5212   0.5270   0.5303
     0.5330   0.5345   0.5354   0.5355   0.5373   0.5395   0.5466   0.5470
     0.5471   0.5538   0.5541   0.5557   0.5636   0.5639   0.5803   0.5956
     0.6056   0.6057   0.6160   0.6164   0.6486   0.6493   0.6497   0.6505
     0.6526   0.6527   0.6531   0.6539   0.6639   0.6651   0.6738   0.6783
     0.6790   0.6792   0.6803   0.6872   0.6875   0.6973   0.6977   0.7149
     0.7201   0.7204   0.7207   0.7298   0.7308   0.7327   0.7425   0.7448
     0.7461   0.7484   0.7484   0.7541   0.7558   0.7574   0.7588   0.7603
     0.7686   0.7737   0.8056   0.8059   0.8160   0.8173   0.8230   0.8242
     0.8245   0.8250   0.8555   0.8560   0.8696   0.8708   0.8760   0.8761
     0.8905   0.8909   0.9001   0.9002   0.9007   0.9020   0.9089   0.9218
     0.9368   0.9377   0.9392   0.9417   0.9424   0.9435   0.9607   0.9630
     0.9775   0.9852   0.9857   0.9926   0.9955   0.9969   1.0080   1.0103
     1.0109   1.0117   1.0128   1.0140   1.0148   1.0235   1.0267   1.0286
     1.0287   1.0288   1.0305   1.0437   1.0438   1.0621   1.0628   1.0643
     1.0648   1.0690   1.0735   1.1040   1.1050   1.1058   1.1063   1.1081
     1.1094   1.1116   1.1129   1.1181   1.1193   1.1196   1.1196   1.1197
     1.1217   1.1355   1.1359   1.1613   1.1662   1.1833   1.1838   1.1986
     1.2015   1.2015   1.2035   1.2041   1.2050   1.2062   1.2141   1.2220
     1.2271   1.2368   1.2379   1.2397   1.2401   1.2408   1.2447   1.2459
     1.2465   1.2548   1.2736   1.2744   1.2757   1.2762   1.2768   1.2774
     1.2782   1.2785   1.2942   1.2947   1.2959   1.3024   1.3101   1.3104
     1.3114   1.3116   1.3120   1.3215   1.3237   1.3244   1.3369   1.3444
     1.3509   1.3536   1.3545   1.3559   1.3564   1.3568   1.3592   1.3715
     1.3838   1.3866   1.3880   1.3929   1.4026   1.4159   1.4161   1.4223
     1.4226   1.4227   1.4280   1.4304   1.4312   1.4340   1.4343   1.4344
     1.4348   1.4368   1.4382   1.4456   1.4462   1.4501   1.4671   1.4673
     1.4682   1.4683   1.4717   1.4794   1.4805   1.4936   1.5043   1.5093
     1.5111   1.5205   1.5566   1.5573   1.5601   1.5611   1.5788   1.5797
     1.5798   1.5877   1.5907   1.6058   1.6291   1.6320   1.6324   1.6328
     1.6335   1.6431   1.6438   1.6440   1.8998   1.9558   2.1057   2.1079
     2.1481   2.1548   2.2004   2.2050   2.2063   2.2069   2.2191   2.2231
     2.2250   2.2258   2.3988   2.4015   2.4598   2.4650   2.4665   2.4668
     2.4778   2.4806   2.6667   2.7177   2.7243   2.7244   2.7461   2.9687
     2.9865   3.0135   3.1686   3.5202   3.5226   3.8158   3.8177   3.8436
     3.8500   3.8538   3.8548   3.8914   3.9671   3.9804   3.9858   4.0062
     4.0070   4.0084   4.0093   4.0113   4.0137   4.2283   4.2488   4.2495
     4.2506   4.3557   4.3974   4.7057   4.7623   4.8366   4.8813   4.9033
     5.3043   5.3927   5.3984   5.4061   5.7060   5.7089   5.7201   5.7243
     5.9296   5.9298   6.1852   6.3455   6.3500   6.4095   6.4139   6.4694
     6.4702   6.4758   6.4816   6.5804   6.6026   6.6074   6.7167   6.7729
     6.7797   6.7939   6.8121   6.8183   7.0160   7.0460   7.0500   7.0595
     7.0690   7.0920   7.3571   7.3579   7.5090   7.5491   7.5506   7.6962
     7.6964   7.7067   7.7095   8.0040   8.0390   8.0832   8.1326   8.1947
     8.2345   8.2997   8.3061   8.3071   8.3288   8.3355   8.3455   8.4101
     8.4140   8.4290   8.4860   8.5599   8.5626   8.5675   8.6619   8.6647
     8.6682   8.6688   8.8138   8.8163   8.8283   8.8335   8.8384   8.8402
     9.1076   9.1095   9.1102   9.1159   9.1197   9.1400   9.1743   9.3217
     9.3437   9.3448   9.4239   9.4795   9.4900   9.5773   9.5784   9.6613
     9.6711   9.8036   9.8307  10.0434  10.0437  10.1191  10.1454

          k = 0.0000-0.2165 0.0000 (256176 PWs)   bands (ev):

   -17.2876 -16.3022 -15.8965 -15.6601 -15.0753 -14.6802 -14.3572 -14.3397
   -14.2660 -14.2318 -13.8273 -13.7713 -13.7197 -13.6949 -12.6078 -12.4366
   -12.3807 -12.3156 -12.1485 -12.0792 -10.6514 -10.5550 -10.5226 -10.3927
    -9.4594  -9.4392  -9.3030  -9.1161  -8.9915  -8.9559  -8.4044  -8.2871
    -8.2154  -8.1596  -7.4816  -7.3432  -7.0139  -6.9723  -6.9081  -6.8944
    -6.8534  -6.8381  -6.1906  -6.0826  -5.8915  -5.8827  -5.5183  -5.3879
    -5.3002  -5.2156  -5.1370  -4.9648  -4.9136  -4.8419  -4.8383  -4.7427
    -4.6867  -4.6309  -4.6102  -4.4707  -4.1584  -4.0482  -3.8265  -3.6978
    -3.6650  -3.5906  -3.3165  -3.3055  -3.3022  -3.3013  -3.2462  -3.2264
    -3.1432  -3.0926  -3.0679  -3.0499  -3.0401  -3.0314  -3.0071  -2.8964
    -2.8695  -2.8669  -2.8294  -2.7887  -2.7754  -2.7111  -2.6967  -2.6017
    -2.5879  -2.5878  -2.5788  -2.5784  -2.5780  -2.5773  -2.4780  -2.3685
    -2.3368  -2.3331  -2.2516  -2.2509  -2.2480  -2.2457  -2.1497  -2.1456
    -2.1448  -2.1445  -2.0854  -2.0412  -1.9869  -1.9868  -1.9614  -1.9613
    -1.8769  -1.8647  -1.8574  -1.8079  -1.7886  -1.7856  -1.7689  -1.7679
    -1.7499  -1.7497  -1.7409  -1.7409  -1.7228  -1.7226  -1.6456  -1.6455
    -1.6231  -1.5863  -1.5717  -1.5692  -1.5602  -1.4681  -1.4672  -1.4628
    -1.4624  -1.3796  -1.3770  -1.3710  -1.3707  -1.3687  -1.3169  -1.3167
    -1.2802  -1.2791  -1.2751  -1.2750  -1.2724  -1.2723  -1.2534  -1.2493
    -1.2292  -1.2289  -1.2241  -1.2231  -1.2135  -1.2121  -1.1690  -1.1544
    -1.1506  -1.1485  -1.1339  -1.1327  -1.0890  -1.0889  -1.0508  -1.0507
    -1.0476  -1.0475  -1.0045  -1.0032  -0.9841  -0.9838  -0.9831  -0.9824
    -0.9783  -0.9780  -0.9275  -0.9269  -0.9196  -0.9190  -0.9111  -0.9109
    -0.9012  -0.8988  -0.8974  -0.8970  -0.8315  -0.8283  -0.8282  -0.8200
    -0.8187  -0.8185  -0.8178  -0.8143  -0.7959  -0.7958  -0.7820  -0.7811
    -0.7548  -0.7546  -0.7519  -0.7507  -0.6549  -0.6548  -0.6543  -0.6543
    -0.6337  -0.6334  -0.6245  -0.6105  -0.6074  -0.6060  -0.6050  -0.6016
    -0.6015  -0.5757  -0.5752  -0.5628  -0.5424  -0.5416  -0.5405  -0.5393
    -0.5381  -0.5367  -0.5348  -0.5333  -0.5041  -0.5040  -0.4884  -0.4840
    -0.4840  -0.4730  -0.4492  -0.4484  -0.4477  -0.4471  -0.4460  -0.4365
    -0.4357  -0.4355  -0.4352  -0.4149  -0.4124  -0.3577  -0.3575  -0.3572
    -0.3571  -0.3282  -0.3255  -0.3038  -0.3037  -0.3019  -0.2973  -0.2961
    -0.2955  -0.2939  -0.2736  -0.2696  -0.2694  -0.2689  -0.2681  -0.2614
    -0.2520  -0.2480  -0.2472  -0.2471  -0.2460  -0.2436  -0.2433  -0.2388
    -0.2339  -0.2331  -0.2069  -0.2067  -0.2048  -0.2047  -0.1857  -0.1441
    -0.1425  -0.1410  -0.1409  -0.1339  -0.1319  -0.1311  -0.1285  -0.1272
    -0.1239  -0.1179  -0.1050  -0.1033  -0.0887  -0.0884  -0.0865  -0.0863
    -0.0777  -0.0775  -0.0753  -0.0741  -0.0738  -0.0734  -0.0456  -0.0177
    -0.0173  -0.0137  -0.0135   0.0008   0.0030   0.0051   0.0057   0.0109
     0.0111   0.0130   0.0280   0.0292   0.0296   0.0307   0.0417   0.0442
     0.0582   0.0592   0.0754   0.0756   0.0757   0.0762   0.0939   0.0955
     0.1107   0.1108   0.1215   0.1218   0.1340   0.1349   0.1352   0.1358
     0.1793   0.1804   0.1832   0.1842   0.1956   0.1964   0.2014   0.2018
     0.2286   0.2288   0.2606   0.2626   0.2647   0.2671   0.3000   0.3001
     0.3277   0.3335   0.3853   0.3858   0.3863   0.3869   0.3917   0.4122
     0.4130   0.4133   0.4136   0.4248   0.4459   0.4474   0.4536   0.4539
     0.4540   0.4548   0.4549   0.4567   0.4617   0.4658   0.4765   0.4769
     0.4784   0.4785   0.4808   0.4816   0.4829   0.4843   0.5159   0.5161
     0.5273   0.5276   0.5277   0.5281   0.5358   0.5358   0.5375   0.5555
     0.5566   0.5573   0.5575   0.5578   0.5579   0.5583   0.5587   0.5588
     0.5814   0.5815   0.5829   0.5834   0.5835   0.5844   0.5850   0.5851
     0.6013   0.6014   0.6444   0.6447   0.6565   0.6568   0.6651   0.6678
     0.6686   0.6693   0.6751   0.6751   0.6760   0.6766   0.6818   0.6821
     0.6830   0.6831   0.7230   0.7240   0.7242   0.7246   0.7381   0.7412
     0.7413   0.7422   0.7428   0.7440   0.7547   0.7583   0.7744   0.7757
     0.7784   0.7810   0.7821   0.7824   0.8336   0.8345   0.8849   0.8856
     0.8910   0.8935   0.8937   0.8946   0.9027   0.9040   0.9104   0.9105
     0.9168   0.9171   0.9227   0.9246   0.9257   0.9263   0.9371   0.9380
     0.9397   0.9412   0.9419   0.9420   0.9488   0.9553   0.9637   0.9663
     0.9663   0.9678   0.9686   0.9704   0.9706   0.9739   0.9774   0.9775
     0.9890   0.9891   0.9910   0.9912   0.9926   0.9931   1.0107   1.0112
     1.0205   1.0235   1.0263   1.0271   1.0292   1.0294   1.0384   1.0384
     1.0392   1.0393   1.0401   1.0403   1.0855   1.0889   1.1068   1.1145
     1.1271   1.1271   1.1420   1.1431   1.1520   1.1529   1.1536   1.1546
     1.1697   1.1700   1.1845   1.1860   1.1919   1.1926   1.1949   1.1961
     1.1967   1.1982   1.1984   1.1994   1.2002   1.2010   1.2026   1.2028
     1.2100   1.2101   1.2209   1.2236   1.2300   1.2301   1.2304   1.2313
     1.2397   1.2405   1.2665   1.2693   1.2694   1.2698   1.2763   1.2765
     1.2787   1.2794   1.2935   1.2947   1.2966   1.2970   1.3096   1.3103
     1.3123   1.3129   1.3144   1.3151   1.3317   1.3322   1.3325   1.3334
     1.3501   1.3514   1.3515   1.3542   1.3706   1.3722   1.3785   1.3790
     1.3793   1.3797   1.3947   1.3948   1.3949   1.3951   1.4118   1.4122
     1.4260   1.4261   1.4262   1.4283   1.4463   1.4467   1.4487   1.4489
     1.4499   1.4500   1.4505   1.4511   1.4787   1.4788   1.4868   1.4874
     1.4948   1.4962   1.4969   1.5044   1.5182   1.5193   1.5193   1.5195
     1.5285   1.5285   1.5407   1.5408   1.5824   1.5850   1.5875   1.5879
     1.6743   1.6887   1.6935   1.7122   1.7164   1.7286   1.7314   1.7328
     1.7833   1.7863   1.7920   1.7934   1.8008   1.8123   1.8131   1.8137
     1.8530   1.8531   1.8989   2.0538   2.0671   2.0931   2.4124   2.4146
     2.4187   2.4190   2.4954   2.4978   2.5601   2.5632   2.5636   2.5639
     2.5805   2.5809   2.7090   2.7104   2.7563   2.7603   2.7790   2.7800
     2.9230   2.9239   3.1695   3.1695   3.1779   3.1860   3.3943   3.4149
     3.5859   3.6698   3.6850   3.9009   3.9295   3.9484   4.0796   4.1029
     4.1070   4.1081   4.3232   4.3248   4.3267   4.3271   4.4973   4.4983
     4.6623   4.6896   4.7654   4.7705   4.9159   5.0731   5.0989   5.1023
     5.3242   5.3578   5.3581   5.3587   5.3607   5.4304   5.5299   5.6597
     5.6791   5.7059   5.7559   5.8113   6.3801   6.3888   6.4207   6.4264
     6.4388   6.4435   6.5486   6.5567   6.6639   6.6679   6.8057   6.8089
     6.9743   7.0160   7.0384   7.0469   7.0730   7.0801   7.1160   7.1196
     7.1306   7.1342   7.2281   7.3387   7.3512   7.3642   7.3813   7.4276
     7.5325   7.6038   7.6974   7.7127   7.7299   7.7547   8.1432   8.1435
     8.3429   8.3560   8.3578   8.4236   8.4278   8.4289   8.4327   8.4479
     8.4490   8.4823   8.6411   8.6499   8.7119   8.7127   8.7184   8.7201
     8.7579   8.7624   8.8530   8.9167   8.9442   9.0156   9.0222   9.0575
     9.1415   9.1551   9.2366   9.2374   9.2816   9.3154   9.3855   9.3859
     9.3864   9.3865   9.4580   9.4604   9.4811   9.4872   9.4888   9.4907
     9.6618   9.6646   9.7870   9.7874   9.7956   9.8891   9.8895

          k = 0.2500 0.0000 0.0000 (256240 PWs)   bands (ev):

   -17.2370 -16.1280 -15.9648 -15.6639 -15.1444 -15.0052 -14.9456 -14.8940
   -14.1133 -13.9545 -13.7725 -13.2472 -13.1736 -13.0916 -13.0443 -12.3510
   -12.2316 -12.1476 -12.0821 -11.2402 -11.1398 -10.7886 -10.6727 -10.3599
   -10.2271  -9.9552  -9.9053  -9.5082  -9.2552  -9.1594  -8.6808  -7.9944
    -7.7980  -7.7314  -7.5652  -7.5422  -7.4473  -7.0940  -6.9779  -6.3018
    -6.2216  -6.0443  -5.9684  -5.9148  -5.8423  -5.4543  -5.3319  -5.3120
    -5.3027  -5.1770  -4.9236  -4.7495  -4.6348  -4.5432  -4.4684  -4.4638
    -4.4619  -4.4272  -4.3719  -4.2284  -4.1401  -4.0015  -4.0003  -3.9979
    -3.9096  -3.8456  -3.8407  -3.8117  -3.7956  -3.6259  -3.6012  -3.5744
    -3.5249  -3.4861  -3.4068  -3.4041  -3.2793  -3.2352  -3.2130  -3.1976
    -3.1423  -3.0365  -2.9567  -2.8960  -2.8007  -2.7990  -2.7911  -2.7530
    -2.6553  -2.6257  -2.6235  -2.5067  -2.4016  -2.3945  -2.3484  -2.3377
    -2.1361  -2.0994  -2.0971  -2.0828  -2.0800  -2.0590  -2.0040  -1.9905
    -1.9809  -1.8978  -1.8957  -1.8417  -1.8033  -1.8019  -1.8009  -1.7942
    -1.7935  -1.7851  -1.7739  -1.7464  -1.7358  -1.7242  -1.7193  -1.7169
    -1.7128  -1.6541  -1.6473  -1.6037  -1.5906  -1.5832  -1.5813  -1.5787
    -1.5784  -1.5781  -1.5485  -1.5275  -1.5145  -1.5041  -1.5023  -1.4911
    -1.4890  -1.3728  -1.3367  -1.3291  -1.3132  -1.2795  -1.2699  -1.2572
    -1.2442  -1.2432  -1.2381  -1.2365  -1.2302  -1.2206  -1.2080  -1.1986
    -1.1919  -1.1854  -1.1839  -1.1782  -1.1592  -1.1402  -1.1360  -1.1341
    -1.1337  -1.1327  -1.1173  -1.1117  -1.1112  -1.0917  -1.0772  -1.0667
    -1.0514  -1.0499  -1.0470  -1.0470  -1.0406  -1.0212  -1.0133  -1.0128
    -1.0037  -1.0017  -0.9968  -0.9913  -0.9820  -0.9817  -0.9814  -0.9802
    -0.9763  -0.9759  -0.9649  -0.9547  -0.9534  -0.9466  -0.9459  -0.9388
    -0.9220  -0.9021  -0.9009  -0.8962  -0.8531  -0.8524  -0.8166  -0.8165
    -0.7974  -0.7958  -0.7866  -0.7711  -0.7710  -0.7578  -0.7548  -0.7526
    -0.7502  -0.7429  -0.7418  -0.7226  -0.6063  -0.6031  -0.5998  -0.5972
    -0.5686  -0.5672  -0.5670  -0.5509  -0.5502  -0.5498  -0.5482  -0.5391
    -0.5308  -0.5272  -0.5271  -0.5202  -0.5180  -0.5056  -0.4978  -0.4880
    -0.4852  -0.4850  -0.4821  -0.4814  -0.4610  -0.4610  -0.4577  -0.4013
    -0.3999  -0.3997  -0.3970  -0.3916  -0.3909  -0.3897  -0.3806  -0.3762
    -0.3568  -0.3567  -0.3445  -0.3336  -0.3333  -0.3310  -0.3286  -0.3080
    -0.2952  -0.2950  -0.2923  -0.2914  -0.2819  -0.2806  -0.2712  -0.2703
    -0.2662  -0.2594  -0.2498  -0.2388  -0.2303  -0.2207  -0.2019  -0.1993
    -0.1990  -0.1966  -0.1905  -0.1824  -0.1805  -0.1802  -0.1779  -0.1645
    -0.1523  -0.1523  -0.1398  -0.1377  -0.1373  -0.1285  -0.1128  -0.1111
    -0.1109  -0.0668  -0.0640  -0.0636  -0.0581  -0.0552  -0.0466  -0.0379
    -0.0195  -0.0176  -0.0128  -0.0121  -0.0115  -0.0069  -0.0059   0.0009
     0.0037   0.0045   0.0057   0.0072   0.0079   0.0126   0.0285   0.0328
     0.0333   0.0346   0.0397   0.0429   0.0584   0.0587   0.0702   0.0748
     0.0769   0.0927   0.1140   0.1142   0.1164   0.1165   0.1183   0.1345
     0.1387   0.1412   0.1415   0.1419   0.1423   0.1743   0.1769   0.1848
     0.1909   0.2530   0.2536   0.2547   0.2679   0.2712   0.2724   0.2748
     0.2767   0.2778   0.2819   0.2830   0.2839   0.2848   0.2874   0.2885
     0.2951   0.3049   0.3067   0.3069   0.3085   0.3206   0.3209   0.3262
     0.3285   0.3333   0.3355   0.3569   0.3586   0.3615   0.3682   0.3900
     0.3966   0.4050   0.4138   0.4244   0.4248   0.4428   0.4430   0.4436
     0.4470   0.4551   0.4601   0.4770   0.4798   0.4802   0.4850   0.4854
     0.4905   0.4913   0.4957   0.4959   0.5167   0.5221   0.5235   0.5355
     0.5390   0.5442   0.5444   0.5508   0.5512   0.5515   0.5543   0.5549
     0.5739   0.5793   0.5795   0.5911   0.5923   0.5934   0.5935   0.5964
     0.6096   0.6101   0.6129   0.6175   0.6176   0.6366   0.6373   0.6512
     0.6566   0.6605   0.6636   0.6637   0.6688   0.6712   0.6729   0.6906
     0.7008   0.7048   0.7238   0.7285   0.7403   0.7406   0.7447   0.7450
     0.7499   0.7652   0.7706   0.7736   0.7772   0.7784   0.7826   0.7860
     0.7902   0.7979   0.8026   0.8036   0.8149   0.8240   0.8244   0.8247
     0.8469   0.8521   0.8555   0.8561   0.8566   0.8789   0.8805   0.8910
     0.8926   0.8930   0.8938   0.8957   0.9013   0.9035   0.9051   0.9058
     0.9302   0.9368   0.9460   0.9485   0.9525   0.9543   0.9547   0.9680
     0.9691   0.9893   0.9907   0.9913   0.9927   0.9994   1.0003   1.0016
     1.0156   1.0165   1.0181   1.0186   1.0213   1.0221   1.0230   1.0248
     1.0272   1.0304   1.0325   1.0329   1.0400   1.0435   1.0573   1.0578
     1.0601   1.0640   1.0655   1.0687   1.0688   1.0757   1.0763   1.0898
     1.0903   1.1036   1.1070   1.1073   1.1083   1.1113   1.1216   1.1300
     1.1353   1.1359   1.1384   1.1432   1.1492   1.1516   1.1568   1.1573
     1.1595   1.1717   1.1810   1.1843   1.1893   1.1914   1.1917   1.2268
     1.2279   1.2341   1.2395   1.2428   1.2447   1.2521   1.2525   1.2531
     1.2537   1.2617   1.2670   1.2697   1.2754   1.2760   1.2787   1.2791
     1.2952   1.2961   1.3003   1.3004   1.3057   1.3095   1.3114   1.3132
     1.3143   1.3159   1.3164   1.3219   1.3233   1.3241   1.3323   1.3373
     1.3440   1.3484   1.3508   1.3515   1.3553   1.3555   1.3597   1.3641
     1.3722   1.3796   1.3800   1.3811   1.4030   1.4034   1.4117   1.4163
     1.4185   1.4223   1.4225   1.4250   1.4264   1.4267   1.4333   1.4336
     1.4344   1.4398   1.4404   1.4434   1.4602   1.4625   1.4630   1.4646
     1.4653   1.4692   1.4696   1.4824   1.4829   1.4908   1.4939   1.4966
     1.5056   1.5061   1.5081   1.5124   1.5141   1.5161   1.5455   1.5523
     1.5548   1.5690   1.5814   1.6231   1.6247   1.6274   1.6370   1.6547
     1.6608   1.7432   1.7522   1.7615   1.7622   1.7817   1.7936   1.7989
     1.8365   1.9579   2.0303   2.0631   2.0679   2.0806   2.0850   2.0863
     2.1888   2.2467   2.2533   2.5610   2.5613   2.5627   2.5656   2.9750
     2.9750   3.0085   3.1928   3.1931   3.2175   3.2176   3.2659   3.2795
     3.4556   3.4671   3.5657   3.5793   3.5932   3.6274   3.6474   3.6982
     3.7044   3.7158   3.7198   3.7964   3.8685   3.8706   3.9667   3.9688
     4.0483   4.1786   4.1843   4.1893   4.2781   4.3372   4.4102   4.5511
     4.7523   4.8180   4.8254   5.0960   5.1623   5.2170   5.2181   5.2278
     5.2589   5.3545   5.4614   5.4650   5.5051   5.5440   5.5821   5.5855
     5.6596   5.6754   5.6830   5.7290   5.7326   5.8014   5.8211   5.8269
     6.0083   6.0099   6.0318   6.0427   6.4009   6.6009   6.6926   6.6955
     6.6991   6.7485   6.7600   6.7867   6.8659   6.9250   7.0139   7.0348
     7.0491   7.0514   7.0671   7.2245   7.2429   7.2935   7.3038   7.4970
     7.5066   7.5169   7.5588   7.5676   7.6775   7.7589   7.7641   7.7929
     7.9861   8.0014   8.0240   8.0616   8.1039   8.1860   8.2044   8.2142
     8.2480   8.2638   8.3119   8.3122   8.3859   8.3980   8.4377   8.4715
     8.6438   8.6446   8.9448   8.9545   8.9837   8.9874   9.0066   9.1429
     9.1683   9.1888   9.2109   9.2214   9.2296   9.2527   9.2681   9.3373
     9.4003   9.4070   9.4421   9.4425   9.4818   9.5107   9.6410   9.6781
     9.7177   9.7191   9.8229   9.8306   9.8352   9.8454   9.9442

          k = 0.2500-0.2165 0.0000 (256316 PWs)   bands (ev):

   -17.2367 -16.1783 -15.8754 -15.5402 -15.4588 -15.1906 -14.7129 -14.5645
   -14.2566 -14.1162 -13.7232 -13.2685 -13.2534 -13.1600 -12.7668 -12.6631
   -12.1507 -12.0267 -11.5120 -11.4319 -11.2853 -11.1260 -10.9628 -10.6227
    -9.8686  -9.7870  -9.3925  -9.3579  -9.1041  -9.0506  -8.6778  -8.6247
    -8.4735  -8.4247  -7.3057  -7.0298  -6.8326  -6.6728  -6.5984  -6.5020
    -6.4505  -6.3182  -6.0842  -6.0317  -5.7144  -5.7046  -5.4295  -5.2560
    -5.1811  -5.0701  -4.9358  -4.8022  -4.6788  -4.6749  -4.5453  -4.5436
    -4.4773  -4.3495  -4.3460  -4.3165  -4.1862  -4.1616  -4.1493  -4.0556
    -3.9017  -3.7736  -3.7619  -3.7377  -3.5859  -3.5620  -3.5014  -3.4596
    -3.4584  -3.4555  -3.3628  -3.2918  -3.2548  -3.1956  -3.1425  -3.1032
    -3.0303  -2.9462  -2.9404  -2.9246  -2.9112  -2.9097  -2.8649  -2.8169
    -2.6935  -2.6557  -2.6078  -2.5058  -2.3350  -2.3139  -2.3118  -2.2689
    -2.1870  -2.1811  -2.1690  -2.1689  -2.1037  -2.0702  -2.0101  -2.0095
    -1.9778  -1.9764  -1.9722  -1.9692  -1.8935  -1.8302  -1.8224  -1.8133
    -1.8132  -1.7804  -1.7611  -1.7527  -1.7354  -1.7241  -1.7207  -1.7100
    -1.7098  -1.6933  -1.6791  -1.6779  -1.6767  -1.6765  -1.6676  -1.6673
    -1.5825  -1.5824  -1.5571  -1.4692  -1.4668  -1.3774  -1.3690  -1.3672
    -1.3615  -1.3303  -1.3300  -1.2779  -1.2776  -1.2696  -1.2630  -1.2629
    -1.2498  -1.2492  -1.2416  -1.2403  -1.2254  -1.2247  -1.2133  -1.2132
    -1.2115  -1.2041  -1.2009  -1.1991  -1.1875  -1.1874  -1.1707  -1.1341
    -1.1311  -1.1270  -1.1259  -1.1219  -1.1159  -1.1145  -1.1116  -1.0937
    -1.0835  -1.0819  -1.0400  -1.0398  -1.0359  -1.0301  -1.0268  -1.0241
    -0.9967  -0.9966  -0.9739  -0.9728  -0.9624  -0.9619  -0.9614  -0.9565
    -0.9559  -0.9521  -0.9499  -0.9340  -0.9245  -0.9243  -0.9115  -0.9054
    -0.8813  -0.8684  -0.8682  -0.8629  -0.8624  -0.8258  -0.7785  -0.7784
    -0.7742  -0.7741  -0.7704  -0.7696  -0.7232  -0.7217  -0.7168  -0.7128
    -0.7124  -0.7065  -0.7062  -0.6946  -0.6941  -0.6784  -0.6532  -0.6525
    -0.6161  -0.6147  -0.5844  -0.5682  -0.5668  -0.5667  -0.5641  -0.5614
    -0.5341  -0.5336  -0.5214  -0.5207  -0.5024  -0.5009  -0.4926  -0.4893
    -0.4890  -0.4755  -0.4610  -0.4578  -0.4519  -0.4497  -0.4432  -0.4430
    -0.4126  -0.4083  -0.4082  -0.3967  -0.3937  -0.3880  -0.3819  -0.3809
    -0.3682  -0.3679  -0.3636  -0.3634  -0.3575  -0.3561  -0.3522  -0.3521
    -0.3343  -0.3341  -0.3179  -0.3178  -0.2953  -0.2893  -0.2766  -0.2744
    -0.2625  -0.2570  -0.2404  -0.2403  -0.2357  -0.2313  -0.2183  -0.2178
    -0.2134  -0.2132  -0.1942  -0.1810  -0.1603  -0.1545  -0.1533  -0.1183
    -0.1182  -0.1093  -0.1092  -0.1057  -0.1040  -0.0878  -0.0877  -0.0848
    -0.0704  -0.0701  -0.0609  -0.0567  -0.0493  -0.0480  -0.0432  -0.0428
    -0.0415  -0.0401  -0.0171  -0.0139  -0.0132  -0.0059  -0.0043  -0.0034
    -0.0027  -0.0015  -0.0010   0.0008   0.0056   0.0073   0.0224   0.0312
     0.0313   0.0313   0.0314   0.0649   0.0652   0.0732   0.0733   0.0761
     0.0769   0.0981   0.0989   0.1042   0.1223   0.1296   0.1312   0.1316
     0.1404   0.1408   0.1515   0.1516   0.1547   0.1553   0.1685   0.1687
     0.1747   0.1761   0.2044   0.2047   0.2673   0.2687   0.2809   0.2813
     0.2826   0.2829   0.2861   0.2866   0.2874   0.2887   0.2917   0.2933
     0.3148   0.3167   0.3167   0.3191   0.3204   0.3267   0.3288   0.3310
     0.3340   0.3340   0.3656   0.3667   0.3785   0.3807   0.3830   0.3944
     0.3983   0.4020   0.4119   0.4432   0.4435   0.4489   0.4507   0.4541
     0.4571   0.4572   0.4687   0.4687   0.4750   0.4786   0.4796   0.4805
     0.4813   0.4815   0.5053   0.5119   0.5149   0.5175   0.5236   0.5340
     0.5343   0.5501   0.5665   0.5668   0.5671   0.5688   0.5990   0.6006
     0.6025   0.6044   0.6069   0.6081   0.6119   0.6140   0.6242   0.6261
     0.6270   0.6284   0.6330   0.6359   0.6477   0.6481   0.6579   0.6597
     0.6676   0.6678   0.6706   0.6707   0.6781   0.6793   0.6812   0.6860
     0.6886   0.6889   0.7017   0.7051   0.7093   0.7104   0.7155   0.7162
     0.7181   0.7184   0.7206   0.7207   0.7550   0.7554   0.7665   0.7674
     0.7844   0.7893   0.8024   0.8067   0.8227   0.8230   0.8243   0.8244
     0.8297   0.8309   0.8447   0.8531   0.8535   0.8538   0.8539   0.8551
     0.8554   0.8647   0.8698   0.8743   0.8826   0.8835   0.8919   0.8948
     0.8997   0.9043   0.9279   0.9282   0.9304   0.9413   0.9503   0.9512
     0.9566   0.9594   0.9640   0.9644   0.9706   0.9707   0.9744   0.9904
     0.9999   1.0029   1.0112   1.0164   1.0176   1.0247   1.0291   1.0376
     1.0455   1.0591   1.0616   1.0649   1.0787   1.0800   1.0862   1.0864
     1.0890   1.0891   1.0904   1.0905   1.0948   1.0949   1.1044   1.1049
     1.1122   1.1152   1.1158   1.1177   1.1352   1.1365   1.1630   1.1651
     1.1661   1.1693   1.1703   1.1725   1.1740   1.1746   1.1788   1.1836
     1.1875   1.1895   1.1901   1.1911   1.1967   1.1989   1.2003   1.2017
     1.2071   1.2090   1.2170   1.2201   1.2228   1.2230   1.2240   1.2242
     1.2357   1.2366   1.2445   1.2446   1.2666   1.2689   1.2768   1.2775
     1.2787   1.2921   1.2924   1.2957   1.3045   1.3094   1.3098   1.3121
     1.3185   1.3214   1.3301   1.3305   1.3344   1.3359   1.3426   1.3450
     1.3472   1.3473   1.3567   1.3594   1.3600   1.3701   1.3774   1.3806
     1.3808   1.3810   1.3858   1.3867   1.3906   1.3916   1.3940   1.4046
     1.4047   1.4087   1.4093   1.4182   1.4192   1.4222   1.4253   1.4329
     1.4365   1.4369   1.4370   1.4423   1.4436   1.4437   1.4443   1.4471
     1.4529   1.4531   1.4777   1.4778   1.4852   1.4857   1.4947   1.5003
     1.5091   1.5190   1.5250   1.5263   1.5275   1.5491   1.5495   1.5562
     1.5566   1.5810   1.5826   1.5902   1.6126   1.6454   1.6612   1.6626
     1.7105   1.7484   1.7579   1.7615   1.7697   1.7797   1.7851   1.7857
     1.7860   1.8102   1.8347   1.8428   2.1240   2.1247   2.1559   2.1566
     2.2814   2.2860   2.5818   2.5826   2.7784   2.7827   2.7861   2.7871
     2.7975   2.7991   2.8281   2.8313   2.9806   2.9815   3.0689   3.0788
     3.5245   3.5350   3.5993   3.6038   3.6520   3.6745   3.7625   3.8349
     3.8406   3.8434   3.8612   3.9888   3.9960   4.0560   4.0759   4.1589
     4.1620   4.3235   4.3712   4.3726   4.4322   4.5438   4.5441   4.6123
     4.6597   4.6796   4.7079   4.7229   4.9175   4.9251   4.9953   5.0191
     5.0212   5.1272   5.2578   5.2787   5.3980   5.4313   5.4387   5.4500
     5.4533   5.4727   5.7474   5.7556   5.8147   5.8781   5.8886   5.9484
     5.9537   5.9723   6.5765   6.5843   6.6080   6.6146   6.7212   6.7454
     6.7980   6.8511   6.8709   7.0232   7.0330   7.0459   7.0757   7.0889
     7.0965   7.1098   7.1856   7.2107   7.2144   7.3205   7.3240   7.3282
     7.3311   7.3986   7.4360   7.4377   7.6604   7.6626   7.7564   7.7837
     7.7894   7.8641   7.9724   7.9826   8.1788   8.1901   8.2301   8.2471
     8.2677   8.3895   8.5794   8.5830   8.5949   8.6043   8.6363   8.6375
     8.7039   8.7049   8.8008   8.8148   8.9008   8.9092   8.9376   8.9433
     9.0624   9.1066   9.1315   9.1414   9.1754   9.1801   9.1926   9.2035
     9.2157   9.2631   9.2680   9.3016   9.3416   9.3523   9.4287   9.4421
     9.4455   9.4788   9.6262   9.6274   9.9551   9.9594   9.9678

          k =-0.5000 0.0000 0.0000 (256496 PWs)   bands (ev):

   -17.1764 -16.0099 -15.7418 -15.6294 -15.6092 -15.5598 -14.8140 -14.6182
   -14.5143 -14.4815 -13.2109 -12.9075 -12.7663 -12.7011 -12.4574 -12.4340
   -11.9122 -11.8912 -11.8079 -11.7996 -11.2434 -11.2064 -10.9825 -10.7503
   -10.3358 -10.3041 -10.0808  -9.7614  -9.1488  -9.1483  -8.9777  -8.9448
    -7.8203  -7.6367  -7.5886  -7.4116  -7.3671  -7.3463  -6.3104  -6.2286
    -5.8466  -5.3235  -5.3219  -5.3093  -5.1458  -5.0107  -4.9673  -4.8651
    -4.8088  -4.8039  -4.8033  -4.8024  -4.7778  -4.7627  -4.7385  -4.6921
    -4.6662  -4.5438  -4.5434  -4.4720  -4.3789  -4.3784  -4.2932  -4.0547
    -4.0165  -3.9976  -3.9669  -3.9651  -3.6906  -3.6767  -3.6034  -3.5746
    -3.5729  -3.5561  -3.4286  -3.4212  -3.4200  -3.4192  -3.4187  -3.4128
    -3.3759  -3.3638  -2.9440  -2.9411  -2.8965  -2.8539  -2.8118  -2.7879
    -2.7671  -2.7599  -2.6225  -2.6094  -2.5683  -2.4793  -2.4510  -2.4398
    -2.3071  -2.3039  -2.3030  -2.3026  -1.8799  -1.8794  -1.8790  -1.8789
    -1.8770  -1.8768  -1.8655  -1.8135  -1.7799  -1.7599  -1.7569  -1.7556
    -1.6889  -1.6519  -1.6510  -1.6507  -1.6506  -1.6028  -1.6027  -1.6020
    -1.6012  -1.5131  -1.5066  -1.4887  -1.4887  -1.4869  -1.4771  -1.4530
    -1.4345  -1.4260  -1.4257  -1.4254  -1.4072  -1.4068  -1.3578  -1.3576
    -1.3575  -1.3547  -1.3538  -1.3427  -1.3423  -1.3413  -1.3411  -1.3383
    -1.2951  -1.2926  -1.2925  -1.2912  -1.2723  -1.2687  -1.2679  -1.2678
    -1.2334  -1.2050  -1.2050  -1.1835  -1.1828  -1.1824  -1.1818  -1.1590
    -1.1559  -1.1547  -1.1532  -1.1514  -1.1511  -1.1507  -1.1091  -1.1083
    -1.1072  -1.1071  -1.0863  -1.0862  -1.0722  -1.0562  -1.0560  -1.0526
    -1.0098  -1.0098  -1.0090  -0.9816  -0.9813  -0.9800  -0.9798  -0.9553
    -0.9537  -0.9529  -0.9520  -0.9477  -0.9465  -0.9441  -0.9323  -0.9319
    -0.9295  -0.9294  -0.9035  -0.9028  -0.8865  -0.8411  -0.8409  -0.8388
    -0.8385  -0.7950  -0.7949  -0.7174  -0.7123  -0.7117  -0.7117  -0.7080
    -0.6899  -0.6810  -0.6735  -0.6732  -0.6724  -0.6723  -0.6686  -0.6619
    -0.6420  -0.6334  -0.6301  -0.6295  -0.6251  -0.6179  -0.6152  -0.6024
    -0.6012  -0.5994  -0.5738  -0.5292  -0.5186  -0.5123  -0.4821  -0.4729
    -0.4666  -0.4663  -0.4567  -0.4567  -0.4328  -0.4167  -0.4138  -0.4102
    -0.4065  -0.4064  -0.4047  -0.4046  -0.3947  -0.3818  -0.3686  -0.3685
    -0.3681  -0.3680  -0.3299  -0.3295  -0.3289  -0.3288  -0.3204  -0.2960
    -0.2960  -0.2960  -0.2954  -0.2843  -0.2843  -0.2514  -0.2514  -0.2510
    -0.2500  -0.2500  -0.2465  -0.2407  -0.2275  -0.2140  -0.2052  -0.2004
    -0.1678  -0.1369  -0.1354  -0.1352  -0.1344  -0.1292  -0.1291  -0.1282
    -0.1280  -0.0887  -0.0885  -0.0870  -0.0860  -0.0683  -0.0525  -0.0522
    -0.0262  -0.0260  -0.0241  -0.0238  -0.0224  -0.0222  -0.0216  -0.0215
    -0.0202  -0.0201  -0.0197  -0.0194   0.0556   0.0571   0.0608   0.0621
     0.0664   0.0669   0.0716   0.0719   0.0723   0.0724   0.0772   0.0772
     0.0793   0.0796   0.0829   0.0831   0.0870   0.0886   0.1018   0.1018
     0.1110   0.1159   0.1163   0.1163   0.1165   0.1165   0.1168   0.1271
     0.1274   0.1277   0.1278   0.1402   0.1405   0.1433   0.1525   0.1525
     0.1533   0.1536   0.1710   0.1829   0.1837   0.1957   0.2514   0.2659
     0.2858   0.2858   0.2875   0.2876   0.3188   0.3192   0.3199   0.3203
     0.3342   0.3343   0.3396   0.3396   0.3441   0.3447   0.3452   0.3455
     0.3495   0.3504   0.3511   0.3514   0.3517   0.3520   0.3664   0.3665
     0.3717   0.3747   0.3809   0.3813   0.3891   0.3897   0.3948   0.3951
     0.4014   0.4019   0.4359   0.4384   0.4898   0.4915   0.4916   0.4922
     0.5002   0.5005   0.5215   0.5233   0.5252   0.5263   0.5277   0.5289
     0.5293   0.5295   0.5319   0.5327   0.5344   0.5348   0.5369   0.5372
     0.5436   0.5447   0.5451   0.5453   0.5629   0.5656   0.5831   0.5831
     0.5921   0.5992   0.6050   0.6095   0.6159   0.6175   0.6212   0.6214
     0.6299   0.6302   0.6308   0.6310   0.6331   0.6335   0.6465   0.6468
     0.6514   0.6516   0.6668   0.6673   0.6685   0.6686   0.7052   0.7057
     0.7062   0.7063   0.7070   0.7070   0.7244   0.7252   0.7528   0.7554
     0.7648   0.7664   0.7672   0.7672   0.7673   0.7676   0.7848   0.8076
     0.8343   0.8346   0.8383   0.8389   0.8396   0.8400   0.8438   0.8447
     0.8510   0.8520   0.8524   0.8526   0.8632   0.8649   0.8845   0.8846
     0.8863   0.8863   0.8865   0.8938   0.9051   0.9054   0.9058   0.9061
     0.9072   0.9074   0.9437   0.9452   0.9453   0.9456   0.9723   0.9908
     1.0116   1.0119   1.0120   1.0126   1.0369   1.0452   1.0459   1.0462
     1.0476   1.0490   1.0648   1.0650   1.0755   1.0763   1.0789   1.0840
     1.0875   1.0889   1.1096   1.1102   1.1150   1.1155   1.1156   1.1163
     1.1231   1.1236   1.1247   1.1252   1.1345   1.1345   1.1356   1.1360
     1.1373   1.1374   1.1379   1.1381   1.1724   1.1739   1.1753   1.1753
     1.1915   1.1985   1.2048   1.2061   1.2096   1.2109   1.2113   1.2118
     1.2288   1.2299   1.2342   1.2401   1.2403   1.2408   1.2432   1.2507
     1.2510   1.2512   1.2515   1.2556   1.2587   1.2653   1.2687   1.2747
     1.2980   1.2982   1.3106   1.3137   1.3138   1.3140   1.3142   1.3143
     1.3144   1.3144   1.3245   1.3267   1.3276   1.3279   1.3284   1.3285
     1.3305   1.3307   1.3358   1.3363   1.3408   1.3411   1.3416   1.3418
     1.3488   1.3489   1.3636   1.3639   1.3790   1.3821   1.3829   1.3831
     1.3909   1.3911   1.3924   1.3924   1.4056   1.4091   1.4128   1.4129
     1.4278   1.4283   1.4304   1.4349   1.4379   1.4472   1.4473   1.4475
     1.4483   1.4656   1.4666   1.4684   1.4691   1.4704   1.4781   1.4782
     1.4786   1.4786   1.4834   1.4880   1.4980   1.4980   1.5117   1.5122
     1.5122   1.5126   1.5127   1.5247   1.5255   1.5257   1.5757   1.5759
     1.5921   1.6057   1.6057   1.6101   1.6102   1.6217   2.0242   2.0274
     2.0286   2.0291   2.2300   2.2324   2.2470   2.2505   2.2826   2.2833
     2.2900   2.2903   2.6042   2.6124   2.6161   2.6173   2.8243   2.8280
     2.8322   2.8333   3.1826   3.1828   3.1849   3.1853   3.4604   3.4676
     3.7396   3.7505   3.7530   3.7542   3.8416   3.9173   3.9198   3.9221
     3.9615   4.0659   4.0668   4.0706   4.0758   4.1760   4.1827   4.3875
     4.4011   4.4806   4.7289   4.7399   4.7482   4.7518   4.8075   4.8231
     4.8233   4.8530   4.9293   5.0188   5.0193   5.0346   5.0374   5.0445
     5.0465   5.0501   5.0704   5.0713   5.0953   5.1072   5.1519   5.1622
     5.4821   5.5121   5.5339   5.5375   5.6380   5.6613   5.7573   5.8272
     5.9872   5.9896   5.9929   5.9999   6.0251   6.0343   6.0363   6.0439
     6.1896   6.3875   6.4278   6.4302   6.4329   6.4394   6.4510   6.4729
     7.0871   7.0917   7.0957   7.1067   7.1222   7.1239   7.5745   7.5825
     7.5905   7.5990   7.5993   7.5994   7.6126   7.6260   7.8100   7.8150
     7.8736   7.8807   7.8853   7.8872   8.0312   8.0502   8.0528   8.0560
     8.1122   8.1250   8.1261   8.1327   8.1568   8.1958   8.6436   8.6897
     8.6919   8.7064   8.8249   8.8268   8.8298   8.8317   8.9734   8.9867
     8.9954   9.0627   9.0667   9.0688   9.0724   9.2584   9.2607   9.3736
     9.4207   9.4436   9.4920   9.4951   9.4951   9.4958   9.5085   9.5146
     9.5178   9.5189   9.5279   9.5322   9.8243   9.8316  10.0183

          k =-0.5000-0.2165 0.0000 (256328 PWs)   bands (ev):

   -17.1763 -15.9782 -15.8201 -15.7953 -15.3897 -15.2198 -15.1504 -15.1146
   -14.0590 -13.8410 -13.7093 -13.6733 -12.6847 -12.4582 -12.0020 -11.9969
   -11.9223 -11.7748 -11.6704 -11.5900 -11.5398 -11.5371 -11.4232 -11.4054
   -10.0453 -10.0390  -9.7699  -9.7236  -9.2277  -8.9141  -8.7980  -8.7595
    -8.2698  -8.2318  -8.0222  -7.9998  -6.5373  -6.3475  -6.1229  -5.9494
    -5.8390  -5.6271  -5.3888  -5.3141  -5.3059  -5.2217  -5.2142  -5.1819
    -5.1800  -5.1798  -5.0185  -5.0047  -4.9622  -4.5123  -4.3888  -4.3510
    -4.3260  -4.3207  -4.2641  -4.2149  -4.2022  -4.1986  -4.1980  -4.1977
    -4.0820  -4.0770  -3.9158  -3.8770  -3.8654  -3.8584  -3.7553  -3.7462
    -3.7045  -3.6900  -3.6040  -3.5924  -3.5836  -3.4874  -3.4664  -3.4569
    -3.1738  -3.0872  -3.0724  -3.0622  -2.6375  -2.5822  -2.5815  -2.5795
    -2.5792  -2.5788  -2.5452  -2.5291  -2.5239  -2.5234  -2.4096  -2.3531
    -2.1671  -2.1536  -2.1094  -2.1006  -2.0968  -2.0962  -2.0532  -2.0499
    -2.0203  -2.0193  -2.0181  -2.0103  -1.9396  -1.8033  -1.8033  -1.8021
    -1.8021  -1.7713  -1.7391  -1.7285  -1.5679  -1.5244  -1.5093  -1.5022
    -1.4937  -1.4937  -1.4936  -1.4936  -1.4598  -1.4566  -1.4543  -1.4540
    -1.4340  -1.4338  -1.4335  -1.4335  -1.3844  -1.3844  -1.3842  -1.3840
    -1.3826  -1.3824  -1.3819  -1.3818  -1.3588  -1.3588  -1.3587  -1.3586
    -1.3098  -1.3086  -1.3076  -1.3075  -1.3036  -1.2388  -1.2336  -1.2334
    -1.2325  -1.1912  -1.1912  -1.1911  -1.1911  -1.1750  -1.1714  -1.1711
    -1.1710  -1.1283  -1.1222  -1.1221  -1.1219  -1.1178  -1.1159  -1.1159
    -1.1159  -1.1104  -1.0967  -1.0929  -1.0905  -1.0870  -1.0576  -1.0574
    -1.0570  -1.0570  -1.0411  -1.0405  -1.0404  -1.0403  -1.0380  -1.0375
    -1.0374  -1.0370  -1.0369  -1.0150  -0.8830  -0.8827  -0.8822  -0.8821
    -0.8536  -0.8531  -0.8529  -0.8528  -0.8021  -0.7712  -0.7704  -0.7702
    -0.7698  -0.7693  -0.7686  -0.7669  -0.7632  -0.7620  -0.7618  -0.7617
    -0.7034  -0.7006  -0.7005  -0.7001  -0.6937  -0.6893  -0.6885  -0.6881
    -0.6723  -0.6681  -0.6674  -0.6673  -0.6421  -0.5833  -0.5713  -0.5711
    -0.5685  -0.5674  -0.5670  -0.5666  -0.5152  -0.4986  -0.4984  -0.4982
    -0.4963  -0.4497  -0.4491  -0.4488  -0.4456  -0.4284  -0.4283  -0.4278
    -0.4277  -0.4105  -0.4003  -0.4000  -0.3896  -0.3895  -0.3886  -0.3886
    -0.3777  -0.3522  -0.3501  -0.3477  -0.3413  -0.2740  -0.2739  -0.2733
    -0.2733  -0.2579  -0.2579  -0.2573  -0.2573  -0.2419  -0.2404  -0.2403
    -0.2401  -0.1599  -0.1594  -0.1586  -0.1579  -0.1537  -0.1536  -0.1533
    -0.1531  -0.1521  -0.1498  -0.1497  -0.1471  -0.1129  -0.1129  -0.1128
    -0.1127  -0.1010  -0.1003  -0.0997  -0.0995  -0.0963  -0.0962  -0.0960
    -0.0959  -0.0672  -0.0273  -0.0268  -0.0260  -0.0259  -0.0004  -0.0003
     0.0016   0.0023   0.0488   0.0492   0.0544   0.0548   0.0600   0.0650
     0.0793   0.0796   0.0800   0.0802   0.0853   0.0866   0.0881   0.0884
     0.0890   0.0900   0.0934   0.0938   0.0999   0.1001   0.1006   0.1008
     0.1060   0.1061   0.1062   0.1063   0.1169   0.1225   0.1228   0.1229
     0.1329   0.1507   0.1507   0.1508   0.1509   0.1600   0.1611   0.1612
     0.1628   0.2094   0.2102   0.2110   0.2110   0.2348   0.2434   0.2435
     0.2446   0.2553   0.2931   0.3034   0.3145   0.3165   0.3264   0.3270
     0.3278   0.3284   0.3349   0.3404   0.3438   0.3449   0.3451   0.3468
     0.3546   0.3607   0.3608   0.3614   0.3614   0.3654   0.3681   0.3683
     0.3695   0.3700   0.3708   0.3714   0.3776   0.3876   0.3990   0.4007
     0.4453   0.4476   0.4491   0.4511   0.4567   0.4568   0.4577   0.4582
     0.4688   0.4689   0.4690   0.4693   0.5058   0.5067   0.5078   0.5084
     0.5097   0.5097   0.5102   0.5104   0.5457   0.5537   0.5538   0.5540
     0.5540   0.5596   0.5640   0.5670   0.5676   0.5680   0.5681   0.5701
     0.5757   0.5759   0.5761   0.5762   0.5896   0.5901   0.5915   0.5917
     0.6006   0.6055   0.6066   0.6073   0.6676   0.6760   0.6761   0.6786
     0.6789   0.6824   0.6828   0.6828   0.6830   0.6834   0.6888   0.6913
     0.6921   0.6993   0.7067   0.7098   0.7280   0.7281   0.7288   0.7289
     0.7296   0.7304   0.7316   0.7316   0.7719   0.7786   0.7826   0.7834
     0.8016   0.8068   0.8111   0.8113   0.8129   0.8151   0.8299   0.8303
     0.8473   0.8473   0.8480   0.8480   0.8686   0.8702   0.8726   0.8729
     0.9249   0.9250   0.9256   0.9256   0.9575   0.9578   0.9591   0.9592
     1.0027   1.0105   1.0120   1.0122   1.0156   1.0204   1.0258   1.0260
     1.0354   1.0376   1.0379   1.0384   1.0424   1.0439   1.0439   1.0441
     1.0441   1.0462   1.0465   1.0481   1.0483   1.0517   1.0666   1.0731
     1.0739   1.0755   1.0768   1.0775   1.0779   1.0790   1.0799   1.0806
     1.0893   1.0942   1.0957   1.0967   1.1180   1.1192   1.1216   1.1217
     1.1251   1.1275   1.1318   1.1324   1.1402   1.1413   1.1414   1.1420
     1.1892   1.1898   1.1909   1.1936   1.1936   1.1953   1.1954   1.1977
     1.2198   1.2206   1.2207   1.2210   1.2288   1.2349   1.2357   1.2391
     1.2401   1.2433   1.2557   1.2559   1.2697   1.2699   1.2702   1.2703
     1.2785   1.2785   1.2792   1.2800   1.2850   1.2852   1.2860   1.2860
     1.3440   1.3519   1.3520   1.3525   1.3526   1.3535   1.3536   1.3541
     1.3541   1.3582   1.3609   1.3626   1.3657   1.3699   1.3710   1.3720
     1.3739   1.3775   1.3807   1.3809   1.3836   1.3851   1.3857   1.3869
     1.3926   1.3932   1.3935   1.3937   1.3973   1.4017   1.4041   1.4044
     1.4140   1.4144   1.4146   1.4151   1.4471   1.4475   1.4475   1.4477
     1.4599   1.4613   1.4629   1.4630   1.4731   1.4761   1.4785   1.4786
     1.4959   1.4990   1.5002   1.5004   1.5343   1.5473   1.5515   1.5524
     1.5721   1.5721   1.5727   1.5727   1.6011   1.6019   1.6026   1.6033
     1.6065   1.6078   1.6082   1.6091   1.6141   1.6149   1.6152   1.6156
     1.8315   1.8329   1.8330   1.8341   2.3285   2.3360   2.3420   2.3427
     2.5536   2.5558   2.5587   2.5587   2.7861   2.7909   2.7925   2.7932
     3.0793   3.0864   3.0875   3.0886   3.4493   3.4515   3.4516   3.4520
     3.6264   3.6371   3.6405   3.6407   3.9097   3.9264   3.9274   3.9276
     4.0048   4.2237   4.2243   4.2261   4.2315   4.3103   4.3216   4.3357
     4.3370   4.5077   4.5517   4.5541   4.5567   4.5642   4.5921   4.5955
     4.6248   4.7927   4.8640   4.8840   4.9027   5.0055   5.0420   5.0663
     5.1666   5.1680   5.1718   5.1721   5.2275   5.2552   5.2794   5.2988
     5.3343   5.3369   5.3457   5.3496   5.4989   5.5962   5.7284   5.7321
     5.7449   5.7462   5.7481   5.7495   5.8374   5.8640   5.8889   5.8892
     6.7814   6.7827   6.7831   6.7836   7.0950   7.1137   7.1157   7.1219
     7.1415   7.1508   7.1519   7.1528   7.2463   7.2684   7.2704   7.2732
     7.3588   7.3652   7.3662   7.3662   7.5140   7.6051   7.6064   7.6109
     7.6689   7.9039   7.9407   7.9568   7.9626   7.9812   8.0014   8.0041
     8.2202   8.2356   8.2381   8.2423   8.2455   8.2835   8.3594   8.3647
     8.8880   8.8884   8.8902   8.8911   8.9204   8.9229   8.9232   8.9247
     8.9621   8.9631   8.9643   8.9653   9.1061   9.1105   9.1183   9.1187
     9.3021   9.3243   9.3382   9.3445   9.5151   9.5244   9.5346   9.5472
     9.5623   9.5675   9.5719   9.5727   9.9260   9.9379   9.9669

     the Fermi energy is     3.3206 ev

!    total energy              =  -12707.14308629 Ry
     Harris-Foulkes estimate   =  -12707.14308631 Ry
     estimated scf accuracy    <          4.9E-09 Ry

     The total energy is the sum of the following terms:

     one-electron contribution = -109279.38358715 Ry
     hartree contribution      =   56001.09224359 Ry
     xc contribution           =   -4447.77489369 Ry
     ewald contribution        =   45025.26543928 Ry
     Dispersion Correction     =      -2.98702109 Ry
     smearing contrib. (-TS)   =      -3.35526723 Ry

     convergence has been achieved in  48 iterations

     Writing output data file gc.save
 
     init_run     :     98.12s CPU    105.70s WALL (       1 calls)
     electrons    :  12480.77s CPU  13360.82s WALL (       1 calls)

     Called by init_run:
     wfcinit      :     95.93s CPU    102.88s WALL (       1 calls)
     potinit      :      0.44s CPU      0.49s WALL (       1 calls)

     Called by electrons:
     c_bands      :  11426.59s CPU  12201.33s WALL (      48 calls)
     sum_band     :    867.10s CPU    941.60s WALL (      48 calls)
     v_of_rho     :      3.12s CPU      3.79s WALL (      49 calls)
     newd         :      7.85s CPU     14.31s WALL (      49 calls)
     mix_rho      :    175.94s CPU    199.67s WALL (      48 calls)

     Called by c_bands:
     init_us_2    :     38.73s CPU     39.98s WALL (     582 calls)
     cegterg      :  11255.22s CPU  12019.43s WALL (     294 calls)

     Called by sum_band:
     sum_band:bec :      5.10s CPU      5.77s WALL (     288 calls)
     addusdens    :      8.42s CPU     14.29s WALL (      48 calls)

     Called by *egterg:
     h_psi        :   4179.91s CPU   4514.45s WALL (    1934 calls)
     s_psi        :   1001.83s CPU   1014.16s WALL (    1934 calls)
     g_psi        :     10.77s CPU     10.78s WALL (    1634 calls)
     cdiaghg      :   3133.19s CPU   3258.01s WALL (    1922 calls)

     Called by h_psi:
     add_vuspsi   :   1005.22s CPU   1020.09s WALL (    1934 calls)

     General routines
     calbec       :   1450.31s CPU   1462.17s WALL (    2222 calls)
     fft          :      3.55s CPU      4.26s WALL (     636 calls)
     ffts         :    103.15s CPU    116.97s WALL (   27561 calls)
     fftw         :   2410.12s CPU   2679.22s WALL ( 1371952 calls)
     davcio       :      0.13s CPU      2.65s WALL (       6 calls)
 
     Parallel routines
     fft_scatter  :   1536.11s CPU   1680.45s WALL ( 1400149 calls)
 
     PWSCF        :     3h29m CPU        3h44m WALL

 
   This run was terminated on:  23: 5:22   7Sep2017            

=------------------------------------------------------------------------------=
   JOB DONE.
=------------------------------------------------------------------------------=
