
     Program PWSCF v.5.4.0 starts on  9Apr2017 at 10:40:45 

     This program is part of the open-source Quantum ESPRESSO suite
     for quantum simulation of materials; please cite
         "P. Giannozzi et al., J. Phys.:Condens. Matter 21 395502 (2009);
          URL http://www.quantum-espresso.org", 
     in publications or presentations arising from this work. More details at
     http://www.quantum-espresso.org/quote

     Parallel version (MPI & OpenMP), running on      56 processor cores
     Number of MPI processes:                56
     Threads/MPI process:                     1
     R & G space division:  proc/nbgrp/npool/nimage =      56
     Waiting for input...
     Reading input from standard input
Warning: card &IONS ignored
Warning: card / ignored

     Current dimensions of program PWSCF are:
     Max number of different atomic species (ntypx) = 10
     Max number of k-points (npk) =  40000
     Max angular momentum in pseudopotentials (lmaxx) =  3
     WARNING: atomic wfc #  2 for atom type 4 has zero norm
     WARNING: atomic wfc #  4 for atom type 4 has zero norm
     WARNING: atomic wfc #  5 for atom type 4 has zero norm

     -------------------------------------
     Parameters for Dispersion Correction:
     -------------------------------------
       atom      VdW radius       C_6     

        Cu         2.952        374.666
        C_h        2.744         60.710
        C          2.744         60.710
        O          2.536         24.284

     Subspace diagonalization in iterative solution of the eigenvalue problem:
     one sub-group per band group will be used
     scalapack distributed-memory algorithm (size of sub-group:  5*  5 procs)

 
     Parallelization info
     --------------------
     sticks:   dense  smooth     PW     G-vecs:    dense   smooth      PW
     Min         204     204     54                36612    36612    4962
     Max         205     205     55                36617    36617    4968
     Sum       11433   11433   3039              2050409  2050409  278033
 
     Generating pointlists ...
     new r_m :   0.1382 (alat units)  1.9275 (a.u.) for type    1
     new r_m :   0.0786 (alat units)  1.0966 (a.u.) for type    2
     new r_m :   0.0786 (alat units)  1.0964 (a.u.) for type    3
     new r_m :   0.0791 (alat units)  1.1028 (a.u.) for type    4


     bravais-lattice index     =            0
     lattice parameter (alat)  =      13.9425  a.u.
     unit-cell volume          =   21209.0878 (a.u.)^3
     number of atoms/cell      =          149
     number of atomic types    =            4
     number of electrons       =      1298.00
     number of Kohn-Sham states=          779
     kinetic-energy cutoff     =      80.0000  Ry
     charge density cutoff     =     320.0000  Ry
     convergence threshold     =      1.0E-08
     mixing beta               =       0.7000
     number of iterations used =            8  local-TF  mixing
     Exchange-correlation      =  SLA  PW   PBX  PBC ( 1  4  3  4 0 0)

     celldm(1)=  13.942539  celldm(2)=   0.000000  celldm(3)=   0.000000
     celldm(4)=   0.000000  celldm(5)=   0.000000  celldm(6)=   0.000000

     crystal axes: (cart. coord. in units of alat)
               a(1) = (   1.000000   0.000000   0.000000 )  
               a(2) = (   0.000000   2.309401   0.000000 )  
               a(3) = (   0.000000   0.000000   3.388418 )  

     reciprocal axes: (cart. coord. in units 2 pi/alat)
               b(1) = (  1.000000  0.000000  0.000000 )  
               b(2) = (  0.000000  0.433013  0.000000 )  
               b(3) = (  0.000000  0.000000  0.295123 )  


     PseudoPot. # 1 for Cu read from file:
     /home/549/hxw549/Short/pseudopotentials/Cu.pbe-n-van_ak.UPF
     MD5 check sum: 601f7c30f7467666bec936e0661ce3e1
     Pseudo is Ultrasoft + core correction, Zval = 11.0
     Generated by new atomic code, or converted to UPF format
     Using radial grid of  867 points,  6 beta functions with: 
                l(1) =   0
                l(2) =   0
                l(3) =   1
                l(4) =   1
                l(5) =   2
                l(6) =   2
     Q(r) pseudized with  8 coefficients,  rinner =    1.400   1.400   1.400
                                                       1.400   1.400

     PseudoPot. # 2 for C  read from file:
     /home/549/hxw549/Short/pseudopotentials/C.star1s-pbe-mt_gipaw.UPF
     MD5 check sum: ef0cb3dee31bd9e4ba2a832a2c716264
     Pseudo is Norm-conserving, Zval =  5.0
     Generated by new atomic code, or converted to UPF format
     Using radial grid of 1073 points,  1 beta functions with: 
                l(1) =   0

     PseudoPot. # 3 for C  read from file:
     /home/549/hxw549/Short/pseudopotentials/C.pbe-mt_gipaw.UPF
     MD5 check sum: 5ac2f21f2c440b14befe521540822c15
     Pseudo is Norm-conserving, Zval =  4.0
     Generated by new atomic code, or converted to UPF format
     Using radial grid of 1073 points,  1 beta functions with: 
                l(1) =   0

     PseudoPot. # 4 for O  read from file:
     /home/549/hxw549/Short/pseudopotentials/O.pbe-van_gipaw.UPF
     MD5 check sum: 5ce2a047509d4f331db576c963e74b29
     Pseudo is Ultrasoft, Zval =  6.0
     Generated by new atomic code, or converted to UPF format
     Using radial grid of 1095 points,  4 beta functions with: 
                l(1) =   0
                l(2) =   0
                l(3) =   1
                l(4) =   1
     Q(r) pseudized with 0 coefficients 


     atomic species   valence    mass     pseudopotential
        Cu            11.00    63.54600     Cu( 1.00)
        C_h            5.00    12.01070     C ( 1.00)
        C              4.00    12.01070     C ( 1.00)
        O              6.00    15.99940     O ( 1.00)

     Starting magnetic structure 
     atomic species   magnetization
        Cu           0.000
        C_h          0.000
        C            0.000
        O            1.000

     No symmetry found



   Cartesian axes

     site n.     atom                  positions (alat units)
         1           Cu  tau(   1) = (   0.0001178   0.0001751   0.9991399  )
         2           Cu  tau(   2) = (   0.2500647   0.2315788   0.9992879  )
         3           Cu  tau(   3) = (   0.5001090   0.0002824   0.9991514  )
         4           Cu  tau(   4) = (   0.7501448   0.2315979   0.9993693  )
         5           Cu  tau(   5) = (   0.0000932   0.4624661   0.9992448  )
         6           Cu  tau(   6) = (   0.2501040   0.6930408   0.9987587  )
         7           Cu  tau(   7) = (   0.5001044   0.4624308   0.9992470  )
         8           Cu  tau(   8) = (   0.7500909   0.6930451   0.9988127  )
         9           Cu  tau(   9) = (   0.0000907   0.9236195   0.9983746  )
        10           Cu  tau(  10) = (   0.2501315   1.1542013   0.9984774  )
        11           Cu  tau(  11) = (   0.5001085   0.9236121   0.9984107  )
        12           Cu  tau(  12) = (   0.7500776   1.1542041   0.9985334  )
        13           Cu  tau(  13) = (   0.0001210   1.3847107   0.9989336  )
        14           Cu  tau(  14) = (   0.2501076   1.6153136   0.9993453  )
        15           Cu  tau(  15) = (   0.5001016   1.3847235   0.9991112  )
        16           Cu  tau(  16) = (   0.7501325   1.6152607   0.9994161  )
        17           Cu  tau(  17) = (   0.0000836   1.8463185   0.9992677  )
        18           Cu  tau(  18) = (   0.2501939   2.0778557   0.9990932  )
        19           Cu  tau(  19) = (   0.5001665   1.8462421   0.9993297  )
        20           Cu  tau(  20) = (   0.7500499   2.0778858   0.9990886  )
        21           Cu  tau(  21) = (   0.0001201   0.2315510   1.2474060  )
        22           Cu  tau(  22) = (   0.2501297   0.0000932   1.2468084  )
        23           Cu  tau(  23) = (   0.5000985   0.2315859   1.2474013  )
        24           Cu  tau(  24) = (   0.7501392   0.0000369   1.2467986  )
        25           Cu  tau(  25) = (   0.0000837   0.6935790   1.2476031  )
        26           Cu  tau(  26) = (   0.2500834   0.4627990   1.2476878  )
        27           Cu  tau(  27) = (   0.5000729   0.6935238   1.2475645  )
        28           Cu  tau(  28) = (   0.7500921   0.4627963   1.2477406  )
        29           Cu  tau(  29) = (   0.0001043   1.1538633   1.2473903  )
        30           Cu  tau(  30) = (   0.2500740   0.9237755   1.2473144  )
        31           Cu  tau(  31) = (   0.5000779   1.1537741   1.2475188  )
        32           Cu  tau(  32) = (   0.7500848   0.9237806   1.2473699  )
        33           Cu  tau(  33) = (   0.0001394   1.6150341   1.2477604  )
        34           Cu  tau(  34) = (   0.2501124   1.3841605   1.2478282  )
        35           Cu  tau(  35) = (   0.5001301   1.6150934   1.2478863  )
        36           Cu  tau(  36) = (   0.7501066   1.3841739   1.2478487  )
        37           Cu  tau(  37) = (   0.0001703   2.0778855   1.2466178  )
        38           Cu  tau(  38) = (   0.2501557   1.8463742   1.2472016  )
        39           Cu  tau(  39) = (   0.5001379   2.0779082   1.2466660  )
        40           Cu  tau(  40) = (   0.7501553   1.8464101   1.2472347  )
        41           Cu  tau(  41) = (   0.0001561  -0.0004210   1.4957109  )
        42           Cu  tau(  42) = (   0.2501545   0.2312899   1.4963241  )
        43           Cu  tau(  43) = (   0.5001223  -0.0003473   1.4956858  )
        44           Cu  tau(  44) = (   0.7500415   0.2311756   1.4962428  )
        45           Cu  tau(  45) = (   0.0000797   0.4629130   1.4969910  )
        46           Cu  tau(  46) = (   0.2500644   0.6939574   1.4977027  )
        47           Cu  tau(  47) = (   0.5000448   0.4629913   1.4971228  )
        48           Cu  tau(  48) = (   0.7500213   0.6939388   1.4976647  )
        49           Cu  tau(  49) = (   0.0000772   0.9240249   1.4981269  )
        50           Cu  tau(  50) = (   0.2500138   1.1533268   1.4981828  )
        51           Cu  tau(  51) = (   0.4999981   0.9236958   1.4981756  )
        52           Cu  tau(  52) = (   0.7500898   1.1534051   1.4980997  )
        53           Cu  tau(  53) = (   0.0000854   1.3837290   1.4977758  )
        54           Cu  tau(  54) = (   0.2500811   1.6151223   1.4969711  )
        55           Cu  tau(  55) = (   0.5000715   1.3836600   1.4977194  )
        56           Cu  tau(  56) = (   0.7501512   1.6151612   1.4969707  )
        57           Cu  tau(  57) = (   0.0001647   1.8467653   1.4961187  )
        58           Cu  tau(  58) = (   0.2501492   2.0780074   1.4956995  )
        59           Cu  tau(  59) = (   0.5001483   1.8469374   1.4962451  )
        60           Cu  tau(  60) = (   0.7501797   2.0780088   1.4957512  )
        61           Cu  tau(  61) = (   0.0001434   0.2303911   1.7440553  )
        62           Cu  tau(  62) = (   0.2502640  -0.0007400   1.7447773  )
        63           Cu  tau(  63) = (   0.5000564   0.2301922   1.7446801  )
        64           Cu  tau(  64) = (   0.7499969  -0.0007135   1.7448307  )
        65           Cu  tau(  65) = (   0.0000745   0.6935765   1.7472176  )
        66           Cu  tau(  66) = (   0.2505720   0.4624882   1.7457398  )
        67           Cu  tau(  67) = (   0.5000325   0.6937721   1.7485044  )
        68           Cu  tau(  68) = (   0.7495773   0.4622837   1.7454788  )
        69           Cu  tau(  69) = (   0.0000649   1.1534345   1.7495728  )
        70           Cu  tau(  70) = (   0.2503992   0.9235614   1.7498004  )
        71           Cu  tau(  71) = (   0.5000004   1.1529972   1.7490166  )
        72           Cu  tau(  72) = (   0.7496815   0.9236872   1.7494164  )
        73           Cu  tau(  73) = (   0.0000855   1.6159662   1.7455781  )
        74           Cu  tau(  74) = (   0.2497537   1.3839283   1.7470177  )
        75           Cu  tau(  75) = (   0.5000619   1.6158775   1.7448370  )
        76           Cu  tau(  76) = (   0.7503425   1.3839909   1.7469833  )
        77           Cu  tau(  77) = (   0.0000998   2.0779821   1.7452386  )
        78           Cu  tau(  78) = (   0.2499195   1.8474556   1.7449487  )
        79           Cu  tau(  79) = (   0.5001760   2.0783808   1.7453206  )
        80           Cu  tau(  80) = (   0.7503055   1.8474368   1.7450066  )
        81           Cu  tau(  81) = (   0.0000913  -0.0001846   1.9906150  )
        82           Cu  tau(  82) = (   0.2499008   0.2299686   1.9899715  )
        83           Cu  tau(  83) = (   0.5001755  -0.0003051   1.9924353  )
        84           Cu  tau(  84) = (   0.7503545   0.2299454   1.9900033  )
        85           Cu  tau(  85) = (   0.0000150   0.4609338   1.9884698  )
        86           Cu  tau(  86) = (   0.2526326   0.6910888   1.9945534  )
        87           Cu  tau(  87) = (   0.5002257   0.4585509   1.9920995  )
        88           Cu  tau(  88) = (   0.7476506   0.6911566   1.9938358  )
        89           Cu  tau(  89) = (   0.0000269   0.9212800   1.9947875  )
        90           Cu  tau(  90) = (   0.2501613   1.1549799   1.9964917  )
        91           Cu  tau(  91) = (   0.5001528   0.9243607   2.0003832  )
        92           Cu  tau(  92) = (   0.7499540   1.1549185   1.9962842  )
        93           Cu  tau(  93) = (  -0.0000171   1.3864821   1.9936837  )
        94           Cu  tau(  94) = (   0.2496421   1.6167895   1.9902549  )
        95           Cu  tau(  95) = (   0.5001156   1.3865848   1.9912321  )
        96           Cu  tau(  96) = (   0.7504721   1.6169147   1.9903198  )
        97           Cu  tau(  97) = (   0.0001452   1.8476448   1.9922626  )
        98           Cu  tau(  98) = (   0.2502472   2.0782997   1.9914950  )
        99           Cu  tau(  99) = (   0.5000204   1.8469043   1.9903178  )
       100           Cu  tau( 100) = (   0.7499866   2.0781930   1.9916427  )
       101           C   tau( 101) = (  -0.0000031   0.0971043   2.3879420  )
       102           C   tau( 102) = (  -0.0000524   0.2892846   2.3845655  )
       103           C   tau( 103) = (   0.1666660   0.0010496   2.3880821  )
       104           C   tau( 104) = (   0.1662983   0.3853857   2.3800619  )
       105           C   tau( 105) = (   0.3331661   0.0971851   2.3854343  )
       106           C   tau( 106) = (   0.3330371   0.2894063   2.3808165  )
       107           C   tau( 107) = (   0.5000001   0.0008852   2.3858518  )
       108           C   tau( 108) = (   0.4998997   0.3862011   2.3779419  )
       109           C   tau( 109) = (   0.6668162   0.0971870   2.3857123  )
       110           C   tau( 110) = (   0.6668276   0.2894144   2.3811848  )
       111           C   tau( 111) = (   0.8333307   0.0010413   2.3884541  )
       112           C   tau( 112) = (   0.8335336   0.3853915   2.3804495  )
       113           C   tau( 113) = (  -0.0001756   0.6740120   2.3734364  )
       114           C   tau( 114) = (  -0.0002095   0.8665229   2.3686346  )
       115           C   tau( 115) = (   0.1660471   0.5775765   2.3741779  )
       116           C   tau( 116) = (   0.1667453   0.9625008   2.3748476  )
       117           C   tau( 117) = (   0.3324872   0.6745332   2.3738281  )
       118           C   tau( 118) = (   0.3307487   0.8654330   2.3798499  )
       119           C   tau( 119) = (   0.4998391   0.5778621   2.3760650  )
       120           C   tau( 120) = (   0.4996895   0.9621637   2.4356682  )
       121           O   tau( 121) = (   0.4987041   0.9573919   2.6273532  )
       122           C   tau( 122) = (   0.6671796   0.6745385   2.3743426  )
       123           C   tau( 123) = (   0.6688087   0.8654535   2.3800444  )
       124           C   tau( 124) = (   0.8336398   0.5775636   2.3746523  )
       125           C   tau( 125) = (   0.8328414   0.9625091   2.3750327  )
       126           C   tau( 126) = (  -0.0001226   1.2514969   2.3780858  )
       127           C   tau( 127) = (  -0.0000580   1.4446335   2.3767340  )
       128           C   tau( 128) = (   0.1665618   1.1557680   2.3784869  )
       129           C   tau( 129) = (   0.1667114   1.5410833   2.3789669  )
       130           C_h tau( 130) = (   0.3338787   1.2526757   2.3819609  )
       131           C   tau( 131) = (   0.3334272   1.4452607   2.3812252  )
       132           C   tau( 132) = (   0.4998303   1.1589812   2.3878147  )
       133           C   tau( 133) = (   0.4999354   1.5412396   2.3843628  )
       134           C   tau( 134) = (   0.6658220   1.2526489   2.3820371  )
       135           C   tau( 135) = (   0.6664446   1.4452600   2.3811871  )
       136           C   tau( 136) = (   0.8331461   1.1557891   2.3786206  )
       137           C   tau( 137) = (   0.8331791   1.5411000   2.3788400  )
       138           C   tau( 138) = (   0.0000179   1.8297592   2.3820829  )
       139           C   tau( 139) = (   0.0000276   2.0220587   2.3867410  )
       140           C   tau( 140) = (   0.1668445   1.7334918   2.3820555  )
       141           C   tau( 141) = (   0.1666563   2.1181397   2.3871975  )
       142           C   tau( 142) = (   0.3333905   1.8295594   2.3863147  )
       143           C   tau( 143) = (   0.3334142   2.0218884   2.3874303  )
       144           C   tau( 144) = (   0.4999921   1.7335804   2.3866084  )
       145           C   tau( 145) = (   0.5000164   2.1179819   2.3890180  )
       146           C   tau( 146) = (   0.6666062   1.8295781   2.3867473  )
       147           C   tau( 147) = (   0.6665755   2.0218860   2.3882889  )
       148           C   tau( 148) = (   0.8331746   1.7335137   2.3821733  )
       149           C   tau( 149) = (   0.8333866   2.1181027   2.3878917  )

     number of k points=     6  gaussian smearing, width (Ry)=  0.1000
                       cart. coord. in units 2pi/alat
        k(    1) = (   0.0000000   0.0000000   0.0000000), wk =   0.1250000
        k(    2) = (   0.0000000  -0.2165064   0.0000000), wk =   0.1250000
        k(    3) = (   0.2500000   0.0000000   0.0000000), wk =   0.2500000
        k(    4) = (   0.2500000  -0.2165064   0.0000000), wk =   0.2500000
        k(    5) = (  -0.5000000   0.0000000   0.0000000), wk =   0.1250000
        k(    6) = (  -0.5000000  -0.2165064   0.0000000), wk =   0.1250000

     Dense  grid:  2050409 G-vectors     FFT dimensions: (  80, 192, 270)

     Largest allocated arrays     est. size (Mb)     dimensions
        Kohn-Sham Wavefunctions        54.73 Mb     (    4604,  779)
        NL pseudopotentials           130.39 Mb     (    4604, 1856)
        Each V/rho on FFT grid          2.34 Mb     (   76800,   2)
        Each G-vector array             0.28 Mb     (   36616)
        G-vector shells                 0.14 Mb     (   17932)
     Largest temporary arrays     est. size (Mb)     dimensions
        Auxiliary wavefunctions       218.90 Mb     (    4604, 3116)
        Each subspace H/S matrix        5.92 Mb     (     623,  623)
        Each <psi_i|beta_j> matrix     22.06 Mb     (    1856,  779)
        Arrays for rho mixing           9.38 Mb     (   76800,    8)

     Initial potential from superposition of free atoms
     Check: negative starting charge=(component1):   -0.000885
     Check: negative starting charge=(component2):   -0.000926

     starting charge 1272.81751, renormalised to 1298.00000

     negative rho (up, down):  9.023E-04 9.445E-04
     Starting wfc are 1288 randomized atomic wfcs

     total cpu time spent up to now is      212.0 secs

     Self-consistent Calculation

     iteration #  1     ecut=    80.00 Ry     beta=0.70
     Davidson diagonalization with overlap
     c_bands:  4 eigenvalues not converged
     c_bands:  5 eigenvalues not converged
     c_bands:  1 eigenvalues not converged
     c_bands:  1 eigenvalues not converged
     c_bands:  3 eigenvalues not converged
     ethr =  1.00E-04,  avg # of iterations = 26.6

     negative rho (up, down):  1.204E+01 1.344E+01

     total cpu time spent up to now is     3874.7 secs

     total energy              =   -9856.69280721 Ry
     Harris-Foulkes estimate   =  -17265.12470916 Ry
     estimated scf accuracy    <  176483.46619586 Ry

     total magnetization       =     2.89 Bohr mag/cell
     absolute magnetization    =     3.70 Bohr mag/cell

     iteration #  2     ecut=    80.00 Ry     beta=0.70
     Davidson diagonalization with overlap
     ethr =  1.00E-02,  avg # of iterations = 11.3

     negative rho (up, down):  1.468E+01 1.492E+01

     total cpu time spent up to now is     5665.9 secs

     total energy              =  -12323.76235980 Ry
     Harris-Foulkes estimate   =  -13640.97631959 Ry
     estimated scf accuracy    <   21968.74381250 Ry

     total magnetization       =     0.24 Bohr mag/cell
     absolute magnetization    =     1.15 Bohr mag/cell

     iteration #  3     ecut=    80.00 Ry     beta=0.70
     Davidson diagonalization with overlap
     ethr =  1.00E-02,  avg # of iterations =  7.0

     negative rho (up, down):  1.512E+01 1.505E+01

     total cpu time spent up to now is     6727.6 secs

     total energy              =  -12457.78293599 Ry
     Harris-Foulkes estimate   =  -13378.71975839 Ry
     estimated scf accuracy    <    6001.48379143 Ry

     total magnetization       =     0.05 Bohr mag/cell
     absolute magnetization    =     0.32 Bohr mag/cell

     iteration #  4     ecut=    80.00 Ry     beta=0.70
     Davidson diagonalization with overlap
     ethr =  1.00E-02,  avg # of iterations =  5.4

     negative rho (up, down):  1.115E+01 1.111E+01

     total cpu time spent up to now is     7866.5 secs

     total energy              =  -12845.58727850 Ry
     Harris-Foulkes estimate   =  -13089.04535895 Ry
     estimated scf accuracy    <    2087.56224082 Ry

     total magnetization       =     0.05 Bohr mag/cell
     absolute magnetization    =     0.15 Bohr mag/cell

     iteration #  5     ecut=    80.00 Ry     beta=0.70
     Davidson diagonalization with overlap
     ethr =  1.00E-02,  avg # of iterations =  3.5

     negative rho (up, down):  8.438E+00 8.424E+00

     total cpu time spent up to now is     8423.1 secs

     total energy              =  -12858.07450905 Ry
     Harris-Foulkes estimate   =  -12978.14737106 Ry
     estimated scf accuracy    <    1179.71590468 Ry

     total magnetization       =    -0.11 Bohr mag/cell
     absolute magnetization    =     0.18 Bohr mag/cell

     iteration #  6     ecut=    80.00 Ry     beta=0.70
     Davidson diagonalization with overlap
     ethr =  1.00E-02,  avg # of iterations =  3.0

     negative rho (up, down):  5.716E+00 5.726E+00

     total cpu time spent up to now is     8828.2 secs

     total energy              =  -12849.23363916 Ry
     Harris-Foulkes estimate   =  -12917.84126775 Ry
     estimated scf accuracy    <     552.51949140 Ry

     total magnetization       =    -0.04 Bohr mag/cell
     absolute magnetization    =     0.11 Bohr mag/cell

     iteration #  7     ecut=    80.00 Ry     beta=0.70
     Davidson diagonalization with overlap
     ethr =  1.00E-02,  avg # of iterations =  2.0

     negative rho (up, down):  4.182E+00 4.193E+00

     total cpu time spent up to now is     9188.7 secs

     total energy              =  -12827.21415109 Ry
     Harris-Foulkes estimate   =  -12862.60322649 Ry
     estimated scf accuracy    <     370.37107931 Ry

     total magnetization       =     0.00 Bohr mag/cell
     absolute magnetization    =     0.06 Bohr mag/cell

     iteration #  8     ecut=    80.00 Ry     beta=0.70
     Davidson diagonalization with overlap
     ethr =  1.00E-02,  avg # of iterations =  1.0

     negative rho (up, down):  3.114E+00 3.114E+00

     total cpu time spent up to now is     9522.2 secs

     total energy              =  -12805.89328229 Ry
     Harris-Foulkes estimate   =  -12838.98840537 Ry
     estimated scf accuracy    <     444.21540071 Ry

     total magnetization       =    -0.00 Bohr mag/cell
     absolute magnetization    =     0.07 Bohr mag/cell

     iteration #  9     ecut=    80.00 Ry     beta=0.70
     Davidson diagonalization with overlap
     ethr =  1.00E-02,  avg # of iterations =  1.3

     negative rho (up, down):  2.743E+00 2.743E+00

     total cpu time spent up to now is     9862.0 secs

     total energy              =  -12806.39474230 Ry
     Harris-Foulkes estimate   =  -12817.32177361 Ry
     estimated scf accuracy    <     232.90775667 Ry

     total magnetization       =     0.05 Bohr mag/cell
     absolute magnetization    =     0.12 Bohr mag/cell

     iteration # 10     ecut=    80.00 Ry     beta=0.70
     Davidson diagonalization with overlap
     ethr =  1.00E-02,  avg # of iterations =  1.0

     negative rho (up, down):  1.217E+00 1.217E+00

     total cpu time spent up to now is    10195.5 secs

     total energy              =  -12779.63833145 Ry
     Harris-Foulkes estimate   =  -12809.43866448 Ry
     estimated scf accuracy    <     140.64835797 Ry

     total magnetization       =     0.11 Bohr mag/cell
     absolute magnetization    =     0.15 Bohr mag/cell

     iteration # 11     ecut=    80.00 Ry     beta=0.70
     Davidson diagonalization with overlap
     ethr =  1.00E-02,  avg # of iterations =  1.8

     negative rho (up, down):  3.321E-01 3.346E-01

     total cpu time spent up to now is    10547.4 secs

     total energy              =  -12760.91353773 Ry
     Harris-Foulkes estimate   =  -12787.19962115 Ry
     estimated scf accuracy    <     206.15840275 Ry

     total magnetization       =     0.27 Bohr mag/cell
     absolute magnetization    =     0.32 Bohr mag/cell

     iteration # 12     ecut=    80.00 Ry     beta=0.70
     Davidson diagonalization with overlap
     ethr =  1.00E-02,  avg # of iterations =  2.0

     negative rho (up, down):  3.404E-01 3.438E-01

     total cpu time spent up to now is    10904.9 secs

     total energy              =  -12757.43369611 Ry
     Harris-Foulkes estimate   =  -12770.43305768 Ry
     estimated scf accuracy    <     198.70531662 Ry

     total magnetization       =     0.08 Bohr mag/cell
     absolute magnetization    =     0.14 Bohr mag/cell

     iteration # 13     ecut=    80.00 Ry     beta=0.70
     Davidson diagonalization with overlap
     ethr =  1.00E-02,  avg # of iterations =  2.2

     negative rho (up, down):  2.146E+00 2.150E+00

     total cpu time spent up to now is    11264.5 secs

     total energy              =  -12746.01722805 Ry
     Harris-Foulkes estimate   =  -12765.08709596 Ry
     estimated scf accuracy    <     172.16372410 Ry

     total magnetization       =     0.27 Bohr mag/cell
     absolute magnetization    =     0.32 Bohr mag/cell

     iteration # 14     ecut=    80.00 Ry     beta=0.70
     Davidson diagonalization with overlap
     ethr =  1.00E-02,  avg # of iterations =  2.0

     negative rho (up, down):  2.304E+00 2.308E+00

     total cpu time spent up to now is    11622.4 secs

     total energy              =  -12749.58797072 Ry
     Harris-Foulkes estimate   =  -12755.33667900 Ry
     estimated scf accuracy    <      55.50999141 Ry

     total magnetization       =     0.20 Bohr mag/cell
     absolute magnetization    =     0.27 Bohr mag/cell

     iteration # 15     ecut=    80.00 Ry     beta=0.70
     Davidson diagonalization with overlap
     ethr =  4.28E-03,  avg # of iterations =  3.5

     negative rho (up, down):  2.329E+00 2.332E+00

     total cpu time spent up to now is    12014.8 secs

     total energy              =  -12749.90885895 Ry
     Harris-Foulkes estimate   =  -12752.68699089 Ry
     estimated scf accuracy    <      38.38079293 Ry

     total magnetization       =     0.42 Bohr mag/cell
     absolute magnetization    =     0.46 Bohr mag/cell

     iteration # 16     ecut=    80.00 Ry     beta=0.70
     Davidson diagonalization with overlap
     ethr =  2.96E-03,  avg # of iterations =  2.6

     negative rho (up, down):  2.867E+00 2.868E+00

     total cpu time spent up to now is    12383.8 secs

     total energy              =  -12747.06320689 Ry
     Harris-Foulkes estimate   =  -12750.46953408 Ry
     estimated scf accuracy    <      27.87411746 Ry

     total magnetization       =     0.52 Bohr mag/cell
     absolute magnetization    =     0.57 Bohr mag/cell

     iteration # 17     ecut=    80.00 Ry     beta=0.70
     Davidson diagonalization with overlap
     ethr =  2.15E-03,  avg # of iterations =  2.8

     negative rho (up, down):  2.335E+00 2.335E+00

     total cpu time spent up to now is    12758.9 secs

     total energy              =  -12746.12632900 Ry
     Harris-Foulkes estimate   =  -12748.09220931 Ry
     estimated scf accuracy    <      17.65170635 Ry

     total magnetization       =     0.22 Bohr mag/cell
     absolute magnetization    =     0.31 Bohr mag/cell

     iteration # 18     ecut=    80.00 Ry     beta=0.70
     Davidson diagonalization with overlap
     ethr =  1.36E-03,  avg # of iterations =  3.8

     negative rho (up, down):  2.006E+00 2.006E+00

     total cpu time spent up to now is    13154.2 secs

     total energy              =  -12744.54005703 Ry
     Harris-Foulkes estimate   =  -12746.50413312 Ry
     estimated scf accuracy    <      13.79338629 Ry

     total magnetization       =     0.49 Bohr mag/cell
     absolute magnetization    =     0.54 Bohr mag/cell

     iteration # 19     ecut=    80.00 Ry     beta=0.70
     Davidson diagonalization with overlap
     ethr =  1.06E-03,  avg # of iterations =  7.3

     negative rho (up, down):  1.697E+00 1.697E+00

     total cpu time spent up to now is    13642.9 secs

     total energy              =  -12743.96220179 Ry
     Harris-Foulkes estimate   =  -12745.01579684 Ry
     estimated scf accuracy    <      11.09153859 Ry

     total magnetization       =     0.16 Bohr mag/cell
     absolute magnetization    =     0.25 Bohr mag/cell

     iteration # 20     ecut=    80.00 Ry     beta=0.70
     Davidson diagonalization with overlap
     ethr =  8.55E-04,  avg # of iterations =  1.1

     negative rho (up, down):  1.376E+00 1.376E+00

     total cpu time spent up to now is    13979.1 secs

     total energy              =  -12743.37265281 Ry
     Harris-Foulkes estimate   =  -12744.36179876 Ry
     estimated scf accuracy    <       9.94103810 Ry

     total magnetization       =     0.23 Bohr mag/cell
     absolute magnetization    =     0.30 Bohr mag/cell

     iteration # 21     ecut=    80.00 Ry     beta=0.70
     Davidson diagonalization with overlap
     ethr =  7.66E-04,  avg # of iterations =  1.0

     negative rho (up, down):  5.357E-01 5.356E-01

     total cpu time spent up to now is    14311.5 secs

     total energy              =  -12742.23141400 Ry
     Harris-Foulkes estimate   =  -12743.62165406 Ry
     estimated scf accuracy    <       6.98875809 Ry

     total magnetization       =     0.31 Bohr mag/cell
     absolute magnetization    =     0.35 Bohr mag/cell

     iteration # 22     ecut=    80.00 Ry     beta=0.70
     Davidson diagonalization with overlap
     ethr =  5.38E-04,  avg # of iterations =  6.7

     negative rho (up, down):  4.933E-01 4.932E-01

     total cpu time spent up to now is    14774.9 secs

     total energy              =  -12742.36754066 Ry
     Harris-Foulkes estimate   =  -12742.64546104 Ry
     estimated scf accuracy    <      10.64699291 Ry

     total magnetization       =     0.16 Bohr mag/cell
     absolute magnetization    =     0.20 Bohr mag/cell

     iteration # 23     ecut=    80.00 Ry     beta=0.70
     Davidson diagonalization with overlap
     ethr =  5.38E-04,  avg # of iterations =  1.6

     negative rho (up, down):  1.495E-01 1.494E-01

     total cpu time spent up to now is    15120.9 secs

     total energy              =  -12741.54118621 Ry
     Harris-Foulkes estimate   =  -12742.69427662 Ry
     estimated scf accuracy    <       5.31473777 Ry

     total magnetization       =     0.17 Bohr mag/cell
     absolute magnetization    =     0.21 Bohr mag/cell

     iteration # 24     ecut=    80.00 Ry     beta=0.70
     Davidson diagonalization with overlap
     ethr =  4.09E-04,  avg # of iterations =  8.6

     negative rho (up, down):  4.788E-03 4.781E-03

     total cpu time spent up to now is    15629.2 secs

     total energy              =  -12741.04368359 Ry
     Harris-Foulkes estimate   =  -12741.72529749 Ry
     estimated scf accuracy    <       8.64973687 Ry

     total magnetization       =     0.14 Bohr mag/cell
     absolute magnetization    =     0.16 Bohr mag/cell

     iteration # 25     ecut=    80.00 Ry     beta=0.70
     Davidson diagonalization with overlap
     c_bands:  2 eigenvalues not converged
     c_bands:  2 eigenvalues not converged
     ethr =  4.09E-04,  avg # of iterations =  7.4

     negative rho (up, down):  8.038E-05 7.878E-05

     total cpu time spent up to now is    16109.7 secs

     total energy              =  -12741.00244619 Ry
     Harris-Foulkes estimate   =  -12741.10271067 Ry
     estimated scf accuracy    <       7.61920630 Ry

     total magnetization       =     0.02 Bohr mag/cell
     absolute magnetization    =     0.04 Bohr mag/cell

     iteration # 26     ecut=    80.00 Ry     beta=0.70
     Davidson diagonalization with overlap
     ethr =  4.09E-04,  avg # of iterations =  1.9

     total cpu time spent up to now is    16461.3 secs

     total energy              =  -12740.66782001 Ry
     Harris-Foulkes estimate   =  -12741.05590645 Ry
     estimated scf accuracy    <       7.12653086 Ry

     total magnetization       =    -0.03 Bohr mag/cell
     absolute magnetization    =     0.04 Bohr mag/cell

     iteration # 27     ecut=    80.00 Ry     beta=0.70
     Davidson diagonalization with overlap
     ethr =  4.09E-04,  avg # of iterations =  1.0

     total cpu time spent up to now is    16791.9 secs

     total energy              =  -12740.58915991 Ry
     Harris-Foulkes estimate   =  -12740.71468820 Ry
     estimated scf accuracy    <       4.93725086 Ry

     total magnetization       =    -0.17 Bohr mag/cell
     absolute magnetization    =     0.18 Bohr mag/cell

     iteration # 28     ecut=    80.00 Ry     beta=0.70
     Davidson diagonalization with overlap
     ethr =  3.80E-04,  avg # of iterations =  1.0

     total cpu time spent up to now is    17125.3 secs

     total energy              =  -12740.07726030 Ry
     Harris-Foulkes estimate   =  -12740.66364764 Ry
     estimated scf accuracy    <       4.62819629 Ry

     total magnetization       =    -0.23 Bohr mag/cell
     absolute magnetization    =     0.25 Bohr mag/cell

     iteration # 29     ecut=    80.00 Ry     beta=0.70
     Davidson diagonalization with overlap
     ethr =  3.57E-04,  avg # of iterations =  2.0

     negative rho (up, down):  7.940E-02 7.936E-02

     total cpu time spent up to now is    17480.8 secs

     total energy              =  -12739.82558737 Ry
     Harris-Foulkes estimate   =  -12740.17968875 Ry
     estimated scf accuracy    <       5.78629720 Ry

     total magnetization       =    -0.57 Bohr mag/cell
     absolute magnetization    =     0.62 Bohr mag/cell

     iteration # 30     ecut=    80.00 Ry     beta=0.70
     Davidson diagonalization with overlap
     ethr =  3.57E-04,  avg # of iterations =  1.5

     negative rho (up, down):  1.604E-01 1.603E-01

     total cpu time spent up to now is    17827.2 secs

     total energy              =  -12739.48664317 Ry
     Harris-Foulkes estimate   =  -12739.92503174 Ry
     estimated scf accuracy    <       4.22556607 Ry

     total magnetization       =    -0.74 Bohr mag/cell
     absolute magnetization    =     0.81 Bohr mag/cell

     iteration # 31     ecut=    80.00 Ry     beta=0.70
     Davidson diagonalization with overlap
     ethr =  3.26E-04,  avg # of iterations =  3.5

     negative rho (up, down):  3.487E-01 3.486E-01

     total cpu time spent up to now is    18221.2 secs

     total energy              =  -12738.89558139 Ry
     Harris-Foulkes estimate   =  -12739.68363727 Ry
     estimated scf accuracy    <       4.44227342 Ry

     total magnetization       =    -0.57 Bohr mag/cell
     absolute magnetization    =     0.68 Bohr mag/cell

     iteration # 32     ecut=    80.00 Ry     beta=0.70
     Davidson diagonalization with overlap
     ethr =  3.26E-04,  avg # of iterations =  5.1

     negative rho (up, down):  2.406E-01 2.405E-01

     total cpu time spent up to now is    18673.2 secs

     total energy              =  -12738.87525400 Ry
     Harris-Foulkes estimate   =  -12739.25774820 Ry
     estimated scf accuracy    <       3.24172525 Ry

     total magnetization       =    -1.04 Bohr mag/cell
     absolute magnetization    =     1.17 Bohr mag/cell

     iteration # 33     ecut=    80.00 Ry     beta=0.70
     Davidson diagonalization with overlap
     ethr =  2.50E-04,  avg # of iterations =  5.5

     negative rho (up, down):  2.932E-01 2.936E-01

     total cpu time spent up to now is    19118.8 secs

     total energy              =  -12738.88867666 Ry
     Harris-Foulkes estimate   =  -12738.96273988 Ry
     estimated scf accuracy    <       0.71508383 Ry

     total magnetization       =    -0.53 Bohr mag/cell
     absolute magnetization    =     0.67 Bohr mag/cell

     iteration # 34     ecut=    80.00 Ry     beta=0.70
     Davidson diagonalization with overlap
     ethr =  5.51E-05,  avg # of iterations =  7.9

     negative rho (up, down):  8.159E-02 8.238E-02

     total cpu time spent up to now is    19624.6 secs

     total energy              =  -12738.84381525 Ry
     Harris-Foulkes estimate   =  -12738.92819394 Ry
     estimated scf accuracy    <       0.35710567 Ry

     total magnetization       =    -0.34 Bohr mag/cell
     absolute magnetization    =     0.47 Bohr mag/cell

     iteration # 35     ecut=    80.00 Ry     beta=0.70
     Davidson diagonalization with overlap
     ethr =  2.75E-05,  avg # of iterations =  7.8

     negative rho (up, down):  1.318E-01 1.322E-01

     total cpu time spent up to now is    20133.5 secs

     total energy              =  -12738.82894059 Ry
     Harris-Foulkes estimate   =  -12738.87292210 Ry
     estimated scf accuracy    <       0.32107690 Ry

     total magnetization       =    -0.17 Bohr mag/cell
     absolute magnetization    =     0.26 Bohr mag/cell

     iteration # 36     ecut=    80.00 Ry     beta=0.70
     Davidson diagonalization with overlap
     ethr =  2.47E-05,  avg # of iterations =  8.3

     negative rho (up, down):  3.167E-02 3.167E-02

     total cpu time spent up to now is    20663.8 secs

     total energy              =  -12738.83840243 Ry
     Harris-Foulkes estimate   =  -12738.85569909 Ry
     estimated scf accuracy    <       0.12978808 Ry

     total magnetization       =    -0.20 Bohr mag/cell
     absolute magnetization    =     0.30 Bohr mag/cell

     iteration # 37     ecut=    80.00 Ry     beta=0.70
     Davidson diagonalization with overlap
     c_bands:  2 eigenvalues not converged
     c_bands:  2 eigenvalues not converged
     c_bands:  2 eigenvalues not converged
     c_bands:  2 eigenvalues not converged
     c_bands:  2 eigenvalues not converged
     c_bands:  2 eigenvalues not converged
     ethr =  1.00E-05,  avg # of iterations = 13.8

     negative rho (up, down):  2.043E-02 2.043E-02

     total cpu time spent up to now is    21326.5 secs

     total energy              =  -12738.84058145 Ry
     Harris-Foulkes estimate   =  -12738.84405356 Ry
     estimated scf accuracy    <       0.03610096 Ry

     total magnetization       =    -0.16 Bohr mag/cell
     absolute magnetization    =     0.22 Bohr mag/cell

     iteration # 38     ecut=    80.00 Ry     beta=0.70
     Davidson diagonalization with overlap
     c_bands:  1 eigenvalues not converged
     c_bands:  1 eigenvalues not converged
     c_bands:  1 eigenvalues not converged
     c_bands:  1 eigenvalues not converged
     ethr =  2.78E-06,  avg # of iterations = 15.2

     negative rho (up, down):  2.475E-02 2.475E-02

     total cpu time spent up to now is    22033.8 secs

     total energy              =  -12738.84361365 Ry
     Harris-Foulkes estimate   =  -12738.84336062 Ry
     estimated scf accuracy    <       0.00385236 Ry

     total magnetization       =    -0.09 Bohr mag/cell
     absolute magnetization    =     0.12 Bohr mag/cell

     iteration # 39     ecut=    80.00 Ry     beta=0.70
     Davidson diagonalization with overlap
     ethr =  2.97E-07,  avg # of iterations =  8.5

     negative rho (up, down):  1.031E-02 1.031E-02

     total cpu time spent up to now is    22588.3 secs

     total energy              =  -12738.84324572 Ry
     Harris-Foulkes estimate   =  -12738.84422309 Ry
     estimated scf accuracy    <       0.00252632 Ry

     total magnetization       =    -0.06 Bohr mag/cell
     absolute magnetization    =     0.09 Bohr mag/cell

     iteration # 40     ecut=    80.00 Ry     beta=0.70
     Davidson diagonalization with overlap
     c_bands:  1 eigenvalues not converged
     c_bands:  1 eigenvalues not converged
     c_bands:  1 eigenvalues not converged
     c_bands:  1 eigenvalues not converged
     ethr =  1.95E-07,  avg # of iterations = 12.4

     negative rho (up, down):  3.522E-03 3.522E-03

     total cpu time spent up to now is    23209.1 secs

     total energy              =  -12738.84324688 Ry
     Harris-Foulkes estimate   =  -12738.84340983 Ry
     estimated scf accuracy    <       0.00080143 Ry

     total magnetization       =    -0.05 Bohr mag/cell
     absolute magnetization    =     0.07 Bohr mag/cell

     iteration # 41     ecut=    80.00 Ry     beta=0.70
     Davidson diagonalization with overlap
     c_bands:  1 eigenvalues not converged
     c_bands:  1 eigenvalues not converged
     ethr =  6.17E-08,  avg # of iterations = 10.2

     negative rho (up, down):  4.964E-03 4.964E-03

     total cpu time spent up to now is    23781.4 secs

     total energy              =  -12738.84344985 Ry
     Harris-Foulkes estimate   =  -12738.84333077 Ry
     estimated scf accuracy    <       0.00036307 Ry

     total magnetization       =    -0.04 Bohr mag/cell
     absolute magnetization    =     0.05 Bohr mag/cell

     iteration # 42     ecut=    80.00 Ry     beta=0.70
     Davidson diagonalization with overlap
     ethr =  2.80E-08,  avg # of iterations =  8.1

     negative rho (up, down):  1.686E-03 1.686E-03

     total cpu time spent up to now is    24303.7 secs

     total energy              =  -12738.84344766 Ry
     Harris-Foulkes estimate   =  -12738.84349481 Ry
     estimated scf accuracy    <       0.00009624 Ry

     total magnetization       =    -0.03 Bohr mag/cell
     absolute magnetization    =     0.04 Bohr mag/cell

     iteration # 43     ecut=    80.00 Ry     beta=0.70
     Davidson diagonalization with overlap
     ethr =  7.41E-09,  avg # of iterations = 10.8

     negative rho (up, down):  8.648E-04 8.650E-04

     total cpu time spent up to now is    24912.1 secs

     total energy              =  -12738.84345125 Ry
     Harris-Foulkes estimate   =  -12738.84346010 Ry
     estimated scf accuracy    <       0.00003900 Ry

     total magnetization       =    -0.02 Bohr mag/cell
     absolute magnetization    =     0.02 Bohr mag/cell

     iteration # 44     ecut=    80.00 Ry     beta=0.70
     Davidson diagonalization with overlap
     c_bands:  1 eigenvalues not converged
     c_bands:  1 eigenvalues not converged
     ethr =  3.00E-09,  avg # of iterations =  6.0

     negative rho (up, down):  1.018E-03 1.018E-03

     total cpu time spent up to now is    25377.0 secs

     total energy              =  -12738.84348336 Ry
     Harris-Foulkes estimate   =  -12738.84345582 Ry
     estimated scf accuracy    <       0.00001896 Ry

     total magnetization       =    -0.01 Bohr mag/cell
     absolute magnetization    =     0.02 Bohr mag/cell

     iteration # 45     ecut=    80.00 Ry     beta=0.70
     Davidson diagonalization with overlap
     c_bands:  2 eigenvalues not converged
     c_bands:  2 eigenvalues not converged
     ethr =  1.46E-09,  avg # of iterations =  7.8

     negative rho (up, down):  9.541E-04 9.542E-04

     total cpu time spent up to now is    25922.3 secs

     total energy              =  -12738.84348854 Ry
     Harris-Foulkes estimate   =  -12738.84348892 Ry
     estimated scf accuracy    <       0.00000730 Ry

     total magnetization       =    -0.01 Bohr mag/cell
     absolute magnetization    =     0.01 Bohr mag/cell

     iteration # 46     ecut=    80.00 Ry     beta=0.70
     Davidson diagonalization with overlap
     c_bands:  2 eigenvalues not converged
     c_bands:  3 eigenvalues not converged
     ethr =  5.62E-10,  avg # of iterations =  5.1

     negative rho (up, down):  9.886E-04 9.887E-04

     total cpu time spent up to now is    26360.1 secs

     total energy              =  -12738.84349059 Ry
     Harris-Foulkes estimate   =  -12738.84348920 Ry
     estimated scf accuracy    <       0.00000118 Ry

     total magnetization       =    -0.00 Bohr mag/cell
     absolute magnetization    =     0.01 Bohr mag/cell

     iteration # 47     ecut=    80.00 Ry     beta=0.70
     Davidson diagonalization with overlap
     c_bands:  1 eigenvalues not converged
     ethr =  9.12E-11,  avg # of iterations =  5.5

     negative rho (up, down):  1.069E-03 1.069E-03

     total cpu time spent up to now is    26824.9 secs

     total energy              =  -12738.84349256 Ry
     Harris-Foulkes estimate   =  -12738.84349082 Ry
     estimated scf accuracy    <       0.00000052 Ry

     total magnetization       =    -0.00 Bohr mag/cell
     absolute magnetization    =     0.00 Bohr mag/cell

     iteration # 48     ecut=    80.00 Ry     beta=0.70
     Davidson diagonalization with overlap
     c_bands:  1 eigenvalues not converged
     ethr =  3.98E-11,  avg # of iterations =  4.8

     negative rho (up, down):  1.071E-03 1.071E-03

     total cpu time spent up to now is    27296.2 secs

     total energy              =  -12738.84349294 Ry
     Harris-Foulkes estimate   =  -12738.84349280 Ry
     estimated scf accuracy    <       0.00000019 Ry

     total magnetization       =    -0.00 Bohr mag/cell
     absolute magnetization    =     0.00 Bohr mag/cell

     iteration # 49     ecut=    80.00 Ry     beta=0.70
     Davidson diagonalization with overlap
     ethr =  1.47E-11,  avg # of iterations =  2.5

     negative rho (up, down):  1.066E-03 1.066E-03

     total cpu time spent up to now is    27682.6 secs

     total energy              =  -12738.84349302 Ry
     Harris-Foulkes estimate   =  -12738.84349297 Ry
     estimated scf accuracy    <       0.00000009 Ry

     total magnetization       =    -0.00 Bohr mag/cell
     absolute magnetization    =     0.00 Bohr mag/cell

     iteration # 50     ecut=    80.00 Ry     beta=0.70
     Davidson diagonalization with overlap
     ethr =  7.08E-12,  avg # of iterations =  3.0

     negative rho (up, down):  1.060E-03 1.060E-03

     total cpu time spent up to now is    28083.7 secs

     total energy              =  -12738.84349305 Ry
     Harris-Foulkes estimate   =  -12738.84349304 Ry
     estimated scf accuracy    <       0.00000004 Ry

     total magnetization       =    -0.00 Bohr mag/cell
     absolute magnetization    =     0.00 Bohr mag/cell

     iteration # 51     ecut=    80.00 Ry     beta=0.70
     Davidson diagonalization with overlap
     ethr =  3.35E-12,  avg # of iterations =  3.3

     negative rho (up, down):  1.043E-03 1.043E-03

     total cpu time spent up to now is    28500.8 secs

     total energy              =  -12738.84349292 Ry
     Harris-Foulkes estimate   =  -12738.84349307 Ry
     estimated scf accuracy    <       0.00000002 Ry

     total magnetization       =    -0.00 Bohr mag/cell
     absolute magnetization    =     0.00 Bohr mag/cell

     iteration # 52     ecut=    80.00 Ry     beta=0.70
     Davidson diagonalization with overlap
     ethr =  1.44E-12,  avg # of iterations =  3.2

     negative rho (up, down):  1.041E-03 1.041E-03

     total cpu time spent up to now is    28916.6 secs

     total energy              =  -12738.84349290 Ry
     Harris-Foulkes estimate   =  -12738.84349293 Ry
     estimated scf accuracy    <       0.00000001 Ry

     total magnetization       =    -0.00 Bohr mag/cell
     absolute magnetization    =     0.00 Bohr mag/cell

     iteration # 53     ecut=    80.00 Ry     beta=0.70
     Davidson diagonalization with overlap
     ethr =  7.82E-13,  avg # of iterations =  2.5

     negative rho (up, down):  1.039E-03 1.039E-03
 
     Magnetic moment per site:
     atom:    1    charge:    9.5915    magn:   -0.0000    constr:    0.0000
     atom:    2    charge:    9.5920    magn:   -0.0000    constr:    0.0000
     atom:    3    charge:    9.5915    magn:   -0.0000    constr:    0.0000
     atom:    4    charge:    9.5920    magn:   -0.0000    constr:    0.0000
     atom:    5    charge:    9.5926    magn:   -0.0000    constr:    0.0000
     atom:    6    charge:    9.5925    magn:   -0.0000    constr:    0.0000
     atom:    7    charge:    9.5926    magn:   -0.0000    constr:    0.0000
     atom:    8    charge:    9.5926    magn:   -0.0000    constr:    0.0000
     atom:    9    charge:    9.5924    magn:    0.0000    constr:    0.0000
     atom:   10    charge:    9.5926    magn:   -0.0000    constr:    0.0000
     atom:   11    charge:    9.5925    magn:    0.0000    constr:    0.0000
     atom:   12    charge:    9.5926    magn:   -0.0000    constr:    0.0000
     atom:   13    charge:    9.5927    magn:   -0.0000    constr:    0.0000
     atom:   14    charge:    9.5923    magn:   -0.0000    constr:    0.0000
     atom:   15    charge:    9.5928    magn:   -0.0000    constr:    0.0000
     atom:   16    charge:    9.5925    magn:    0.0000    constr:    0.0000
     atom:   17    charge:    9.5917    magn:   -0.0000    constr:    0.0000
     atom:   18    charge:    9.5911    magn:   -0.0000    constr:    0.0000
     atom:   19    charge:    9.5919    magn:   -0.0000    constr:    0.0000
     atom:   20    charge:    9.5912    magn:   -0.0000    constr:    0.0000
     atom:   21    charge:    9.6679    magn:    0.0000    constr:    0.0000
     atom:   22    charge:    9.6683    magn:    0.0000    constr:    0.0000
     atom:   23    charge:    9.6680    magn:    0.0000    constr:    0.0000
     atom:   24    charge:    9.6684    magn:    0.0000    constr:    0.0000
     atom:   25    charge:    9.6682    magn:   -0.0000    constr:    0.0000
     atom:   26    charge:    9.6680    magn:    0.0000    constr:    0.0000
     atom:   27    charge:    9.6684    magn:   -0.0000    constr:    0.0000
     atom:   28    charge:    9.6680    magn:    0.0000    constr:    0.0000
     atom:   29    charge:    9.6687    magn:   -0.0000    constr:    0.0000
     atom:   30    charge:    9.6688    magn:    0.0000    constr:    0.0000
     atom:   31    charge:    9.6687    magn:   -0.0000    constr:    0.0000
     atom:   32    charge:    9.6688    magn:   -0.0000    constr:    0.0000
     atom:   33    charge:    9.6678    magn:    0.0000    constr:    0.0000
     atom:   34    charge:    9.6682    magn:    0.0000    constr:    0.0000
     atom:   35    charge:    9.6677    magn:    0.0000    constr:    0.0000
     atom:   36    charge:    9.6683    magn:   -0.0000    constr:    0.0000
     atom:   37    charge:    9.6683    magn:    0.0000    constr:    0.0000
     atom:   38    charge:    9.6681    magn:    0.0000    constr:    0.0000
     atom:   39    charge:    9.6683    magn:    0.0000    constr:    0.0000
     atom:   40    charge:    9.6681    magn:    0.0000    constr:    0.0000
     atom:   41    charge:    9.6705    magn:   -0.0000    constr:    0.0000
     atom:   42    charge:    9.6699    magn:   -0.0000    constr:    0.0000
     atom:   43    charge:    9.6708    magn:   -0.0000    constr:    0.0000
     atom:   44    charge:    9.6699    magn:   -0.0000    constr:    0.0000
     atom:   45    charge:    9.6697    magn:    0.0000    constr:    0.0000
     atom:   46    charge:    9.6694    magn:   -0.0000    constr:    0.0000
     atom:   47    charge:    9.6694    magn:    0.0000    constr:    0.0000
     atom:   48    charge:    9.6695    magn:   -0.0000    constr:    0.0000
     atom:   49    charge:    9.6696    magn:    0.0000    constr:    0.0000
     atom:   50    charge:    9.6696    magn:   -0.0000    constr:    0.0000
     atom:   51    charge:    9.6699    magn:   -0.0000    constr:    0.0000
     atom:   52    charge:    9.6698    magn:   -0.0000    constr:    0.0000
     atom:   53    charge:    9.6692    magn:    0.0000    constr:    0.0000
     atom:   54    charge:    9.6693    magn:   -0.0000    constr:    0.0000
     atom:   55    charge:    9.6691    magn:   -0.0000    constr:    0.0000
     atom:   56    charge:    9.6693    magn:   -0.0000    constr:    0.0000
     atom:   57    charge:    9.6704    magn:   -0.0000    constr:    0.0000
     atom:   58    charge:    9.6708    magn:   -0.0000    constr:    0.0000
     atom:   59    charge:    9.6703    magn:   -0.0000    constr:    0.0000
     atom:   60    charge:    9.6707    magn:   -0.0000    constr:    0.0000
     atom:   61    charge:    9.6745    magn:    0.0000    constr:    0.0000
     atom:   62    charge:    9.6735    magn:   -0.0000    constr:    0.0000
     atom:   63    charge:    9.6738    magn:   -0.0000    constr:    0.0000
     atom:   64    charge:    9.6734    magn:    0.0000    constr:    0.0000
     atom:   65    charge:    9.6723    magn:    0.0000    constr:    0.0000
     atom:   66    charge:    9.6729    magn:    0.0000    constr:    0.0000
     atom:   67    charge:    9.6707    magn:    0.0000    constr:    0.0000
     atom:   68    charge:    9.6731    magn:    0.0000    constr:    0.0000
     atom:   69    charge:    9.6706    magn:    0.0000    constr:    0.0000
     atom:   70    charge:    9.6703    magn:    0.0000    constr:    0.0000
     atom:   71    charge:    9.6706    magn:    0.0000    constr:    0.0000
     atom:   72    charge:    9.6705    magn:   -0.0000    constr:    0.0000
     atom:   73    charge:    9.6729    magn:   -0.0000    constr:    0.0000
     atom:   74    charge:    9.6721    magn:    0.0000    constr:    0.0000
     atom:   75    charge:    9.6739    magn:   -0.0000    constr:    0.0000
     atom:   76    charge:    9.6721    magn:    0.0000    constr:    0.0000
     atom:   77    charge:    9.6730    magn:   -0.0000    constr:    0.0000
     atom:   78    charge:    9.6732    magn:   -0.0000    constr:    0.0000
     atom:   79    charge:    9.6729    magn:   -0.0000    constr:    0.0000
     atom:   80    charge:    9.6732    magn:    0.0000    constr:    0.0000
     atom:   81    charge:    9.6085    magn:    0.0000    constr:    0.0000
     atom:   82    charge:    9.6106    magn:    0.0000    constr:    0.0000
     atom:   83    charge:    9.6057    magn:   -0.0000    constr:    0.0000
     atom:   84    charge:    9.6108    magn:    0.0000    constr:    0.0000
     atom:   85    charge:    9.6115    magn:    0.0000    constr:    0.0000
     atom:   86    charge:    9.6054    magn:   -0.0000    constr:    0.0000
     atom:   87    charge:    9.6111    magn:   -0.0000    constr:    0.0000
     atom:   88    charge:    9.6063    magn:   -0.0000    constr:    0.0000
     atom:   89    charge:    9.6061    magn:   -0.0000    constr:    0.0000
     atom:   90    charge:    9.6077    magn:   -0.0000    constr:    0.0000
     atom:   91    charge:    9.5997    magn:    0.0000    constr:    0.0000
     atom:   92    charge:    9.6031    magn:   -0.0000    constr:    0.0000
     atom:   93    charge:    9.6089    magn:    0.0000    constr:    0.0000
     atom:   94    charge:    9.6116    magn:    0.0000    constr:    0.0000
     atom:   95    charge:    9.6127    magn:   -0.0000    constr:    0.0000
     atom:   96    charge:    9.6112    magn:    0.0000    constr:    0.0000
     atom:   97    charge:    9.6071    magn:    0.0000    constr:    0.0000
     atom:   98    charge:    9.6070    magn:   -0.0000    constr:    0.0000
     atom:   99    charge:    9.6087    magn:   -0.0000    constr:    0.0000
     atom:  100    charge:    9.6067    magn:   -0.0000    constr:    0.0000
     atom:  101    charge:    1.6832    magn:    0.0000    constr:    0.0000
     atom:  102    charge:    1.6854    magn:   -0.0000    constr:    0.0000
     atom:  103    charge:    1.6814    magn:   -0.0000    constr:    0.0000
     atom:  104    charge:    1.6817    magn:    0.0000    constr:    0.0000
     atom:  105    charge:    1.6803    magn:    0.0000    constr:    0.0000
     atom:  106    charge:    1.6794    magn:   -0.0000    constr:    0.0000
     atom:  107    charge:    1.6821    magn:   -0.0000    constr:    0.0000
     atom:  108    charge:    1.6790    magn:    0.0000    constr:    0.0000
     atom:  109    charge:    1.6802    magn:    0.0000    constr:    0.0000
     atom:  110    charge:    1.6795    magn:   -0.0000    constr:    0.0000
     atom:  111    charge:    1.6810    magn:   -0.0000    constr:    0.0000
     atom:  112    charge:    1.6817    magn:    0.0000    constr:    0.0000
     atom:  113    charge:    1.6839    magn:    0.0000    constr:    0.0000
     atom:  114    charge:    1.6796    magn:   -0.0000    constr:    0.0000
     atom:  115    charge:    1.6813    magn:   -0.0000    constr:    0.0000
     atom:  116    charge:    1.6808    magn:    0.0000    constr:    0.0000
     atom:  117    charge:    1.6803    magn:    0.0000    constr:    0.0000
     atom:  118    charge:    1.6667    magn:   -0.0000    constr:    0.0000
     atom:  119    charge:    1.6792    magn:   -0.0000    constr:    0.0000
     atom:  120    charge:    1.6321    magn:    0.0000    constr:    0.0000
     atom:  121    charge:    3.6979    magn:   -0.0001    constr:    0.0000
     atom:  122    charge:    1.6799    magn:    0.0000    constr:    0.0000
     atom:  123    charge:    1.6663    magn:   -0.0000    constr:    0.0000
     atom:  124    charge:    1.6811    magn:   -0.0000    constr:    0.0000
     atom:  125    charge:    1.6802    magn:    0.0000    constr:    0.0000
     atom:  126    charge:    1.6779    magn:   -0.0000    constr:    0.0000
     atom:  127    charge:    1.6782    magn:    0.0000    constr:    0.0000
     atom:  128    charge:    1.6473    magn:   -0.0000    constr:    0.0000
     atom:  129    charge:    1.6787    magn:    0.0000    constr:    0.0000
     atom:  130    charge:    2.5913    magn:    0.0000    constr:    0.0000
     atom:  131    charge:    1.6522    magn:   -0.0000    constr:    0.0000
     atom:  132    charge:    1.6407    magn:   -0.0000    constr:    0.0000
     atom:  133    charge:    1.6837    magn:    0.0000    constr:    0.0000
     atom:  134    charge:    1.6812    magn:   -0.0000    constr:    0.0000
     atom:  135    charge:    1.6805    magn:    0.0000    constr:    0.0000
     atom:  136    charge:    1.6740    magn:    0.0000    constr:    0.0000
     atom:  137    charge:    1.6782    magn:   -0.0000    constr:    0.0000
     atom:  138    charge:    1.6810    magn:    0.0000    constr:    0.0000
     atom:  139    charge:    1.6828    magn:   -0.0000    constr:    0.0000
     atom:  140    charge:    1.6796    magn:   -0.0000    constr:    0.0000
     atom:  141    charge:    1.6805    magn:    0.0000    constr:    0.0000
     atom:  142    charge:    1.6814    magn:    0.0000    constr:    0.0000
     atom:  143    charge:    1.6810    magn:   -0.0000    constr:    0.0000
     atom:  144    charge:    1.6834    magn:   -0.0000    constr:    0.0000
     atom:  145    charge:    1.6822    magn:    0.0000    constr:    0.0000
     atom:  146    charge:    1.6811    magn:    0.0000    constr:    0.0000
     atom:  147    charge:    1.6806    magn:   -0.0000    constr:    0.0000
     atom:  148    charge:    1.6801    magn:   -0.0000    constr:    0.0000
     atom:  149    charge:    1.6801    magn:    0.0000    constr:    0.0000

     total cpu time spent up to now is    29289.2 secs

     End of self-consistent calculation

 ------ SPIN UP ------------


          k = 0.0000 0.0000 0.0000 (256287 PWs)   bands (ev):

   -17.4543 -16.6263 -16.3345 -15.9185 -15.4500 -14.9827 -14.8071 -14.5339
   -14.3529 -14.2681 -14.1931 -13.9667 -13.4693 -13.3055 -13.2098 -13.1857
   -13.1296 -12.6726 -11.6797 -11.5759 -11.5256 -11.3439 -11.0525 -10.3716
    -9.8020  -9.7889  -9.6696  -9.4492  -9.0539  -8.8266  -8.7036  -8.5776
    -8.0639  -7.9594  -7.8018  -7.6967  -7.6081  -7.6020  -7.5892  -7.5142
    -6.4170  -6.3999  -6.1654  -6.1558  -6.0726  -5.9941  -5.9038  -5.8946
    -5.8893  -5.6283  -5.6183  -5.3323  -4.9952  -4.9151  -4.8329  -4.7285
    -4.6966  -4.6954  -4.4922  -4.3640  -4.2155  -4.1259  -4.1229  -4.0296
    -3.9780  -3.7524  -3.6306  -3.6031  -3.5551  -3.5437  -3.5292  -3.4889
    -3.4269  -3.3653  -3.3022  -3.2307  -3.1813  -3.1485  -3.1442  -3.1403
    -3.1266  -3.0837  -2.9548  -2.9304  -2.9222  -2.8696  -2.8671  -2.8487
    -2.8352  -2.7828  -2.7609  -2.6519  -2.5409  -2.5134  -2.5100  -2.4650
    -2.4576  -2.3298  -2.3276  -2.3115  -2.2881  -2.2871  -2.2864  -2.2860
    -2.2788  -2.2605  -2.2311  -2.1996  -2.1583  -2.1582  -2.1538  -2.1537
    -2.0893  -2.0284  -1.9748  -1.9121  -1.8929  -1.8774  -1.8730  -1.8719
    -1.8477  -1.8247  -1.8072  -1.7947  -1.7934  -1.7856  -1.7397  -1.7282
    -1.7192  -1.6984  -1.6968  -1.6891  -1.6866  -1.6725  -1.6588  -1.6505
    -1.6484  -1.6432  -1.6263  -1.5777  -1.5660  -1.5508  -1.5401  -1.5172
    -1.5110  -1.4954  -1.4874  -1.4336  -1.4199  -1.3987  -1.3972  -1.3856
    -1.3466  -1.3453  -1.3274  -1.3267  -1.3233  -1.3019  -1.2979  -1.2825
    -1.2550  -1.2462  -1.2262  -1.1851  -1.1817  -1.1759  -1.1661  -1.1640
    -1.1577  -1.1571  -1.1561  -1.1540  -1.1510  -1.1499  -1.1366  -1.1335
    -1.1187  -1.0960  -1.0873  -1.0742  -1.0672  -1.0639  -1.0546  -1.0542
    -1.0515  -1.0279  -0.9980  -0.9948  -0.9915  -0.9907  -0.9904  -0.9899
    -0.9886  -0.9856  -0.9844  -0.9830  -0.9825  -0.9823  -0.9788  -0.9769
    -0.9763  -0.9718  -0.9602  -0.9596  -0.9272  -0.9182  -0.8953  -0.8250
    -0.8246  -0.8180  -0.8179  -0.7958  -0.7955  -0.7770  -0.7768  -0.7558
    -0.7547  -0.7473  -0.7436  -0.7351  -0.7340  -0.7229  -0.7052  -0.6995
    -0.6944  -0.6941  -0.6908  -0.6886  -0.6884  -0.6775  -0.6766  -0.6279
    -0.6275  -0.5738  -0.5737  -0.5639  -0.5634  -0.5603  -0.5582  -0.5529
    -0.5439  -0.5421  -0.5395  -0.5383  -0.5378  -0.5355  -0.5354  -0.5352
    -0.5195  -0.5194  -0.5128  -0.5096  -0.5049  -0.4865  -0.4862  -0.4371
    -0.4339  -0.4316  -0.4256  -0.4254  -0.4067  -0.3999  -0.3998  -0.3963
    -0.3961  -0.3829  -0.3818  -0.3769  -0.3767  -0.3692  -0.3568  -0.3545
    -0.3528  -0.3492  -0.3479  -0.3476  -0.3466  -0.3458  -0.3438  -0.3389
    -0.3254  -0.3250  -0.3212  -0.3209  -0.3039  -0.2841  -0.2558  -0.2530
    -0.2526  -0.2491  -0.2478  -0.2075  -0.2049  -0.2046  -0.2037  -0.2005
    -0.1968  -0.1958  -0.1956  -0.1949  -0.1884  -0.1767  -0.1614  -0.1515
    -0.1441  -0.1435  -0.1389  -0.1373  -0.1343  -0.1156  -0.1150  -0.1098
    -0.1078  -0.1057  -0.1008  -0.0905  -0.0886  -0.0875  -0.0871  -0.0861
    -0.0811  -0.0711  -0.0708  -0.0700  -0.0698  -0.0612  -0.0567  -0.0539
    -0.0497  -0.0317  -0.0297   0.0005   0.0015   0.0160   0.0322   0.0362
     0.0546   0.0645   0.0724   0.0978   0.0993   0.1006   0.1084   0.1105
     0.1126   0.1356   0.1369   0.1385   0.1388   0.1394   0.1458   0.1478
     0.1479   0.1934   0.2074   0.2079   0.2082   0.2139   0.2154   0.2172
     0.2425   0.2462   0.2482   0.2500   0.2515   0.2660   0.2695   0.2837
     0.2852   0.2899   0.2957   0.3045   0.3067   0.3078   0.3154   0.3452
     0.3501   0.3587   0.3599   0.3633   0.3659   0.3666   0.3727   0.3880
     0.3892   0.3943   0.3989   0.4002   0.4011   0.4023   0.4057   0.4063
     0.4095   0.4141   0.4172   0.4224   0.4243   0.4261   0.4319   0.4334
     0.4615   0.4724   0.4727   0.4754   0.4861   0.4987   0.5134   0.5138
     0.5166   0.5199   0.5201   0.5209   0.5222   0.5240   0.5266   0.5358
     0.5404   0.5442   0.5465   0.5477   0.5541   0.5543   0.5623   0.5670
     0.5688   0.5771   0.5868   0.5886   0.5921   0.5972   0.6025   0.6043
     0.6082   0.6147   0.6161   0.6161   0.6192   0.6217   0.6228   0.6256
     0.6334   0.6412   0.6535   0.6721   0.6729   0.6852   0.6884   0.6885
     0.6895   0.6904   0.6907   0.7218   0.7225   0.7372   0.7386   0.7429
     0.7431   0.7563   0.7567   0.7656   0.7670   0.7685   0.7689   0.7742
     0.7855   0.8023   0.8052   0.8059   0.8073   0.8091   0.8097   0.8244
     0.8300   0.8424   0.8426   0.8506   0.8526   0.8537   0.8639   0.8739
     0.8778   0.8783   0.8791   0.8803   0.8810   0.8828   0.8866   0.8926
     0.8932   0.8950   0.8951   0.8958   0.9119   0.9123   0.9231   0.9280
     0.9296   0.9344   0.9361   0.9420   0.9649   0.9693   0.9699   0.9737
     0.9770   0.9797   0.9804   0.9840   0.9855   0.9867   0.9878   0.9888
     0.9894   0.9910   1.0028   1.0033   1.0176   1.0449   1.0501   1.0560
     1.0649   1.0667   1.0693   1.0704   1.0712   1.0742   1.0759   1.0824
     1.0913   1.0988   1.1029   1.1046   1.1063   1.1070   1.1099   1.1102
     1.1116   1.1124   1.1213   1.1390   1.1398   1.1408   1.1410   1.1427
     1.1442   1.1446   1.1467   1.1596   1.1604   1.1609   1.1620   1.1675
     1.1770   1.1772   1.1782   1.1788   1.1813   1.1859   1.1922   1.1967
     1.2110   1.2120   1.2196   1.2204   1.2214   1.2227   1.2280   1.2322
     1.2455   1.2485   1.2546   1.2555   1.2581   1.2694   1.2809   1.2810
     1.2819   1.2888   1.2907   1.2913   1.2966   1.3008   1.3013   1.3016
     1.3019   1.3047   1.3049   1.3060   1.3173   1.3175   1.3185   1.3318
     1.3334   1.3339   1.3354   1.3356   1.3465   1.3503   1.3543   1.3691
     1.3802   1.3882   1.3885   1.4233   1.4243   1.4299   1.4330   1.4464
     1.4476   1.4506   1.4519   1.4560   1.4725   1.4954   1.4995   1.5008
     1.5022   1.5037   1.5095   1.5110   1.5118   1.7610   1.8234   1.8397
     1.9172   1.9828   1.9932   1.9993   2.0357   2.0542   2.0723   2.0749
     2.0758   2.0832   2.0901   2.0963   2.1163   2.1343   2.2816   2.2840
     2.3331   2.3450   2.3474   2.3548   2.3567   2.3695   2.5655   2.5945
     2.5987   2.6119   2.7487   3.0206   3.0266   3.0820   3.4051   3.4094
     3.5762   3.6876   3.6982   3.7184   3.7293   3.7335   3.7541   3.8043
     3.8319   3.8704   3.8755   3.8789   3.8867   3.8932   3.9017   3.9055
     3.9235   4.1247   4.1366   4.1450   4.1656   4.3398   4.5091   4.6204
     4.6352   4.7935   4.8506   5.1691   5.2822   5.3091   5.3442   5.4513
     5.5967   5.6111   5.6237   5.6456   5.7938   5.8007   6.1433   6.2541
     6.2648   6.2778   6.3020   6.3681   6.3752   6.3825   6.3903   6.4956
     6.5379   6.5799   6.6038   6.6776   6.6806   6.7099   6.7439   6.8591
     6.9238   6.9280   6.9765   6.9923   7.0127   7.2242   7.2316   7.4613
     7.4732   7.4784   7.5752   7.5800   7.5868   7.6079   7.7144   7.9861
     8.0686   8.1194   8.1658   8.2039   8.2053   8.2144   8.2350   8.2369
     8.2731   8.2776   8.2967   8.3052   8.3632   8.4266   8.4529   8.4771
     8.5042   8.5566   8.5598   8.5666   8.5774   8.7135   8.7141   8.7326
     8.7388   8.7999   8.8164   8.9667   9.0067   9.0167   9.0195   9.0221
     9.0293   9.1246   9.2120   9.2205   9.2675   9.2823   9.4493   9.4513
     9.6968   9.7041   9.7318   9.7592   9.7637   9.8460   9.8694   9.9104
     9.9111  10.0437  10.0549

          k = 0.0000-0.2165 0.0000 (256176 PWs)   bands (ev):

   -17.4539 -16.6459 -16.2784 -15.9587 -15.4695 -15.0901 -14.5883 -14.4445
   -14.3973 -14.3095 -14.0624 -13.9086 -13.8263 -13.7661 -13.3747 -12.6115
   -12.4626 -12.4300 -12.2700 -12.1540 -11.8346 -10.6775 -10.6108 -10.5503
   -10.2784  -9.4846  -9.4431  -9.2872  -9.1423  -9.0720  -8.9331  -8.4769
    -8.3419  -8.2314  -8.1388  -7.5225  -7.3561  -7.0609  -7.0331  -6.9760
    -6.9253  -6.8776  -6.8416  -6.2350  -6.1185  -6.0231  -6.0196  -5.5726
    -5.4334  -5.3265  -5.2507  -5.1954  -5.0923  -4.9798  -4.9753  -4.9724
    -4.8127  -4.7364  -4.6766  -4.6691  -4.5621  -4.2754  -4.1312  -3.8682
    -3.8376  -3.6974  -3.6489  -3.4527  -3.4408  -3.4400  -3.4366  -3.3302
    -3.3229  -3.2132  -3.2000  -3.1842  -3.1668  -3.1637  -3.1435  -3.0739
    -2.9894  -2.9618  -2.9573  -2.9212  -2.8995  -2.8454  -2.7813  -2.7702
    -2.7419  -2.7157  -2.7145  -2.7143  -2.7118  -2.7105  -2.6425  -2.5738
    -2.4909  -2.4526  -2.4209  -2.3772  -2.3686  -2.3655  -2.3450  -2.2838
    -2.2819  -2.2809  -2.2785  -2.1993  -2.1604  -2.1216  -2.1215  -2.0955
    -2.0954  -2.0108  -1.9978  -1.9885  -1.9792  -1.9331  -1.9118  -1.9018
    -1.8998  -1.8854  -1.8846  -1.8760  -1.8759  -1.8597  -1.8547  -1.7826
    -1.7770  -1.7612  -1.7587  -1.7318  -1.6900  -1.6099  -1.6010  -1.5955
    -1.5931  -1.5869  -1.5213  -1.5180  -1.5063  -1.5047  -1.4521  -1.4504
    -1.4207  -1.4152  -1.4129  -1.4099  -1.4090  -1.4078  -1.4038  -1.3914
    -1.3796  -1.3683  -1.3608  -1.3600  -1.3577  -1.3484  -1.3446  -1.3141
    -1.2959  -1.2794  -1.2701  -1.2676  -1.2482  -1.2230  -1.2228  -1.1851
    -1.1850  -1.1819  -1.1818  -1.1446  -1.1409  -1.1215  -1.1209  -1.1184
    -1.1154  -1.1137  -1.1127  -1.0782  -1.0634  -1.0619  -1.0541  -1.0536
    -1.0452  -1.0450  -1.0345  -1.0290  -1.0286  -1.0188  -0.9655  -0.9629
    -0.9602  -0.9541  -0.9536  -0.9472  -0.9462  -0.9324  -0.9318  -0.9237
    -0.9146  -0.9076  -0.8902  -0.8899  -0.8836  -0.8763  -0.7933  -0.7931
    -0.7847  -0.7846  -0.7726  -0.7674  -0.7673  -0.7432  -0.7406  -0.7389
    -0.7384  -0.7352  -0.7352  -0.7125  -0.7086  -0.6799  -0.6780  -0.6767
    -0.6759  -0.6756  -0.6744  -0.6701  -0.6690  -0.6596  -0.6395  -0.6388
    -0.6216  -0.6176  -0.6176  -0.6125  -0.5839  -0.5832  -0.5815  -0.5787
    -0.5749  -0.5718  -0.5670  -0.5669  -0.5562  -0.5168  -0.4970  -0.4966
    -0.4866  -0.4863  -0.4622  -0.4602  -0.4410  -0.4374  -0.4367  -0.4323
    -0.4314  -0.4285  -0.4219  -0.4094  -0.4060  -0.4011  -0.3995  -0.3966
    -0.3894  -0.3856  -0.3844  -0.3806  -0.3787  -0.3782  -0.3781  -0.3763
    -0.3741  -0.3700  -0.3662  -0.3422  -0.3413  -0.3376  -0.3372  -0.3269
    -0.2812  -0.2759  -0.2745  -0.2733  -0.2669  -0.2665  -0.2612  -0.2594
    -0.2589  -0.2499  -0.2362  -0.2305  -0.2271  -0.2226  -0.2222  -0.2168
    -0.2131  -0.2122  -0.2107  -0.2092  -0.2087  -0.2064  -0.1903  -0.1641
    -0.1521  -0.1516  -0.1510  -0.1478  -0.1393  -0.1284  -0.1274  -0.1269
    -0.1245  -0.1200  -0.1184  -0.1082  -0.1072  -0.1009  -0.0981  -0.0936
    -0.0799  -0.0736  -0.0732  -0.0586  -0.0584  -0.0570  -0.0564  -0.0400
    -0.0378  -0.0231  -0.0229  -0.0139  -0.0123  -0.0016   0.0001   0.0014
     0.0018   0.0411   0.0412   0.0520   0.0529   0.0596   0.0666   0.0673
     0.0675   0.0936   0.0946   0.1238   0.1294   0.1328   0.1345   0.1590
     0.1740   0.1899   0.2040   0.2345   0.2479   0.2482   0.2558   0.2562
     0.2754   0.2765   0.2766   0.2777   0.2874   0.3073   0.3158   0.3174
     0.3185   0.3196   0.3216   0.3228   0.3244   0.3248   0.3269   0.3394
     0.3424   0.3434   0.3443   0.3475   0.3507   0.3525   0.3544   0.3806
     0.3822   0.3836   0.3933   0.3936   0.3942   0.3946   0.4034   0.4034
     0.4200   0.4208   0.4215   0.4242   0.4250   0.4265   0.4274   0.4287
     0.4367   0.4433   0.4450   0.4458   0.4494   0.4501   0.4512   0.4545
     0.4556   0.4642   0.4730   0.5117   0.5124   0.5232   0.5235   0.5273
     0.5323   0.5336   0.5345   0.5385   0.5398   0.5415   0.5469   0.5491
     0.5494   0.5504   0.5526   0.5843   0.5905   0.5913   0.5914   0.5943
     0.6043   0.6083   0.6088   0.6090   0.6105   0.6271   0.6311   0.6399
     0.6402   0.6420   0.6466   0.6492   0.6501   0.6998   0.7011   0.7471
     0.7507   0.7531   0.7553   0.7578   0.7597   0.7648   0.7706   0.7750
     0.7764   0.7779   0.7830   0.7833   0.7873   0.7895   0.7906   0.7910
     0.8008   0.8058   0.8074   0.8085   0.8091   0.8130   0.8226   0.8276
     0.8326   0.8339   0.8340   0.8340   0.8344   0.8366   0.8395   0.8431
     0.8511   0.8567   0.8569   0.8574   0.8603   0.8616   0.8622   0.8744
     0.8782   0.8810   0.8875   0.8907   0.8928   0.8963   0.8969   0.9043
     0.9047   0.9052   0.9054   0.9061   0.9084   0.9460   0.9558   0.9662
     0.9869   0.9938   0.9941   1.0042   1.0104   1.0138   1.0165   1.0186
     1.0211   1.0357   1.0374   1.0462   1.0473   1.0536   1.0576   1.0586
     1.0604   1.0648   1.0660   1.0674   1.0683   1.0686   1.0686   1.0699
     1.0714   1.0765   1.0769   1.0839   1.0894   1.0962   1.0984   1.0996
     1.1018   1.1061   1.1069   1.1224   1.1345   1.1349   1.1372   1.1420
     1.1432   1.1440   1.1459   1.1546   1.1616   1.1659   1.1666   1.1690
     1.1772   1.1779   1.1797   1.1801   1.1821   1.1955   1.1967   1.1990
     1.2002   1.2055   1.2155   1.2156   1.2193   1.2373   1.2412   1.2443
     1.2457   1.2468   1.2477   1.2573   1.2590   1.2614   1.2616   1.2674
     1.2780   1.2781   1.2913   1.2927   1.2930   1.2934   1.3118   1.3131
     1.3138   1.3151   1.3173   1.3175   1.3188   1.3192   1.3451   1.3464
     1.3545   1.3549   1.3582   1.3656   1.3720   1.3852   1.3854   1.3862
     1.3884   1.3907   1.4003   1.4034   1.4055   1.4115   1.4526   1.4564
     1.4584   1.4638   1.5575   1.5599   1.5687   1.5854   1.5918   1.5962
     1.6022   1.6287   1.6506   1.6538   1.6579   1.6648   1.6727   1.6808
     1.6825   1.6971   1.7183   1.7227   1.7518   1.8180   1.9156   2.1551
     2.2483   2.2860   2.2943   2.2994   2.3160   2.3641   2.3666   2.4250
     2.4366   2.4433   2.4456   2.4568   2.4722   2.5731   2.5768   2.6358
     2.6453   2.6516   2.6610   2.7850   2.7901   2.8258   3.0376   3.0376
     3.0555   3.0961   3.3048   3.3373   3.5367   3.5476   3.6828   3.8638
     3.8818   3.9612   3.9798   4.0125   4.0264   4.1997   4.2120   4.2132
     4.2154   4.3786   4.3848   4.5300   4.5903   4.6246   4.6756   4.7337
     4.9326   4.9676   4.9756   5.0198   5.2210   5.2289   5.2307   5.2328
     5.2706   5.3214   5.4499   5.5336   5.6048   5.6955   5.7134   6.2096
     6.3139   6.3142   6.3299   6.3486   6.3504   6.3897   6.4329   6.5156
     6.5369   6.5400   6.7108   6.7184   6.8848   6.8996   6.9128   6.9485
     6.9567   6.9743   6.9921   7.0084   7.0162   7.0340   7.1675   7.2333
     7.2512   7.2986   7.3066   7.3899   7.4727   7.6886   7.7258   7.7428
     8.0181   8.0203   8.0303   8.0808   8.2125   8.2296   8.2908   8.3481
     8.3543   8.3833   8.3910   8.3987   8.4369   8.5725   8.5790   8.5873
     8.5913   8.5995   8.6319   8.6386   8.8080   8.8245   8.8617   8.8816
     8.9028   8.9821   9.0341   9.0451   9.0568   9.1509   9.1597   9.2450
     9.2466   9.2640   9.2673   9.3422   9.3882   9.3943   9.4160   9.4183
     9.4295   9.4486   9.5016   9.5590   9.5685   9.6537   9.6558   9.7560
     9.7565   9.8135  10.1186

          k = 0.2500 0.0000 0.0000 (256240 PWs)   bands (ev):

   -17.4116 -16.6055 -16.2221 -15.8834 -15.5860 -15.2283 -15.0370 -14.9823
   -14.6291 -14.1399 -13.8741 -13.6872 -13.3108 -13.2105 -13.1153 -12.8505
   -12.3785 -12.2639 -12.2039 -11.9122 -11.2170 -11.0391 -10.8387 -10.7529
   -10.3753 -10.2349  -9.9585  -9.8358  -9.5204  -9.3193  -9.1418  -8.7145
    -8.0295  -7.8161  -7.7259  -7.6208  -7.5711  -7.4721  -7.1182  -7.0013
    -6.3761  -6.2657  -6.1038  -6.0211  -5.9761  -5.9443  -5.5088  -5.4599
    -5.4452  -5.3426  -5.1843  -4.9788  -4.8365  -4.6949  -4.6062  -4.5923
    -4.5764  -4.5524  -4.5043  -4.4259  -4.2788  -4.2477  -4.1372  -4.1336
    -4.0709  -3.9874  -3.9773  -3.9740  -3.9125  -3.8391  -3.7154  -3.6696
    -3.6490  -3.5994  -3.5595  -3.4973  -3.4775  -3.3802  -3.3578  -3.3246
    -3.2606  -3.2102  -3.1534  -3.0713  -2.9941  -2.9342  -2.9339  -2.9014
    -2.8377  -2.7534  -2.7399  -2.7173  -2.6000  -2.5363  -2.4894  -2.4705
    -2.4437  -2.2655  -2.2347  -2.2329  -2.2174  -2.2167  -2.1786  -2.1478
    -2.1244  -2.0821  -2.0307  -2.0234  -1.9728  -1.9532  -1.9367  -1.9366
    -1.9285  -1.9280  -1.9088  -1.8953  -1.8799  -1.8697  -1.8518  -1.8458
    -1.8178  -1.7968  -1.7830  -1.7732  -1.7387  -1.7300  -1.7189  -1.7150
    -1.7141  -1.7137  -1.7130  -1.6884  -1.6594  -1.6439  -1.6391  -1.6364
    -1.6251  -1.6218  -1.5170  -1.5050  -1.4656  -1.4609  -1.4473  -1.4127
    -1.4040  -1.3821  -1.3796  -1.3775  -1.3726  -1.3610  -1.3580  -1.3435
    -1.3367  -1.3221  -1.3203  -1.3166  -1.3131  -1.2922  -1.2798  -1.2711
    -1.2674  -1.2667  -1.2619  -1.2487  -1.2459  -1.2443  -1.2298  -1.2089
    -1.2071  -1.1873  -1.1857  -1.1842  -1.1798  -1.1576  -1.1499  -1.1487
    -1.1451  -1.1416  -1.1366  -1.1301  -1.1253  -1.1170  -1.1155  -1.1143
    -1.1131  -1.1107  -1.1098  -1.1060  -1.0991  -1.0813  -1.0788  -1.0688
    -1.0474  -1.0399  -1.0367  -1.0314  -1.0088  -0.9891  -0.9865  -0.9506
    -0.9501  -0.9319  -0.9293  -0.9227  -0.9060  -0.9055  -0.8912  -0.8909
    -0.8881  -0.8833  -0.8789  -0.8754  -0.8584  -0.7532  -0.7411  -0.7366
    -0.7360  -0.7186  -0.7035  -0.7023  -0.7003  -0.6854  -0.6850  -0.6841
    -0.6835  -0.6722  -0.6623  -0.6621  -0.6613  -0.6568  -0.6459  -0.6232
    -0.6228  -0.6201  -0.6197  -0.6175  -0.6148  -0.5948  -0.5947  -0.5935
    -0.5728  -0.5369  -0.5339  -0.5336  -0.5319  -0.5272  -0.5229  -0.5151
    -0.5102  -0.4969  -0.4920  -0.4914  -0.4740  -0.4675  -0.4665  -0.4618
    -0.4498  -0.4293  -0.4285  -0.4266  -0.4251  -0.4180  -0.4153  -0.4096
    -0.4034  -0.4007  -0.3940  -0.3867  -0.3789  -0.3650  -0.3607  -0.3417
    -0.3338  -0.3326  -0.3310  -0.3286  -0.3187  -0.3159  -0.3148  -0.3142
    -0.2991  -0.2860  -0.2857  -0.2769  -0.2735  -0.2697  -0.2535  -0.2485
    -0.2457  -0.2447  -0.2127  -0.2000  -0.1975  -0.1962  -0.1914  -0.1889
    -0.1771  -0.1560  -0.1536  -0.1515  -0.1472  -0.1441  -0.1420  -0.1399
    -0.1349  -0.1304  -0.1291  -0.1273  -0.1271  -0.1246  -0.1212  -0.1078
    -0.1025  -0.0997  -0.0989  -0.0949  -0.0925  -0.0801  -0.0749  -0.0735
    -0.0594  -0.0561  -0.0358  -0.0219  -0.0212  -0.0180  -0.0173  -0.0153
     0.0011   0.0051   0.0057   0.0076   0.0093   0.0101   0.0401   0.0451
     0.0546   0.0752   0.1156   0.1184   0.1195   0.1228   0.1342   0.1362
     0.1368   0.1384   0.1403   0.1459   0.1465   0.1521   0.1526   0.1553
     0.1559   0.1637   0.1711   0.1733   0.1737   0.1761   0.1845   0.1871
     0.1913   0.1966   0.1983   0.2027   0.2030   0.2200   0.2285   0.2326
     0.2530   0.2669   0.2717   0.2778   0.2874   0.2885   0.3081   0.3086
     0.3093   0.3133   0.3193   0.3289   0.3432   0.3458   0.3483   0.3503
     0.3505   0.3575   0.3577   0.3606   0.3623   0.3807   0.3832   0.3914
     0.4009   0.4045   0.4075   0.4094   0.4111   0.4144   0.4175   0.4207
     0.4222   0.4391   0.4447   0.4456   0.4510   0.4550   0.4578   0.4614
     0.4632   0.4660   0.4759   0.4771   0.4821   0.4830   0.4843   0.5023
     0.5047   0.5221   0.5253   0.5294   0.5323   0.5356   0.5369   0.5427
     0.5524   0.5685   0.5717   0.5895   0.5933   0.6060   0.6065   0.6094
     0.6101   0.6122   0.6187   0.6312   0.6361   0.6415   0.6444   0.6456
     0.6529   0.6575   0.6682   0.6698   0.6795   0.6843   0.6864   0.6892
     0.6894   0.7068   0.7196   0.7224   0.7236   0.7255   0.7445   0.7463
     0.7549   0.7569   0.7584   0.7605   0.7613   0.7656   0.7678   0.7730
     0.7748   0.7873   0.8052   0.8154   0.8176   0.8209   0.8218   0.8239
     0.8346   0.8375   0.8556   0.8577   0.8581   0.8594   0.8643   0.8648
     0.8682   0.8796   0.8837   0.8843   0.8853   0.8865   0.8867   0.8878
     0.8890   0.8906   0.8953   0.8989   0.8994   0.9038   0.9087   0.9126
     0.9239   0.9258   0.9302   0.9327   0.9364   0.9366   0.9411   0.9424
     0.9565   0.9573   0.9641   0.9705   0.9734   0.9744   0.9770   0.9794
     0.9892   1.0007   1.0030   1.0058   1.0090   1.0163   1.0181   1.0214
     1.0239   1.0275   1.0335   1.0425   1.0514   1.0559   1.0588   1.0608
     1.0936   1.1016   1.1038   1.1086   1.1106   1.1125   1.1168   1.1193
[...]
     1.0936   1.0992   1.1072   1.1103   1.1108   1.1168   1.1354   1.1373
     1.1440   1.1445   1.1568   1.1594   1.1641   1.1672   1.1757   1.1764
     1.1820   1.1890   1.1935   1.1965   1.1982   1.1997   1.2002   1.2030
     1.2120   1.2130   1.2138   1.2193   1.2238   1.2261   1.2347   1.2406
     1.2470   1.2479   1.2485   1.2491   1.2507   1.2527   1.2591   1.2600
     1.2683   1.2689   1.2718   1.2754   1.2809   1.2850   1.2881   1.2926
     1.3015   1.3038   1.3041   1.3045   1.3088   1.3089   1.3097   1.3116
     1.3176   1.3197   1.3199   1.3447   1.3448   1.3478   1.3522   1.3551
     1.3666   1.3687   1.3857   1.3893   1.3930   1.3943   1.4109   1.4171
     1.4190   1.4239   1.4246   1.4486   1.4535   1.4978   1.5110   1.5359
     1.5381   1.5654   1.6179   1.6222   1.6346   1.6474   1.6538   1.6570
     1.6605   1.6634   1.6879   1.7187   1.7297   1.9827   1.9880   1.9987
     2.0180   2.0365   2.0875   2.1567   2.1896   2.4438   2.4500   2.5325
     2.6516   2.6560   2.6599   2.6677   2.6752   2.7085   2.7203   2.7872
     2.8508   2.8560   2.9585   2.9758   3.4032   3.4154   3.4861   3.5008
     3.5630   3.5928   3.6960   3.7075   3.7149   3.7181   3.8223   3.8721
     3.9007   3.9339   4.0031   4.0313   4.0692   4.2411   4.2455   4.3171
     4.4303   4.4334   4.5119   4.5319   4.5464   4.6239   4.6714   4.8233
     4.8268   4.9176   4.9373   4.9839   5.0151   5.1436   5.1761   5.2504
     5.3004   5.3235   5.3269   5.3342   5.3391   5.4854   5.6237   5.6320
     5.7602   5.7824   5.8041   5.8282   5.8685   6.2309   6.4550   6.4743
     6.5293   6.5424   6.6225   6.6359   6.7243   6.7637   6.8049   6.9458
     6.9608   6.9709   6.9784   6.9921   7.0154   7.0805   7.0895   7.1237
     7.1914   7.2027   7.2118   7.2501   7.2855   7.3134   7.3178   7.5423
     7.5567   7.6326   7.6792   7.7878   7.8934   7.9081   7.9459   8.0587
     8.0769   8.1257   8.1362   8.1941   8.2192   8.4631   8.4693   8.5264
     8.5291   8.5698   8.5818   8.5929   8.6061   8.6794   8.8114   8.8321
     8.8333   8.8623   9.0016   9.0163   9.0313   9.0441   9.0597   9.0787
     9.0957   9.1336   9.1430   9.1671   9.1817   9.2215   9.2274   9.2361
     9.3103   9.3400   9.5048   9.5295   9.5911   9.6137   9.6846   9.8197
     9.8270   9.8682   9.9279

          k =-0.5000 0.0000 0.0000 (256496 PWs)   bands (ev):

   -17.3624 -16.5956 -15.9990 -15.8428 -15.6818 -15.6562 -15.3350 -14.8315
   -14.5871 -14.5798 -14.1382 -13.1368 -12.9125 -12.8256 -12.7038 -12.4781
   -12.2220 -12.0084 -11.9536 -11.8316 -11.7288 -11.2959 -11.2600 -10.9642
   -10.7060 -10.3319 -10.1947 -10.0867  -9.7967  -9.2147  -9.1115  -8.9948
    -8.9627  -7.8410  -7.6679  -7.6163  -7.4429  -7.4203  -7.3839  -6.2973
    -6.2520  -5.8862  -5.4529  -5.4453  -5.3568  -5.2121  -5.0685  -5.0421
    -4.9449  -4.9414  -4.9352  -4.9317  -4.9016  -4.8432  -4.8299  -4.7866
    -4.7363  -4.7211  -4.6396  -4.5694  -4.5562  -4.4682  -4.4296  -4.3759
    -4.1543  -4.1461  -4.0939  -4.0841  -4.0499  -3.8049  -3.7607  -3.7031
    -3.6826  -3.6494  -3.6073  -3.5581  -3.5560  -3.5548  -3.5525  -3.4772
    -3.4688  -3.4427  -3.4201  -3.1177  -3.0090  -2.9902  -2.9442  -2.9163
    -2.8628  -2.8500  -2.8435  -2.7504  -2.7284  -2.6626  -2.5640  -2.5460
    -2.5348  -2.4367  -2.4287  -2.4264  -2.4212  -2.0157  -2.0148  -2.0137
    -2.0137  -2.0121  -2.0110  -1.9698  -1.9482  -1.9070  -1.8901  -1.8785
    -1.8423  -1.8028  -1.7863  -1.7859  -1.7855  -1.7826  -1.7379  -1.7372
    -1.7369  -1.7357  -1.6739  -1.6407  -1.6318  -1.6220  -1.6219  -1.5803
    -1.5634  -1.5620  -1.5590  -1.5560  -1.5423  -1.5411  -1.5373  -1.5236
    -1.4942  -1.4938  -1.4890  -1.4870  -1.4855  -1.4769  -1.4763  -1.4717
    -1.4665  -1.4563  -1.4276  -1.4263  -1.4246  -1.4229  -1.4040  -1.4030
    -1.4029  -1.4006  -1.3391  -1.3390  -1.3215  -1.3185  -1.3164  -1.3162
    -1.3089  -1.2912  -1.2891  -1.2877  -1.2843  -1.2826  -1.2819  -1.2536
    -1.2433  -1.2417  -1.2411  -1.2406  -1.2210  -1.2204  -1.1935  -1.1907
    -1.1904  -1.1452  -1.1446  -1.1179  -1.1170  -1.1152  -1.1133  -1.1109
    -1.0962  -1.0870  -1.0853  -1.0847  -1.0829  -1.0810  -1.0745  -1.0675
    -1.0673  -1.0639  -1.0627  -1.0500  -1.0397  -1.0385  -0.9811  -0.9770
    -0.9753  -0.9740  -0.9363  -0.9302  -0.9297  -0.8475  -0.8467  -0.8455
    -0.8447  -0.8335  -0.8111  -0.8090  -0.8079  -0.8076  -0.8069  -0.8004
    -0.7935  -0.7802  -0.7694  -0.7673  -0.7670  -0.7634  -0.7590  -0.7540
    -0.7415  -0.7349  -0.7318  -0.7157  -0.6995  -0.6510  -0.6373  -0.6271
    -0.6134  -0.6101  -0.6013  -0.5919  -0.5917  -0.5769  -0.5648  -0.5469
    -0.5424  -0.5415  -0.5410  -0.5388  -0.5376  -0.5316  -0.5172  -0.5030
    -0.5023  -0.5014  -0.5005  -0.4823  -0.4652  -0.4645  -0.4639  -0.4635
    -0.4361  -0.4303  -0.4300  -0.4295  -0.4288  -0.4191  -0.4186  -0.3858
    -0.3858  -0.3835  -0.3830  -0.3748  -0.3680  -0.3595  -0.3485  -0.3406
    -0.3316  -0.3171  -0.2721  -0.2704  -0.2694  -0.2690  -0.2641  -0.2634
    -0.2621  -0.2611  -0.2375  -0.2246  -0.2244  -0.2202  -0.2113  -0.1882
    -0.1876  -0.1596  -0.1587  -0.1572  -0.1571  -0.1563  -0.1562  -0.1547
    -0.1543  -0.1542  -0.1530  -0.1522  -0.1517  -0.0888  -0.0805  -0.0724
    -0.0722  -0.0707  -0.0678  -0.0664  -0.0645  -0.0635  -0.0617  -0.0597
    -0.0577  -0.0550  -0.0540  -0.0510  -0.0489  -0.0487  -0.0474  -0.0392
    -0.0322  -0.0320  -0.0169  -0.0164  -0.0156  -0.0151  -0.0146  -0.0145
    -0.0091  -0.0069  -0.0065  -0.0060  -0.0028   0.0069   0.0076   0.0193
     0.0195   0.0201   0.0205   0.0356   0.0415   0.0489   0.0507   0.1201
     0.1492   0.1495   0.1518   0.1530   0.1531   0.1836   0.1842   0.1854
     0.1858   0.1965   0.1992   0.2025   0.2038   0.2082   0.2088   0.2104
     0.2109   0.2146   0.2148   0.2176   0.2180   0.2201   0.2245   0.2352
     0.2371   0.2380   0.2448   0.2507   0.2527   0.2531   0.2584   0.2634
     0.2638   0.2695   0.2714   0.2992   0.3099   0.3488   0.3542   0.3580
     0.3583   0.3699   0.3715   0.3841   0.3852   0.3900   0.3907   0.3920
     0.3937   0.3957   0.3976   0.3991   0.3998   0.4003   0.4037   0.4042
     0.4048   0.4091   0.4101   0.4123   0.4137   0.4301   0.4340   0.4493
     0.4497   0.4527   0.4628   0.4660   0.4756   0.4844   0.4853   0.4869
     0.4899   0.4954   0.4958   0.4960   0.4993   0.4998   0.5018   0.5125
     0.5156   0.5185   0.5187   0.5324   0.5341   0.5349   0.5357   0.5655
     0.5699   0.5711   0.5718   0.5752   0.5779   0.5867   0.5919   0.6037
     0.6177   0.6268   0.6282   0.6302   0.6311   0.6330   0.6340   0.6353
     0.6697   0.7013   0.7024   0.7068   0.7070   0.7077   0.7081   0.7120
     0.7127   0.7162   0.7165   0.7191   0.7206   0.7293   0.7303   0.7489
     0.7503   0.7532   0.7539   0.7549   0.7697   0.7702   0.7708   0.7711
     0.7734   0.7736   0.7739   0.8118   0.8131   0.8142   0.8156   0.8252
     0.8616   0.8771   0.8784   0.8801   0.8803   0.8924   0.9091   0.9106
     0.9112   0.9132   0.9159   0.9274   0.9293   0.9398   0.9423   0.9450
     0.9489   0.9582   0.9663   0.9750   0.9771   0.9825   0.9829   0.9836
     0.9850   0.9864   0.9884   0.9917   0.9934   0.9995   1.0010   1.0015
     1.0019   1.0021   1.0037   1.0053   1.0064   1.0400   1.0426   1.0428
     1.0457   1.0466   1.0604   1.0698   1.0759   1.0780   1.0792   1.0797
     1.0830   1.0916   1.0954   1.0980   1.1070   1.1075   1.1080   1.1090
     1.1171   1.1182   1.1188   1.1220   1.1234   1.1290   1.1379   1.1449
     1.1496   1.1644   1.1656   1.1743   1.1788   1.1811   1.1814   1.1821
     1.1822   1.1828   1.1829   1.1904   1.1937   1.1952   1.1955   1.1966
     1.1981   1.1984   1.1996   1.2037   1.2074   1.2075   1.2082   1.2085
     1.2118   1.2144   1.2151   1.2293   1.2308   1.2452   1.2529   1.2540
     1.2559   1.2565   1.2578   1.2589   1.2623   1.2674   1.2757   1.2800
     1.2810   1.2814   1.2943   1.2945   1.3018   1.3036   1.3149   1.3159
     1.3159   1.3171   1.3328   1.3342   1.3381   1.3408   1.3415   1.3430
     1.3439   1.3439   1.3446   1.3512   1.3613   1.3640   1.3660   1.3793
     1.3795   1.3799   1.3804   1.3808   1.3874   1.3935   1.3998   1.4393
     1.4425   1.4507   1.4723   1.4726   1.4760   1.4782   1.5052   1.8783
     1.8925   1.9030   1.9063   1.9600   2.0391   2.0890   2.1185   2.1298
     2.1478   2.1489   2.1499   2.1596   2.1731   2.4361   2.5008   2.5056
     2.5158   2.5988   2.6946   2.7017   2.7048   2.7623   3.0486   3.0501
     3.0540   3.0550   3.3419   3.3470   3.6220   3.6436   3.6463   3.6503
     3.7652   3.7930   3.7990   3.8071   3.9188   3.9364   3.9394   3.9418
     4.0372   4.0926   4.1134   4.3175   4.4361   4.5864   4.6479   4.6552
     4.6608   4.6609   4.6906   4.6923   4.6987   4.7646   4.8346   4.8827
     4.8828   4.9147   4.9208   4.9219   4.9258   4.9458   4.9480   4.9743
     4.9903   5.0518   5.1401   5.2807   5.3609   5.4185   5.4582   5.5208
     5.5927   5.6150   5.7083   5.8583   5.8608   5.8758   5.8806   5.9093
     5.9294   5.9370   5.9522   6.0476   6.1789   6.3351   6.3563   6.3640
     6.3774   6.3944   6.4125   6.9432   6.9788   6.9810   6.9950   7.0023
     7.0102   7.3367   7.4674   7.4712   7.4730   7.4751   7.4784   7.4871
     7.5257   7.6481   7.6802   7.7036   7.7602   7.7667   7.7726   7.8142
     7.9289   7.9329   7.9476   7.9842   8.0352   8.0514   8.0654   8.2452
     8.3527   8.3926   8.7071   8.7074   8.7134   8.7147   8.8258   8.8787
     8.8857   8.9435   8.9573   8.9605   8.9668   8.9688   8.9884   9.0195
     9.1281   9.1323   9.2497   9.3348   9.3381   9.3983   9.4067   9.4149
     9.4210   9.4248   9.4286   9.4764   9.4789   9.4875   9.5197   9.8855
     9.9051   9.9149   9.9222

          k =-0.5000-0.2165 0.0000 (256328 PWs)   bands (ev):

   -17.3623 -16.5966 -15.9715 -15.9021 -15.7569 -15.4504 -15.2208 -15.2101
   -14.7743 -14.0311 -13.7983 -13.7733 -13.4608 -12.6865 -12.3295 -12.0887
   -12.0593 -11.9218 -11.7799 -11.7252 -11.6470 -11.6033 -11.5154 -11.4440
   -11.1949 -10.0845  -9.8804  -9.8055  -9.7720  -9.2341  -8.9245  -8.8378
    -8.7763  -8.2866  -8.2447  -8.0627  -8.0458  -6.5709  -6.3493  -6.1465
    -5.9908  -5.8720  -5.6732  -5.4252  -5.3905  -5.3768  -5.3245  -5.3184
    -5.3170  -5.3145  -5.2483  -5.1065  -5.0846  -4.9205  -4.5859  -4.5167
    -4.4657  -4.4369  -4.4093  -4.3406  -4.3374  -4.3345  -4.3307  -4.2980
    -4.2610  -4.2057  -4.1328  -4.0167  -3.9869  -3.9488  -3.9135  -3.8621
    -3.8233  -3.7686  -3.7491  -3.7026  -3.6819  -3.6598  -3.5781  -3.5493
    -3.5085  -3.2859  -3.1768  -3.1748  -3.1124  -2.7182  -2.7179  -2.7145
    -2.7141  -2.7074  -2.6718  -2.6552  -2.6501  -2.6404  -2.6337  -2.5180
    -2.4351  -2.3613  -2.2527  -2.2399  -2.2335  -2.2228  -2.2098  -2.1747
    -2.1557  -2.1432  -2.1382  -2.1309  -2.0995  -2.0104  -1.9404  -1.9394
    -1.9369  -1.9344  -1.9317  -1.8575  -1.8429  -1.7134  -1.6848  -1.6328
    -1.6288  -1.6282  -1.6280  -1.6278  -1.6235  -1.5908  -1.5893  -1.5863
    -1.5799  -1.5680  -1.5669  -1.5659  -1.5658  -1.5219  -1.5207  -1.5206
    -1.5196  -1.5190  -1.5188  -1.5128  -1.5115  -1.4928  -1.4927  -1.4925
    -1.4924  -1.4473  -1.4459  -1.4422  -1.4418  -1.3906  -1.3799  -1.3704
    -1.3636  -1.3585  -1.3257  -1.3254  -1.3249  -1.3248  -1.3202  -1.3088
    -1.3086  -1.3076  -1.2840  -1.2601  -1.2555  -1.2551  -1.2542  -1.2506
    -1.2502  -1.2501  -1.2482  -1.2385  -1.2198  -1.2153  -1.1959  -1.1955
    -1.1882  -1.1874  -1.1784  -1.1781  -1.1736  -1.1723  -1.1720  -1.1710
    -1.1708  -1.1704  -1.1645  -1.1435  -1.1123  -1.0429  -1.0201  -1.0195
    -1.0180  -1.0171  -0.9880  -0.9876  -0.9871  -0.9868  -0.9249  -0.9069
    -0.9063  -0.9050  -0.9040  -0.8991  -0.8980  -0.8972  -0.8963  -0.8956
    -0.8936  -0.8682  -0.8380  -0.8346  -0.8340  -0.8319  -0.8263  -0.8245
    -0.8235  -0.8219  -0.8072  -0.8043  -0.8007  -0.7977  -0.7596  -0.7116
    -0.7089  -0.7073  -0.7046  -0.7039  -0.7014  -0.6982  -0.6357  -0.6343
    -0.6336  -0.6316  -0.6068  -0.5839  -0.5831  -0.5823  -0.5783  -0.5635
    -0.5634  -0.5628  -0.5626  -0.5364  -0.5341  -0.5333  -0.5249  -0.5246
    -0.5230  -0.5223  -0.5045  -0.4896  -0.4875  -0.4863  -0.4340  -0.4108
    -0.4105  -0.4061  -0.4059  -0.3921  -0.3917  -0.3912  -0.3908  -0.3750
    -0.3747  -0.3745  -0.3702  -0.2920  -0.2912  -0.2902  -0.2901  -0.2882
    -0.2873  -0.2869  -0.2862  -0.2844  -0.2841  -0.2823  -0.2804  -0.2459
    -0.2458  -0.2456  -0.2456  -0.2348  -0.2346  -0.2344  -0.2342  -0.2297
    -0.2289  -0.2288  -0.2277  -0.1616  -0.1612  -0.1611  -0.1593  -0.1371
    -0.1367  -0.1342  -0.1335  -0.0919  -0.0878  -0.0823  -0.0816  -0.0744
    -0.0588  -0.0567  -0.0543  -0.0533  -0.0515  -0.0506  -0.0473  -0.0461
    -0.0457  -0.0429  -0.0422  -0.0411  -0.0407  -0.0354  -0.0348  -0.0344
    -0.0325  -0.0286  -0.0272  -0.0265  -0.0247  -0.0245  -0.0114  -0.0111
    -0.0106  -0.0089   0.0165   0.0169   0.0175   0.0176   0.0255   0.0261
     0.0270   0.0293   0.0515   0.0761   0.0767   0.0771   0.0776   0.1082
     0.1089   0.1097   0.1104   0.1506   0.1767   0.1872   0.1888   0.1911
     0.1936   0.1969   0.1981   0.2042   0.2078   0.2090   0.2104   0.2141
     0.2181   0.2211   0.2225   0.2231   0.2301   0.2306   0.2321   0.2347
     0.2350   0.2366   0.2378   0.2411   0.2462   0.2532   0.2565   0.2714
     0.2740   0.3136   0.3147   0.3173   0.3202   0.3204   0.3217   0.3247
     0.3265   0.3361   0.3364   0.3367   0.3374   0.3662   0.3707   0.3738
     0.3745   0.3753   0.3759   0.3814   0.3818   0.4124   0.4177   0.4184
     0.4199   0.4223   0.4272   0.4323   0.4326   0.4330   0.4343   0.4355
     0.4371   0.4405   0.4408   0.4410   0.4443   0.4548   0.4552   0.4572
     0.4586   0.4588   0.4687   0.4746   0.4755   0.5283   0.5350   0.5407
     0.5430   0.5457   0.5471   0.5483   0.5490   0.5502   0.5508   0.5564
     0.5578   0.5624   0.5690   0.5748   0.5822   0.5938   0.5944   0.5952
     0.5960   0.5965   0.5972   0.5973   0.6001   0.6364   0.6436   0.6488
     0.6494   0.6705   0.6760   0.6776   0.6791   0.6803   0.6900   0.6996
     0.7069   0.7127   0.7138   0.7142   0.7158   0.7381   0.7395   0.7413
     0.7438   0.7895   0.7908   0.7912   0.7921   0.8215   0.8228   0.8236
     0.8243   0.8394   0.8671   0.8748   0.8758   0.8780   0.8826   0.8931
     0.8966   0.8991   0.9033   0.9047   0.9065   0.9098   0.9104   0.9105
     0.9109   0.9117   0.9138   0.9149   0.9165   0.9173   0.9226   0.9294
     0.9404   0.9420   0.9438   0.9457   0.9466   0.9484   0.9491   0.9520
     0.9551   0.9562   0.9629   0.9650   0.9664   0.9857   0.9876   0.9902
     0.9922   0.9946   0.9979   1.0012   1.0046   1.0086   1.0115   1.0124
     1.0147   1.0436   1.0501   1.0564   1.0580   1.0607   1.0617   1.0633
     1.0665   1.0854   1.0869   1.0880   1.0882   1.0918   1.1034   1.1058
     1.1096   1.1129   1.1173   1.1286   1.1303   1.1337   1.1358   1.1363
     1.1369   1.1442   1.1452   1.1458   1.1472   1.1514   1.1530   1.1537
     1.1542   1.1911   1.2170   1.2176   1.2178   1.2182   1.2196   1.2197
     1.2208   1.2209   1.2257   1.2295   1.2310   1.2337   1.2350   1.2394
     1.2400   1.2446   1.2485   1.2499   1.2502   1.2513   1.2545   1.2551
     1.2570   1.2602   1.2603   1.2619   1.2625   1.2631   1.2711   1.2737
     1.2785   1.2806   1.2822   1.2824   1.2837   1.3151   1.3158   1.3160
     1.3161   1.3284   1.3306   1.3311   1.3328   1.3371   1.3436   1.3456
     1.3480   1.3599   1.3665   1.3679   1.3694   1.3927   1.4162   1.4240
     1.4315   1.4385   1.4387   1.4395   1.4398   1.4656   1.4683   1.4695
     1.4710   1.4782   1.4795   1.4800   1.4821   1.4832   1.4846   1.4853
     1.4886   1.6966   1.6992   1.7017   1.7024   1.9578   2.0596   2.1982
     2.2231   2.2248   2.2498   2.3859   2.4232   2.4255   2.4346   2.5213
     2.6638   2.6724   2.6742   2.7440   2.9683   2.9785   2.9853   3.0047
     3.3167   3.3178   3.3194   3.3228   3.5032   3.5109   3.5173   3.5184
     3.7849   3.7944   3.7948   3.7962   4.0082   4.0895   4.0945   4.0981
     4.1188   4.2235   4.2315   4.2518   4.2631   4.4374   4.4401   4.4446
     4.4477   4.4707   4.4898   4.5066   4.5810   4.7706   4.8101   4.8352
     4.8609   4.9460   4.9769   5.0381   5.0411   5.0456   5.0543   5.0939
     5.1351   5.1528   5.2177   5.2468   5.2552   5.2597   5.2721   5.3572
     5.4971   5.6145   5.6180   5.6196   5.6209   5.6424   5.7108   5.7646
     5.7960   5.7978   5.8351   6.5968   6.6328   6.6604   6.6674   6.6699
     6.9842   6.9943   6.9987   7.0085   7.0268   7.0344   7.0390   7.0737
     7.1798   7.1949   7.2017   7.2182   7.2359   7.2414   7.2447   7.2680
     7.4479   7.5262   7.5365   7.5876   7.6110   7.8289   7.8699   7.8813
     7.8843   7.8961   7.9322   8.0947   8.1036   8.1100   8.1347   8.3937
     8.4126   8.6196   8.7030   8.7633   8.7659   8.7689   8.7696   8.7976
     8.8025   8.8077   8.8172   8.8353   8.8393   8.8407   8.8426   8.9756
     9.0828   9.0835   9.1163   9.1315   9.4111   9.4169   9.4382   9.4562
     9.4705   9.4794   9.4863   9.5057   9.5406   9.5765   9.5891   9.8593
     9.9482   9.9618   9.9665

     the Fermi energy is     3.1880 ev

!    total energy              =  -12738.84349285 Ry
     Harris-Foulkes estimate   =  -12738.84349290 Ry
     estimated scf accuracy    <          1.6E-09 Ry

     The total energy is the sum of the following terms:

     one-electron contribution = -109350.54885821 Ry
     hartree contribution      =   56034.41385434 Ry
     xc contribution           =   -4454.68930104 Ry
     ewald contribution        =   45038.38866028 Ry
     Dispersion Correction     =      -3.00718000 Ry
     smearing contrib. (-TS)   =      -3.40066821 Ry

     total magnetization       =    -0.00 Bohr mag/cell
     absolute magnetization    =     0.00 Bohr mag/cell

     convergence has been achieved in  53 iterations

     Writing output data file gc.save
 
     init_run     :    198.53s CPU    211.76s WALL (       1 calls)
     electrons    :  27211.18s CPU  29077.69s WALL (       1 calls)

     Called by init_run:
     wfcinit      :    195.02s CPU    207.94s WALL (       1 calls)
     potinit      :      0.52s CPU      0.56s WALL (       1 calls)

     Called by electrons:
     c_bands      :  24988.09s CPU  26657.83s WALL (      53 calls)
     sum_band     :   1990.86s CPU   2151.99s WALL (      53 calls)
     v_of_rho     :      7.73s CPU      9.17s WALL (      54 calls)
     newd         :     17.24s CPU     24.46s WALL (      54 calls)
     mix_rho      :    207.02s CPU    233.90s WALL (      53 calls)

     Called by c_bands:
     init_us_2    :     87.70s CPU     88.92s WALL (    1284 calls)
     cegterg      :  24597.50s CPU  26253.30s WALL (     645 calls)

     Called by sum_band:
     sum_band:bec :     12.66s CPU     14.33s WALL (     636 calls)
     addusdens    :     22.43s CPU     29.33s WALL (      53 calls)

     Called by *egterg:
     h_psi        :   9320.09s CPU  10064.43s WALL (    4074 calls)
     s_psi        :   2240.41s CPU   2265.51s WALL (    4074 calls)
     g_psi        :     22.47s CPU     22.48s WALL (    3417 calls)
     cdiaghg      :   6855.54s CPU   7113.74s WALL (    4053 calls)

     Called by h_psi:
     add_vuspsi   :   2250.80s CPU   2279.72s WALL (    4074 calls)

     General routines
     calbec       :   3264.34s CPU   3287.26s WALL (    4710 calls)
     fft          :      8.48s CPU      9.50s WALL (    1346 calls)
     ffts         :    118.99s CPU    135.37s WALL (   30738 calls)
     fftw         :   5395.87s CPU   6022.92s WALL ( 2973794 calls)
     davcio       :      0.60s CPU     16.92s WALL (      12 calls)
 
     Parallel routines
     fft_scatter  :   3493.79s CPU   3781.33s WALL ( 3005878 calls)
 
     PWSCF        :     7h36m CPU        8h 8m WALL

 
   This run was terminated on:  18:49:22   9Apr2017            

=------------------------------------------------------------------------------=
   JOB DONE.
=------------------------------------------------------------------------------=
