mpirun: INFO: switching to OpenMPI runtime version 1.10.2

     Program PWSCF v.5.4.0 starts on 12May2017 at 10:18:24 

     This program is part of the open-source Quantum ESPRESSO suite
     for quantum simulation of materials; please cite
         "P. Giannozzi et al., J. Phys.:Condens. Matter 21 395502 (2009);
          URL http://www.quantum-espresso.org", 
     in publications or presentations arising from this work. More details at
     http://www.quantum-espresso.org/quote

     Parallel version (MPI & OpenMP), running on      56 processor cores
     Number of MPI processes:                56
     Threads/MPI process:                     1
     R & G space division:  proc/nbgrp/npool/nimage =      56
     Waiting for input...
     Reading input from standard input
Warning: card &IONS ignored
Warning: card / ignored

     Current dimensions of program PWSCF are:
     Max number of different atomic species (ntypx) = 10
     Max number of k-points (npk) =  40000
     Max angular momentum in pseudopotentials (lmaxx) =  3

     -------------------------------------
     Parameters for Dispersion Correction:
     -------------------------------------
       atom      VdW radius       C_6     

        Cu         2.952        374.666
        C_h        2.744         60.710
        C          2.744         60.710
        H          1.892          4.857

     Subspace diagonalization in iterative solution of the eigenvalue problem:
     one sub-group per band group will be used
     scalapack distributed-memory algorithm (size of sub-group:  5*  5 procs)

 
     Parallelization info
     --------------------
     sticks:   dense  smooth     PW     G-vecs:    dense   smooth      PW
     Min         204     204     54                36612    36612    4962
     Max         205     205     55                36617    36617    4968
     Sum       11433   11433   3039              2050409  2050409  278033
 


     bravais-lattice index     =            0
     lattice parameter (alat)  =      13.9425  a.u.
     unit-cell volume          =   21209.0878 (a.u.)^3
     number of atoms/cell      =          149
     number of atomic types    =            4
     number of electrons       =      1293.00
     number of Kohn-Sham states=          776
     kinetic-energy cutoff     =      80.0000  Ry
     charge density cutoff     =     320.0000  Ry
     convergence threshold     =      1.0E-08
     mixing beta               =       0.7000
     number of iterations used =            8  local-TF  mixing
     Exchange-correlation      =  SLA  PW   PBE  PBE ( 1  4  3  4 0 0)

     celldm(1)=  13.942539  celldm(2)=   0.000000  celldm(3)=   0.000000
     celldm(4)=   0.000000  celldm(5)=   0.000000  celldm(6)=   0.000000

     crystal axes: (cart. coord. in units of alat)
               a(1) = (   1.000000   0.000000   0.000000 )  
               a(2) = (   0.000000   2.309401   0.000000 )  
               a(3) = (   0.000000   0.000000   3.388418 )  

     reciprocal axes: (cart. coord. in units 2 pi/alat)
               b(1) = (  1.000000  0.000000  0.000000 )  
               b(2) = (  0.000000  0.433013  0.000000 )  
               b(3) = (  0.000000  0.000000  0.295123 )  


     PseudoPot. # 1 for Cu read from file:
     /home/549/hxw549/Short/pseudopotentials/Cu.pbe-n-van_ak.UPF
     MD5 check sum: 601f7c30f7467666bec936e0661ce3e1
     Pseudo is Ultrasoft + core correction, Zval = 11.0
     Generated by new atomic code, or converted to UPF format
     Using radial grid of  867 points,  6 beta functions with: 
                l(1) =   0
                l(2) =   0
                l(3) =   1
                l(4) =   1
                l(5) =   2
                l(6) =   2
     Q(r) pseudized with  8 coefficients,  rinner =    1.400   1.400   1.400
                                                       1.400   1.400

     PseudoPot. # 2 for C  read from file:
     /home/549/hxw549/Short/pseudopotentials/C.star1s-pbe-mt_gipaw.UPF
     MD5 check sum: ef0cb3dee31bd9e4ba2a832a2c716264
     Pseudo is Norm-conserving, Zval =  5.0
     Generated by new atomic code, or converted to UPF format
     Using radial grid of 1073 points,  1 beta functions with: 
                l(1) =   0

     PseudoPot. # 3 for C  read from file:
     /home/549/hxw549/Short/pseudopotentials/C.pbe-mt_gipaw.UPF
     MD5 check sum: 5ac2f21f2c440b14befe521540822c15
     Pseudo is Norm-conserving, Zval =  4.0
     Generated by new atomic code, or converted to UPF format
     Using radial grid of 1073 points,  1 beta functions with: 
                l(1) =   0

     PseudoPot. # 4 for H  read from file:
     /home/549/hxw549/Short/pseudopotentials/H.pbe-van_ak.UPF
     MD5 check sum: 077eb6d537518a38cb46c6de387227b7
     Pseudo is Ultrasoft, Zval =  1.0
     Generated by new atomic code, or converted to UPF format
     Using radial grid of  615 points,  1 beta functions with: 
                l(1) =   0
     Q(r) pseudized with  8 coefficients,  rinner =    0.800

     atomic species   valence    mass     pseudopotential
        Cu            11.00    63.54600     Cu( 1.00)
        C_h            5.00    12.01070     C ( 1.00)
        C              4.00    12.01070     C ( 1.00)
        H              1.00     1.00783     H ( 1.00)

     No symmetry found



   Cartesian axes

     site n.     atom                  positions (alat units)
         1           Cu  tau(   1) = (   0.0001062  -0.0002701   0.9985021  )
         2           Cu  tau(   2) = (   0.2500787   0.2310134   0.9985351  )
         3           Cu  tau(   3) = (   0.5001031  -0.0002030   0.9984957  )
         4           Cu  tau(   4) = (   0.7501278   0.2310331   0.9985380  )
         5           Cu  tau(   5) = (   0.0000980   0.4619866   0.9984814  )
         6           Cu  tau(   6) = (   0.2501083   0.6927319   0.9981769  )
         7           Cu  tau(   7) = (   0.5001095   0.4619569   0.9984100  )
         8           Cu  tau(   8) = (   0.7501047   0.6927365   0.9981595  )
         9           Cu  tau(   9) = (   0.0001111   0.9234701   0.9979600  )
        10           Cu  tau(  10) = (   0.2501267   1.1541690   0.9980943  )
        11           Cu  tau(  11) = (   0.5001118   0.9234548   0.9979528  )
        12           Cu  tau(  12) = (   0.7501036   1.1541603   0.9980828  )
        13           Cu  tau(  13) = (   0.0001161   1.3847735   0.9984261  )
        14           Cu  tau(  14) = (   0.2501209   1.6154338   0.9987173  )
        15           Cu  tau(  15) = (   0.5001193   1.3847925   0.9985012  )
        16           Cu  tau(  16) = (   0.7501117   1.6154180   0.9987198  )
        17           Cu  tau(  17) = (   0.0001077   1.8463630   0.9986692  )
        18           Cu  tau(  18) = (   0.2501164   2.0776756   0.9985055  )
        19           Cu  tau(  19) = (   0.5001155   1.8463207   0.9986800  )
        20           Cu  tau(  20) = (   0.7500984   2.0776748   0.9985316  )
        21           Cu  tau(  21) = (   0.0001142   0.2310039   1.2467663  )
        22           Cu  tau(  22) = (   0.2501082  -0.0003075   1.2464524  )
        23           Cu  tau(  23) = (   0.5001128   0.2310801   1.2467556  )
        24           Cu  tau(  24) = (   0.7501188  -0.0003027   1.2464412  )
        25           Cu  tau(  25) = (   0.0001174   0.6930674   1.2468122  )
        26           Cu  tau(  26) = (   0.2501222   0.4621895   1.2468825  )
        27           Cu  tau(  27) = (   0.5001258   0.6930014   1.2467758  )
        28           Cu  tau(  28) = (   0.7501104   0.4622021   1.2469065  )
        29           Cu  tau(  29) = (   0.0001284   1.1538705   1.2468417  )
        30           Cu  tau(  30) = (   0.2501381   0.9235067   1.2466962  )
        31           Cu  tau(  31) = (   0.5001386   1.1538127   1.2468886  )
        32           Cu  tau(  32) = (   0.7501164   0.9235074   1.2467107  )
        33           Cu  tau(  33) = (   0.0001378   1.6152162   1.2472012  )
        34           Cu  tau(  34) = (   0.2501478   1.3843762   1.2471956  )
        35           Cu  tau(  35) = (   0.5001388   1.6152561   1.2473273  )
        36           Cu  tau(  36) = (   0.7501281   1.3843636   1.2472131  )
        37           Cu  tau(  37) = (   0.0001187   2.0777131   1.2464476  )
        38           Cu  tau(  38) = (   0.2501285   1.8464123   1.2468533  )
        39           Cu  tau(  39) = (   0.5001218   2.0777351   1.2463692  )
        40           Cu  tau(  40) = (   0.7501305   1.8464055   1.2468590  )
        41           Cu  tau(  41) = (   0.0001398  -0.0005976   1.4956460  )
        42           Cu  tau(  42) = (   0.2501884   0.2308765   1.4958148  )
        43           Cu  tau(  43) = (   0.5001240  -0.0005707   1.4955169  )
        44           Cu  tau(  44) = (   0.7500756   0.2308766   1.4958139  )
        45           Cu  tau(  45) = (   0.0001366   0.4623698   1.4961838  )
        46           Cu  tau(  46) = (   0.2501764   0.6932994   1.4967045  )
        47           Cu  tau(  47) = (   0.5001356   0.4624606   1.4964121  )
        48           Cu  tau(  48) = (   0.7501124   0.6933120   1.4967337  )
        49           Cu  tau(  49) = (   0.0001553   0.9235898   1.4970496  )
        50           Cu  tau(  50) = (   0.2501228   1.1534113   1.4971363  )
        51           Cu  tau(  51) = (   0.5001412   0.9233830   1.4970945  )
        52           Cu  tau(  52) = (   0.7501941   1.1533954   1.4971565  )
        53           Cu  tau(  53) = (   0.0001622   1.3839302   1.4970342  )
        54           Cu  tau(  54) = (   0.2501526   1.6151711   1.4965927  )
        55           Cu  tau(  55) = (   0.5001668   1.3837547   1.4970188  )
        56           Cu  tau(  56) = (   0.7501879   1.6151672   1.4966010  )
        57           Cu  tau(  57) = (   0.0001650   1.8465727   1.4960685  )
        58           Cu  tau(  58) = (   0.2500999   2.0778210   1.4957140  )
        59           Cu  tau(  59) = (   0.5001584   1.8468456   1.4960878  )
        60           Cu  tau(  60) = (   0.7501879   2.0778198   1.4957306  )
        61           Cu  tau(  61) = (   0.0001517   0.2305471   1.7439360  )
        62           Cu  tau(  62) = (   0.2502748  -0.0006169   1.7447258  )
        63           Cu  tau(  63) = (   0.5001687   0.2302578   1.7444685  )
        64           Cu  tau(  64) = (   0.7500432  -0.0006116   1.7447253  )
        65           Cu  tau(  65) = (   0.0001525   0.6931548   1.7461986  )
        66           Cu  tau(  66) = (   0.2506154   0.4620556   1.7449625  )
        67           Cu  tau(  67) = (   0.5001896   0.6934823   1.7472335  )
        68           Cu  tau(  68) = (   0.7497210   0.4620354   1.7449991  )
        69           Cu  tau(  69) = (   0.0001607   1.1532693   1.7480559  )
        70           Cu  tau(  70) = (   0.2503663   0.9233382   1.7478123  )
        71           Cu  tau(  71) = (   0.5001786   1.1527037   1.7477931  )
        72           Cu  tau(  72) = (   0.7499536   0.9233549   1.7478449  )
        73           Cu  tau(  73) = (   0.0001791   1.6153090   1.7455076  )
        74           Cu  tau(  74) = (   0.2499874   1.3836365   1.7463173  )
        75           Cu  tau(  75) = (   0.5001888   1.6153878   1.7445883  )
        76           Cu  tau(  76) = (   0.7503648   1.3836347   1.7463380  )
        77           Cu  tau(  77) = (   0.0001652   2.0778124   1.7452608  )
        78           Cu  tau(  78) = (   0.2499577   1.8469924   1.7449953  )
        79           Cu  tau(  79) = (   0.5001761   2.0781916   1.7452680  )
        80           Cu  tau(  80) = (   0.7504179   1.8469935   1.7450127  )
        81           Cu  tau(  81) = (   0.0001715   0.0001696   1.9902234  )
        82           Cu  tau(  82) = (   0.2502611   0.2304366   1.9900343  )
        83           Cu  tau(  83) = (   0.5002197  -0.0000844   1.9920463  )
        84           Cu  tau(  84) = (   0.7501451   0.2303807   1.9901791  )
        85           Cu  tau(  85) = (   0.0001409   0.4610770   1.9887770  )
        86           Cu  tau(  86) = (   0.2519728   0.6915446   1.9926216  )
        87           Cu  tau(  87) = (   0.5002714   0.4595661   1.9916901  )
        88           Cu  tau(  88) = (   0.7484151   0.6915568   1.9927390  )
        89           Cu  tau(  89) = (   0.0001109   0.9219076   1.9940306  )
        90           Cu  tau(  90) = (   0.2509317   1.1538053   1.9950377  )
        91           Cu  tau(  91) = (   0.5002227   0.9233362   1.9991762  )
        92           Cu  tau(  92) = (   0.7493995   1.1538291   1.9951609  )
        93           Cu  tau(  93) = (   0.0001298   1.3845380   1.9935689  )
        94           Cu  tau(  94) = (   0.2494337   1.6156610   1.9901388  )
        95           Cu  tau(  95) = (   0.5002175   1.3857850   1.9912431  )
        96           Cu  tau(  96) = (   0.7509197   1.6157167   1.9901779  )
        97           Cu  tau(  97) = (   0.0002010   1.8470434   1.9918987  )
        98           Cu  tau(  98) = (   0.2503312   2.0781345   1.9911027  )
        99           Cu  tau(  99) = (   0.5001876   1.8460428   1.9897390  )
       100           Cu  tau( 100) = (   0.7500454   2.0781106   1.9911824  )
       101           C   tau( 101) = (   0.0003000   0.0978087   2.3877304  )
       102           C   tau( 102) = (   0.0003184   0.2900119   2.3856958  )
       103           C   tau( 103) = (   0.1669668   0.0017950   2.3872556  )
       104           C   tau( 104) = (   0.1667498   0.3861250   2.3825853  )
       105           C   tau( 105) = (   0.3335057   0.0979316   2.3852403  )
       106           C   tau( 106) = (   0.3334842   0.2901708   2.3834463  )
       107           C   tau( 107) = (   0.5002978   0.0015822   2.3846346  )
       108           C   tau( 108) = (   0.5003897   0.3869811   2.3836731  )
       109           C   tau( 109) = (   0.6671305   0.0978857   2.3858069  )
       110           C   tau( 110) = (   0.6672112   0.2901189   2.3840939  )
       111           C   tau( 111) = (   0.8336390   0.0017613   2.3876797  )
       112           C   tau( 112) = (   0.8338939   0.3861424   2.3831273  )
       113           C   tau( 113) = (   0.0003325   0.6747222   2.3774287  )
       114           C   tau( 114) = (   0.0003109   0.8670655   2.3756581  )
       115           C   tau( 115) = (   0.1665696   0.5783202   2.3786596  )
       116           C   tau( 116) = (   0.1673342   0.9630378   2.3844795  )
       117           C   tau( 117) = (   0.3330081   0.6754849   2.3837621  )
       118           C   tau( 118) = (   0.3308756   0.8659615   2.3913750  )
       119           C   tau( 119) = (   0.5003706   0.5786899   2.3870649  )
       120           C_h tau( 120) = (   0.5002405   0.9634325   2.4431809  )
       121           H   tau( 121) = (   0.4995975   0.9609870   2.5959454  )
       122           C   tau( 122) = (   0.6677086   0.6755115   2.3842438  )
       123           C   tau( 123) = (   0.6697853   0.8659772   2.3921054  )
       124           C   tau( 124) = (   0.8341199   0.5783477   2.3792482  )
       125           C   tau( 125) = (   0.8333105   0.9630290   2.3849179  )
       126           C   tau( 126) = (   0.0004020   1.2520724   2.3870267  )
       127           C   tau( 127) = (   0.0004025   1.4451755   2.3815712  )
       128           C   tau( 128) = (   0.1670681   1.1564086   2.3893699  )
       129           C   tau( 129) = (   0.1671401   1.5416071   2.3811226  )
       130           C   tau( 130) = (   0.3345797   1.2533025   2.3895913  )
       131           C   tau( 131) = (   0.3339906   1.4459872   2.3843272  )
       132           C   tau( 132) = (   0.5004360   1.1601743   2.3973219  )
       133           C   tau( 133) = (   0.5004344   1.5419259   2.3857438  )
       134           C   tau( 134) = (   0.6662994   1.2533218   2.3900622  )
       135           C   tau( 135) = (   0.6669051   1.4459974   2.3848351  )
       136           C   tau( 136) = (   0.8337342   1.1564012   2.3899329  )
       137           C   tau( 137) = (   0.8336802   1.5416439   2.3815460  )
       138           C   tau( 138) = (   0.0003242   1.8304356   2.3806540  )
       139           C   tau( 139) = (   0.0002579   2.0228029   2.3850643  )
       140           C   tau( 140) = (   0.1671501   1.7340969   2.3815095  )
       141           C   tau( 141) = (   0.1668791   2.1188753   2.3858106  )
       142           C   tau( 142) = (   0.3336897   1.8302293   2.3846875  )
       143           C   tau( 143) = (   0.3336549   2.0226017   2.3851744  )
       144           C   tau( 144) = (   0.5003773   1.7343588   2.3854412  )
       145           C   tau( 145) = (   0.5002558   2.1186784   2.3861815  )
       146           C   tau( 146) = (   0.6669817   1.8302723   2.3850179  )
       147           C   tau( 147) = (   0.6668813   2.0226289   2.3856046  )
       148           C   tau( 148) = (   0.8335225   1.7341201   2.3817501  )
       149           C   tau( 149) = (   0.8336415   2.1188792   2.3862952  )

     number of k points=     6  gaussian smearing, width (Ry)=  0.1000
                       cart. coord. in units 2pi/alat
        k(    1) = (   0.0000000   0.0000000   0.0000000), wk =   0.2500000
        k(    2) = (   0.0000000  -0.2165064   0.0000000), wk =   0.2500000
        k(    3) = (   0.2500000   0.0000000   0.0000000), wk =   0.5000000
        k(    4) = (   0.2500000  -0.2165064   0.0000000), wk =   0.5000000
        k(    5) = (  -0.5000000   0.0000000   0.0000000), wk =   0.2500000
        k(    6) = (  -0.5000000  -0.2165064   0.0000000), wk =   0.2500000

     Dense  grid:  2050409 G-vectors     FFT dimensions: (  80, 192, 270)

     Largest allocated arrays     est. size (Mb)     dimensions
        Kohn-Sham Wavefunctions        54.52 Mb     (    4604,  776)
        NL pseudopotentials           129.89 Mb     (    4604, 1849)
        Each V/rho on FFT grid          1.17 Mb     (   76800)
        Each G-vector array             0.28 Mb     (   36616)
        G-vector shells                 0.14 Mb     (   17932)
     Largest temporary arrays     est. size (Mb)     dimensions
        Auxiliary wavefunctions       218.06 Mb     (    4604, 3104)
        Each subspace H/S matrix        5.87 Mb     (     620,  620)
        Each <psi_i|beta_j> matrix     21.89 Mb     (    1849,  776)
        Arrays for rho mixing           9.38 Mb     (   76800,    8)

     Initial potential from superposition of free atoms
     Check: negative starting charge=   -0.001825

     starting charge 1267.81750, renormalised to 1293.00000

     negative rho (up, down):  1.861E-03 0.000E+00
     Starting wfc are 1285 randomized atomic wfcs

     total cpu time spent up to now is      107.5 secs

     Self-consistent Calculation

     iteration #  1     ecut=    80.00 Ry     beta=0.70
     Davidson diagonalization with overlap
     c_bands:  3 eigenvalues not converged
     c_bands:  1 eigenvalues not converged
     c_bands:  1 eigenvalues not converged
     c_bands:  1 eigenvalues not converged
     ethr =  1.00E-04,  avg # of iterations = 40.7

     negative rho (up, down):  2.569E+01 0.000E+00

     total cpu time spent up to now is     2142.7 secs

     total energy              =   -9590.97361630 Ry
     Harris-Foulkes estimate   =  -17311.70185320 Ry
     estimated scf accuracy    <  180403.56307555 Ry

     iteration #  2     ecut=    80.00 Ry     beta=0.70
     Davidson diagonalization with overlap
     ethr =  1.00E-02,  avg # of iterations = 12.0

     negative rho (up, down):  2.963E+01 0.000E+00

     total cpu time spent up to now is     3042.3 secs

     total energy              =  -12174.96933335 Ry
     Harris-Foulkes estimate   =  -13651.43430477 Ry
     estimated scf accuracy    <   24142.98310188 Ry

     iteration #  3     ecut=    80.00 Ry     beta=0.70
     Davidson diagonalization with overlap
     ethr =  1.00E-02,  avg # of iterations =  7.2

     negative rho (up, down):  3.032E+01 0.000E+00

     total cpu time spent up to now is     3568.5 secs

     total energy              =  -12434.07785176 Ry
     Harris-Foulkes estimate   =  -13389.57855956 Ry
     estimated scf accuracy    <    5892.04210731 Ry

     iteration #  4     ecut=    80.00 Ry     beta=0.70
     Davidson diagonalization with overlap
     ethr =  1.00E-02,  avg # of iterations =  5.3

     negative rho (up, down):  2.236E+01 0.000E+00

     total cpu time spent up to now is     4089.8 secs

     total energy              =  -12833.74791169 Ry
     Harris-Foulkes estimate   =  -13062.59412612 Ry
     estimated scf accuracy    <    1642.79806524 Ry

     iteration #  5     ecut=    80.00 Ry     beta=0.70
     Davidson diagonalization with overlap
     ethr =  1.00E-02,  avg # of iterations =  3.5

     negative rho (up, down):  1.711E+01 0.000E+00

     total cpu time spent up to now is     4359.0 secs

     total energy              =  -12830.19320423 Ry
     Harris-Foulkes estimate   =  -12936.23433493 Ry
     estimated scf accuracy    <    1101.37977938 Ry

     iteration #  6     ecut=    80.00 Ry     beta=0.70
     Davidson diagonalization with overlap
     ethr =  1.00E-02,  avg # of iterations =  2.8

     negative rho (up, down):  1.177E+01 0.000E+00

     total cpu time spent up to now is     4559.4 secs

     total energy              =  -12817.48205123 Ry
     Harris-Foulkes estimate   =  -12884.50164203 Ry
     estimated scf accuracy    <     522.61664203 Ry

     iteration #  7     ecut=    80.00 Ry     beta=0.70
     Davidson diagonalization with overlap
     ethr =  1.00E-02,  avg # of iterations =  2.0

     negative rho (up, down):  8.194E+00 0.000E+00

     total cpu time spent up to now is     4742.3 secs

     total energy              =  -12792.56660727 Ry
     Harris-Foulkes estimate   =  -12835.36918225 Ry
     estimated scf accuracy    <     409.50972393 Ry

     iteration #  8     ecut=    80.00 Ry     beta=0.70
     Davidson diagonalization with overlap
     ethr =  1.00E-02,  avg # of iterations =  2.2

     negative rho (up, down):  6.858E+00 0.000E+00

     total cpu time spent up to now is     4923.8 secs

     total energy              =  -12781.93344114 Ry
     Harris-Foulkes estimate   =  -12808.31603709 Ry
     estimated scf accuracy    <     417.03771179 Ry

     iteration #  9     ecut=    80.00 Ry     beta=0.70
     Davidson diagonalization with overlap
     ethr =  1.00E-02,  avg # of iterations =  2.2

     negative rho (up, down):  5.976E+00 0.000E+00

     total cpu time spent up to now is     5104.7 secs

     total energy              =  -12781.28815476 Ry
     Harris-Foulkes estimate   =  -12792.95113493 Ry
     estimated scf accuracy    <     188.57072342 Ry

     iteration # 10     ecut=    80.00 Ry     beta=0.70
     Davidson diagonalization with overlap
     ethr =  1.00E-02,  avg # of iterations =  1.0

     negative rho (up, down):  1.586E+00 0.000E+00

     total cpu time spent up to now is     5271.0 secs

     total energy              =  -12742.62392270 Ry
     Harris-Foulkes estimate   =  -12783.62576101 Ry
     estimated scf accuracy    <     154.76667079 Ry

     iteration # 11     ecut=    80.00 Ry     beta=0.70
     Davidson diagonalization with overlap
     ethr =  1.00E-02,  avg # of iterations =  2.2

     negative rho (up, down):  1.016E+00 0.000E+00

     total cpu time spent up to now is     5451.8 secs

     total energy              =  -12731.84885236 Ry
     Harris-Foulkes estimate   =  -12752.97447003 Ry
     estimated scf accuracy    <     416.36669183 Ry

     iteration # 12     ecut=    80.00 Ry     beta=0.70
     Davidson diagonalization with overlap
     ethr =  1.00E-02,  avg # of iterations =  2.0

     negative rho (up, down):  5.769E-01 0.000E+00

     total cpu time spent up to now is     5629.5 secs

     total energy              =  -12731.64863799 Ry
     Harris-Foulkes estimate   =  -12743.65498087 Ry
     estimated scf accuracy    <     144.82989696 Ry

     iteration # 13     ecut=    80.00 Ry     beta=0.70
     Davidson diagonalization with overlap
     ethr =  1.00E-02,  avg # of iterations =  2.0

     negative rho (up, down):  1.645E+00 0.000E+00

     total cpu time spent up to now is     5807.1 secs

     total energy              =  -12721.81599641 Ry
     Harris-Foulkes estimate   =  -12739.19686707 Ry
     estimated scf accuracy    <      93.98390664 Ry

     iteration # 14     ecut=    80.00 Ry     beta=0.70
     Davidson diagonalization with overlap
     ethr =  7.27E-03,  avg # of iterations =  2.5

     negative rho (up, down):  4.441E+00 0.000E+00

     total cpu time spent up to now is     5990.2 secs

     total energy              =  -12719.64413293 Ry
     Harris-Foulkes estimate   =  -12727.69262583 Ry
     estimated scf accuracy    <      52.53755521 Ry

     iteration # 15     ecut=    80.00 Ry     beta=0.70
     Davidson diagonalization with overlap
     ethr =  4.06E-03,  avg # of iterations =  3.7

     negative rho (up, down):  5.170E+00 0.000E+00

     total cpu time spent up to now is     6187.2 secs

     total energy              =  -12717.80503281 Ry
     Harris-Foulkes estimate   =  -12721.42984086 Ry
     estimated scf accuracy    <      33.18376002 Ry

     iteration # 16     ecut=    80.00 Ry     beta=0.70
     Davidson diagonalization with overlap
     ethr =  2.57E-03,  avg # of iterations =  3.5

     negative rho (up, down):  5.999E+00 0.000E+00

     total cpu time spent up to now is     6382.4 secs

     total energy              =  -12716.11478887 Ry
     Harris-Foulkes estimate   =  -12718.61037874 Ry
     estimated scf accuracy    <      19.98236525 Ry

     iteration # 17     ecut=    80.00 Ry     beta=0.70
     Davidson diagonalization with overlap
     ethr =  1.55E-03,  avg # of iterations =  4.7

     negative rho (up, down):  4.889E+00 0.000E+00

     total cpu time spent up to now is     6589.4 secs

     total energy              =  -12714.74092232 Ry
     Harris-Foulkes estimate   =  -12716.83073073 Ry
     estimated scf accuracy    <      15.52832851 Ry

     iteration # 18     ecut=    80.00 Ry     beta=0.70
     Davidson diagonalization with overlap
     ethr =  1.20E-03,  avg # of iterations =  5.2

     negative rho (up, down):  4.148E+00 0.000E+00

     total cpu time spent up to now is     6802.9 secs

     total energy              =  -12713.55530224 Ry
     Harris-Foulkes estimate   =  -12715.12020848 Ry
     estimated scf accuracy    <       9.44076619 Ry

     iteration # 19     ecut=    80.00 Ry     beta=0.70
     Davidson diagonalization with overlap
     ethr =  7.30E-04,  avg # of iterations = 11.8

     negative rho (up, down):  3.042E+00 0.000E+00

     total cpu time spent up to now is     7105.8 secs

     total energy              =  -12712.65699294 Ry
     Harris-Foulkes estimate   =  -12713.80457732 Ry
     estimated scf accuracy    <       8.28203104 Ry

     iteration # 20     ecut=    80.00 Ry     beta=0.70
     Davidson diagonalization with overlap
     ethr =  6.41E-04,  avg # of iterations =  1.0

     negative rho (up, down):  2.966E+00 0.000E+00

     total cpu time spent up to now is     7271.4 secs

     total energy              =  -12712.41697460 Ry
     Harris-Foulkes estimate   =  -12712.87443917 Ry
     estimated scf accuracy    <       8.61298042 Ry

     iteration # 21     ecut=    80.00 Ry     beta=0.70
     Davidson diagonalization with overlap
     ethr =  6.41E-04,  avg # of iterations =  1.0

     negative rho (up, down):  1.459E+00 0.000E+00

     total cpu time spent up to now is     7437.6 secs

     total energy              =  -12710.82789024 Ry
     Harris-Foulkes estimate   =  -12712.66810101 Ry
     estimated scf accuracy    <       6.27576630 Ry

     iteration # 22     ecut=    80.00 Ry     beta=0.70
     Davidson diagonalization with overlap
     ethr =  4.85E-04,  avg # of iterations =  2.3

     negative rho (up, down):  1.353E+00 0.000E+00

     total cpu time spent up to now is     7618.6 secs

     total energy              =  -12709.65699031 Ry
     Harris-Foulkes estimate   =  -12710.99156221 Ry
     estimated scf accuracy    <       7.27273282 Ry

     iteration # 23     ecut=    80.00 Ry     beta=0.70
     Davidson diagonalization with overlap
     ethr =  4.85E-04,  avg # of iterations =  4.7

     negative rho (up, down):  4.454E-01 0.000E+00

     total cpu time spent up to now is     7828.4 secs

     total energy              =  -12708.73181621 Ry
     Harris-Foulkes estimate   =  -12710.00652331 Ry
     estimated scf accuracy    <       9.43590994 Ry

     iteration # 24     ecut=    80.00 Ry     beta=0.70
     Davidson diagonalization with overlap
     ethr =  4.85E-04,  avg # of iterations =  3.2

     negative rho (up, down):  4.708E-01 0.000E+00

     total cpu time spent up to now is     8021.2 secs

     total energy              =  -12708.58806802 Ry
     Harris-Foulkes estimate   =  -12709.31965943 Ry
     estimated scf accuracy    <       6.00507021 Ry

     iteration # 25     ecut=    80.00 Ry     beta=0.70
     Davidson diagonalization with overlap
     ethr =  4.64E-04,  avg # of iterations =  1.0

     negative rho (up, down):  5.498E-01 0.000E+00

     total cpu time spent up to now is     8187.7 secs

     total energy              =  -12708.43889555 Ry
     Harris-Foulkes estimate   =  -12708.77916815 Ry
     estimated scf accuracy    <       1.61647854 Ry

     iteration # 26     ecut=    80.00 Ry     beta=0.70
     Davidson diagonalization with overlap
     ethr =  1.25E-04,  avg # of iterations =  8.5

     negative rho (up, down):  8.442E-01 0.000E+00

     total cpu time spent up to now is     8446.8 secs

     total energy              =  -12708.27418595 Ry
     Harris-Foulkes estimate   =  -12708.51971116 Ry
     estimated scf accuracy    <       1.10264564 Ry

     iteration # 27     ecut=    80.00 Ry     beta=0.70
     Davidson diagonalization with overlap
     ethr =  8.53E-05,  avg # of iterations =  7.2

     negative rho (up, down):  8.212E-01 0.000E+00

     total cpu time spent up to now is     8709.6 secs

     total energy              =  -12708.22045432 Ry
     Harris-Foulkes estimate   =  -12708.32775532 Ry
     estimated scf accuracy    <       0.88488840 Ry

     iteration # 28     ecut=    80.00 Ry     beta=0.70
     Davidson diagonalization with overlap
     ethr =  6.84E-05,  avg # of iterations =  8.8

     negative rho (up, down):  6.728E-01 0.000E+00

     total cpu time spent up to now is     8972.9 secs

     total energy              =  -12708.19094780 Ry
     Harris-Foulkes estimate   =  -12708.24882563 Ry
     estimated scf accuracy    <       0.31974325 Ry

     iteration # 29     ecut=    80.00 Ry     beta=0.70
     Davidson diagonalization with overlap
     ethr =  2.47E-05,  avg # of iterations =  7.2

     negative rho (up, down):  3.717E-01 0.000E+00

     total cpu time spent up to now is     9231.1 secs

     total energy              =  -12708.17897343 Ry
     Harris-Foulkes estimate   =  -12708.20831732 Ry
     estimated scf accuracy    <       0.14690922 Ry

     iteration # 30     ecut=    80.00 Ry     beta=0.70
     Davidson diagonalization with overlap
     ethr =  1.14E-05,  avg # of iterations = 11.5

     negative rho (up, down):  1.578E-01 0.000E+00

     total cpu time spent up to now is     9543.9 secs

     total energy              =  -12708.17969596 Ry
     Harris-Foulkes estimate   =  -12708.18967344 Ry
     estimated scf accuracy    <       0.08175137 Ry

     iteration # 31     ecut=    80.00 Ry     beta=0.70
     Davidson diagonalization with overlap
     c_bands:  3 eigenvalues not converged
     c_bands:  3 eigenvalues not converged
     ethr =  6.32E-06,  avg # of iterations = 18.0

     negative rho (up, down):  9.507E-02 0.000E+00

     total cpu time spent up to now is     9945.4 secs

     total energy              =  -12708.18283705 Ry
     Harris-Foulkes estimate   =  -12708.18404055 Ry
     estimated scf accuracy    <       0.01382339 Ry

     iteration # 32     ecut=    80.00 Ry     beta=0.70
     Davidson diagonalization with overlap
     c_bands:  3 eigenvalues not converged
     ethr =  1.07E-06,  avg # of iterations = 13.7

     negative rho (up, down):  4.226E-02 0.000E+00

     total cpu time spent up to now is    10292.4 secs

     total energy              =  -12708.18289513 Ry
     Harris-Foulkes estimate   =  -12708.18379769 Ry
     estimated scf accuracy    <       0.00521452 Ry

     iteration # 33     ecut=    80.00 Ry     beta=0.70
     Davidson diagonalization with overlap
     ethr =  4.03E-07,  avg # of iterations =  8.5

     negative rho (up, down):  2.172E-02 0.000E+00

     total cpu time spent up to now is    10566.9 secs

     total energy              =  -12708.18275071 Ry
     Harris-Foulkes estimate   =  -12708.18331966 Ry
     estimated scf accuracy    <       0.00216222 Ry

     iteration # 34     ecut=    80.00 Ry     beta=0.70
     Davidson diagonalization with overlap
     c_bands:  1 eigenvalues not converged
     ethr =  1.67E-07,  avg # of iterations =  8.5

     negative rho (up, down):  5.934E-03 0.000E+00

     total cpu time spent up to now is    10831.9 secs

     total energy              =  -12708.18273690 Ry
     Harris-Foulkes estimate   =  -12708.18291174 Ry
     estimated scf accuracy    <       0.00040321 Ry

     iteration # 35     ecut=    80.00 Ry     beta=0.70
     Davidson diagonalization with overlap
     c_bands:  2 eigenvalues not converged
     ethr =  3.12E-08,  avg # of iterations = 11.8

     negative rho (up, down):  4.414E-03 0.000E+00

     total cpu time spent up to now is    11171.0 secs

     total energy              =  -12708.18290475 Ry
     Harris-Foulkes estimate   =  -12708.18279232 Ry
     estimated scf accuracy    <       0.00012904 Ry

     iteration # 36     ecut=    80.00 Ry     beta=0.70
     Davidson diagonalization with overlap
     ethr =  9.98E-09,  avg # of iterations = 10.3

     negative rho (up, down):  2.560E-03 0.000E+00

     total cpu time spent up to now is    11468.2 secs

     total energy              =  -12708.18287994 Ry
     Harris-Foulkes estimate   =  -12708.18291696 Ry
     estimated scf accuracy    <       0.00003941 Ry

     iteration # 37     ecut=    80.00 Ry     beta=0.70
     Davidson diagonalization with overlap
     ethr =  3.05E-09,  avg # of iterations =  5.0

     negative rho (up, down):  2.941E-03 0.000E+00

     total cpu time spent up to now is    11700.9 secs

     total energy              =  -12708.18288804 Ry
     Harris-Foulkes estimate   =  -12708.18288367 Ry
     estimated scf accuracy    <       0.00001523 Ry

     iteration # 38     ecut=    80.00 Ry     beta=0.70
     Davidson diagonalization with overlap
     ethr =  1.18E-09,  avg # of iterations =  2.0

     negative rho (up, down):  2.512E-03 0.000E+00

     total cpu time spent up to now is    11885.5 secs

     total energy              =  -12708.18288849 Ry
     Harris-Foulkes estimate   =  -12708.18288895 Ry
     estimated scf accuracy    <       0.00000446 Ry

     iteration # 39     ecut=    80.00 Ry     beta=0.70
     Davidson diagonalization with overlap
     ethr =  3.45E-10,  avg # of iterations =  3.0

     negative rho (up, down):  1.833E-03 0.000E+00

     total cpu time spent up to now is    12087.3 secs

     total energy              =  -12708.18288995 Ry
     Harris-Foulkes estimate   =  -12708.18288895 Ry
     estimated scf accuracy    <       0.00000224 Ry

     iteration # 40     ecut=    80.00 Ry     beta=0.70
     Davidson diagonalization with overlap
     ethr =  1.74E-10,  avg # of iterations =  3.3

     negative rho (up, down):  1.907E-03 0.000E+00

     total cpu time spent up to now is    12295.1 secs

     total energy              =  -12708.18289016 Ry
     Harris-Foulkes estimate   =  -12708.18289024 Ry
     estimated scf accuracy    <       0.00000052 Ry

     iteration # 41     ecut=    80.00 Ry     beta=0.70
     Davidson diagonalization with overlap
     ethr =  4.03E-11,  avg # of iterations =  2.0

     negative rho (up, down):  1.955E-03 0.000E+00

     total cpu time spent up to now is    12499.9 secs

     total energy              =  -12708.18289033 Ry
     Harris-Foulkes estimate   =  -12708.18289025 Ry
     estimated scf accuracy    <       0.00000027 Ry

     iteration # 42     ecut=    80.00 Ry     beta=0.70
     Davidson diagonalization with overlap
     ethr =  2.10E-11,  avg # of iterations =  3.0

     negative rho (up, down):  1.974E-03 0.000E+00

     total cpu time spent up to now is    12713.2 secs

     total energy              =  -12708.18289028 Ry
     Harris-Foulkes estimate   =  -12708.18289036 Ry
     estimated scf accuracy    <       0.00000008 Ry

     iteration # 43     ecut=    80.00 Ry     beta=0.70
     Davidson diagonalization with overlap
     ethr =  6.39E-12,  avg # of iterations =  2.7

     negative rho (up, down):  2.020E-03 0.000E+00

     total cpu time spent up to now is    12906.2 secs

     total energy              =  -12708.18289020 Ry
     Harris-Foulkes estimate   =  -12708.18289029 Ry
     estimated scf accuracy    <       0.00000003 Ry

     iteration # 44     ecut=    80.00 Ry     beta=0.70
     Davidson diagonalization with overlap
     ethr =  2.28E-12,  avg # of iterations =  3.0

     negative rho (up, down):  2.031E-03 0.000E+00

     total cpu time spent up to now is    13096.1 secs

     End of self-consistent calculation

          k = 0.0000 0.0000 0.0000 (256287 PWs)   bands (ev):

   -17.6628 -16.1961 -16.0366 -15.5060 -14.9949 -14.7615 -14.6486 -14.2073
   -14.1431 -14.0848 -14.0638 -13.4819 -13.2652 -13.1027 -13.0669 -13.0259
   -13.0234 -11.7337 -11.4720 -11.4323 -11.3325 -11.1563 -10.3371  -9.8772
    -9.6874  -9.5583  -9.4861  -8.9220  -8.8495  -8.6172  -8.5477  -8.0449
    -7.9821  -7.8466  -7.6111  -7.5416  -7.5377  -7.4712  -7.4578  -7.3700
    -6.3392  -6.3149  -6.0403  -5.9763  -5.9330  -5.8902  -5.8355  -5.7988
    -5.7813  -5.4034  -5.3968  -4.9887  -4.8098  -4.7736  -4.6348  -4.5515
    -4.5099  -4.4248  -4.3634  -4.0821  -3.9531  -3.9467  -3.9241  -3.9013
    -3.8980  -3.6186  -3.5054  -3.4660  -3.3647  -3.3629  -3.3245  -3.3225
    -3.2095  -3.1307  -3.0891  -3.0788  -2.9611  -2.9251  -2.9248  -2.9234
    -2.9191  -2.8076  -2.7512  -2.7499  -2.7460  -2.6594  -2.6592  -2.6531
    -2.6503  -2.6498  -2.5307  -2.3684  -2.3097  -2.3096  -2.2623  -2.2591
    -2.1678  -2.1581  -2.1090  -2.1083  -2.0691  -2.0687  -2.0680  -2.0679
    -2.0268  -2.0183  -2.0171  -1.9697  -1.9388  -1.9383  -1.9360  -1.9359
    -1.8750  -1.7712  -1.7547  -1.6932  -1.6561  -1.6548  -1.6543  -1.6497
    -1.6095  -1.5918  -1.5880  -1.5753  -1.5718  -1.5475  -1.5159  -1.5089
    -1.4851  -1.4813  -1.4793  -1.4763  -1.4569  -1.4513  -1.4501  -1.4319
    -1.4303  -1.4225  -1.3570  -1.3521  -1.3323  -1.3228  -1.3117  -1.3026
    -1.2947  -1.2690  -1.2612  -1.2151  -1.1799  -1.1783  -1.1672  -1.1280
    -1.1271  -1.1082  -1.1054  -1.1039  -1.0831  -1.0801  -1.0687  -1.0612
    -1.0340  -1.0336  -0.9672  -0.9638  -0.9565  -0.9482  -0.9478  -0.9389
    -0.9388  -0.9377  -0.9375  -0.9334  -0.9319  -0.9208  -0.9206  -0.9141
    -0.8998  -0.8678  -0.8658  -0.8511  -0.8432  -0.8415  -0.8347  -0.8341
    -0.8324  -0.7763  -0.7739  -0.7727  -0.7724  -0.7721  -0.7718  -0.7704
    -0.7681  -0.7661  -0.7660  -0.7649  -0.7642  -0.7640  -0.7628  -0.7603
    -0.7589  -0.7572  -0.7482  -0.7443  -0.7442  -0.7015  -0.6244  -0.6058
    -0.6057  -0.5997  -0.5993  -0.5766  -0.5751  -0.5578  -0.5574  -0.5369
    -0.5354  -0.5255  -0.5218  -0.5172  -0.5163  -0.5035  -0.4808  -0.4804
    -0.4769  -0.4763  -0.4698  -0.4690  -0.4581  -0.4575  -0.4085  -0.4081
    -0.3547  -0.3543  -0.3467  -0.3440  -0.3434  -0.3416  -0.3385  -0.3259
    -0.3244  -0.3210  -0.3201  -0.3195  -0.3181  -0.3162  -0.3159  -0.3009
    -0.3007  -0.2930  -0.2928  -0.2907  -0.2676  -0.2668  -0.2170  -0.2140
    -0.2127  -0.2067  -0.2065  -0.2025  -0.1814  -0.1813  -0.1783  -0.1782
    -0.1638  -0.1624  -0.1583  -0.1581  -0.1536  -0.1372  -0.1358  -0.1339
    -0.1312  -0.1312  -0.1304  -0.1280  -0.1265  -0.1248  -0.1196  -0.1066
    -0.1055  -0.1031  -0.1030  -0.0907  -0.0790  -0.0361  -0.0348  -0.0337
    -0.0320  -0.0305  -0.0258   0.0128   0.0145   0.0158   0.0171   0.0173
     0.0220   0.0228   0.0235   0.0238   0.0239   0.0368   0.0489   0.0750
     0.0757   0.0779   0.0794   0.0845   0.1038   0.1046   0.1070   0.1088
     0.1102   0.1161   0.1302   0.1304   0.1306   0.1311   0.1341   0.1365
     0.1479   0.1480   0.1486   0.1488   0.1581   0.1611   0.1613   0.1674
     0.1869   0.1870   0.2197   0.2200   0.2392   0.2485   0.2493   0.2720
     0.2807   0.2826   0.3176   0.3186   0.3205   0.3263   0.3281   0.3299
     0.3541   0.3566   0.3567   0.3590   0.3590   0.3656   0.3664   0.3694
     0.4115   0.4257   0.4260   0.4307   0.4308   0.4337   0.4343   0.4512
     0.4618   0.4677   0.4682   0.4699   0.4718   0.4979   0.4995   0.5020
     0.5051   0.5120   0.5213   0.5237   0.5260   0.5318   0.5638   0.5664
     0.5781   0.5787   0.5816   0.5844   0.5850   0.5929   0.6106   0.6111
     0.6147   0.6184   0.6200   0.6204   0.6210   0.6245   0.6266   0.6292
     0.6331   0.6398   0.6400   0.6413   0.6419   0.6492   0.6497   0.6807
     0.6905   0.6906   0.6956   0.7052   0.7321   0.7327   0.7337   0.7342
     0.7376   0.7378   0.7385   0.7398   0.7467   0.7485   0.7579   0.7617
     0.7634   0.7650   0.7658   0.7724   0.7727   0.7776   0.7832   0.7848
     0.8029   0.8042   0.8057   0.8071   0.8129   0.8172   0.8213   0.8269
     0.8282   0.8329   0.8330   0.8335   0.8336   0.8395   0.8396   0.8433
     0.8447   0.8525   0.8905   0.8908   0.9012   0.9040   0.9073   0.9077
     0.9093   0.9098   0.9400   0.9411   0.9549   0.9551   0.9612   0.9614
     0.9754   0.9756   0.9840   0.9853   0.9854   0.9863   0.9937   1.0045
     1.0211   1.0221   1.0235   1.0266   1.0269   1.0281   1.0387   1.0457
     1.0538   1.0619   1.0708   1.0709   1.0746   1.0819   1.0895   1.0905
     1.0962   1.0965   1.0979   1.0981   1.0994   1.1067   1.1108   1.1127
     1.1138   1.1139   1.1140   1.1289   1.1291   1.1433   1.1470   1.1487
     1.1509   1.1523   1.1590   1.1837   1.1886   1.1894   1.1907   1.1947
     1.1952   1.1984   1.1989   1.2035   1.2038   1.2041   1.2047   1.2047
     1.2067   1.2198   1.2210   1.2299   1.2548   1.2665   1.2696   1.2750
     1.2850   1.2859   1.2882   1.2886   1.2909   1.2936   1.2944   1.3079
     1.3112   1.3209   1.3219   1.3241   1.3254   1.3261   1.3286   1.3306
     1.3312   1.3398   1.3570   1.3587   1.3591   1.3600   1.3616   1.3630
     1.3633   1.3644   1.3773   1.3790   1.3796   1.3805   1.3871   1.3952
     1.3956   1.3966   1.3972   1.3976   1.4056   1.4101   1.4121   1.4293
     1.4346   1.4381   1.4382   1.4399   1.4405   1.4414   1.4452   1.4560
     1.4678   1.4730   1.4733   1.4774   1.4869   1.4978   1.4997   1.5007
     1.5082   1.5086   1.5121   1.5146   1.5158   1.5192   1.5199   1.5207
     1.5209   1.5218   1.5239   1.5321   1.5329   1.5354   1.5508   1.5517
     1.5527   1.5537   1.5559   1.5617   1.5666   1.5694   1.5904   1.5933
     1.5953   1.6059   1.6415   1.6428   1.6454   1.6478   1.6641   1.6646
     1.6659   1.6711   1.6759   1.6909   1.7138   1.7171   1.7177   1.7188
     1.7194   1.7279   1.7289   1.7295   1.9829   2.0020   2.0410   2.1953
     2.2009   2.2432   2.2479   2.2893   2.2920   2.2922   2.2967   2.3088
     2.3096   2.3110   2.3380   2.4883   2.4951   2.5503   2.5543   2.5575
     2.5580   2.5673   2.5724   2.8054   2.8074   2.8101   2.8103   3.0296
     3.0428   3.0613   3.2595   3.6007   3.6111   3.7384   3.9015   3.9093
     3.9385   3.9401   3.9422   3.9540   4.0034   4.0496   4.0801   4.0882
     4.0921   4.0931   4.0951   4.1024   4.1053   4.1151   4.3334   4.3406
     4.3443   4.3582   4.4981   4.6545   4.8428   4.8710   4.9217   4.9446
     5.3629   5.3953   5.4880   5.5086   5.6243   5.7918   5.8078   5.8142
     5.8334   6.0129   6.0159   6.3609   6.4311   6.4322   6.4630   6.4954
     6.5421   6.5584   6.5663   6.5771   6.6090   6.6457   6.6528   6.7743
     6.8030   6.8438   6.8548   6.8690   6.8880   7.0857   7.1189   7.1366
     7.1701   7.1711   7.1798   7.4427   7.4442   7.6196   7.6255   7.6812
     7.7791   7.7816   7.7898   7.7924   7.8965   7.9142   8.2143   8.2521
     8.2802   8.2912   8.3046   8.3813   8.3843   8.4190   8.4218   8.4552
     8.4663   8.4954   8.5217   8.5638   8.6137   8.6349   8.6409   8.7409
     8.7524   8.7538   8.7565   8.8276   8.8595   8.8721   8.9235   8.9286
     8.9317   8.9869   9.1142   9.1647   9.1717   9.1910   9.1984   9.2151
     9.2244   9.2749   9.3615   9.3635   9.4075   9.4299   9.4339   9.5433
     9.6122   9.6610   9.6637   9.6696   9.7296   9.8773   9.9160  10.1140

          k = 0.0000-0.2165 0.0000 (256176 PWs)   bands (ev):

   -17.6627 -16.2436 -15.9140 -15.6083 -15.1343 -14.6382 -14.3074 -14.2787
   -14.2249 -14.1674 -13.7942 -13.7198 -13.6628 -13.6316 -12.6520 -12.3771
   -12.3264 -12.2568 -12.1013 -12.0162 -10.7585 -10.4861 -10.4616 -10.3393
    -9.5152  -9.3870  -9.2796  -9.0814  -8.9307  -8.9034  -8.3488  -8.3404
    -8.1655  -8.1132  -7.7242  -7.4364  -7.3029  -6.9195  -6.8903  -6.8419
    -6.8268  -6.7861  -6.7812  -6.1436  -6.0211  -5.8015  -5.7960  -5.5098
    -5.3483  -5.1620  -5.0823  -4.9121  -4.8604  -4.8356  -4.7556  -4.7496
    -4.6932  -4.5766  -4.5515  -4.3980  -4.3229  -4.0002  -3.8619  -3.8557
    -3.6809  -3.4952  -3.4203  -3.2382  -3.2212  -3.2200  -3.2180  -3.2118
    -3.1701  -3.0403  -3.0072  -2.9797  -2.9774  -2.9484  -2.9468  -2.8310
    -2.8147  -2.7995  -2.7669  -2.7315  -2.7105  -2.7041  -2.5953  -2.5494
    -2.5199  -2.5159  -2.4978  -2.4958  -2.4944  -2.4938  -2.4697  -2.2976
    -2.2729  -2.2511  -2.1796  -2.1789  -2.1628  -2.1603  -2.0860  -2.0650
    -2.0633  -2.0622  -2.0430  -1.9633  -1.9030  -1.9029  -1.8786  -1.8774
    -1.8667  -1.7807  -1.7778  -1.7665  -1.7246  -1.7188  -1.6846  -1.6827
    -1.6666  -1.6661  -1.6570  -1.6570  -1.6403  -1.6373  -1.5783  -1.5632
    -1.5609  -1.5600  -1.4983  -1.4950  -1.4660  -1.3874  -1.3838  -1.3769
    -1.3766  -1.3128  -1.3032  -1.2946  -1.2875  -1.2859  -1.2334  -1.2320
    -1.2119  -1.1953  -1.1931  -1.1907  -1.1904  -1.1863  -1.1859  -1.1649
    -1.1491  -1.1438  -1.1413  -1.1393  -1.1350  -1.1265  -1.1158  -1.0714
    -1.0686  -1.0646  -1.0500  -1.0491  -1.0049  -1.0045  -0.9669  -0.9665
    -0.9636  -0.9633  -0.9287  -0.9230  -0.9188  -0.9015  -0.9005  -0.8986
    -0.8947  -0.8931  -0.8914  -0.8442  -0.8424  -0.8355  -0.8350  -0.8265
    -0.8263  -0.8163  -0.8104  -0.8103  -0.8079  -0.7459  -0.7420  -0.7382
    -0.7377  -0.7348  -0.7346  -0.7275  -0.7129  -0.7122  -0.7073  -0.6973
    -0.6949  -0.6709  -0.6707  -0.6662  -0.6615  -0.6191  -0.5737  -0.5733
    -0.5680  -0.5672  -0.5495  -0.5493  -0.5235  -0.5221  -0.5214  -0.5202
    -0.5173  -0.5172  -0.4925  -0.4898  -0.4589  -0.4581  -0.4575  -0.4554
    -0.4552  -0.4535  -0.4509  -0.4492  -0.4260  -0.4199  -0.4194  -0.4117
    -0.3992  -0.3990  -0.3990  -0.3647  -0.3639  -0.3629  -0.3618  -0.3547
    -0.3547  -0.3501  -0.3492  -0.3476  -0.3461  -0.2772  -0.2767  -0.2696
    -0.2691  -0.2450  -0.2415  -0.2331  -0.2193  -0.2192  -0.2153  -0.2130
    -0.2125  -0.2116  -0.2010  -0.1882  -0.1866  -0.1824  -0.1820  -0.1788
    -0.1772  -0.1711  -0.1647  -0.1639  -0.1613  -0.1597  -0.1592  -0.1589
    -0.1508  -0.1468  -0.1232  -0.1226  -0.1196  -0.1195  -0.1163  -0.0658
    -0.0617  -0.0569  -0.0558  -0.0541  -0.0499  -0.0480  -0.0472  -0.0461
    -0.0432  -0.0424  -0.0264  -0.0145  -0.0076  -0.0025  -0.0022   0.0008
     0.0059   0.0069   0.0090   0.0098   0.0102   0.0120   0.0188   0.0676
     0.0677   0.0691   0.0693   0.0778   0.0887   0.0890   0.0892   0.0901
     0.0928   0.0979   0.1113   0.1122   0.1136   0.1160   0.1194   0.1275
     0.1428   0.1438   0.1600   0.1602   0.1605   0.1610   0.1782   0.1797
     0.1953   0.1954   0.2050   0.2076   0.2169   0.2195   0.2201   0.2208
     0.2612   0.2618   0.2696   0.2706   0.2777   0.2842   0.2855   0.2860
     0.3122   0.3139   0.3378   0.3475   0.3493   0.3518   0.3787   0.3850
     0.3908   0.4156   0.4479   0.4672   0.4673   0.4731   0.4738   0.4954
     0.4965   0.4969   0.4982   0.5050   0.5290   0.5302   0.5333   0.5361
     0.5371   0.5376   0.5404   0.5438   0.5447   0.5476   0.5589   0.5600
     0.5609   0.5625   0.5662   0.5679   0.5691   0.5726   0.5893   0.5996
     0.6015   0.6118   0.6119   0.6121   0.6137   0.6210   0.6210   0.6395
     0.6410   0.6410   0.6424   0.6430   0.6431   0.6437   0.6440   0.6442
     0.6623   0.6646   0.6656   0.6683   0.6685   0.6698   0.6724   0.6738
     0.6828   0.6910   0.7289   0.7297   0.7417   0.7421   0.7444   0.7525
     0.7528   0.7537   0.7566   0.7590   0.7601   0.7646   0.7665   0.7673
     0.7674   0.7680   0.7994   0.8092   0.8095   0.8098   0.8111   0.8262
     0.8265   0.8268   0.8276   0.8278   0.8393   0.8462   0.8583   0.8591
     0.8602   0.8651   0.8666   0.8673   0.9172   0.9195   0.9554   0.9711
     0.9735   0.9737   0.9776   0.9783   0.9816   0.9889   0.9923   0.9944
     0.9953   1.0013   1.0023   1.0078   1.0095   1.0100   1.0102   1.0217
     1.0250   1.0262   1.0263   1.0269   1.0292   1.0405   1.0459   1.0512
     1.0514   1.0515   1.0534   1.0542   1.0550   1.0586   1.0590   1.0677
     1.0722   1.0742   1.0743   1.0763   1.0785   1.0788   1.0891   1.0965
     1.0975   1.1068   1.1103   1.1108   1.1145   1.1146   1.1227   1.1231
     1.1243   1.1243   1.1246   1.1263   1.1553   1.1733   1.1755   1.2002
     1.2119   1.2125   1.2180   1.2289   1.2316   1.2348   1.2359   1.2364
     1.2533   1.2550   1.2621   1.2670   1.2722   1.2771   1.2778   1.2809
     1.2814   1.2838   1.2848   1.2853   1.2856   1.2863   1.2873   1.2877
     1.2950   1.2954   1.3009   1.3076   1.3112   1.3147   1.3160   1.3174
     1.3247   1.3256   1.3329   1.3537   1.3544   1.3545   1.3597   1.3611
     1.3624   1.3632   1.3652   1.3792   1.3822   1.3830   1.3844   1.3953
     1.3968   1.3980   1.3984   1.4000   1.4113   1.4164   1.4171   1.4180
     1.4186   1.4356   1.4357   1.4381   1.4501   1.4582   1.4616   1.4641
     1.4643   1.4648   1.4682   1.4780   1.4796   1.4810   1.4812   1.4965
     1.4972   1.5111   1.5116   1.5117   1.5123   1.5305   1.5326   1.5326
     1.5329   1.5356   1.5356   1.5367   1.5371   1.5635   1.5648   1.5724
     1.5727   1.5775   1.5843   1.5900   1.6011   1.6042   1.6049   1.6055
     1.6101   1.6148   1.6168   1.6228   1.6289   1.6708   1.6740   1.6746
     1.6754   1.7760   1.7764   1.8004   1.8056   1.8091   1.8132   1.8133
     1.8451   1.8725   1.8751   1.8766   1.8767   1.8963   1.8985   1.8990
     1.9126   1.9368   1.9397   2.1200   2.1246   2.1580   2.4930   2.4995
     2.5093   2.5100   2.5777   2.5837   2.6397   2.6511   2.6527   2.6537
     2.6653   2.6660   2.7891   2.7938   2.8259   2.8489   2.8660   2.8685
     2.9544   3.0078   3.0115   3.2543   3.2543   3.2758   3.2857   3.5007
     3.5107   3.7543   3.7582   3.9473   3.9757   4.0042   4.1611   4.1830
     4.1963   4.2035   4.4026   4.4113   4.4195   4.4200   4.5556   4.5857
     4.6323   4.7946   4.8021   4.8609   4.8736   5.1376   5.1837   5.1867
     5.2059   5.4427   5.4439   5.4440   5.4459   5.4705   5.5109   5.7146
     5.7280   5.7494   5.7931   5.8478   6.0663   6.4801   6.5003   6.5069
     6.5138   6.5376   6.5428   6.6243   6.6428   6.7484   6.7550   6.8574
     6.8943   6.8997   7.1052   7.1220   7.1339   7.1565   7.1693   7.1865
     7.1994   7.2178   7.2207   7.2462   7.4034   7.4244   7.4339   7.4608
     7.4818   7.5903   7.6529   7.6848   7.8063   7.8184   8.0126   8.2311
     8.2316   8.2381   8.4171   8.4402   8.4412   8.4428   8.4455   8.4844
     8.4879   8.5051   8.5426   8.5447   8.7639   8.7827   8.7943   8.7992
     8.8095   8.8418   8.8529   8.8701   8.9127   8.9776   9.0073   9.0650
     9.0977   9.1243   9.2365   9.2483   9.2610   9.2650   9.2906   9.3420
     9.4508   9.4578   9.4706   9.4772   9.4789   9.4910   9.5404   9.5419
     9.5750   9.5756   9.6419   9.7525   9.7682   9.7846   9.8477   9.8723

          k = 0.2500 0.0000 0.0000 (256240 PWs)   bands (ev):

   -17.6340 -16.0928 -15.9152 -15.6559 -15.1140 -14.9548 -14.8992 -14.8315
   -14.1418 -13.9061 -13.7440 -13.2177 -13.1160 -13.0326 -12.9879 -12.3615
   -12.1746 -12.0923 -12.0285 -11.2843 -11.0890 -10.7436 -10.6099 -10.3149
   -10.1850  -9.8823  -9.8792  -9.4816  -9.2152  -9.1048  -8.6932  -8.1647
    -7.9148  -7.7134  -7.5257  -7.5123  -7.3969  -7.3424  -7.0303  -6.9206
    -6.2624  -6.1565  -5.9947  -5.9171  -5.8567  -5.7539  -5.4121  -5.2708
    -5.2298  -5.2240  -4.8945  -4.8305  -4.6374  -4.4969  -4.4280  -4.4052
    -4.3849  -4.3534  -4.3329  -4.2756  -4.1767  -3.9428  -3.9195  -3.9170
    -3.8554  -3.8497  -3.7712  -3.7574  -3.7559  -3.5787  -3.5640  -3.5527
    -3.5166  -3.4688  -3.3407  -3.3358  -3.2259  -3.1872  -3.1606  -3.1500
    -3.0738  -2.9625  -2.9322  -2.8266  -2.7620  -2.7158  -2.7154  -2.6804
    -2.6197  -2.5521  -2.5362  -2.4656  -2.4533  -2.3745  -2.3162  -2.2564
    -2.2389  -2.0170  -2.0158  -2.0120  -1.9990  -1.9979  -1.9413  -1.9189
    -1.9047  -1.8342  -1.8097  -1.8050  -1.7502  -1.7386  -1.7181  -1.7180
    -1.7102  -1.7102  -1.6903  -1.6763  -1.6616  -1.6514  -1.6401  -1.6333
    -1.6318  -1.5910  -1.5650  -1.5539  -1.5198  -1.4998  -1.4971  -1.4961
    -1.4947  -1.4945  -1.4919  -1.4418  -1.4338  -1.4205  -1.4183  -1.4068
    -1.4047  -1.2889  -1.2579  -1.2504  -1.2472  -1.2290  -1.1895  -1.1855
    -1.1755  -1.1606  -1.1590  -1.1542  -1.1513  -1.1415  -1.1406  -1.1246
    -1.1209  -1.1014  -1.0992  -1.0945  -1.0857  -1.0699  -1.0569  -1.0523
    -1.0495  -1.0480  -1.0449  -1.0287  -1.0271  -1.0142  -1.0004  -0.9920
    -0.9761  -0.9734  -0.9673  -0.9648  -0.9643  -0.9406  -0.9329  -0.9288
    -0.9263  -0.9182  -0.9127  -0.9096  -0.8987  -0.8978  -0.8967  -0.8957
    -0.8925  -0.8912  -0.8849  -0.8809  -0.8754  -0.8634  -0.8616  -0.8598
    -0.8488  -0.8185  -0.8181  -0.8117  -0.7697  -0.7675  -0.7325  -0.7323
    -0.7143  -0.7113  -0.7035  -0.6873  -0.6869  -0.6732  -0.6724  -0.6691
    -0.6651  -0.6594  -0.6564  -0.6391  -0.5829  -0.5203  -0.5167  -0.5148
    -0.5109  -0.4845  -0.4832  -0.4825  -0.4661  -0.4658  -0.4654  -0.4646
    -0.4548  -0.4458  -0.4430  -0.4427  -0.4404  -0.4343  -0.4295  -0.4025
    -0.4009  -0.4004  -0.3983  -0.3969  -0.3861  -0.3765  -0.3764  -0.3743
    -0.3181  -0.3154  -0.3151  -0.3135  -0.3080  -0.3049  -0.2961  -0.2936
    -0.2870  -0.2809  -0.2725  -0.2723  -0.2508  -0.2486  -0.2478  -0.2432
    -0.2105  -0.2103  -0.2081  -0.2077  -0.1977  -0.1966  -0.1886  -0.1861
    -0.1848  -0.1775  -0.1689  -0.1558  -0.1467  -0.1452  -0.1189  -0.1165
    -0.1144  -0.1123  -0.1105  -0.0988  -0.0966  -0.0955  -0.0948  -0.0857
    -0.0675  -0.0673  -0.0660  -0.0593  -0.0547  -0.0519  -0.0295  -0.0268
    -0.0263  -0.0073   0.0176   0.0210   0.0217   0.0275   0.0289   0.0419
     0.0649   0.0651   0.0683   0.0713   0.0740   0.0753   0.0773   0.0845
     0.0883   0.0889   0.0912   0.0912   0.0940   0.0975   0.1097   0.1163
     0.1185   0.1186   0.1238   0.1263   0.1424   0.1435   0.1469   0.1581
     0.1620   0.1773   0.1978   0.1984   0.2007   0.2015   0.2028   0.2190
     0.2226   0.2247   0.2255   0.2265   0.2272   0.2507   0.2584   0.2652
     0.2665   0.3323   0.3374   0.3387   0.3414   0.3509   0.3546   0.3576
     0.3586   0.3591   0.3654   0.3659   0.3684   0.3710   0.3728   0.3734
     0.3812   0.3837   0.3908   0.3913   0.3931   0.4024   0.4050   0.4104
     0.4144   0.4148   0.4197   0.4208   0.4400   0.4460   0.4495   0.4730
     0.4744   0.4902   0.4947   0.5079   0.5087   0.5268   0.5274   0.5279
     0.5320   0.5369   0.5464   0.5611   0.5643   0.5653   0.5693   0.5699
     0.5742   0.5759   0.5798   0.5805   0.5962   0.6017   0.6086   0.6142
     0.6220   0.6272   0.6287   0.6331   0.6341   0.6364   0.6393   0.6401
     0.6541   0.6637   0.6641   0.6704   0.6723   0.6768   0.6808   0.6819
     0.6822   0.6946   0.6952   0.7010   0.7017   0.7032   0.7213   0.7231
     0.7417   0.7421   0.7469   0.7499   0.7539   0.7549   0.7586   0.7719
     0.7864   0.7897   0.8084   0.8127   0.8249   0.8253   0.8286   0.8302
     0.8338   0.8400   0.8502   0.8553   0.8569   0.8599   0.8631   0.8642
     0.8733   0.8783   0.8865   0.8878   0.8993   0.9069   0.9088   0.9089
     0.9242   0.9378   0.9394   0.9413   0.9422   0.9616   0.9647   0.9706
     0.9755   0.9775   0.9787   0.9790   0.9860   0.9870   0.9884   0.9916
     1.0052   1.0184   1.0308   1.0329   1.0343   1.0394   1.0397   1.0531
     1.0542   1.0741   1.0750   1.0760   1.0773   1.0822   1.0840   1.0862
     1.0946   1.1019   1.1027   1.1033   1.1038   1.1062   1.1067   1.1076
     1.1109   1.1151   1.1157   1.1175   1.1226   1.1243   1.1318   1.1417
     1.1439   1.1459   1.1469   1.1539   1.1540   1.1602   1.1613   1.1742
     1.1753   1.1815   1.1893   1.1921   1.1922   1.1960   1.1967   1.2074
     1.2187   1.2214   1.2217   1.2284   1.2330   1.2338   1.2396   1.2405
     1.2429   1.2459   1.2595   1.2687   1.2741   1.2768   1.2776   1.3057
     1.3156   1.3171   1.3246   1.3292   1.3294   1.3329   1.3374   1.3377
     1.3385   1.3426   1.3474   1.3519   1.3590   1.3607   1.3637   1.3641
     1.3742   1.3819   1.3846   1.3853   1.3863   1.3903   1.3958   1.3982
     1.3988   1.4013   1.4014   1.4074   1.4080   1.4086   1.4169   1.4185
     1.4267   1.4330   1.4364   1.4375   1.4413   1.4418   1.4442   1.4461
     1.4551   1.4649   1.4651   1.4658   1.4870   1.4875   1.4954   1.4977
     1.5041   1.5069   1.5072   1.5085   1.5112   1.5124   1.5150   1.5183
     1.5187   1.5197   1.5257   1.5274   1.5401   1.5482   1.5486   1.5503
     1.5509   1.5538   1.5546   1.5637   1.5681   1.5684   1.5760   1.5798
     1.5909   1.5918   1.5932   1.5965   1.5992   1.6012   1.6225   1.6312
     1.6374   1.6533   1.6667   1.7002   1.7083   1.7105   1.7135   1.7431
     1.7457   1.8197   1.8409   1.8456   1.8474   1.8566   1.8650   1.8849
     1.9218   1.9835   2.1148   2.1324   2.1533   2.1641   2.1728   2.1749
     2.2737   2.3316   2.3462   2.6312   2.6471   2.6486   2.6513   2.7821
     3.0599   3.0601   3.1012   3.2777   3.2779   3.3027   3.3027   3.3553
     3.3738   3.5530   3.5643   3.6670   3.6718   3.7130   3.7175   3.7830
     3.7875   3.8026   3.8066   3.8408   3.9517   3.9593   4.0405   4.0584
     4.0637   4.2442   4.2748   4.2862   4.3389   4.3648   4.4704   4.5718
     4.7977   4.8682   4.9071   4.9611   5.2507   5.2781   5.3037   5.3069
     5.3174   5.4230   5.4694   5.5570   5.5577   5.5888   5.6568   5.6799
     5.6999   5.7422   5.7786   5.8029   5.8244   5.8539   5.9100   5.9151
     6.0560   6.0913   6.1016   6.1221   6.1386   6.4752   6.5970   6.7407
     6.7771   6.7878   6.7998   6.8349   6.8631   6.9610   6.9830   7.0990
     7.1223   7.1310   7.1369   7.1518   7.2662   7.3352   7.3752   7.4040
     7.5224   7.5908   7.6055   7.6416   7.6514   7.7902   7.8377   7.8675
     7.8857   7.9498   8.0726   8.0833   8.0983   8.1391   8.1635   8.2296
     8.3316   8.3485   8.3727   8.4004   8.4016   8.4511   8.4887   8.4902
     8.5228   8.7290   8.7328   8.9620   8.9980   9.0177   9.0307   9.0632
     9.0980   9.1725   9.2319   9.2517   9.2729   9.2774   9.2972   9.3070
     9.3252   9.3532   9.3814   9.3960   9.4179   9.4715   9.4969   9.5078
     9.5713   9.5850   9.6318   9.6947   9.7597   9.7751   9.8094   9.8560

          k = 0.2500-0.2165 0.0000 (256316 PWs)   bands (ev):

   -17.6340 -16.1202 -15.8895 -15.4944 -15.4025 -15.1309 -14.7131 -14.5106
   -14.2489 -14.0600 -13.7119 -13.2287 -13.2066 -13.0996 -12.7324 -12.6074
   -12.1457 -11.9713 -11.5311 -11.3777 -11.2439 -11.0648 -10.9199 -10.5632
    -9.8469  -9.7388  -9.4289  -9.2988  -9.0499  -9.0028  -8.6916  -8.5882
    -8.4236  -8.3724  -7.8395  -7.2099  -6.9898  -6.7262  -6.6222  -6.5382
    -6.4387  -6.3887  -6.2619  -6.0294  -5.9737  -5.6234  -5.6184  -5.4077
    -5.2162  -5.0303  -4.8875  -4.7370  -4.6935  -4.5933  -4.5887  -4.5108
    -4.4682  -4.2669  -4.2638  -4.2430  -4.1939  -4.1479  -4.1218  -4.0834
    -3.8467  -3.7737  -3.7242  -3.6795  -3.5426  -3.4983  -3.4747  -3.3900
    -3.3768  -3.3754  -3.3050  -3.2770  -3.2215  -3.1522  -3.0695  -3.0453
    -3.0000  -2.9861  -2.8901  -2.8363  -2.8336  -2.8265  -2.8244  -2.7473
    -2.6706  -2.6444  -2.6069  -2.4382  -2.3536  -2.2324  -2.2305  -2.1997
    -2.1293  -2.0957  -2.0854  -2.0852  -2.0778  -2.0526  -1.9520  -1.9264
    -1.9257  -1.8962  -1.8905  -1.8823  -1.8384  -1.7922  -1.7378  -1.7300
    -1.7293  -1.7255  -1.7159  -1.6671  -1.6656  -1.6411  -1.6392  -1.6274
    -1.6250  -1.6122  -1.5986  -1.5935  -1.5930  -1.5927  -1.5857  -1.5836
    -1.5807  -1.5004  -1.4965  -1.3855  -1.3848  -1.3074  -1.2881  -1.2854
    -1.2843  -1.2466  -1.2454  -1.2070  -1.1944  -1.1929  -1.1795  -1.1790
    -1.1730  -1.1656  -1.1637  -1.1559  -1.1496  -1.1397  -1.1383  -1.1313
    -1.1269  -1.1211  -1.1181  -1.1168  -1.1067  -1.1033  -1.1006  -1.0698
    -1.0485  -1.0473  -1.0459  -1.0404  -1.0394  -1.0312  -1.0299  -1.0233
    -0.9995  -0.9953  -0.9626  -0.9559  -0.9556  -0.9516  -0.9452  -0.9402
    -0.9236  -0.9131  -0.9124  -0.9106  -0.8926  -0.8898  -0.8868  -0.8777
    -0.8769  -0.8721  -0.8717  -0.8645  -0.8591  -0.8411  -0.8393  -0.8205
    -0.8157  -0.7872  -0.7814  -0.7787  -0.7783  -0.7428  -0.6966  -0.6938
    -0.6925  -0.6894  -0.6867  -0.6857  -0.6810  -0.6403  -0.6371  -0.6288
    -0.6285  -0.6225  -0.6223  -0.6114  -0.6104  -0.6093  -0.5706  -0.5687
    -0.5358  -0.5305  -0.5215  -0.4872  -0.4841  -0.4810  -0.4804  -0.4784
    -0.4503  -0.4485  -0.4432  -0.4389  -0.4336  -0.4241  -0.4177  -0.4166
    -0.4047  -0.4039  -0.3923  -0.3778  -0.3758  -0.3697  -0.3621  -0.3565
    -0.3502  -0.3244  -0.3240  -0.3139  -0.3104  -0.3068  -0.2978  -0.2967
    -0.2841  -0.2834  -0.2790  -0.2787  -0.2744  -0.2726  -0.2678  -0.2674
    -0.2518  -0.2477  -0.2402  -0.2334  -0.2325  -0.2068  -0.2028  -0.1899
    -0.1854  -0.1724  -0.1704  -0.1559  -0.1555  -0.1470  -0.1426  -0.1344
    -0.1327  -0.1305  -0.1259  -0.0978  -0.0937  -0.0700  -0.0698  -0.0337
    -0.0326  -0.0241  -0.0239  -0.0214  -0.0199  -0.0100  -0.0030  -0.0030
     0.0106   0.0147   0.0157   0.0261   0.0325   0.0372   0.0388   0.0417
     0.0446   0.0454   0.0477   0.0679   0.0721   0.0772   0.0804   0.0809
     0.0817   0.0829   0.0841   0.0851   0.0877   0.0916   0.0940   0.1153
     0.1157   0.1159   0.1165   0.1487   0.1499   0.1569   0.1586   0.1590
     0.1608   0.1781   0.1826   0.1840   0.1967   0.2035   0.2158   0.2169
     0.2232   0.2272   0.2359   0.2365   0.2378   0.2426   0.2516   0.2538
     0.2581   0.2608   0.2873   0.2896   0.3233   0.3526   0.3544   0.3628
     0.3639   0.3657   0.3670   0.3700   0.3705   0.3753   0.3769   0.3784
     0.3802   0.3967   0.4028   0.4051   0.4064   0.4081   0.4113   0.4146
     0.4196   0.4207   0.4306   0.4492   0.4549   0.4650   0.4657   0.4741
     0.4781   0.4872   0.4898   0.5251   0.5285   0.5331   0.5348   0.5379
     0.5407   0.5414   0.5458   0.5532   0.5540   0.5614   0.5622   0.5645
     0.5668   0.5683   0.5697   0.5951   0.5975   0.6012   0.6044   0.6151
     0.6183   0.6204   0.6507   0.6512   0.6518   0.6526   0.6834   0.6854
     0.6877   0.6895   0.6907   0.6932   0.6937   0.6980   0.7065   0.7089
     0.7097   0.7130   0.7155   0.7204   0.7301   0.7357   0.7403   0.7425
     0.7516   0.7520   0.7549   0.7553   0.7579   0.7632   0.7675   0.7698
     0.7729   0.7741   0.7842   0.7909   0.7938   0.7956   0.8000   0.8009
     0.8020   0.8036   0.8049   0.8055   0.8365   0.8399   0.8478   0.8529
     0.8575   0.8707   0.8788   0.8918   0.9000   0.9074   0.9077   0.9093
     0.9098   0.9144   0.9152   0.9374   0.9382   0.9388   0.9390   0.9399
     0.9404   0.9455   0.9525   0.9547   0.9669   0.9686   0.9727   0.9793
     0.9820   0.9882   1.0002   1.0127   1.0129   1.0240   1.0336   1.0371
     1.0397   1.0443   1.0482   1.0494   1.0512   1.0531   1.0587   1.0740
     1.0822   1.0860   1.0919   1.0939   1.1025   1.1039   1.1109   1.1210
     1.1259   1.1396   1.1453   1.1474   1.1639   1.1644   1.1703   1.1716
     1.1737   1.1745   1.1754   1.1757   1.1787   1.1804   1.1850   1.1901
     1.1904   1.1993   1.2009   1.2035   1.2130   1.2214   1.2293   1.2488
     1.2499   1.2536   1.2562   1.2575   1.2593   1.2601   1.2626   1.2685
     1.2722   1.2727   1.2750   1.2759   1.2807   1.2841   1.2858   1.2877
     1.2892   1.2936   1.2988   1.3059   1.3074   1.3080   1.3088   1.3096
     1.3150   1.3227   1.3258   1.3294   1.3304   1.3539   1.3550   1.3622
     1.3628   1.3763   1.3781   1.3818   1.3829   1.3942   1.3949   1.3963
     1.4050   1.4071   1.4144   1.4156   1.4174   1.4187   1.4207   1.4303
     1.4314   1.4325   1.4341   1.4435   1.4447   1.4529   1.4586   1.4661
     1.4662   1.4664   1.4679   1.4701   1.4702   1.4770   1.4772   1.4886
     1.4890   1.4925   1.4940   1.5018   1.5042   1.5046   1.5079   1.5187
     1.5200   1.5218   1.5224   1.5263   1.5282   1.5283   1.5285   1.5327
     1.5380   1.5382   1.5585   1.5629   1.5631   1.5693   1.5730   1.5848
     1.5867   1.6044   1.6056   1.6106   1.6127   1.6337   1.6351   1.6410
     1.6425   1.6593   1.6668   1.6689   1.6910   1.7259   1.7483   1.7500
     1.7824   1.8328   1.8404   1.8499   1.8577   1.8678   1.8709   1.8722
     1.8739   1.8866   1.9228   1.9342   2.2073   2.2095   2.2396   2.2422
     2.3603   2.3743   2.6543   2.6673   2.6906   2.8675   2.8725   2.8735
     2.8795   2.8863   2.9049   2.9217   2.9579   3.0662   3.0687   3.1596
     3.1731   3.6183   3.6272   3.6911   3.6946   3.7570   3.7701   3.9198
     3.9225   3.9297   3.9309   4.0740   4.0802   4.1314   4.1442   4.2413
     4.2465   4.3260   4.4394   4.4567   4.4575   4.6244   4.6330   4.6514
     4.7276   4.7540   4.7668   4.7789   4.9520   5.0184   5.0396   5.0820
     5.1230   5.1861   5.3186   5.3755   5.4285   5.5121   5.5294   5.5382
     5.5404   5.5511   5.6228   5.8381   5.8470   5.9619   5.9775   5.9912
     6.0222   6.0459   6.1384   6.6103   6.6612   6.7001   6.7089   6.7337
     6.8327   6.8523   6.9366   6.9466   7.0483   7.1024   7.1450   7.1527
     7.1721   7.1850   7.2051   7.2356   7.2919   7.3056   7.4019   7.4142
     7.4225   7.4253   7.4599   7.5209   7.5234   7.7307   7.7556   7.8171
     7.8289   7.8789   7.9610   8.0727   8.1012   8.1798   8.2686   8.2824
     8.3120   8.3424   8.3752   8.6001   8.6098   8.6482   8.6666   8.6688
     8.7092   8.7150   8.7264   8.7737   8.7951   8.7982   8.9413   8.9974
     9.0328   9.0459   9.1528   9.1935   9.2060   9.2240   9.2443   9.2493
     9.2665   9.2805   9.3070   9.3276   9.3527   9.3699   9.4327   9.4478
     9.4530   9.4979   9.5047   9.5530   9.6324   9.6407   9.7571   9.8475

          k =-0.5000 0.0000 0.0000 (256496 PWs)   bands (ev):

   -17.6028 -15.9660 -15.6938 -15.5775 -15.5585 -15.4970 -14.8313 -14.5635
   -14.4631 -14.4220 -13.3398 -12.8519 -12.7137 -12.6433 -12.4470 -12.3774
   -11.8642 -11.8342 -11.7489 -11.7465 -11.2144 -11.1519 -10.9579 -10.6962
   -10.2644 -10.2537 -10.0605  -9.7033  -9.1794  -9.0854  -8.9403  -8.8929
    -8.0942  -7.7580  -7.5327  -7.3679  -7.3170  -7.2910  -7.2894  -6.3079
    -6.1829  -5.8311  -5.2720  -5.2277  -5.2228  -5.1209  -4.9233  -4.7996
    -4.7690  -4.7227  -4.7216  -4.7201  -4.7136  -4.7099  -4.6785  -4.6599
    -4.6016  -4.5279  -4.4818  -4.4113  -4.3298  -4.3107  -4.3031  -4.0051
    -3.9559  -3.9404  -3.8922  -3.8918  -3.7221  -3.6805  -3.5747  -3.4947
    -3.4836  -3.4819  -3.3757  -3.3677  -3.3415  -3.3370  -3.3368  -3.3360
    -3.3189  -3.3045  -3.2288  -2.8976  -2.8720  -2.8033  -2.7642  -2.7064
    -2.7001  -2.6917  -2.5895  -2.5213  -2.5152  -2.4024  -2.3864  -2.3726
    -2.2285  -2.2182  -2.2171  -2.2143  -1.9734  -1.8422  -1.8021  -1.7958
    -1.7951  -1.7947  -1.7946  -1.7934  -1.7919  -1.6726  -1.6717  -1.6701
    -1.6602  -1.6202  -1.5674  -1.5674  -1.5667  -1.5648  -1.5190  -1.5186
    -1.5181  -1.5169  -1.4287  -1.4199  -1.4191  -1.4171  -1.4040  -1.4036
    -1.3857  -1.3428  -1.3428  -1.3421  -1.3387  -1.3235  -1.3224  -1.2750
    -1.2743  -1.2703  -1.2694  -1.2590  -1.2582  -1.2571  -1.2546  -1.2528
    -1.2461  -1.2083  -1.2079  -1.2068  -1.2053  -1.1851  -1.1843  -1.1841
    -1.1829  -1.1208  -1.1207  -1.1010  -1.0996  -1.0980  -1.0977  -1.0778
    -1.0745  -1.0728  -1.0688  -1.0681  -1.0671  -1.0650  -1.0511  -1.0242
    -1.0237  -1.0225  -1.0223  -1.0123  -1.0025  -1.0020  -0.9721  -0.9720
    -0.9471  -0.9258  -0.9254  -0.8984  -0.8977  -0.8958  -0.8951  -0.8721
    -0.8709  -0.8686  -0.8676  -0.8656  -0.8631  -0.8624  -0.8509  -0.8486
    -0.8454  -0.8445  -0.8432  -0.8194  -0.8188  -0.7574  -0.7570  -0.7550
    -0.7547  -0.7109  -0.7106  -0.6345  -0.6286  -0.6273  -0.6272  -0.6265
    -0.6243  -0.6106  -0.5896  -0.5894  -0.5882  -0.5879  -0.5869  -0.5810
    -0.5701  -0.5511  -0.5481  -0.5470  -0.5451  -0.5370  -0.5349  -0.5198
    -0.5190  -0.5161  -0.5027  -0.4483  -0.4420  -0.4350  -0.4111  -0.3951
    -0.3905  -0.3859  -0.3726  -0.3723  -0.3662  -0.3331  -0.3323  -0.3280
    -0.3226  -0.3225  -0.3215  -0.3200  -0.3189  -0.3041  -0.2847  -0.2842
    -0.2834  -0.2830  -0.2731  -0.2457  -0.2451  -0.2448  -0.2443  -0.2117
    -0.2117  -0.2115  -0.2111  -0.2003  -0.1999  -0.1686  -0.1671  -0.1670
    -0.1655  -0.1651  -0.1646  -0.1574  -0.1502  -0.1349  -0.1240  -0.1172
    -0.1030  -0.0536  -0.0513  -0.0511  -0.0505  -0.0454  -0.0451  -0.0430
    -0.0428  -0.0172  -0.0056  -0.0051  -0.0006  -0.0005   0.0310   0.0314
     0.0593   0.0595   0.0605   0.0615   0.0618   0.0626   0.0632   0.0640
     0.0644   0.0647   0.0655   0.0657   0.1198   0.1320   0.1404   0.1419
     0.1451   0.1504   0.1531   0.1545   0.1558   0.1568   0.1600   0.1617
     0.1645   0.1645   0.1672   0.1695   0.1708   0.1710   0.1785   0.1864
     0.1865   0.2009   0.2011   0.2021   0.2022   0.2023   0.2026   0.2104
     0.2118   0.2121   0.2126   0.2173   0.2253   0.2258   0.2374   0.2377
     0.2383   0.2388   0.2498   0.2665   0.2671   0.2677   0.3176   0.3200
     0.3690   0.3695   0.3725   0.3726   0.4026   0.4030   0.4036   0.4043
     0.4163   0.4182   0.4200   0.4211   0.4269   0.4279   0.4282   0.4285
     0.4335   0.4340   0.4357   0.4362   0.4370   0.4399   0.4483   0.4519
     0.4530   0.4538   0.4568   0.4621   0.4720   0.4721   0.4806   0.4811
     0.4864   0.4871   0.5080   0.5138   0.5695   0.5739   0.5762   0.5771
     0.5876   0.5893   0.6009   0.6052   0.6102   0.6106   0.6108   0.6117
     0.6143   0.6143   0.6176   0.6183   0.6185   0.6207   0.6222   0.6224
     0.6276   0.6283   0.6302   0.6306   0.6447   0.6504   0.6680   0.6681
     0.6694   0.6778   0.6834   0.6918   0.7000   0.7023   0.7042   0.7067
     0.7138   0.7144   0.7148   0.7182   0.7186   0.7188   0.7299   0.7321
     0.7362   0.7364   0.7501   0.7525   0.7527   0.7541   0.7854   0.7891
     0.7901   0.7908   0.7933   0.7964   0.8040   0.8104   0.8229   0.8396
     0.8431   0.8495   0.8500   0.8506   0.8508   0.8521   0.8533   0.8880
     0.9194   0.9196   0.9237   0.9240   0.9246   0.9253   0.9291   0.9291
     0.9349   0.9358   0.9370   0.9379   0.9475   0.9495   0.9665   0.9682
     0.9697   0.9713   0.9725   0.9797   0.9889   0.9895   0.9899   0.9908
     0.9920   0.9924   1.0241   1.0303   1.0307   1.0312   1.0404   1.0643
     1.0929   1.0968   1.0970   1.0975   1.1016   1.1289   1.1303   1.1307
     1.1317   1.1338   1.1475   1.1483   1.1553   1.1608   1.1623   1.1703
     1.1738   1.1739   1.1927   1.1929   1.1988   1.2006   1.2011   1.2020
     1.2060   1.2079   1.2087   1.2104   1.2189   1.2191   1.2198   1.2199
     1.2212   1.2215   1.2226   1.2243   1.2506   1.2603   1.2604   1.2606
     1.2613   1.2818   1.2868   1.2892   1.2916   1.2964   1.2970   1.2975
     1.3040   1.3140   1.3159   1.3252   1.3252   1.3261   1.3268   1.3351
     1.3359   1.3360   1.3373   1.3402   1.3447   1.3483   1.3514   1.3613
     1.3827   1.3831   1.3907   1.3980   1.3992   1.3994   1.3995   1.3997
     1.3998   1.4002   1.4078   1.4125   1.4130   1.4135   1.4144   1.4144
     1.4155   1.4163   1.4204   1.4217   1.4257   1.4262   1.4264   1.4269
     1.4332   1.4336   1.4481   1.4493   1.4564   1.4684   1.4697   1.4734
     1.4748   1.4753   1.4762   1.4770   1.4797   1.4940   1.4978   1.4990
     1.4995   1.5130   1.5132   1.5200   1.5210   1.5325   1.5327   1.5328
     1.5338   1.5501   1.5518   1.5539   1.5542   1.5561   1.5624   1.5630
     1.5631   1.5635   1.5661   1.5749   1.5821   1.5840   1.5923   1.5973
     1.5975   1.5981   1.5982   1.6074   1.6086   1.6128   1.6573   1.6621
     1.6653   1.6908   1.6911   1.6945   1.6962   1.7066   2.1016   2.1141
     2.1180   2.1187   2.2933   2.3188   2.3329   2.3422   2.3658   2.3678
     2.3750   2.3751   2.5945   2.7010   2.7065   2.7139   2.7696   2.9140
     2.9172   2.9200   2.9413   3.2673   3.2677   3.2708   3.2713   3.5562
     3.5597   3.8330   3.8423   3.8475   3.8479   4.0042   4.0050   4.0111
     4.0122   4.1480   4.1498   4.1538   4.1597   4.2663   4.2758   4.4068
     4.4349   4.4818   4.7693   4.8250   4.8346   4.8409   4.8532   4.9077
     4.9088   4.9269   4.9685   5.0683   5.1007   5.1033   5.1203   5.1281
     5.1310   5.1397   5.1573   5.1575   5.1685   5.1777   5.2127   5.2143
     5.4621   5.5869   5.6056   5.6197   5.6395   5.7647   5.7839   5.8762
     5.9821   6.0689   6.0717   6.0879   6.0931   6.1221   6.1296   6.1390
     6.1476   6.3458   6.4167   6.4532   6.5147   6.5250   6.5383   6.5578
     6.6100   7.1619   7.1775   7.1800   7.2015   7.2093   7.2100   7.6034
     7.6718   7.6723   7.6836   7.6852   7.6854   7.6940   7.7218   7.8800
     7.8980   7.9357   7.9536   7.9735   7.9769   7.9782   8.0497   8.1346
     8.1415   8.1480   8.1805   8.2074   8.2199   8.2351   8.3875   8.5057
     8.5776   8.6205   8.6408   8.9067   8.9123   8.9131   8.9171   8.9886
     9.0000   9.0356   9.1284   9.1391   9.1636   9.1834   9.1868   9.3032
     9.3490   9.3497   9.4524   9.4745   9.5054   9.5066   9.5144   9.5741
     9.5940   9.6072   9.6107   9.6171   9.6302   9.6504   9.7544   9.8100

          k =-0.5000-0.2165 0.0000 (256328 PWs)   bands (ev):

   -17.6027 -15.9382 -15.7618 -15.7338 -15.3748 -15.1666 -15.1019 -15.0516
   -14.1172 -13.7843 -13.6564 -13.6162 -12.8026 -12.4004 -11.9474 -11.9381
   -11.8931 -11.7156 -11.6235 -11.5268 -11.4898 -11.4882 -11.3605 -11.3457
   -10.0536  -9.9617  -9.7399  -9.6712  -9.2110  -8.9389  -8.7431  -8.7018
    -8.3044  -8.2195  -7.9862  -7.9396  -7.6490  -6.5189  -6.3519  -6.0334
    -5.9058  -5.7888  -5.5637  -5.3730  -5.2543  -5.2509  -5.1530  -5.1010
    -5.0984  -5.0975  -5.0907  -4.9635  -4.9436  -4.5022  -4.3359  -4.3251
    -4.2610  -4.2572  -4.2172  -4.1592  -4.1552  -4.1169  -4.1167  -4.1155
    -4.0993  -4.0588  -3.8806  -3.8076  -3.7891  -3.7823  -3.7245  -3.7026
    -3.6454  -3.6429  -3.6391  -3.5233  -3.5203  -3.4151  -3.4143  -3.3939
    -3.2066  -3.0139  -3.0027  -2.9870  -2.6775  -2.6362  -2.5573  -2.4961
    -2.4958  -2.4955  -2.4923  -2.4419  -2.4361  -2.4347  -2.4103  -2.3744
    -2.2922  -2.0979  -2.0582  -2.0232  -2.0179  -2.0165  -2.0011  -1.9969
    -1.9547  -1.9349  -1.9322  -1.9291  -1.9129  -1.7214  -1.7197  -1.7179
    -1.7175  -1.6952  -1.6839  -1.6690  -1.5366  -1.4493  -1.4342  -1.4280
    -1.4104  -1.4098  -1.4097  -1.4096  -1.3776  -1.3702  -1.3700  -1.3678
    -1.3506  -1.3500  -1.3479  -1.3479  -1.3026  -1.3023  -1.3017  -1.3003
    -1.3001  -1.2997  -1.2957  -1.2947  -1.2854  -1.2745  -1.2744  -1.2744
    -1.2742  -1.2277  -1.2269  -1.2231  -1.2229  -1.2048  -1.1494  -1.1483
    -1.1462  -1.1315  -1.1080  -1.1075  -1.1062  -1.1060  -1.0895  -1.0886
    -1.0877  -1.0819  -1.0380  -1.0380  -1.0369  -1.0365  -1.0345  -1.0317
    -1.0315  -1.0314  -1.0301  -1.0121  -1.0102  -1.0055  -0.9764  -0.9763
    -0.9710  -0.9706  -0.9701  -0.9607  -0.9593  -0.9586  -0.9540  -0.9538
    -0.9536  -0.9530  -0.9521  -0.9520  -0.9433  -0.8001  -0.7993  -0.7975
    -0.7973  -0.7694  -0.7691  -0.7689  -0.7687  -0.6884  -0.6880  -0.6873
    -0.6870  -0.6836  -0.6829  -0.6796  -0.6795  -0.6783  -0.6781  -0.6769
    -0.6697  -0.6166  -0.6165  -0.6160  -0.6150  -0.6064  -0.6054  -0.6047
    -0.6042  -0.5873  -0.5855  -0.5810  -0.5792  -0.5016  -0.4921  -0.4908
    -0.4889  -0.4854  -0.4850  -0.4839  -0.4787  -0.4153  -0.4149  -0.4140
    -0.4126  -0.3657  -0.3650  -0.3644  -0.3638  -0.3444  -0.3444  -0.3434
    -0.3430  -0.3296  -0.3189  -0.3178  -0.3150  -0.3062  -0.3053  -0.3043
    -0.3032  -0.2717  -0.2707  -0.2659  -0.2653  -0.1914  -0.1911  -0.1880
    -0.1878  -0.1734  -0.1730  -0.1729  -0.1727  -0.1583  -0.1564  -0.1563
    -0.1562  -0.0765  -0.0755  -0.0742  -0.0734  -0.0710  -0.0699  -0.0692
    -0.0676  -0.0676  -0.0661  -0.0656  -0.0644  -0.0279  -0.0278  -0.0277
    -0.0273  -0.0219  -0.0158  -0.0156  -0.0153  -0.0131  -0.0120  -0.0113
    -0.0105  -0.0096   0.0569   0.0576   0.0579   0.0587   0.0821   0.0826
     0.0854   0.0855   0.1242   0.1247   0.1295   0.1379   0.1407   0.1413
     0.1562   0.1642   0.1645   0.1651   0.1661   0.1674   0.1695   0.1715
     0.1724   0.1733   0.1761   0.1767   0.1795   0.1846   0.1847   0.1858
     0.1860   0.1906   0.1908   0.1924   0.1927   0.2073   0.2074   0.2076
     0.2090   0.2356   0.2356   0.2358   0.2361   0.2436   0.2451   0.2453
     0.2475   0.2925   0.2944   0.2950   0.2952   0.3070   0.3259   0.3272
     0.3287   0.3344   0.3620   0.3675   0.3902   0.3928   0.3964   0.4038
     0.4089   0.4095   0.4128   0.4130   0.4233   0.4275   0.4283   0.4286
     0.4305   0.4399   0.4417   0.4422   0.4491   0.4495   0.4504   0.4522
     0.4526   0.4535   0.4567   0.4574   0.4613   0.4631   0.4728   0.4749
     0.5305   0.5316   0.5322   0.5367   0.5404   0.5415   0.5417   0.5448
     0.5533   0.5534   0.5539   0.5544   0.5851   0.5870   0.5918   0.5929
     0.5937   0.5938   0.5986   0.5994   0.6227   0.6359   0.6372   0.6391
     0.6396   0.6413   0.6474   0.6506   0.6513   0.6514   0.6530   0.6533
     0.6592   0.6592   0.6597   0.6627   0.6741   0.6743   0.6760   0.6767
     0.6782   0.6879   0.6916   0.6921   0.7424   0.7555   0.7607   0.7633
     0.7636   0.7662   0.7662   0.7681   0.7686   0.7691   0.7739   0.7751
     0.7760   0.7829   0.7891   0.7919   0.8118   0.8133   0.8135   0.8141
     0.8147   0.8156   0.8157   0.8177   0.8500   0.8628   0.8671   0.8680
     0.8831   0.8916   0.8956   0.8959   0.8978   0.9000   0.9109   0.9122
     0.9311   0.9315   0.9324   0.9341   0.9548   0.9559   0.9576   0.9583
     1.0087   1.0097   1.0102   1.0105   1.0414   1.0425   1.0430   1.0441
     1.0541   1.0935   1.0940   1.0949   1.0990   1.1083   1.1101   1.1113
     1.1153   1.1208   1.1227   1.1238   1.1252   1.1283   1.1288   1.1289
     1.1294   1.1311   1.1320   1.1329   1.1331   1.1369   1.1399   1.1567
     1.1573   1.1609   1.1620   1.1634   1.1641   1.1644   1.1649   1.1662
     1.1717   1.1787   1.1806   1.1827   1.2006   1.2035   1.2074   1.2081
     1.2088   1.2121   1.2162   1.2170   1.2247   1.2266   1.2271   1.2275
     1.2627   1.2740   1.2746   1.2758   1.2787   1.2795   1.2813   1.2820
     1.3009   1.3057   1.3062   1.3062   1.3086   1.3210   1.3218   1.3247
     1.3260   1.3300   1.3403   1.3414   1.3528   1.3544   1.3551   1.3558
     1.3630   1.3631   1.3640   1.3653   1.3697   1.3709   1.3711   1.3718
     1.4075   1.4358   1.4369   1.4372   1.4373   1.4385   1.4385   1.4390
     1.4391   1.4432   1.4452   1.4474   1.4484   1.4562   1.4562   1.4567
     1.4589   1.4626   1.4672   1.4674   1.4680   1.4701   1.4717   1.4738
     1.4779   1.4790   1.4790   1.4791   1.4813   1.4876   1.4891   1.4904
     1.4990   1.4991   1.5001   1.5014   1.5320   1.5330   1.5331   1.5334
     1.5443   1.5477   1.5483   1.5490   1.5537   1.5613   1.5619   1.5667
     1.5778   1.5843   1.5850   1.5855   1.6103   1.6337   1.6374   1.6379
     1.6572   1.6573   1.6577   1.6582   1.6844   1.6865   1.6870   1.6905
     1.6922   1.6948   1.6962   1.6964   1.6990   1.6998   1.7009   1.7015
     1.9143   1.9185   1.9190   1.9201   2.3769   2.4268   2.4336   2.4356
     2.5735   2.6423   2.6438   2.6443   2.6971   2.8765   2.8819   2.8829
     2.9210   3.1728   3.1788   3.1829   3.1948   3.5360   3.5364   3.5367
     3.5380   3.7247   3.7252   3.7286   3.7311   4.0106   4.0114   4.0117
     4.0133   4.3077   4.3085   4.3109   4.3118   4.3964   4.4010   4.4287
     4.4332   4.5260   4.6010   4.6413   4.6479   4.6522   4.6668   4.6684
     4.6751   4.8387   4.9047   4.9480   4.9678   5.0514   5.1007   5.1346
     5.2466   5.2529   5.2543   5.2564   5.3025   5.3301   5.3368   5.3662
     5.4144   5.4165   5.4314   5.4461   5.4493   5.6450   5.7965   5.7980
     5.8174   5.8299   5.8323   5.8343   5.8408   5.9660   5.9820   5.9906
     6.2656   6.8497   6.8523   6.8815   6.8827   7.0525   7.1948   7.2038
     7.2161   7.2229   7.2352   7.2391   7.2409   7.3097   7.3488   7.3651
     7.3695   7.4141   7.4496   7.4512   7.4513   7.4716   7.6945   7.6992
     7.7155   7.7181   7.8842   7.9236   7.9857   8.0326   8.0609   8.0639
     8.0745   8.1182   8.2923   8.3148   8.3174   8.3222   8.3338   8.3425
     8.7226   8.9495   8.9706   8.9718   8.9785   8.9804   8.9892   8.9920
     9.0133   9.0475   9.0479   9.0507   9.0552   9.1032   9.1180   9.1313
     9.1438   9.1625   9.1974   9.2363   9.2949   9.3647   9.4882   9.6032
     9.6156   9.6388   9.6425   9.6516   9.6646   9.6800   9.6875   9.8266

     the Fermi energy is     3.4061 ev

!    total energy              =  -12708.18289017 Ry
     Harris-Foulkes estimate   =  -12708.18289020 Ry
     estimated scf accuracy    <          2.5E-09 Ry

     The total energy is the sum of the following terms:

     one-electron contribution = -109370.37535986 Ry
     hartree contribution      =   56050.50691698 Ry
     xc contribution           =   -4448.51957038 Ry
     ewald contribution        =   45066.56210708 Ry
     Dispersion Correction     =      -2.99695788 Ry
     smearing contrib. (-TS)   =      -3.36002611 Ry

     convergence has been achieved in  44 iterations

     Writing output data file gc.save
 
     init_run     :    100.38s CPU    107.24s WALL (       1 calls)
     electrons    :  12164.12s CPU  12988.79s WALL (       1 calls)

     Called by init_run:
     wfcinit      :     98.02s CPU    104.60s WALL (       1 calls)
     potinit      :      0.39s CPU      0.42s WALL (       1 calls)

     Called by electrons:
     c_bands      :  11183.42s CPU  11912.99s WALL (      44 calls)
     sum_band     :    811.85s CPU    880.61s WALL (      44 calls)
     v_of_rho     :      2.88s CPU      3.59s WALL (      45 calls)
     newd         :      8.93s CPU     13.87s WALL (      45 calls)
     mix_rho      :    156.94s CPU    177.65s WALL (      44 calls)

     Called by c_bands:
     init_us_2    :     36.14s CPU     36.66s WALL (     534 calls)
     cegterg      :  11022.80s CPU  11746.72s WALL (     271 calls)

     Called by sum_band:
     sum_band:bec :      4.60s CPU      5.22s WALL (     264 calls)
     addusdens    :      7.76s CPU     13.28s WALL (      44 calls)

     Called by *egterg:
     h_psi        :   4012.38s CPU   4334.81s WALL (    1882 calls)
     s_psi        :    942.70s CPU    954.10s WALL (    1882 calls)
     g_psi        :     10.05s CPU     10.04s WALL (    1605 calls)
     cdiaghg      :   3212.19s CPU   3334.03s WALL (    1869 calls)

     Called by h_psi:
     add_vuspsi   :    947.14s CPU    960.17s WALL (    1882 calls)

     General routines
     calbec       :   1380.02s CPU   1389.84s WALL (    2146 calls)
     fft          :      3.57s CPU      4.13s WALL (     584 calls)
     ffts         :     92.26s CPU    104.68s WALL (   24321 calls)
     fftw         :   2345.25s CPU   2604.35s WALL ( 1286668 calls)
     davcio       :      0.20s CPU      2.69s WALL (       6 calls)
 
     Parallel routines
     fft_scatter  :   1529.59s CPU   1671.34s WALL ( 1311573 calls)
 
     PWSCF        :     3h24m CPU        3h38m WALL

 
   This run was terminated on:  13:56:48  12May2017            

=------------------------------------------------------------------------------=
   JOB DONE.
=------------------------------------------------------------------------------=
