
     Program PWSCF v.5.4.0 starts on 16Mar2017 at 20:22:57 

     This program is part of the open-source Quantum ESPRESSO suite
     for quantum simulation of materials; please cite
         "P. Giannozzi et al., J. Phys.:Condens. Matter 21 395502 (2009);
          URL http://www.quantum-espresso.org", 
     in publications or presentations arising from this work. More details at
     http://www.quantum-espresso.org/quote

     Parallel version (MPI & OpenMP), running on      56 processor cores
     Number of MPI processes:                56
     Threads/MPI process:                     1
     R & G space division:  proc/nbgrp/npool/nimage =      56
     Waiting for input...
     Reading input from standard input

     Current dimensions of program PWSCF are:
     Max number of different atomic species (ntypx) = 10
     Max number of k-points (npk) =  40000
     Max angular momentum in pseudopotentials (lmaxx) =  3

     -------------------------------------
     Parameters for Dispersion Correction:
     -------------------------------------
       atom      VdW radius       C_6     

        Cu         2.952        374.666
        C          2.744         60.710

     Subspace diagonalization in iterative solution of the eigenvalue problem:
     one sub-group per band group will be used
     scalapack distributed-memory algorithm (size of sub-group:  5*  5 procs)

 
     Parallelization info
     --------------------
     sticks:   dense  smooth     PW     G-vecs:    dense   smooth      PW
     Min         114     114     54                15434    15434    4962
     Max         115     115     55                15451    15451    4968
     Sum        6411    6411   3039               864803   864803  278033
 


     bravais-lattice index     =            0
     lattice parameter (alat)  =      13.9425  a.u.
     unit-cell volume          =   21209.0878 (a.u.)^3
     number of atoms/cell      =          156
     number of atomic types    =            2
     number of electrons       =      1380.00
     number of Kohn-Sham states=          828
     kinetic-energy cutoff     =      80.0000  Ry
     charge density cutoff     =     180.0000  Ry
     convergence threshold     =      1.0E-08
     mixing beta               =       0.7000
     number of iterations used =            8  local-TF  mixing
     Exchange-correlation      =  SLA  PW   PBX  PBC ( 1  4  3  4 0 0)
     nstep                     =           50


     celldm(1)=  13.942539  celldm(2)=   0.000000  celldm(3)=   0.000000
     celldm(4)=   0.000000  celldm(5)=   0.000000  celldm(6)=   0.000000

     crystal axes: (cart. coord. in units of alat)
               a(1) = (   1.000000   0.000000   0.000000 )  
               a(2) = (   0.000000   2.309401   0.000000 )  
               a(3) = (   0.000000   0.000000   3.388418 )  

     reciprocal axes: (cart. coord. in units 2 pi/alat)
               b(1) = (  1.000000  0.000000  0.000000 )  
               b(2) = (  0.000000  0.433013  0.000000 )  
               b(3) = (  0.000000  0.000000  0.295123 )  


     PseudoPot. # 1 for Cu read from file:
     /home/549/hxw549/Short/pseudopotentials/Cu.pbe-n-van_ak.UPF
     MD5 check sum: 601f7c30f7467666bec936e0661ce3e1
     Pseudo is Ultrasoft + core correction, Zval = 11.0
     Generated by new atomic code, or converted to UPF format
     Using radial grid of  867 points,  6 beta functions with: 
                l(1) =   0
                l(2) =   0
                l(3) =   1
                l(4) =   1
                l(5) =   2
                l(6) =   2
     Q(r) pseudized with  8 coefficients,  rinner =    1.400   1.400   1.400
                                                       1.400   1.400

     PseudoPot. # 2 for C  read from file:
     /home/549/hxw549/Short/pseudopotentials/C.pbe-mt_gipaw.UPF
     MD5 check sum: 5ac2f21f2c440b14befe521540822c15
     Pseudo is Norm-conserving, Zval =  4.0
     Generated by new atomic code, or converted to UPF format
     Using radial grid of 1073 points,  1 beta functions with: 
                l(1) =   0

     atomic species   valence    mass     pseudopotential
        Cu            11.00    63.54600     Cu( 1.00)
        C              4.00    12.01070     C ( 1.00)

     No symmetry found



   Cartesian axes

     site n.     atom                  positions (alat units)
         1           Cu  tau(   1) = (   0.0000336   0.0011614   0.8648991  )
         2           Cu  tau(   2) = (   0.2499996   0.2327143   0.8659825  )
         3           Cu  tau(   3) = (   0.4999657   0.0011743   0.8649039  )
         4           Cu  tau(   4) = (   0.7499995   0.2329244   0.8658287  )
         5           Cu  tau(   5) = (  -0.0000909   0.4634432   0.8675732  )
         6           Cu  tau(   6) = (   0.2499994   0.6932893   0.8683066  )
         7           Cu  tau(   7) = (   0.5000893   0.4634348   0.8675746  )
         8           Cu  tau(   8) = (   0.7499999   0.6931966   0.8681189  )
         9           Cu  tau(   9) = (   0.0000922   0.9237883   0.8675699  )
        10           Cu  tau(  10) = (   0.2500004   1.1547522   0.8678165  )
        11           Cu  tau(  11) = (   0.4999067   0.9237919   0.8675721  )
        12           Cu  tau(  12) = (   0.7499982   1.1548108   0.8675619  )
        13           Cu  tau(  13) = (  -0.0000802   1.3851978   0.8684410  )
        14           Cu  tau(  14) = (   0.2499961   1.6152478   0.8677361  )
        15           Cu  tau(  15) = (   0.5000796   1.3851913   0.8684351  )
        16           Cu  tau(  16) = (   0.7500022   1.6151611   0.8675205  )
        17           Cu  tau(  17) = (   0.0000483   1.8459279   0.8657506  )
        18           Cu  tau(  18) = (   0.2499989   2.0773351   0.8645765  )
        19           Cu  tau(  19) = (   0.4999517   1.8459308   0.8657764  )
        20           Cu  tau(  20) = (   0.7500002   2.0773508   0.8650371  )
        21           Cu  tau(  21) = (   0.0000250   0.2322926   1.1144756  )
        22           Cu  tau(  22) = (   0.2500002   0.0004863   1.1120070  )
        23           Cu  tau(  23) = (   0.4999739   0.2322770   1.1144625  )
        24           Cu  tau(  24) = (   0.7499989   0.0008056   1.1118855  )
        25           Cu  tau(  25) = (  -0.0001070   0.6966375   1.1178101  )
        26           Cu  tau(  26) = (   0.2500031   0.4641733   1.1152519  )
        27           Cu  tau(  27) = (   0.5001058   0.6965961   1.1178105  )
        28           Cu  tau(  28) = (   0.7499965   0.4642711   1.1154137  )
        29           Cu  tau(  29) = (  -0.0001095   1.1523375   1.1209443  )
        30           Cu  tau(  30) = (   0.2499957   0.9259061   1.1210114  )
        31           Cu  tau(  31) = (   0.5001081   1.1523526   1.1209874  )
        32           Cu  tau(  32) = (   0.7500026   0.9259311   1.1209997  )
        33           Cu  tau(  33) = (   0.0000507   1.6143421   1.1155000  )
        34           Cu  tau(  34) = (   0.2499887   1.3821357   1.1175746  )
        35           Cu  tau(  35) = (   0.4999486   1.6143481   1.1155130  )
        36           Cu  tau(  36) = (   0.7500100   1.3820723   1.1178607  )
        37           Cu  tau(  37) = (   0.0000247   2.0780812   1.1118971  )
        38           Cu  tau(  38) = (   0.2499952   1.8464940   1.1146051  )
        39           Cu  tau(  39) = (   0.4999748   2.0781188   1.1118586  )
        40           Cu  tau(  40) = (   0.7500030   1.8461809   1.1144486  )
        41           Cu  tau(  41) = (   0.0000140  -0.0004131   1.3620118  )
        42           Cu  tau(  42) = (   0.2499909   0.2312208   1.3636979  )
        43           Cu  tau(  43) = (   0.4999852  -0.0004406   1.3620105  )
        44           Cu  tau(  44) = (   0.7500094   0.2313107   1.3639549  )
        45           Cu  tau(  45) = (  -0.0001795   0.4622791   1.3655580  )
        46           Cu  tau(  46) = (   0.2499930   0.6931267   1.3702959  )
        47           Cu  tau(  47) = (   0.5001792   0.4622530   1.3655872  )
        48           Cu  tau(  48) = (   0.7500043   0.6925623   1.3705574  )
        49           Cu  tau(  49) = (  -0.0000115   0.9234248   1.3767150  )
        50           Cu  tau(  50) = (   0.2499717   1.1550935   1.3764550  )
        51           Cu  tau(  51) = (   0.5000080   0.9233686   1.3766185  )
        52           Cu  tau(  52) = (   0.7500265   1.1553758   1.3765257  )
        53           Cu  tau(  53) = (  -0.0000473   1.3854223   1.3701371  )
        54           Cu  tau(  54) = (   0.2499908   1.6163786   1.3654995  )
        55           Cu  tau(  55) = (   0.5000448   1.3854451   1.3701038  )
        56           Cu  tau(  56) = (   0.7500076   1.6160842   1.3656730  )
        57           Cu  tau(  57) = (  -0.0000147   1.8472443   1.3640044  )
        58           Cu  tau(  58) = (   0.2499962   2.0791672   1.3619989  )
        59           Cu  tau(  59) = (   0.5000128   1.8472422   1.3640050  )
        60           Cu  tau(  60) = (   0.7500022   2.0790502   1.3624301  )
        61           Cu  tau(  61) = (  -0.0003478   0.2293536   1.6133288  )
        62           Cu  tau(  62) = (   0.2500089  -0.0009065   1.6128813  )
        63           Cu  tau(  63) = (   0.5003489   0.2292776   1.6132562  )
        64           Cu  tau(  64) = (   0.7499907  -0.0012149   1.6131996  )
        65           Cu  tau(  65) = (   0.0001777   0.6851631   1.6257166  )
        66           Cu  tau(  66) = (   0.2499834   0.4599961   1.6178026  )
        67           Cu  tau(  67) = (   0.4998134   0.6851721   1.6257578  )
        68           Cu  tau(  68) = (   0.7500137   0.4595504   1.6178788  )
        69           Cu  tau(  69) = (   0.0002738   1.1623773   1.6283247  )
        70           Cu  tau(  70) = (   0.2499610   0.9163407   1.6277328  )
        71           Cu  tau(  71) = (   0.4997191   1.1622639   1.6280938  )
        72           Cu  tau(  72) = (   0.7500355   0.9166351   1.6283658  )
        73           Cu  tau(  73) = (  -0.0004479   1.6188422   1.6176374  )
        74           Cu  tau(  74) = (   0.2499683   1.3930204   1.6257400  )
        75           Cu  tau(  75) = (   0.5004463   1.6188974   1.6175736  )
        76           Cu  tau(  76) = (   0.7500352   1.3940749   1.6254060  )
        77           Cu  tau(  77) = (  -0.0000170   2.0795866   1.6132134  )
        78           Cu  tau(  78) = (   0.2500104   1.8488764   1.6131935  )
        79           Cu  tau(  79) = (   0.5000129   2.0795415   1.6132076  )
        80           Cu  tau(  80) = (   0.7499869   1.8487273   1.6135964  )
        81           Cu  tau(  81) = (   0.0000589  -0.0010026   1.8641417  )
        82           Cu  tau(  82) = (   0.2500086   0.2240558   1.8644272  )
        83           Cu  tau(  83) = (   0.4999414  -0.0010814   1.8641383  )
        84           Cu  tau(  84) = (   0.7499866   0.2230351   1.8642862  )
        85           Cu  tau(  85) = (  -0.0002275   0.4456378   1.8768287  )
        86           Cu  tau(  86) = (   0.2498579   0.6759432   1.8842270  )
        87           Cu  tau(  87) = (   0.5002191   0.4456685   1.8765843  )
        88           Cu  tau(  88) = (   0.7501362   0.6730923   1.8826057  )
        89           Cu  tau(  89) = (   0.0016965   0.9197900   1.8674988  )
        90           Cu  tau(  90) = (   0.2499989   1.1567516   1.8687482  )
        91           Cu  tau(  91) = (   0.4983330   0.9198262   1.8672658  )
        92           Cu  tau(  92) = (   0.7500022   1.1585091   1.8658736  )
        93           Cu  tau(  93) = (  -0.0000118   1.4061163   1.8833741  )
        94           Cu  tau(  94) = (   0.2501646   1.6326380   1.8766985  )
        95           Cu  tau(  95) = (   0.5000044   1.4055640   1.8822092  )
        96           Cu  tau(  96) = (   0.7498332   1.6333144   1.8769820  )
        97           Cu  tau(  97) = (  -0.0000031   1.8545068   1.8642270  )
        98           Cu  tau(  98) = (   0.2499806   2.0794527   1.8641463  )
        99           Cu  tau(  99) = (   0.5000000   1.8546242   1.8642245  )
       100           Cu  tau( 100) = (   0.7500151   2.0797890   1.8641785  )
       101           Cu  tau( 101) = (   0.2511852   1.3829952   2.1141250  )
       102           Cu  tau( 102) = (   0.7488473   1.3826619   2.1150626  )
       103           Cu  tau( 103) = (   0.0001706   1.1531576   2.1129194  )
       104           Cu  tau( 104) = (   0.2495862   0.9272093   2.1162032  )
       105           Cu  tau( 105) = (   0.4998122   1.1516012   2.1133828  )
       106           Cu  tau( 106) = (   0.7503887   0.9261961   2.1133173  )
       107           Cu  tau( 107) = (   0.0003372   0.6960546   2.1144218  )
       108           Cu  tau( 108) = (   0.4996805   0.6961798   2.1140159  )
       109           C   tau( 109) = (   0.0000019   0.0962656   2.5612329  )
       110           C   tau( 110) = (  -0.0000024   0.2886800   2.5546920  )
       111           C   tau( 111) = (   0.1666925  -0.0000307   2.5627453  )
       112           C   tau( 112) = (   0.1666712   0.3847241   2.5500648  )
       113           C   tau( 113) = (   0.3333346   0.0961762   2.5611882  )
       114           C   tau( 114) = (   0.3333695   0.2885871   2.5544662  )
       115           C   tau( 115) = (   0.5000015  -0.0001157   2.5621285  )
       116           C   tau( 116) = (   0.5000025   0.3845557   2.5490985  )
       117           C   tau( 117) = (   0.6666736   0.0961761   2.5612262  )
       118           C   tau( 118) = (   0.6666312   0.2885849   2.5544518  )
       119           C   tau( 119) = (   0.8333084  -0.0000309   2.5627434  )
       120           C   tau( 120) = (   0.8333259   0.3847227   2.5499773  )
       121           C   tau( 121) = (  -0.0000061   0.6731088   2.5353415  )
       122           C   tau( 122) = (  -0.0000120   0.8657644   2.5299046  )
       123           C   tau( 123) = (   0.1667726   0.5768172   2.5397524  )
       124           C   tau( 124) = (   0.1665799   0.9620806   2.5296964  )
       125           C   tau( 125) = (   0.3332777   0.6730401   2.5347298  )
       126           C   tau( 126) = (   0.3334117   0.8655622   2.5298828  )
       127           C   tau( 127) = (   0.5000036   0.5767083   2.5393618  )
       128           C   tau( 128) = (   0.5000141   0.9619162   2.5287644  )
       129           C   tau( 129) = (   0.6667195   0.6730571   2.5346974  )
       130           C   tau( 130) = (   0.6665952   0.8655686   2.5300099  )
       131           C   tau( 131) = (   0.8332312   0.5768160   2.5397012  )
       132           C   tau( 132) = (   0.8334230   0.9620775   2.5297981  )
       133           C   tau( 133) = (   0.0000005   1.2511944   2.5315414  )
       134           C   tau( 134) = (   0.0000018   1.4435487   2.5372711  )
       135           C   tau( 135) = (   0.1666828   1.1547017   2.5296337  )
       136           C   tau( 136) = (   0.1665667   1.5398309   2.5419228  )
       137           C   tau( 137) = (   0.3332436   1.2510062   2.5299273  )
       138           C   tau( 138) = (   0.3333488   1.4435225   2.5362528  )
       139           C   tau( 139) = (   0.5000072   1.1545489   2.5293954  )
       140           C   tau( 140) = (   0.5000025   1.5398175   2.5407536  )
       141           C   tau( 141) = (   0.6667583   1.2510000   2.5298298  )
       142           C   tau( 142) = (   0.6666572   1.4435279   2.5361828  )
       143           C   tau( 143) = (   0.8333300   1.1546826   2.5295175  )
       144           C   tau( 144) = (   0.8334385   1.5398336   2.5419243  )
       145           C   tau( 145) = (  -0.0000002   1.8280118   2.5563697  )
       146           C   tau( 146) = (   0.0000004   2.0204972   2.5622810  )
       147           C   tau( 147) = (   0.1666765   1.7319440   2.5513716  )
       148           C   tau( 148) = (   0.1666421   2.1167192   2.5628993  )
       149           C   tau( 149) = (   0.3332929   1.8279405   2.5560513  )
       150           C   tau( 150) = (   0.3333537   2.0204092   2.5620380  )
       151           C   tau( 151) = (   0.4999993   1.7317777   2.5515593  )
       152           C   tau( 152) = (   0.5000018   2.1166421   2.5630874  )
       153           C   tau( 153) = (   0.6667095   1.8279433   2.5560057  )
       154           C   tau( 154) = (   0.6666490   2.0204107   2.5620169  )
       155           C   tau( 155) = (   0.8333194   1.7319476   2.5513839  )
       156           C   tau( 156) = (   0.8333582   2.1167197   2.5628926  )

     number of k points=     6  gaussian smearing, width (Ry)=  0.1000
                       cart. coord. in units 2pi/alat
        k(    1) = (   0.0000000   0.0000000   0.0000000), wk =   0.2500000
        k(    2) = (   0.0000000  -0.2165064   0.0000000), wk =   0.2500000
        k(    3) = (   0.2500000   0.0000000   0.0000000), wk =   0.5000000
        k(    4) = (   0.2500000  -0.2165064   0.0000000), wk =   0.5000000
        k(    5) = (  -0.5000000   0.0000000   0.0000000), wk =   0.2500000
        k(    6) = (  -0.5000000  -0.2165064   0.0000000), wk =   0.2500000

     Dense  grid:   864803 G-vectors     FFT dimensions: (  60, 144, 216)

     Largest allocated arrays     est. size (Mb)     dimensions
        Kohn-Sham Wavefunctions        58.29 Mb     (    4614,  828)
        NL pseudopotentials           140.24 Mb     (    4614, 1992)
        Each V/rho on FFT grid          0.53 Mb     (   34560)
        Each G-vector array             0.12 Mb     (   15451)
        G-vector shells                 0.06 Mb     (    7683)
     Largest temporary arrays     est. size (Mb)     dimensions
        Auxiliary wavefunctions       233.18 Mb     (    4614, 3312)
        Each subspace H/S matrix        6.69 Mb     (     662,  662)
        Each <psi_i|beta_j> matrix     25.17 Mb     (    1992,  828)
        Arrays for rho mixing           4.22 Mb     (   34560,    8)

     Initial potential from superposition of free atoms
     Check: negative starting charge=   -0.003893

     starting charge 1354.72292, renormalised to 1380.00000

     negative rho (up, down):  3.966E-03 0.000E+00
     Starting wfc are 1356 randomized atomic wfcs

     total cpu time spent up to now is       94.3 secs

     Self-consistent Calculation

     iteration #  1     ecut=    80.00 Ry     beta=0.70
     Davidson diagonalization with overlap
     c_bands:  4 eigenvalues not converged
     c_bands:  1 eigenvalues not converged
     c_bands:  1 eigenvalues not converged
     c_bands:  1 eigenvalues not converged
     c_bands:  4 eigenvalues not converged
     ethr =  1.00E-04,  avg # of iterations = 39.8

     negative rho (up, down):  2.790E+01 0.000E+00

     total cpu time spent up to now is     2304.9 secs

     total energy              =  -11013.19890662 Ry
     Harris-Foulkes estimate   =  -19562.73786584 Ry
     estimated scf accuracy    <  241193.26913846 Ry

     iteration #  2     ecut=    80.00 Ry     beta=0.70
     Davidson diagonalization with overlap
     ethr =  1.00E-02,  avg # of iterations =  9.0

     negative rho (up, down):  3.804E+01 0.000E+00

     total cpu time spent up to now is     3277.2 secs

     total energy              =  -13186.24681250 Ry
     Harris-Foulkes estimate   =  -14640.72154084 Ry
     estimated scf accuracy    <   27409.01662832 Ry

     iteration #  3     ecut=    80.00 Ry     beta=0.70
     Davidson diagonalization with overlap
     ethr =  1.00E-02,  avg # of iterations = 20.2

     negative rho (up, down):  3.038E+01 0.000E+00

     total cpu time spent up to now is     4408.5 secs

     total energy              =  -12824.33261180 Ry
     Harris-Foulkes estimate   =  -14569.39975409 Ry
     estimated scf accuracy    <    8484.51449352 Ry

     iteration #  4     ecut=    80.00 Ry     beta=0.70
     Davidson diagonalization with overlap
     ethr =  1.00E-02,  avg # of iterations =  5.0

     negative rho (up, down):  2.293E+01 0.000E+00

     total cpu time spent up to now is     4972.6 secs

     total energy              =  -13644.07387632 Ry
     Harris-Foulkes estimate   =  -14003.35637847 Ry
     estimated scf accuracy    <    5231.07848603 Ry

     iteration #  5     ecut=    80.00 Ry     beta=0.70
     Davidson diagonalization with overlap
     ethr =  1.00E-02,  avg # of iterations =  6.0

     negative rho (up, down):  2.006E+01 0.000E+00

     total cpu time spent up to now is     5457.8 secs

     total energy              =  -13716.96299493 Ry
     Harris-Foulkes estimate   =  -13991.79065255 Ry
     estimated scf accuracy    <    3267.67920551 Ry

     iteration #  6     ecut=    80.00 Ry     beta=0.70
     Davidson diagonalization with overlap
     ethr =  1.00E-02,  avg # of iterations =  3.0

     negative rho (up, down):  1.416E+01 0.000E+00

     total cpu time spent up to now is     5771.7 secs

     total energy              =  -13779.06964648 Ry
     Harris-Foulkes estimate   =  -13839.45343035 Ry
     estimated scf accuracy    <    1075.48668325 Ry

     iteration #  7     ecut=    80.00 Ry     beta=0.70
     Davidson diagonalization with overlap
     ethr =  1.00E-02,  avg # of iterations =  1.0

     negative rho (up, down):  8.473E+00 0.000E+00

     total cpu time spent up to now is     5924.2 secs

     total energy              =  -13745.80034979 Ry
     Harris-Foulkes estimate   =  -13791.48094095 Ry
     estimated scf accuracy    <     303.43981439 Ry

     iteration #  8     ecut=    80.00 Ry     beta=0.70
     Davidson diagonalization with overlap
     ethr =  1.00E-02,  avg # of iterations =  1.2

     negative rho (up, down):  6.444E+00 0.000E+00

     total cpu time spent up to now is     6078.4 secs

     total energy              =  -13737.64789308 Ry
     Harris-Foulkes estimate   =  -13760.07676896 Ry
     estimated scf accuracy    <     277.89664867 Ry

     iteration #  9     ecut=    80.00 Ry     beta=0.70
     Davidson diagonalization with overlap
     ethr =  1.00E-02,  avg # of iterations =  1.3

     negative rho (up, down):  5.997E+00 0.000E+00

     total cpu time spent up to now is     6235.0 secs

     total energy              =  -13736.93062072 Ry
     Harris-Foulkes estimate   =  -13744.12920956 Ry
     estimated scf accuracy    <     147.59519509 Ry

     iteration # 10     ecut=    80.00 Ry     beta=0.70
     Davidson diagonalization with overlap
     ethr =  1.00E-02,  avg # of iterations =  1.0

     negative rho (up, down):  3.792E+00 0.000E+00

     total cpu time spent up to now is     6387.4 secs

     total energy              =  -13710.77074687 Ry
     Harris-Foulkes estimate   =  -13738.04021261 Ry
     estimated scf accuracy    <     119.52751472 Ry

     iteration # 11     ecut=    80.00 Ry     beta=0.70
     Davidson diagonalization with overlap
     ethr =  8.66E-03,  avg # of iterations =  1.0

     negative rho (up, down):  2.275E+00 0.000E+00

     total cpu time spent up to now is     6540.3 secs

     total energy              =  -13689.32957636 Ry
     Harris-Foulkes estimate   =  -13718.59029848 Ry
     estimated scf accuracy    <      91.31347840 Ry

     iteration # 12     ecut=    80.00 Ry     beta=0.70
     Davidson diagonalization with overlap
     ethr =  6.62E-03,  avg # of iterations =  3.5

     negative rho (up, down):  5.103E+00 0.000E+00

     total cpu time spent up to now is     6728.0 secs

     total energy              =  -13683.30549013 Ry
     Harris-Foulkes estimate   =  -13693.90791677 Ry
     estimated scf accuracy    <      62.07184594 Ry

     iteration # 13     ecut=    80.00 Ry     beta=0.70
     Davidson diagonalization with overlap
     ethr =  4.50E-03,  avg # of iterations =  2.7

     negative rho (up, down):  6.570E+00 0.000E+00

     total cpu time spent up to now is     6902.3 secs

     total energy              =  -13679.29885464 Ry
     Harris-Foulkes estimate   =  -13684.48102125 Ry
     estimated scf accuracy    <      44.14211671 Ry

     iteration # 14     ecut=    80.00 Ry     beta=0.70
     Davidson diagonalization with overlap
     ethr =  3.20E-03,  avg # of iterations =  3.8

     negative rho (up, down):  3.583E+00 0.000E+00

     total cpu time spent up to now is     7095.9 secs

     total energy              =  -13677.43177015 Ry
     Harris-Foulkes estimate   =  -13680.64201777 Ry
     estimated scf accuracy    <      29.69264982 Ry

     iteration # 15     ecut=    80.00 Ry     beta=0.70
     Davidson diagonalization with overlap
     ethr =  2.15E-03,  avg # of iterations =  2.5

     negative rho (up, down):  4.011E-01 0.000E+00

     total cpu time spent up to now is     7267.1 secs

     total energy              =  -13676.09419593 Ry
     Harris-Foulkes estimate   =  -13678.21204170 Ry
     estimated scf accuracy    <      25.94086130 Ry

     iteration # 16     ecut=    80.00 Ry     beta=0.70
     Davidson diagonalization with overlap
     ethr =  1.88E-03,  avg # of iterations =  1.3

     negative rho (up, down):  2.659E-01 0.000E+00

     total cpu time spent up to now is     7424.1 secs

     total energy              =  -13675.46760923 Ry
     Harris-Foulkes estimate   =  -13677.16110554 Ry
     estimated scf accuracy    <      20.61720948 Ry

     iteration # 17     ecut=    80.00 Ry     beta=0.70
     Davidson diagonalization with overlap
     ethr =  1.49E-03,  avg # of iterations =  1.0

     negative rho (up, down):  8.935E-01 0.000E+00

     total cpu time spent up to now is     7576.6 secs

     total energy              =  -13674.12876171 Ry
     Harris-Foulkes estimate   =  -13675.70184728 Ry
     estimated scf accuracy    <      12.51423515 Ry

     iteration # 18     ecut=    80.00 Ry     beta=0.70
     Davidson diagonalization with overlap
     ethr =  9.07E-04,  avg # of iterations =  3.8

     negative rho (up, down):  9.105E-01 0.000E+00

     total cpu time spent up to now is     7766.1 secs

     total energy              =  -13671.92988203 Ry
     Harris-Foulkes estimate   =  -13674.57894107 Ry
     estimated scf accuracy    <       9.84373590 Ry

     iteration # 19     ecut=    80.00 Ry     beta=0.70
     Davidson diagonalization with overlap
     ethr =  7.13E-04,  avg # of iterations =  7.5

     negative rho (up, down):  5.918E-01 0.000E+00

     total cpu time spent up to now is     8014.2 secs

     total energy              =  -13671.86925922 Ry
     Harris-Foulkes estimate   =  -13672.50950364 Ry
     estimated scf accuracy    <       9.83056656 Ry

     iteration # 20     ecut=    80.00 Ry     beta=0.70
     Davidson diagonalization with overlap
     ethr =  7.12E-04,  avg # of iterations =  1.0

     negative rho (up, down):  6.670E-01 0.000E+00

     total cpu time spent up to now is     8166.9 secs

     total energy              =  -13671.04405191 Ry
     Harris-Foulkes estimate   =  -13671.93066547 Ry
     estimated scf accuracy    <       5.05411089 Ry

     iteration # 21     ecut=    80.00 Ry     beta=0.70
     Davidson diagonalization with overlap
     ethr =  3.66E-04,  avg # of iterations =  6.3

     negative rho (up, down):  6.767E-01 0.000E+00

     total cpu time spent up to now is     8400.6 secs

     total energy              =  -13670.90330021 Ry
     Harris-Foulkes estimate   =  -13671.15953337 Ry
     estimated scf accuracy    <       2.02227982 Ry

     iteration # 22     ecut=    80.00 Ry     beta=0.70
     Davidson diagonalization with overlap
     ethr =  1.47E-04,  avg # of iterations =  7.7

     negative rho (up, down):  5.325E-01 0.000E+00

     total cpu time spent up to now is     8648.0 secs

     total energy              =  -13670.88215030 Ry
     Harris-Foulkes estimate   =  -13670.97669271 Ry
     estimated scf accuracy    <       0.45552721 Ry

     iteration # 23     ecut=    80.00 Ry     beta=0.70
     Davidson diagonalization with overlap
     ethr =  3.30E-05,  avg # of iterations = 11.8

     negative rho (up, down):  4.176E-01 0.000E+00

     total cpu time spent up to now is     8990.3 secs

     total energy              =  -13670.87527435 Ry
     Harris-Foulkes estimate   =  -13670.90258563 Ry
     estimated scf accuracy    <       0.18450324 Ry

     iteration # 24     ecut=    80.00 Ry     beta=0.70
     Davidson diagonalization with overlap
     ethr =  1.34E-05,  avg # of iterations =  5.2

     negative rho (up, down):  8.717E-02 0.000E+00

     total cpu time spent up to now is     9208.7 secs

     total energy              =  -13670.87392212 Ry
     Harris-Foulkes estimate   =  -13670.88835196 Ry
     estimated scf accuracy    <       0.07974611 Ry

     iteration # 25     ecut=    80.00 Ry     beta=0.70
     Davidson diagonalization with overlap
     c_bands:  1 eigenvalues not converged
     c_bands:  1 eigenvalues not converged
     c_bands:  1 eigenvalues not converged
     ethr =  5.78E-06,  avg # of iterations = 16.7

     negative rho (up, down):  1.321E-02 0.000E+00

     total cpu time spent up to now is     9631.8 secs

     total energy              =  -13670.87861488 Ry
     Harris-Foulkes estimate   =  -13670.88083258 Ry
     estimated scf accuracy    <       0.01760738 Ry

     iteration # 26     ecut=    80.00 Ry     beta=0.70
     Davidson diagonalization with overlap
     c_bands:  1 eigenvalues not converged
     c_bands:  1 eigenvalues not converged
     ethr =  1.28E-06,  avg # of iterations = 16.2

     negative rho (up, down):  1.348E-02 0.000E+00

     total cpu time spent up to now is    10038.2 secs

     total energy              =  -13670.87989932 Ry
     Harris-Foulkes estimate   =  -13670.88067259 Ry
     estimated scf accuracy    <       0.00814518 Ry

     iteration # 27     ecut=    80.00 Ry     beta=0.70
     Davidson diagonalization with overlap
     ethr =  5.90E-07,  avg # of iterations =  3.8

     negative rho (up, down):  1.616E-02 0.000E+00

     total cpu time spent up to now is    10235.0 secs

     total energy              =  -13670.87985083 Ry
     Harris-Foulkes estimate   =  -13670.88040199 Ry
     estimated scf accuracy    <       0.00219576 Ry

     iteration # 28     ecut=    80.00 Ry     beta=0.70
     Davidson diagonalization with overlap
     ethr =  1.59E-07,  avg # of iterations =  7.3

     negative rho (up, down):  4.925E-03 0.000E+00

     total cpu time spent up to now is    10503.2 secs

     total energy              =  -13670.87988623 Ry
     Harris-Foulkes estimate   =  -13670.88006790 Ry
     estimated scf accuracy    <       0.00039556 Ry

     iteration # 29     ecut=    80.00 Ry     beta=0.70
     Davidson diagonalization with overlap
     ethr =  2.87E-08,  avg # of iterations =  9.2

     negative rho (up, down):  2.837E-03 0.000E+00

     total cpu time spent up to now is    10787.0 secs

     total energy              =  -13670.87990312 Ry
     Harris-Foulkes estimate   =  -13670.87991962 Ry
     estimated scf accuracy    <       0.00015645 Ry

     iteration # 30     ecut=    80.00 Ry     beta=0.70
     Davidson diagonalization with overlap
     ethr =  1.13E-08,  avg # of iterations =  3.5

     negative rho (up, down):  1.360E-04 0.000E+00

     total cpu time spent up to now is    10977.1 secs

     total energy              =  -13670.87991242 Ry
     Harris-Foulkes estimate   =  -13670.87991364 Ry
     estimated scf accuracy    <       0.00003682 Ry

     iteration # 31     ecut=    80.00 Ry     beta=0.70
     Davidson diagonalization with overlap
     ethr =  2.67E-09,  avg # of iterations =  6.8

     negative rho (up, down):  1.964E-04 0.000E+00

     total cpu time spent up to now is    11250.2 secs

     total energy              =  -13670.87991634 Ry
     Harris-Foulkes estimate   =  -13670.87991794 Ry
     estimated scf accuracy    <       0.00001064 Ry

     iteration # 32     ecut=    80.00 Ry     beta=0.70
     Davidson diagonalization with overlap
     ethr =  7.71E-10,  avg # of iterations =  2.5

     negative rho (up, down):  1.833E-04 0.000E+00

     total cpu time spent up to now is    11448.3 secs

     total energy              =  -13670.87991814 Ry
     Harris-Foulkes estimate   =  -13670.87991841 Ry
     estimated scf accuracy    <       0.00000515 Ry

     iteration # 33     ecut=    80.00 Ry     beta=0.70
     Davidson diagonalization with overlap
     ethr =  3.73E-10,  avg # of iterations =  2.2

     negative rho (up, down):  2.258E-04 0.000E+00

     total cpu time spent up to now is    11618.9 secs

     total energy              =  -13670.87991861 Ry
     Harris-Foulkes estimate   =  -13670.87991882 Ry
     estimated scf accuracy    <       0.00000102 Ry

     iteration # 34     ecut=    80.00 Ry     beta=0.70
     Davidson diagonalization with overlap
     ethr =  7.42E-11,  avg # of iterations =  2.7

     negative rho (up, down):  2.710E-04 0.000E+00

     total cpu time spent up to now is    11810.4 secs

     total energy              =  -13670.87991886 Ry
     Harris-Foulkes estimate   =  -13670.87991891 Ry
     estimated scf accuracy    <       0.00000079 Ry

     iteration # 35     ecut=    80.00 Ry     beta=0.70
     Davidson diagonalization with overlap
     ethr =  5.69E-11,  avg # of iterations =  2.7

     negative rho (up, down):  2.663E-04 0.000E+00

     total cpu time spent up to now is    11989.3 secs

     total energy              =  -13670.87991897 Ry
     Harris-Foulkes estimate   =  -13670.87991897 Ry
     estimated scf accuracy    <       0.00000020 Ry

     iteration # 36     ecut=    80.00 Ry     beta=0.70
     Davidson diagonalization with overlap
     ethr =  1.42E-11,  avg # of iterations =  3.0

     negative rho (up, down):  2.759E-04 0.000E+00

     total cpu time spent up to now is    12176.3 secs

     total energy              =  -13670.87991894 Ry
     Harris-Foulkes estimate   =  -13670.87991897 Ry
     estimated scf accuracy    <       0.00000009 Ry

     iteration # 37     ecut=    80.00 Ry     beta=0.70
     Davidson diagonalization with overlap
     ethr =  6.83E-12,  avg # of iterations =  2.0

     negative rho (up, down):  2.692E-04 0.000E+00

     total cpu time spent up to now is    12344.8 secs

     total energy              =  -13670.87991897 Ry
     Harris-Foulkes estimate   =  -13670.87991896 Ry
     estimated scf accuracy    <       0.00000002 Ry

     iteration # 38     ecut=    80.00 Ry     beta=0.70
     Davidson diagonalization with overlap
     ethr =  1.42E-12,  avg # of iterations =  3.0

     negative rho (up, down):  2.644E-04 0.000E+00

     total cpu time spent up to now is    12572.1 secs

     total energy              =  -13670.87991897 Ry
     Harris-Foulkes estimate   =  -13670.87991897 Ry
     estimated scf accuracy    <       0.00000001 Ry

     iteration # 39     ecut=    80.00 Ry     beta=0.70
     Davidson diagonalization with overlap
     ethr =  7.85E-13,  avg # of iterations =  3.0

     negative rho (up, down):  2.696E-04 0.000E+00

     total cpu time spent up to now is    12755.2 secs

     End of self-consistent calculation

          k = 0.0000 0.0000 0.0000 (256287 PWs)   bands (ev):

   -15.4204 -15.0368 -15.0233 -13.9309 -13.9290 -13.4585 -13.4583 -13.0851
   -13.0845 -13.0710 -13.0707 -12.1379 -12.1308 -12.0164 -12.0151 -12.0142
   -12.0133 -10.3285 -10.3283 -10.3216 -10.3215 -10.1223  -9.1225  -8.4449
    -8.4448  -8.4407  -8.4404  -7.5627  -7.5619  -7.5580  -7.5576  -6.5808
    -6.5741  -6.4971  -6.4960  -6.4940  -6.4939  -6.4822  -6.4820  -5.1939
    -4.9456  -4.9456  -4.9381  -4.9369  -4.7868  -4.7866  -4.7813  -4.7812
    -4.6771  -4.6530  -4.2509  -3.8023  -3.6577  -3.6365  -3.6346  -3.6254
    -3.3158  -3.3133  -3.1876  -3.1786  -3.1432  -3.1395  -2.8423  -2.5798
    -2.5793  -2.5022  -2.5013  -2.5004  -2.4997  -2.4408  -2.3496  -2.3397
    -2.3363  -2.3362  -2.1892  -2.1890  -2.1776  -2.1768  -2.1693  -2.1284
    -1.9785  -1.9662  -1.8909  -1.8740  -1.8325  -1.8308  -1.6785  -1.6780
    -1.6720  -1.6720  -1.5640  -1.5632  -1.5418  -1.5135  -1.5126  -1.3914
    -1.3901  -1.3878  -1.3777  -1.3254  -1.3247  -1.3106  -1.3101  -1.2879
    -1.2337  -1.2331  -1.1842  -1.1764  -1.1760  -1.0598  -1.0415  -1.0398
    -0.9912  -0.9884  -0.9660  -0.9654  -0.9635  -0.9517  -0.9269  -0.9267
    -0.9242  -0.9113  -0.9108  -0.8670  -0.8646  -0.8638  -0.8531  -0.8361
    -0.8341  -0.8294  -0.7678  -0.7640  -0.7599  -0.7412  -0.7337  -0.7331
    -0.7129  -0.7004  -0.6980  -0.6442  -0.6434  -0.6036  -0.5701  -0.5685
    -0.5364  -0.4986  -0.4813  -0.4569  -0.4533  -0.4441  -0.4435  -0.4255
    -0.4033  -0.3951  -0.3934  -0.3814  -0.3701  -0.3693  -0.3649  -0.3634
    -0.3337  -0.3309  -0.3257  -0.3146  -0.2567  -0.2564  -0.2427  -0.2357
    -0.2302  -0.2299  -0.2297  -0.2180  -0.2174  -0.2156  -0.2151  -0.1997
    -0.1870  -0.1797  -0.1679  -0.1557  -0.1543  -0.1436  -0.1406  -0.1304
    -0.1263  -0.1260  -0.1256  -0.1128  -0.0859  -0.0818  -0.0671  -0.0654
    -0.0636  -0.0435  -0.0431  -0.0320  -0.0306  -0.0275  -0.0243  -0.0171
    -0.0168  -0.0156  -0.0117   0.0285   0.0300   0.0613   0.0763   0.0884
     0.0962   0.1098   0.1124   0.1401   0.1418   0.1418   0.1482   0.1571
     0.1656   0.1797   0.1801   0.1843   0.1963   0.1981   0.1999   0.2064
     0.2174   0.2178   0.2286   0.2314   0.2322   0.2485   0.2489   0.2561
     0.2568   0.2716   0.2722   0.2891   0.2905   0.3000   0.3095   0.3262
     0.3285   0.3381   0.3409   0.3508   0.3593   0.3613   0.3708   0.3710
     0.3752   0.3826   0.3940   0.3995   0.3996   0.4069   0.4077   0.4113
     0.4151   0.4151   0.4205   0.4273   0.4411   0.4562   0.4572   0.4577
     0.4675   0.4688   0.4708   0.4834   0.4881   0.4892   0.5002   0.5156
     0.5261   0.5267   0.5309   0.5322   0.5333   0.5383   0.5384   0.5425
     0.5433   0.5621   0.5622   0.5690   0.5722   0.5753   0.5759   0.5850
     0.5853   0.5986   0.6092   0.6096   0.6107   0.6157   0.6163   0.6268
     0.6295   0.6295   0.6328   0.6358   0.6652   0.6682   0.6704   0.6709
     0.6925   0.6939   0.7032   0.7097   0.7327   0.7330   0.7341   0.7472
     0.7479   0.7519   0.7543   0.7550   0.7717   0.7733   0.7901   0.7914
     0.7916   0.8032   0.8043   0.8065   0.8124   0.8130   0.8141   0.8268
     0.8276   0.8312   0.8428   0.8452   0.8484   0.8484   0.8490   0.8498
     0.8535   0.8580   0.8582   0.8783   0.8788   0.8944   0.9016   0.9021
     0.9113   0.9336   0.9339   0.9356   0.9428   0.9441   0.9585   0.9601
     0.9607   0.9653   0.9777   0.9938   0.9958   1.0100   1.0106   1.0297
     1.0300   1.0328   1.0345   1.0424   1.0448   1.0463   1.0470   1.0544
     1.0590   1.0596   1.0689   1.0777   1.0833   1.0841   1.1179   1.1214
     1.1390   1.1391   1.1406   1.1532   1.1575   1.1586   1.1794   1.1796
     1.1902   1.1925   1.1937   1.2077   1.2223   1.2252   1.2253   1.2284
     1.2294   1.2326   1.2330   1.2340   1.2456   1.2464   1.2728   1.2735
     1.2768   1.2823   1.2912   1.2915   1.2934   1.3056   1.3056   1.3112
     1.3113   1.3442   1.3502   1.3506   1.3521   1.3529   1.3571   1.3571
     1.3607   1.3679   1.3841   1.3842   1.3893   1.3894   1.3902   1.4024
     1.4112   1.4185   1.4189   1.4215   1.4220   1.4296   1.4412   1.4418
     1.4435   1.4440   1.4621   1.4623   1.4718   1.4727   1.4734   1.4737
     1.4779   1.4790   1.4837   1.4849   1.4860   1.5022   1.5051   1.5137
     1.5214   1.5297   1.5303   1.5320   1.5322   1.5342   1.5395   1.5402
     1.5438   1.5440   1.5452   1.5596   1.5641   1.5661   1.5673   1.5697
     1.5697   1.5731   1.5739   1.5748   1.5824   1.5847   1.5939   1.5957
     1.6341   1.6345   1.6382   1.6450   1.6562   1.6638   1.6641   1.6665
     1.6701   1.6730   1.6762   1.6769   1.6849   1.6849   1.6934   1.6987
     1.7002   1.7025   1.7078   1.7178   1.7189   1.7228   1.7272   1.7274
     1.7298   1.7332   1.7470   1.7482   1.7560   1.7619   1.7654   1.7782
     1.7808   1.7848   1.7859   1.7891   1.7899   1.7927   1.7949   1.7974
     1.7991   1.8068   1.8087   1.8230   1.8247   1.8336   1.8359   1.8366
     1.8374   1.8561   1.8572   1.8599   1.8610   1.8727   1.8743   1.8793
     1.8795   1.8817   1.8833   1.8841   1.8888   1.8903   1.8908   1.8989
     1.9068   1.9072   1.9152   1.9153   1.9170   1.9234   1.9315   1.9395
     1.9415   1.9444   1.9450   1.9504   1.9571   1.9604   1.9659   1.9664
     1.9720   1.9749   1.9849   1.9911   1.9916   1.9936   1.9972   2.0022
     2.0151   2.0156   2.0174   2.0175   2.0241   2.0275   2.0305   2.0317
     2.0411   2.0421   2.0473   2.0500   2.0526   2.0561   2.0590   2.0597
     2.0692   2.0740   2.0828   2.0834   2.0835   2.0856   2.0939   2.0944
     2.0965   2.0988   2.0994   2.1013   2.1044   2.1126   2.1131   2.1172
     2.1345   2.1376   2.1386   2.1538   2.1566   2.1585   2.1590   2.1610
     2.1617   2.1650   2.1660   2.1689   2.1719   2.1772   2.1789   2.1809
     2.1846   2.1883   2.1945   2.1969   2.1971   2.1974   2.1981   2.1983
     2.1995   2.2018   2.2048   2.2083   2.2127   2.2172   2.2192   2.2251
     2.2335   2.2374   2.2436   2.2444   2.2489   2.2528   2.2534   2.2544
     2.2613   2.2637   2.2646   2.2733   2.2806   2.2811   2.2828   2.2880
     2.2886   2.3047   2.3086   2.3095   2.3256   2.3465   2.3469   2.3580
     2.3712   2.3839   2.3842   2.3897   2.4120   2.4121   2.4149   2.4224
     2.4237   2.4272   2.4352   2.4485   2.5239   2.5460   2.6748   2.7419
     2.7543   2.8087   2.8104   2.8316   2.9403   2.9407   2.9552   2.9555
     3.0002   3.0004   3.0039   3.0082   3.0087   3.0594   3.0600   3.1502
     3.1504   3.1559   3.1673   3.3618   3.3628   3.4127   3.4144   3.4764
     3.6367   3.8586   3.8597   4.0597   4.0739   4.0784   4.0936   4.0940
     4.1413   4.1453   4.1872   4.3798   4.3996   4.4562   4.4573   4.5506
     4.6813   4.6813   4.7372   4.7535   4.7545   4.7879   4.7973   4.7977
     4.8108   4.8110   5.0437   5.0680   5.1635   5.1639   5.3894   5.5345
     5.6113   5.6118   5.6525   5.7709   5.9160   5.9948   5.9960   6.0003
     6.0111   6.0264   6.0737   6.2913   6.3150   6.3212   6.3248   6.6641
     6.7055   6.7123   7.0114   7.0119   7.0310   7.0940   7.2464   7.2524
     7.2540   7.5002   7.5178   7.5182   7.5281   7.5480   7.5493   7.5679
     7.5683   7.7717   7.7795   7.7968   7.8094   7.8229   7.8463   7.8809
     7.9040   7.9167   7.9453   7.9573   8.0418   8.1980   8.2325   8.3132
     8.3938   8.3979   8.4564   8.4571   8.4647   8.4843   8.6593   8.6602
     8.7860   8.8325   8.8337   8.8459   8.8723   8.9595   8.9616   9.0067
     9.0083   9.0952   9.1314   9.2325   9.2364   9.2748   9.3385   9.3397
     9.3622   9.3808   9.3813   9.3881   9.3888   9.4450   9.5621   9.5706
     9.5937   9.5944   9.6202   9.7050   9.7066   9.7244   9.7395   9.7422
     9.7514   9.8747   9.9366   9.9874  10.2714  10.2891  10.3073  10.4327
    10.4351  10.4381  10.5018  10.5020  10.5177  10.5190  10.5581  10.5585
    10.5998  10.6104  10.6634  10.6958

          k = 0.0000-0.2165 0.0000 (256176 PWs)   bands (ev):

   -15.3689 -15.2647 -14.5758 -14.5663 -13.4085 -13.4083 -13.3061 -13.3058
   -13.1151 -13.1132 -12.6374 -12.6366 -12.6282 -12.6278 -11.2396 -11.2392
   -11.2365 -11.2357 -11.0381 -11.0005  -9.3427  -9.3427  -9.3242  -9.3240
    -8.1081  -8.0728  -7.9541  -7.9536  -7.9039  -7.9036  -7.0993  -7.0989
    -7.0937  -7.0931  -5.9565  -5.9565  -5.8924  -5.8923  -5.7659  -5.7651
    -5.7648  -5.7645  -5.0609  -5.0586  -4.9607  -4.9589  -4.2461  -4.1422
    -4.1416  -4.0847  -4.0841  -4.0238  -3.9828  -3.9704  -3.6678  -3.5610
    -3.5608  -3.5604  -3.5603  -3.4050  -3.1513  -3.0984  -2.7702  -2.6559
    -2.5865  -2.4823  -2.4822  -2.4702  -2.4694  -2.4440  -2.2942  -2.2055
    -2.2052  -2.2006  -2.0438  -2.0436  -1.9856  -1.9851  -1.8521  -1.8501
    -1.8481  -1.8347  -1.8098  -1.8095  -1.8089  -1.8082  -1.7494  -1.7492
    -1.7272  -1.7230  -1.7215  -1.7181  -1.6502  -1.6496  -1.5395  -1.5364
    -1.4636  -1.4084  -1.3971  -1.3960  -1.3951  -1.3487  -1.3469  -1.3229
    -1.3212  -1.1906  -1.1538  -1.1536  -1.1334  -1.1332  -1.1164  -1.1161
    -1.0229  -1.0211  -1.0001  -0.9921  -0.9764  -0.9707  -0.9626  -0.9613
    -0.9343  -0.9214  -0.9026  -0.9018  -0.9013  -0.8798  -0.8530  -0.8421
    -0.8403  -0.8357  -0.8264  -0.7766  -0.7461  -0.7451  -0.6613  -0.6601
    -0.6216  -0.5737  -0.5734  -0.5721  -0.5571  -0.5438  -0.5100  -0.5025
    -0.4882  -0.4828  -0.4785  -0.4779  -0.4636  -0.4604  -0.4462  -0.4435
    -0.4424  -0.4373  -0.4362  -0.4360  -0.4166  -0.4110  -0.4023  -0.4017
    -0.4002  -0.3913  -0.3310  -0.3304  -0.3098  -0.3083  -0.3075  -0.3055
    -0.2790  -0.2668  -0.2588  -0.2561  -0.2325  -0.2316  -0.2310  -0.2291
    -0.2260  -0.2021  -0.1821  -0.1730  -0.1647  -0.1638  -0.1524  -0.1496
    -0.1488  -0.1478  -0.1267  -0.1240  -0.1178  -0.1078  -0.1073  -0.0977
    -0.0950  -0.0707  -0.0703  -0.0687  -0.0587  -0.0350  -0.0176  -0.0147
    -0.0121  -0.0086  -0.0073   0.0086   0.0255   0.0307   0.0372   0.0713
     0.0912   0.0939   0.1015   0.1551   0.1555   0.1579   0.1631   0.1659
     0.1728   0.1788   0.1795   0.1828   0.1904   0.1944   0.2092   0.2097
     0.2156   0.2203   0.2269   0.2292   0.2348   0.2524   0.2529   0.2539
     0.2582   0.2681   0.2712   0.2763   0.2945   0.3049   0.3148   0.3171
     0.3227   0.3230   0.3264   0.3487   0.3510   0.3515   0.3716   0.3718
     0.3967   0.4110   0.4113   0.4326   0.4334   0.4403   0.4408   0.4594
     0.4600   0.4687   0.4705   0.4807   0.4813   0.4836   0.4971   0.4979
     0.5037   0.5060   0.5072   0.5163   0.5167   0.5271   0.5304   0.5315
     0.5417   0.5421   0.5427   0.5528   0.5594   0.5596   0.5694   0.5695
     0.5730   0.5812   0.5889   0.5891   0.6088   0.6097   0.6149   0.6154
     0.6159   0.6187   0.6201   0.6304   0.6314   0.6435   0.6656   0.6660
     0.6681   0.6708   0.6744   0.6793   0.6910   0.7006   0.7006   0.7045
     0.7048   0.7132   0.7198   0.7229   0.7231   0.7289   0.7503   0.7547
     0.7549   0.7639   0.7790   0.7856   0.7873   0.7925   0.7929   0.8096
     0.8108   0.8114   0.8124   0.8142   0.8143   0.8163   0.8229   0.8333
     0.8337   0.8549   0.8564   0.8569   0.8572   0.8693   0.8694   0.8773
     0.8774   0.8965   0.8980   0.8996   0.9016   0.9019   0.9034   0.9053
     0.9061   0.9126   0.9245   0.9299   0.9320   0.9324   0.9369   0.9485
     0.9544   0.9585   0.9691   0.9725   0.9809   1.0020   1.0084   1.0146
     1.0151   1.0279   1.0283   1.0470   1.0483   1.0527   1.0557   1.0657
     1.0680   1.0763   1.0766   1.0820   1.0837   1.0883   1.0910   1.1152
     1.1205   1.1382   1.1390   1.1400   1.1445   1.1483   1.1616   1.1645
     1.1710   1.1717   1.1932   1.1935   1.2101   1.2130   1.2327   1.2337
     1.2339   1.2403   1.2405   1.2450   1.2455   1.2505   1.2710   1.2720
     1.2772   1.2864   1.2866   1.2890   1.2991   1.2999   1.3157   1.3194
     1.3222   1.3227   1.3292   1.3297   1.3314   1.3318   1.3409   1.3418
     1.3477   1.3491   1.3585   1.3601   1.3612   1.3629   1.3721   1.3774
     1.3796   1.3895   1.3993   1.4002   1.4052   1.4059   1.4063   1.4138
     1.4149   1.4175   1.4267   1.4292   1.4292   1.4459   1.4526   1.4534
     1.4708   1.4710   1.4751   1.4753   1.4759   1.4801   1.4838   1.4921
     1.4943   1.4970   1.4978   1.4987   1.5139   1.5141   1.5179   1.5186
     1.5214   1.5221   1.5223   1.5243   1.5395   1.5400   1.5627   1.5642
     1.5657   1.5673   1.5675   1.5841   1.5843   1.5927   1.6043   1.6049
     1.6113   1.6125   1.6164   1.6407   1.6498   1.6757   1.6767   1.6795
     1.6817   1.6870   1.6925   1.6949   1.7016   1.7016   1.7052   1.7074
     1.7099   1.7169   1.7180   1.7205   1.7210   1.7215   1.7270   1.7373
     1.7403   1.7510   1.7527   1.7554   1.7592   1.7600   1.7615   1.7629
     1.7678   1.7704   1.7710   1.7718   1.7739   1.7775   1.7779   1.7825
     1.7851   1.7855   1.7874   1.7960   1.7972   1.8066   1.8077   1.8080
     1.8189   1.8283   1.8288   1.8305   1.8353   1.8409   1.8414   1.8555
     1.8675   1.8686   1.8691   1.8694   1.8702   1.8773   1.8790   1.8805
     1.9018   1.9041   1.9145   1.9183   1.9209   1.9217   1.9261   1.9310
     1.9339   1.9354   1.9362   1.9534   1.9658   1.9675   1.9707   1.9729
     1.9731   1.9762   1.9839   1.9861   1.9900   1.9902   1.9912   1.9955
     1.9957   2.0062   2.0120   2.0138   2.0155   2.0163   2.0231   2.0239
     2.0254   2.0270   2.0292   2.0489   2.0492   2.0501   2.0518   2.0595
     2.0599   2.0662   2.0734   2.0762   2.0763   2.0822   2.0826   2.0845
     2.0939   2.1043   2.1048   2.1059   2.1142   2.1146   2.1171   2.1176
     2.1195   2.1288   2.1345   2.1370   2.1372   2.1389   2.1522   2.1525
     2.1529   2.1627   2.1662   2.1666   2.1715   2.1716   2.1724   2.1853
     2.1859   2.1906   2.1929   2.2004   2.2031   2.2046   2.2052   2.2068
     2.2197   2.2202   2.2238   2.2279   2.2289   2.2401   2.2438   2.2439
     2.2468   2.2478   2.2483   2.2490   2.2583   2.2584   2.2612   2.2699
     2.2792   2.2854   2.2864   2.3020   2.3062   2.3073   2.3076   2.3165
     2.3165   2.3247   2.3259   2.3263   2.3389   2.3391   2.3420   2.3484
     2.3536   2.4105   2.4293   2.4328   2.5053   2.5324   2.5348   2.5461
     2.5468   2.5599   2.5601   2.5819   2.5822   2.6185   2.6194   2.6263
     2.6428   2.6434   2.8068   2.8247   2.8270   2.9220   2.9892   2.9910
     3.0659   3.0670   3.0947   3.0960   3.1451   3.1862   3.1864   3.2299
     3.2310   3.2820   3.3238   3.3610   3.3620   3.4528   3.4564   3.4571
     3.4811   3.6764   3.7061   3.7065   3.7732   3.7768   3.8747   3.8760
     3.9510   3.9512   4.1864   4.1925   4.2497   4.2499   4.3564   4.4219
     4.5872   4.7360   4.7364   4.8494   4.8500   4.9364   5.0581   5.0673
     5.0791   5.0799   5.1690   5.1726   5.3068   5.3074   5.5782   5.6072
     5.6082   5.6964   5.7108   5.8559   5.8830   5.9978   6.0185   6.0204
     6.1473   6.1476   6.2030   6.3551   6.4131   6.4695   6.4811   6.4824
     6.5089   6.7953   6.8999   6.9064   6.9073   6.9228   6.9344   7.1530
     7.1851   7.1855   7.2775   7.3484   7.3493   7.4113   7.4599   7.5182
     7.5195   7.6699   7.8086   7.8183   7.8644   7.8667   7.8816   7.8849
     7.8854   7.9113   7.9342   7.9627   8.0196   8.0206   8.1972   8.2541
     8.2589   8.6025   8.6039   8.6734   8.6758   8.6789   8.6950   8.7232
     8.7266   8.7351   8.7428   8.8178   8.9072   8.9486   8.9651   8.9742
     9.1025   9.1029   9.1390   9.1837   9.2514   9.2555   9.3398   9.3447
     9.3750   9.3773   9.3851   9.4455   9.5102   9.5582   9.6060   9.6140
     9.6602   9.6641   9.8770   9.8783   9.8832   9.8855   9.9245   9.9260
    10.0222  10.1443  10.1454  10.1680  10.1693  10.2084  10.2088  10.2534
    10.2810  10.2834  10.4054  10.4168  10.4174  10.4333  10.4434  10.5021
    10.5882  10.6551  10.6850  10.6864

          k = 0.2500 0.0000 0.0000 (256240 PWs)   bands (ev):

   -15.2963 -14.9133 -14.8997 -14.3100 -13.9318 -13.9181 -13.8094 -13.8074
   -12.8449 -12.8431 -12.3826 -12.0213 -12.0169 -12.0142 -12.0027 -11.1007
   -11.0937 -10.9874 -10.9858 -10.0168  -9.7465  -9.6955  -9.6300  -9.1759
    -9.0178  -8.7235  -8.7167  -8.3182  -8.0606  -8.0597  -7.5104  -6.5067
    -6.5026  -6.4995  -6.4940  -6.3863  -6.3820  -5.9198  -5.6457  -5.0824
    -5.0138  -4.8968  -4.8901  -4.8520  -4.8514  -4.5034  -4.4797  -4.1474
    -4.1418  -4.0791  -3.6443  -3.6392  -3.6371  -3.4970  -3.4746  -3.3333
    -3.3318  -3.3065  -3.2991  -3.1866  -3.1680  -3.0410  -3.0311  -2.9975
    -2.9936  -2.8682  -2.7873  -2.6914  -2.5834  -2.5823  -2.5178  -2.5106
    -2.4900  -2.4777  -2.4382  -2.3753  -2.3728  -2.3237  -2.3162  -2.3146
    -2.2115  -2.1043  -2.0525  -2.0148  -1.9711  -1.9673  -1.8791  -1.8695
    -1.7516  -1.7343  -1.6478  -1.5816  -1.5498  -1.4875  -1.4351  -1.4339
    -1.4266  -1.3104  -1.3037  -1.2843  -1.2583  -1.2514  -1.2257  -1.2224
    -1.1237  -1.0920  -1.0523  -1.0406  -0.9909  -0.9778  -0.9757  -0.9711
    -0.9660  -0.9641  -0.9579  -0.9509  -0.9463  -0.9033  -0.8819  -0.8494
    -0.8396  -0.8165  -0.7854  -0.7842  -0.7799  -0.7699  -0.7581  -0.7505
    -0.7489  -0.7252  -0.6940  -0.6914  -0.6908  -0.6859  -0.6475  -0.6449
    -0.6298  -0.6230  -0.6223  -0.6075  -0.5786  -0.5661  -0.5244  -0.5019
    -0.4970  -0.4848  -0.4670  -0.4618  -0.4334  -0.4309  -0.4228  -0.4209
    -0.4179  -0.4132  -0.3954  -0.3853  -0.3693  -0.3652  -0.3561  -0.3402
    -0.3231  -0.3195  -0.3187  -0.3159  -0.3146  -0.3105  -0.3020  -0.2882
    -0.2755  -0.2751  -0.2472  -0.2460  -0.2299  -0.2192  -0.2162  -0.2108
    -0.2070  -0.2038  -0.2029  -0.1977  -0.1914  -0.1880  -0.1851  -0.1760
    -0.1749  -0.1706  -0.1658  -0.1624  -0.1590  -0.1499  -0.1433  -0.1244
    -0.1092  -0.0988  -0.0959  -0.0725  -0.0699  -0.0600  -0.0481  -0.0345
     0.0053   0.0080   0.0140   0.0186   0.0217   0.0306   0.0315   0.0381
     0.0488   0.0514   0.0558   0.0604   0.0648   0.0737   0.0754   0.1069
     0.1378   0.1688   0.1868   0.1917   0.2000   0.2166   0.2201   0.2305
     0.2395   0.2435   0.2493   0.2527   0.2556   0.2584   0.2608   0.2661
     0.2678   0.2701   0.2877   0.2887   0.2903   0.3065   0.3083   0.3099
     0.3130   0.3174   0.3184   0.3403   0.3510   0.3584   0.3631   0.3650
     0.3943   0.3964   0.3972   0.4070   0.4122   0.4144   0.4169   0.4193
     0.4301   0.4361   0.4421   0.4441   0.4499   0.4520   0.4559   0.4768
     0.4866   0.4882   0.4994   0.5023   0.5063   0.5092   0.5119   0.5226
     0.5237   0.5277   0.5323   0.5352   0.5394   0.5480   0.5545   0.5633
     0.5755   0.5774   0.5820   0.5849   0.5920   0.5981   0.6104   0.6152
     0.6229   0.6253   0.6259   0.6269   0.6385   0.6390   0.6437   0.6545
     0.6554   0.6609   0.7037   0.7046   0.7071   0.7084   0.7087   0.7127
     0.7208   0.7220   0.7257   0.7306   0.7380   0.7562   0.7591   0.7601
     0.7755   0.7757   0.7781   0.7860   0.7884   0.7919   0.7978   0.7994
     0.8029   0.8038   0.8111   0.8165   0.8207   0.8213   0.8221   0.8330
     0.8343   0.8405   0.8500   0.8567   0.8575   0.8615   0.8630   0.8686
     0.8729   0.8798   0.8849   0.8868   0.8916   0.8982   0.9230   0.9290
     0.9338   0.9363   0.9461   0.9500   0.9564   0.9693   0.9727   0.9754
     0.9765   0.9925   0.9943   1.0134   1.0179   1.0251   1.0412   1.0425
     1.0497   1.0517   1.0624   1.0686   1.0757   1.0775   1.0800   1.0815
     1.0865   1.0960   1.0988   1.1027   1.1040   1.1049   1.1096   1.1112
     1.1204   1.1237   1.1244   1.1320   1.1333   1.1386   1.1442   1.1582
     1.1623   1.1638   1.1717   1.1778   1.1843   1.1861   1.2038   1.2051
     1.2105   1.2237   1.2324   1.2327   1.2339   1.2419   1.2444   1.2513
     1.2570   1.2590   1.2609   1.2697   1.2722   1.2756   1.2783   1.2900
     1.2929   1.2982   1.3035   1.3076   1.3108   1.3220   1.3244   1.3408
     1.3414   1.3431   1.3472   1.3531   1.3590   1.3607   1.3646   1.3720
     1.3733   1.3758   1.3801   1.3825   1.3880   1.3941   1.3953   1.4032
     1.4124   1.4193   1.4228   1.4263   1.4326   1.4350   1.4393   1.4457
     1.4472   1.4485   1.4555   1.4564   1.4592   1.4617   1.4720   1.4850
     1.4894   1.4923   1.4972   1.5008   1.5139   1.5260   1.5294   1.5368
     1.5512   1.5523   1.5527   1.5567   1.5598   1.5602   1.5611   1.5626
     1.5634   1.5661   1.5820   1.5860   1.5944   1.6060   1.6120   1.6134
     1.6241   1.6255   1.6284   1.6433   1.6455   1.6461   1.6553   1.6561
     1.6577   1.6600   1.6611   1.6628   1.6753   1.6777   1.6794   1.6798
     1.6826   1.6917   1.7055   1.7096   1.7156   1.7184   1.7189   1.7269
     1.7282   1.7310   1.7361   1.7480   1.7559   1.7676   1.7687   1.7741
     1.7782   1.7840   1.7910   1.7930   1.7955   1.7992   1.7996   1.8033
     1.8087   1.8108   1.8132   1.8143   1.8152   1.8213   1.8285   1.8311
     1.8327   1.8401   1.8417   1.8471   1.8487   1.8531   1.8543   1.8565
     1.8600   1.8628   1.8642   1.8680   1.8693   1.8836   1.8854   1.8879
     1.8884   1.8955   1.8987   1.9000   1.9020   1.9038   1.9077   1.9124
     1.9218   1.9270   1.9290   1.9425   1.9462   1.9472   1.9488   1.9496
     1.9621   1.9670   1.9754   1.9857   1.9861   1.9961   1.9968   2.0023
     2.0031   2.0037   2.0052   2.0061   2.0096   2.0106   2.0228   2.0315
     2.0342   2.0356   2.0457   2.0460   2.0466   2.0503   2.0606   2.0670
     2.0685   2.0693   2.0697   2.0712   2.0719   2.0755   2.0855   2.0873
     2.0880   2.0890   2.0957   2.0970   2.0983   2.1018   2.1041   2.1078
     2.1210   2.1268   2.1308   2.1402   2.1483   2.1513   2.1518   2.1570
     2.1585   2.1644   2.1657   2.1679   2.1683   2.1713   2.1822   2.1860
     2.1871   2.1892   2.1937   2.1952   2.1983   2.2044   2.2081   2.2104
     2.2125   2.2145   2.2160   2.2204   2.2232   2.2273   2.2315   2.2330
     2.2393   2.2441   2.2461   2.2478   2.2563   2.2585   2.2612   2.2624
     2.2627   2.2637   2.2697   2.2736   2.2742   2.2861   2.2877   2.2908
     2.2966   2.3051   2.3077   2.3100   2.3199   2.3205   2.3284   2.3401
     2.3476   2.3551   2.3711   2.3743   2.3917   2.3926   2.4055   2.4103
     2.4219   2.4246   2.4263   2.5034   2.5201   2.5280   2.5592   2.5820
     2.5910   2.6219   2.6323   2.6948   2.7718   2.8040   2.8151   2.8228
     2.8539   2.8774   3.0742   3.0780   3.1965   3.2481   3.2499   3.2513
     3.2942   3.4211   3.5587   3.7069   3.7324   3.7687   3.7707   3.8351
     3.9309   3.9626   4.0101   4.0128   4.0383   4.1770   4.2235   4.2807
     4.2822   4.3136   4.4089   4.4196   4.4460   4.4499   4.4685   4.4703
     4.5404   4.6380   4.8308   5.0220   5.0400   5.0444   5.0805   5.1887
     5.2160   5.2235   5.2333   5.3571   5.4681   5.5476   5.5675   5.5795
     5.6049   5.7418   5.7866   5.7903   5.8324   5.8703   5.9431   5.9821
     6.1191   6.1275   6.1434   6.2644   6.2824   6.3780   6.3822   6.3983
     6.4123   6.4771   6.5985   6.6949   6.7230   6.7750   6.8378   6.8616
     6.9102   6.9123   6.9913   7.1336   7.1657   7.3845   7.4659   7.4850
     7.5227   7.5432   7.5541   7.5672   7.6201   7.7247   7.7841   7.7862
     7.8078   7.8156   7.8281   7.8340   7.9109   7.9194   7.9523   8.0423
     8.0717   8.1567   8.1581   8.2047   8.2740   8.3462   8.4257   8.5381
     8.5428   8.6205   8.6387   8.6414   8.6528   8.6624   8.7801   8.8026
     8.8084   8.9645   9.0278   9.0986   9.1091   9.1596   9.1740   9.1760
     9.1815   9.2224   9.3117   9.3165   9.3198   9.3995   9.4045   9.4549
     9.5707   9.5794   9.6807   9.6865   9.6988   9.7335   9.7799   9.7911
     9.8147   9.8287   9.9260   9.9464   9.9925  10.0150  10.0156  10.0911
    10.1454  10.1524  10.2725  10.2892  10.3018  10.3960  10.4522  10.5244
    10.5272  10.5393  10.5455  10.5651

          k = 0.2500-0.2165 0.0000 (256316 PWs)   bands (ev):

   -15.2448 -15.1408 -14.4530 -14.4435 -14.2593 -14.1562 -13.4777 -13.4686
   -12.9955 -12.9937 -12.3338 -12.2325 -12.0479 -12.0463 -11.5814 -11.5729
   -10.9264 -10.8886 -10.2836 -10.2835 -10.0473 -10.0109  -9.6877  -9.5919
    -8.5984  -8.5925  -8.1015  -8.0482  -8.0144  -7.9788  -7.4551  -7.4151
    -7.3423  -7.3408  -5.6464  -5.5987  -5.5981  -5.5890  -5.5077  -5.4229
    -5.2783  -5.2218  -4.9202  -4.9186  -4.8826  -4.8800  -4.1160  -4.1155
    -4.0757  -3.8585  -3.8189  -3.8029  -3.7950  -3.7945  -3.5238  -3.5179
    -3.5169  -3.2576  -3.1886  -3.1311  -3.1141  -3.1124  -3.0040  -2.9539
    -2.8118  -2.7952  -2.7221  -2.6332  -2.6253  -2.6011  -2.5541  -2.5526
    -2.5127  -2.4976  -2.4417  -2.3463  -2.2981  -2.1755  -2.1727  -2.0989
    -2.0830  -2.0788  -2.0380  -2.0346  -1.9740  -1.9504  -1.8533  -1.8446
    -1.7521  -1.7289  -1.6172  -1.5648  -1.5610  -1.4998  -1.4867  -1.4226
    -1.3946  -1.3594  -1.3389  -1.3328  -1.3262  -1.3140  -1.3055  -1.2019
    -1.2013  -1.1470  -1.1242  -1.0917  -1.0031  -0.9885  -0.9597  -0.9406
    -0.9325  -0.9194  -0.9093  -0.8989  -0.8954  -0.8815  -0.8783  -0.8765
    -0.8724  -0.8720  -0.8598  -0.8550  -0.8396  -0.8270  -0.7753  -0.7674
    -0.7521  -0.7499  -0.7428  -0.7336  -0.7184  -0.7168  -0.6747  -0.6576
    -0.6493  -0.5824  -0.5723  -0.5583  -0.5343  -0.5175  -0.4969  -0.4918
    -0.4832  -0.4704  -0.4640  -0.4568  -0.4440  -0.4339  -0.4333  -0.4289
    -0.4253  -0.4221  -0.4031  -0.3913  -0.3873  -0.3818  -0.3793  -0.3736
    -0.3668  -0.3599  -0.3320  -0.3161  -0.3103  -0.3045  -0.2972  -0.2955
    -0.2927  -0.2842  -0.2638  -0.2515  -0.2505  -0.2433  -0.2258  -0.2232
    -0.2218  -0.2162  -0.2049  -0.1989  -0.1894  -0.1840  -0.1794  -0.1773
    -0.1692  -0.1567  -0.1508  -0.1505  -0.1496  -0.1494  -0.1200  -0.1191
    -0.0889  -0.0817  -0.0674  -0.0580  -0.0564  -0.0540  -0.0452  -0.0294
    -0.0250  -0.0099   0.0052   0.0181   0.0326   0.0429   0.0531   0.0615
     0.0769   0.0816   0.0917   0.0949   0.1140   0.1156   0.1170   0.1320
     0.1532   0.1639   0.1830   0.1890   0.1938   0.2086   0.2143   0.2200
     0.2250   0.2416   0.2421   0.2451   0.2479   0.2514   0.2533   0.2687
     0.2697   0.2707   0.2787   0.2801   0.2922   0.3105   0.3159   0.3302
     0.3353   0.3391   0.3488   0.3501   0.3650   0.3665   0.3687   0.3692
     0.3851   0.3912   0.4064   0.4120   0.4170   0.4225   0.4239   0.4314
     0.4322   0.4323   0.4376   0.4392   0.4455   0.4483   0.4518   0.4583
     0.4593   0.4729   0.4854   0.4889   0.4926   0.4985   0.5062   0.5203
     0.5231   0.5353   0.5513   0.5570   0.5629   0.5657   0.5688   0.5758
     0.5821   0.5841   0.5881   0.5956   0.5987   0.6061   0.6137   0.6155
     0.6157   0.6407   0.6409   0.6457   0.6498   0.6530   0.6628   0.6652
     0.6823   0.6842   0.6849   0.6858   0.6903   0.7063   0.7065   0.7098
     0.7117   0.7251   0.7336   0.7387   0.7394   0.7485   0.7535   0.7550
     0.7590   0.7611   0.7703   0.7707   0.7772   0.7802   0.7907   0.7932
     0.7982   0.7992   0.7995   0.8081   0.8141   0.8188   0.8235   0.8239
     0.8254   0.8292   0.8308   0.8413   0.8662   0.8695   0.8773   0.8836
     0.8890   0.8907   0.8915   0.8961   0.9083   0.9268   0.9287   0.9317
     0.9382   0.9388   0.9406   0.9435   0.9471   0.9538   0.9581   0.9699
     0.9761   0.9777   0.9820   0.9855   0.9955   1.0071   1.0120   1.0126
     1.0178   1.0215   1.0230   1.0264   1.0484   1.0636   1.0781   1.0818
     1.0885   1.0913   1.0925   1.0941   1.1038   1.1105   1.1124   1.1164
     1.1191   1.1239   1.1246   1.1269   1.1426   1.1441   1.1500   1.1603
     1.1634   1.1664   1.1675   1.1762   1.1768   1.1774   1.1950   1.1989
     1.2008   1.2062   1.2120   1.2208   1.2302   1.2317   1.2467   1.2496
     1.2572   1.2583   1.2617   1.2637   1.2825   1.2831   1.2839   1.2971
     1.2992   1.3013   1.3055   1.3092   1.3126   1.3234   1.3386   1.3427
     1.3451   1.3573   1.3671   1.3688   1.3790   1.3803   1.3835   1.3848
     1.3866   1.3948   1.3962   1.4024   1.4043   1.4066   1.4092   1.4128
     1.4252   1.4279   1.4356   1.4398   1.4429   1.4508   1.4541   1.4577
     1.4730   1.4768   1.4773   1.4778   1.4881   1.4897   1.4927   1.4959
     1.4968   1.4980   1.5029   1.5046   1.5137   1.5153   1.5355   1.5397
     1.5416   1.5425   1.5434   1.5467   1.5502   1.5512   1.5536   1.5582
     1.5685   1.5696   1.5725   1.5737   1.5856   1.5945   1.5958   1.6010
     1.6067   1.6136   1.6247   1.6267   1.6308   1.6356   1.6391   1.6432
     1.6469   1.6506   1.6553   1.6596   1.6714   1.6749   1.6761   1.6764
     1.6811   1.6881   1.6917   1.6923   1.7037   1.7054   1.7075   1.7197
     1.7214   1.7247   1.7285   1.7404   1.7418   1.7434   1.7521   1.7564
     1.7616   1.7638   1.7708   1.7763   1.7823   1.7835   1.7895   1.7914
     1.8009   1.8047   1.8190   1.8205   1.8247   1.8370   1.8429   1.8464
     1.8488   1.8521   1.8542   1.8596   1.8617   1.8652   1.8717   1.8760
     1.8801   1.8868   1.8905   1.8912   1.8956   1.8967   1.8992   1.9053
     1.9078   1.9117   1.9140   1.9235   1.9255   1.9286   1.9309   1.9364
     1.9379   1.9418   1.9551   1.9567   1.9583   1.9598   1.9637   1.9676
     1.9681   1.9704   1.9765   1.9785   1.9836   1.9861   1.9897   1.9922
     1.9931   2.0012   2.0020   2.0051   2.0078   2.0183   2.0196   2.0269
     2.0281   2.0327   2.0384   2.0431   2.0446   2.0473   2.0511   2.0521
     2.0575   2.0598   2.0611   2.0624   2.0660   2.0727   2.0818   2.0903
     2.0976   2.0984   2.1028   2.1084   2.1104   2.1110   2.1162   2.1176
     2.1225   2.1261   2.1290   2.1367   2.1425   2.1461   2.1479   2.1495
     2.1530   2.1640   2.1649   2.1653   2.1664   2.1689   2.1721   2.1731
     2.1773   2.1844   2.1865   2.1949   2.1962   2.1972   2.2077   2.2092
     2.2133   2.2171   2.2211   2.2222   2.2236   2.2251   2.2325   2.2357
     2.2380   2.2401   2.2406   2.2434   2.2513   2.2550   2.2590   2.2600
     2.2660   2.2664   2.2683   2.2743   2.2768   2.2860   2.2867   2.2897
     2.2916   2.2929   2.2972   2.2997   2.3068   2.3104   2.3231   2.3346
     2.3352   2.3404   2.3451   2.3645   2.3785   2.3820   2.4142   2.4518
     2.4521   2.4748   2.4840   2.4947   2.5055   2.5187   2.5238   2.5369
     2.5417   2.5502   2.6566   2.7407   2.8885   2.9023   2.9096   2.9269
     2.9362   2.9450   2.9665   3.0257   3.0494   3.1898   3.2605   3.3476
     3.3686   3.4017   3.4621   3.5414   3.5786   3.5870   3.6367   3.6686
     3.7070   3.8597   3.8755   3.9098   3.9253   4.1700   4.3048   4.3387
     4.4363   4.5015   4.5634   4.5764   4.5890   4.5965   4.6141   4.7719
     4.8384   4.8693   4.9235   4.9276   4.9989   5.0639   5.0680   5.0835
     5.2219   5.2397   5.3083   5.3454   5.3820   5.4196   5.4279   5.4790
     5.6711   5.6906   5.7782   5.7826   5.7939   5.8565   5.8602   5.8861
     5.9784   5.9851   6.1420   6.1797   6.1842   6.2385   6.2863   6.4663
     6.4889   6.5175   6.5218   6.5381   6.6994   6.7368   6.8552   6.9020
     6.9470   7.0578   7.0893   7.1204   7.1649   7.2030   7.2868   7.4472
     7.5068   7.5343   7.5623   7.6431   7.6508   7.7992   7.8325   7.8830
     7.8894   7.8916   7.9321   7.9751   8.0456   8.1016   8.1398   8.1480
     8.1604   8.1853   8.1890   8.2113   8.3161   8.3557   8.3963   8.4720
     8.5399   8.6029   8.6454   8.7609   8.7712   8.8061   8.8088   8.8555
     8.8661   8.9200   8.9884   9.0134   9.0170   9.0207   9.0584   9.0687
     9.2502   9.3105   9.3663   9.3966   9.4044   9.4259   9.4629   9.4814
     9.4944   9.5372   9.5404   9.5483   9.6059   9.6194   9.7187   9.7411
     9.7898   9.8054   9.8250   9.8713   9.8886  10.0039  10.0105  10.0454
    10.1122  10.1650  10.1684  10.1785  10.2510  10.2703  10.2726  10.3147
    10.3795  10.4237  10.4467  10.4661

          k =-0.5000 0.0000 0.0000 (256496 PWs)   bands (ev):

   -14.9256 -14.9243 -14.5445 -14.5430 -14.5305 -14.5297 -13.4466 -13.4454
   -13.4447 -13.4435 -11.6741 -11.6727 -11.6667 -11.6657 -11.1097 -11.1063
   -10.7701 -10.7630 -10.7528 -10.7493 -10.1109 -10.1098  -9.7014  -9.7005
    -9.1226  -9.1224  -8.7197  -8.7176  -7.8842  -7.8835  -7.8762  -7.8756
    -6.3853  -6.3841  -6.3233  -6.3212  -6.3164  -6.3147  -4.8712  -4.8695
    -4.4837  -4.4830  -4.1456  -4.1438  -3.9958  -3.9904  -3.9733  -3.9683
    -3.7252  -3.7240  -3.7135  -3.7122  -3.6338  -3.6333  -3.6327  -3.6315
    -3.5789  -3.5729  -3.3552  -3.3500  -3.3460  -3.3403  -3.1771  -3.1734
    -3.0331  -3.0308  -3.0265  -3.0241  -2.6108  -2.6086  -2.6002  -2.5989
    -2.5744  -2.5725  -2.5681  -2.5671  -2.3474  -2.3460  -2.3317  -2.3309
    -2.3301  -2.3291  -2.2668  -2.2573  -1.9790  -1.9754  -1.8803  -1.8785
    -1.7430  -1.7421  -1.7365  -1.7361  -1.7173  -1.7169  -1.7085  -1.7065
    -1.3489  -1.3461  -1.3291  -1.3256  -1.1535  -1.1496  -1.1483  -1.1462
    -1.0555  -1.0552  -1.0551  -1.0547  -1.0451  -1.0443  -1.0116  -1.0111
    -0.8415  -0.8408  -0.8396  -0.8387  -0.7954  -0.7950  -0.7846  -0.7818
    -0.7766  -0.7752  -0.7185  -0.7180  -0.6833  -0.6830  -0.6318  -0.6312
    -0.6280  -0.6261  -0.6244  -0.6233  -0.5960  -0.5956  -0.5763  -0.5755
    -0.5445  -0.5435  -0.5373  -0.5366  -0.5096  -0.5093  -0.5079  -0.5072
    -0.4888  -0.4872  -0.4780  -0.4772  -0.4653  -0.4644  -0.4576  -0.4569
    -0.4358  -0.4342  -0.4231  -0.4225  -0.4027  -0.4019  -0.3899  -0.3799
    -0.3665  -0.3637  -0.3620  -0.3609  -0.3508  -0.3504  -0.3463  -0.3458
    -0.3019  -0.3009  -0.2942  -0.2926  -0.2866  -0.2829  -0.2614  -0.2591
    -0.2504  -0.2498  -0.2247  -0.2236  -0.2172  -0.2146  -0.2012  -0.1994
    -0.1596  -0.1592  -0.1572  -0.1560  -0.1538  -0.1527  -0.1458  -0.1446
    -0.1262  -0.1245  -0.1029  -0.1023  -0.1011  -0.1001  -0.0998  -0.0990
    -0.0872  -0.0850  -0.0688  -0.0684  -0.0401  -0.0390   0.0301   0.0306
     0.0316   0.0325   0.0868   0.0879   0.0991   0.1003   0.1120   0.1125
     0.1359   0.1366   0.1480   0.1494   0.1526   0.1532   0.1645   0.1650
     0.1882   0.1890   0.1911   0.1918   0.2212   0.2220   0.2325   0.2335
     0.2455   0.2456   0.2871   0.2890   0.3295   0.3317   0.3370   0.3373
     0.3450   0.3472   0.3525   0.3534   0.3640   0.3685   0.3785   0.3801
     0.3897   0.3917   0.4021   0.4026   0.4240   0.4243   0.4366   0.4375
     0.4553   0.4567   0.4584   0.4595   0.4708   0.4716   0.4995   0.5000
     0.5064   0.5076   0.5133   0.5145   0.5337   0.5345   0.5448   0.5465
     0.5574   0.5594   0.5634   0.5642   0.5770   0.5794   0.6008   0.6032
     0.6070   0.6079   0.6321   0.6331   0.6363   0.6381   0.6472   0.6500
     0.6524   0.6532   0.6611   0.6615   0.6712   0.6718   0.6849   0.6857
     0.6940   0.6946   0.7330   0.7347   0.7392   0.7400   0.7451   0.7456
     0.7603   0.7638   0.7646   0.7653   0.7658   0.7670   0.7796   0.7809
     0.7864   0.7866   0.7969   0.7984   0.8047   0.8058   0.8126   0.8133
     0.8441   0.8445   0.8611   0.8615   0.8776   0.8796   0.8823   0.8829
     0.8875   0.8877   0.8920   0.8938   0.8942   0.8955   0.8989   0.8992
     0.9027   0.9037   0.9054   0.9066   0.9255   0.9267   0.9306   0.9310
     0.9329   0.9333   0.9403   0.9418   0.9450   0.9463   0.9502   0.9509
     0.9631   0.9659   0.9667   0.9678   1.0067   1.0076   1.0093   1.0139
     1.0625   1.0633   1.0658   1.0668   1.0858   1.0887   1.0905   1.0932
     1.1140   1.1145   1.1149   1.1155   1.1179   1.1196   1.1395   1.1404
     1.1488   1.1498   1.1525   1.1537   1.1571   1.1586   1.1611   1.1644
     1.1754   1.1758   1.1778   1.1784   1.1846   1.1884   1.1891   1.1896
     1.2018   1.2040   1.2064   1.2082   1.2195   1.2215   1.2253   1.2333
     1.2552   1.2617   1.2670   1.2712   1.2748   1.2784   1.2905   1.2907
     1.3025   1.3032   1.3039   1.3048   1.3175   1.3199   1.3216   1.3256
     1.3301   1.3337   1.3379   1.3480   1.3495   1.3575   1.3586   1.3602
     1.3638   1.3648   1.3734   1.3737   1.3755   1.3764   1.3789   1.3949
     1.4074   1.4077   1.4088   1.4171   1.4241   1.4246   1.4252   1.4279
     1.4283   1.4376   1.4432   1.4472   1.4520   1.4532   1.4568   1.4573
     1.4582   1.4756   1.4760   1.4765   1.4795   1.4852   1.4896   1.4923
     1.5069   1.5114   1.5183   1.5348   1.5389   1.5431   1.5437   1.5447
     1.5492   1.5499   1.5628   1.5635   1.5754   1.5760   1.5842   1.5854
     1.5954   1.5999   1.6081   1.6090   1.6190   1.6216   1.6222   1.6242
     1.6265   1.6291   1.6317   1.6346   1.6490   1.6499   1.6558   1.6579
     1.6581   1.6602   1.6688   1.6704   1.6711   1.6747   1.6940   1.6942
     1.6946   1.6963   1.7131   1.7140   1.7213   1.7222   1.7257   1.7390
     1.7514   1.7618   1.7660   1.7718   1.7741   1.7806   1.7840   1.7853
     1.7881   1.7907   1.8041   1.8067   1.8199   1.8215   1.8223   1.8308
     1.8453   1.8484   1.8529   1.8564   1.8576   1.8611   1.8669   1.8674
     1.8726   1.8739   1.8917   1.8917   1.8963   1.9063   1.9088   1.9091
     1.9143   1.9147   1.9159   1.9165   1.9280   1.9284   1.9301   1.9305
     1.9340   1.9359   1.9391   1.9408   1.9518   1.9529   1.9625   1.9630
     1.9667   1.9691   1.9783   1.9809   1.9920   1.9975   1.9983   1.9993
     2.0019   2.0030   2.0037   2.0058   2.0109   2.0165   2.0170   2.0214
     2.0215   2.0226   2.0342   2.0351   2.0365   2.0388   2.0427   2.0431
     2.0556   2.0559   2.0748   2.0765   2.0778   2.0816   2.0875   2.0882
     2.0958   2.0960   2.1004   2.1013   2.1037   2.1076   2.1101   2.1117
     2.1142   2.1145   2.1151   2.1158   2.1172   2.1179   2.1183   2.1199
     2.1223   2.1286   2.1298   2.1385   2.1442   2.1448   2.1575   2.1582
     2.1609   2.1657   2.1745   2.1749   2.1813   2.1820   2.1960   2.1971
     2.1978   2.1982   2.2027   2.2029   2.2031   2.2040   2.2136   2.2151
     2.2157   2.2164   2.2197   2.2240   2.2257   2.2259   2.2396   2.2400
     2.2438   2.2445   2.2545   2.2552   2.2622   2.2668   2.2836   2.2840
     2.2868   2.2875   2.2881   2.2888   2.2963   2.2968   2.2983   2.2991
     2.3029   2.3034   2.3423   2.3445   2.3514   2.3518   2.3698   2.3707
     2.3816   2.3823   2.3932   2.3936   2.4075   2.4079   2.4793   2.4825
     2.5264   2.5268   2.6917   2.6923   2.9869   2.9885   3.0063   3.0074
     3.0476   3.0478   3.0781   3.0785   3.0862   3.0874   3.5000   3.5008
     3.5391   3.5396   3.7145   3.7200   3.7907   3.7918   3.9346   3.9379
     3.9503   3.9510   3.9873   3.9885   4.1192   4.1205   4.5707   4.5732
     4.5923   4.5935   4.6769   4.6792   4.7206   4.7277   4.7845   4.7891
     4.8681   4.8685   5.3488   5.3503   5.3886   5.4021   5.4537   5.4550
     5.5201   5.5226   5.5426   5.5453   5.6272   5.6314   5.6319   5.6519
     5.6799   5.7168   5.7945   5.8092   5.8128   5.8142   5.8357   5.8409
     5.8595   5.8729   6.0309   6.0363   6.0600   6.0648   6.2913   6.3007
     6.3178   6.3202   6.4048   6.4102   6.4649   6.4905   6.6319   6.6331
     6.6724   6.6763   6.7289   6.7328   6.7892   6.8029   6.9255   6.9285
     7.0523   7.0607   7.1921   7.1968   7.4930   7.5022   7.5436   7.5464
     7.6012   7.6099   7.6149   7.6394   7.9286   7.9289   7.9778   7.9804
     8.1888   8.1909   8.3470   8.3510   8.3698   8.3704   8.3754   8.3756
     8.4739   8.4741   8.5398   8.5418   8.5454   8.5459   8.6600   8.6615
     8.6877   8.6878   8.8460   8.8519   8.9080   8.9092   8.9743   8.9766
     9.0733   9.0766   9.1638   9.1642   9.3113   9.3140   9.4310   9.4341
     9.4511   9.4540   9.5528   9.5550   9.6111   9.6150   9.6823   9.6828
     9.6861   9.6865   9.8111   9.8143   9.8881   9.8919   9.9825   9.9844
    10.1203  10.1214  10.3471  10.3480  10.3540  10.3555  10.3840  10.3857
    10.4477  10.4499  10.4890  10.4936

          k =-0.5000-0.2165 0.0000 (256328 PWs)   bands (ev):

   -14.8746 -14.8730 -14.7705 -14.7697 -14.0864 -14.0850 -14.0768 -14.0759
   -12.6386 -12.6376 -12.6370 -12.6356 -11.0656 -11.0606 -10.9631 -10.9631
   -10.5937 -10.5925 -10.5559 -10.5547 -10.4217 -10.4129 -10.3594 -10.3535
    -8.7249  -8.7232  -8.6663  -8.6648  -7.7524  -7.7500  -7.7153  -7.7141
    -6.9967  -6.9951  -6.9404  -6.9382  -4.8983  -4.8977  -4.8965  -4.8956
    -4.3590  -4.3564  -4.3548  -4.3530  -4.3031  -4.2958  -4.2450  -4.2389
    -4.0810  -4.0786  -3.9885  -3.9880  -3.5834  -3.5709  -3.3783  -3.3762
    -3.3425  -3.3398  -3.3154  -3.3116  -3.1686  -3.1675  -3.1652  -3.1637
    -3.0734  -3.0687  -2.8196  -2.8182  -2.6728  -2.6721  -2.6207  -2.6192
    -2.6173  -2.6168  -2.5863  -2.5811  -2.5784  -2.5756  -2.5442  -2.5431
    -2.2163  -2.2109  -2.0891  -2.0860  -2.0153  -2.0129  -1.8891  -1.8879
    -1.7497  -1.7494  -1.7482  -1.7465  -1.5020  -1.4984  -1.4561  -1.4541
    -1.3045  -1.3043  -1.3007  -1.3006  -1.2722  -1.2710  -1.2559  -1.2548
    -1.0661  -1.0625  -1.0137  -1.0126  -0.9928  -0.9915  -0.9738  -0.9730
    -0.9671  -0.9664  -0.9201  -0.9185  -0.8523  -0.8514  -0.7698  -0.7677
    -0.6711  -0.6696  -0.6603  -0.6602  -0.6448  -0.6420  -0.6398  -0.6387
    -0.6251  -0.6246  -0.6243  -0.6241  -0.5952  -0.5885  -0.5741  -0.5729
    -0.5697  -0.5687  -0.5611  -0.5582  -0.5455  -0.5446  -0.5420  -0.5408
    -0.5284  -0.5279  -0.4968  -0.4951  -0.4470  -0.4442  -0.4341  -0.4330
    -0.4132  -0.4127  -0.4098  -0.4077  -0.3878  -0.3861  -0.3747  -0.3717
    -0.3712  -0.3684  -0.3496  -0.3493  -0.3487  -0.3466  -0.3295  -0.3287
    -0.3227  -0.3200  -0.3085  -0.3076  -0.3039  -0.3036  -0.2669  -0.2612
    -0.2427  -0.2420  -0.2393  -0.2362  -0.2339  -0.2325  -0.2275  -0.2253
    -0.2250  -0.2233  -0.2208  -0.2188  -0.1588  -0.1562  -0.1495  -0.1482
    -0.1130  -0.1119  -0.1093  -0.1039  -0.0377  -0.0364  -0.0358  -0.0339
    -0.0196  -0.0194  -0.0168  -0.0158  -0.0073  -0.0067   0.0229   0.0236
     0.0339   0.0361   0.0538   0.0555   0.0627   0.0635   0.0731   0.0744
     0.0764   0.0769   0.1111   0.1128   0.1174   0.1184   0.1241   0.1247
     0.1255   0.1267   0.1478   0.1494   0.2338   0.2348   0.2372   0.2391
     0.2682   0.2685   0.2701   0.2708   0.2898   0.2907   0.3192   0.3202
     0.3233   0.3245   0.3289   0.3302   0.3422   0.3435   0.3606   0.3614
     0.3741   0.3751   0.3807   0.3839   0.3846   0.3863   0.4159   0.4171
     0.4262   0.4272   0.4429   0.4445   0.4532   0.4551   0.5045   0.5047
     0.5266   0.5272   0.5420   0.5421   0.5453   0.5462   0.5476   0.5482
     0.5529   0.5549   0.5603   0.5607   0.5712   0.5737   0.5955   0.5964
     0.6058   0.6068   0.6251   0.6267   0.6347   0.6350   0.6440   0.6441
     0.6609   0.6614   0.6730   0.6733   0.6769   0.6776   0.6832   0.6846
     0.6880   0.6893   0.6928   0.6928   0.7158   0.7166   0.7379   0.7392
     0.7508   0.7534   0.7819   0.7837   0.7925   0.7948   0.8059   0.8090
     0.8220   0.8236   0.8253   0.8258   0.8278   0.8304   0.8315   0.8329
     0.8508   0.8525   0.8633   0.8639   0.8643   0.8666   0.8722   0.8747
     0.8846   0.8847   0.8925   0.8935   0.8980   0.8985   0.8986   0.8999
     0.9111   0.9121   0.9189   0.9202   0.9308   0.9309   0.9318   0.9321
     0.9399   0.9406   0.9498   0.9507   0.9531   0.9548   0.9880   0.9895
     0.9907   0.9943   1.0189   1.0209   1.0212   1.0219   1.0284   1.0294
     1.0545   1.0548   1.0568   1.0574   1.0690   1.0721   1.0905   1.0922
     1.1096   1.1134   1.1259   1.1270   1.1411   1.1417   1.1467   1.1478
     1.1512   1.1524   1.1538   1.1553   1.1676   1.1694   1.1704   1.1782
     1.1839   1.1859   1.1877   1.1892   1.1900   1.1910   1.1952   1.1999
     1.2234   1.2336   1.2366   1.2373   1.2463   1.2485   1.2495   1.2522
     1.2536   1.2554   1.2566   1.2579   1.2727   1.2734   1.2763   1.2815
     1.2937   1.3005   1.3036   1.3041   1.3076   1.3151   1.3233   1.3269
     1.3432   1.3471   1.3509   1.3514   1.3554   1.3593   1.3645   1.3698
     1.3718   1.3829   1.3863   1.3874   1.3883   1.3928   1.3944   1.4123
     1.4133   1.4194   1.4207   1.4219   1.4229   1.4278   1.4313   1.4349
     1.4388   1.4406   1.4492   1.4509   1.4585   1.4608   1.4707   1.4715
     1.4718   1.4724   1.4865   1.4875   1.4983   1.4995   1.5104   1.5126
     1.5162   1.5165   1.5224   1.5234   1.5273   1.5283   1.5526   1.5535
     1.5569   1.5613   1.5640   1.5692   1.5705   1.5723   1.5731   1.5752
     1.5793   1.5888   1.5959   1.5978   1.5985   1.6045   1.6061   1.6085
     1.6288   1.6314   1.6385   1.6431   1.6670   1.6679   1.6753   1.6791
     1.6881   1.6913   1.6975   1.7012   1.7185   1.7283   1.7314   1.7345
     1.7382   1.7409   1.7493   1.7502   1.7536   1.7541   1.7641   1.7701
     1.7713   1.7719   1.7743   1.7763   1.8006   1.8020   1.8062   1.8078
     1.8095   1.8099   1.8177   1.8184   1.8233   1.8242   1.8255   1.8268
     1.8289   1.8295   1.8315   1.8347   1.8381   1.8401   1.8404   1.8416
     1.8435   1.8450   1.8466   1.8547   1.8703   1.8718   1.8801   1.8814
     1.8879   1.8902   1.8916   1.8970   1.9038   1.9068   1.9127   1.9132
     1.9178   1.9211   1.9263   1.9282   1.9297   1.9300   1.9304   1.9317
     1.9386   1.9435   1.9504   1.9531   1.9740   1.9750   1.9820   1.9827
     1.9894   1.9934   1.9981   1.9994   2.0015   2.0041   2.0104   2.0111
     2.0125   2.0192   2.0314   2.0371   2.0477   2.0485   2.0579   2.0587
     2.0653   2.0742   2.0745   2.0756   2.0758   2.0778   2.0789   2.0793
     2.0976   2.0985   2.1014   2.1028   2.1154   2.1160   2.1164   2.1185
     2.1191   2.1212   2.1315   2.1326   2.1354   2.1358   2.1373   2.1375
     2.1412   2.1416   2.1434   2.1441   2.1452   2.1500   2.1583   2.1590
     2.1601   2.1628   2.1695   2.1698   2.1706   2.1707   2.1746   2.1763
     2.1821   2.1864   2.1997   2.2001   2.2007   2.2012   2.2029   2.2045
[...]
     atom   22 type  1   force =    -0.00002331   -0.00000853    0.00023211
     atom   23 type  1   force =     0.00001939   -0.00014034    0.00157048
     atom   24 type  1   force =     0.00002255   -0.00017618    0.00071640
     atom   25 type  1   force =     0.00001930   -0.00045434    0.00105443
     atom   26 type  1   force =     0.00000092   -0.00012612    0.00207062
     atom   27 type  1   force =    -0.00001907   -0.00043877    0.00105020
     atom   28 type  1   force =    -0.00000102   -0.00058381    0.00195987
     atom   29 type  1   force =     0.00007238    0.00077635   -0.00050429
     atom   30 type  1   force =     0.00001912   -0.00064967   -0.00055886
     atom   31 type  1   force =    -0.00007266    0.00077396   -0.00054587
     atom   32 type  1   force =    -0.00001874   -0.00096840   -0.00055332
     atom   33 type  1   force =     0.00001632    0.00100577    0.00172765
     atom   34 type  1   force =     0.00000994    0.00010296    0.00127422
     atom   35 type  1   force =    -0.00001815    0.00097293    0.00169666
     atom   36 type  1   force =    -0.00000862    0.00036071    0.00073609
     atom   37 type  1   force =    -0.00043980   -0.00027660    0.00081620
     atom   38 type  1   force =     0.00001407    0.00033838    0.00153721
     atom   39 type  1   force =     0.00043788   -0.00033439    0.00087595
     atom   40 type  1   force =    -0.00001264    0.00046289    0.00203846
     atom   41 type  1   force =    -0.00018615   -0.00075197    0.00009153
     atom   42 type  1   force =    -0.00000176   -0.00080650    0.00053603
     atom   43 type  1   force =     0.00018714   -0.00075664    0.00004603
     atom   44 type  1   force =     0.00000529   -0.00150643    0.00008067
     atom   45 type  1   force =     0.00051895    0.00182489   -0.00068281
     atom   46 type  1   force =     0.00004387   -0.00057787   -0.00161845
     atom   47 type  1   force =    -0.00051688    0.00184779   -0.00062268
     atom   48 type  1   force =    -0.00004726    0.00084335   -0.00079469
     atom   49 type  1   force =    -0.00063117    0.00079091    0.00570131
     atom   50 type  1   force =     0.00000691   -0.00078623    0.00496841
     atom   51 type  1   force =     0.00063019    0.00076339    0.00579622
     atom   52 type  1   force =    -0.00001378   -0.00103842    0.00594229
     atom   53 type  1   force =     0.00059332    0.00005623   -0.00115857
     atom   54 type  1   force =    -0.00001763   -0.00230631   -0.00029945
     atom   55 type  1   force =    -0.00058907    0.00005639   -0.00113561
     atom   56 type  1   force =     0.00001875   -0.00127029   -0.00138151
     atom   57 type  1   force =    -0.00019767    0.00177698    0.00013430
     atom   58 type  1   force =     0.00001006    0.00027140    0.00051404
     atom   59 type  1   force =     0.00019645    0.00180484    0.00007362
     atom   60 type  1   force =    -0.00001189    0.00040514   -0.00037139
     atom   61 type  1   force =     0.00049927    0.00007712   -0.00189722
     atom   62 type  1   force =    -0.00000882   -0.00074441    0.00097287
     atom   63 type  1   force =    -0.00049769    0.00010564   -0.00185720
     atom   64 type  1   force =     0.00001298   -0.00140588    0.00003612
     atom   65 type  1   force =    -0.00028381   -0.00262128    0.00132665
     atom   66 type  1   force =     0.00001297   -0.00238662    0.00172485
     atom   67 type  1   force =     0.00028031   -0.00262599    0.00137393
     atom   68 type  1   force =    -0.00002105   -0.00246611    0.00070856
     atom   69 type  1   force =     0.00026881   -0.00114178   -0.00089003
     atom   70 type  1   force =     0.00001379    0.00188346   -0.00288597
     atom   71 type  1   force =    -0.00026184   -0.00119590   -0.00107091
     atom   72 type  1   force =    -0.00001611    0.00091710   -0.00118301
     atom   73 type  1   force =     0.00111381    0.00214479    0.00004915
     atom   74 type  1   force =    -0.00005865    0.00226896    0.00250481
     atom   75 type  1   force =    -0.00110933    0.00215602   -0.00008637
     atom   76 type  1   force =     0.00004002    0.00111266    0.00126543
     atom   77 type  1   force =     0.00058496    0.00086641    0.00077381
     atom   78 type  1   force =    -0.00006979    0.00017689   -0.00143887
     atom   79 type  1   force =    -0.00058320    0.00092147    0.00074533
     atom   80 type  1   force =     0.00006848    0.00117490   -0.00179335
     atom   81 type  1   force =     0.00089890   -0.00038353    0.00213899
     atom   82 type  1   force =     0.00002328    0.00066047   -0.00142660
     atom   83 type  1   force =    -0.00090141   -0.00032698    0.00215625
     atom   84 type  1   force =    -0.00002785    0.00040517   -0.00065143
     atom   85 type  1   force =     0.00093424    0.00037244    0.00140278
     atom   86 type  1   force =     0.00003111   -0.00378579    0.00150331
     atom   87 type  1   force =    -0.00093996    0.00034063    0.00129150
     atom   88 type  1   force =    -0.00001529    0.00029912    0.00342313
     atom   89 type  1   force =    -0.00193596    0.00043672    0.00047284
     atom   90 type  1   force =     0.00011243    0.00230894   -0.00023110
     atom   91 type  1   force =     0.00187621    0.00039075    0.00060969
     atom   92 type  1   force =    -0.00009512   -0.00012954    0.00247544
     atom   93 type  1   force =    -0.00042607    0.00065756    0.00356234
     atom   94 type  1   force =    -0.00012229    0.00048403    0.00099139
     atom   95 type  1   force =     0.00045396    0.00040828    0.00394913
     atom   96 type  1   force =     0.00010832   -0.00051545    0.00269786
     atom   97 type  1   force =     0.00043877   -0.00027409   -0.00091290
     atom   98 type  1   force =    -0.00004483    0.00041906    0.00173328
     atom   99 type  1   force =    -0.00044481   -0.00027692   -0.00080220
     atom  100 type  1   force =     0.00004904   -0.00027835    0.00215457
     atom  101 type  1   force =     0.00018834   -0.00150480   -0.00197348
     atom  102 type  1   force =    -0.00021324   -0.00338534   -0.00266329
     atom  103 type  1   force =    -0.00135601    0.00081393   -0.00022409
     atom  104 type  1   force =     0.00000232   -0.00022207    0.00604516
     atom  105 type  1   force =     0.00138526    0.00091811    0.00003615
     atom  106 type  1   force =     0.00003415    0.00022597   -0.00098094
     atom  107 type  1   force =    -0.00011585    0.00179027   -0.00119685
     atom  108 type  1   force =     0.00011975    0.00168878   -0.00179087
     atom  109 type  2   force =    -0.00001341    0.00189136   -0.00054880
     atom  110 type  2   force =    -0.00005508   -0.00148535   -0.00114133
     atom  111 type  2   force =     0.00073543    0.00191909   -0.00113349
     atom  112 type  2   force =    -0.00060386    0.00128862   -0.00027164
     atom  113 type  2   force =    -0.00043498    0.00085588    0.00115072
     atom  114 type  2   force =     0.00062527   -0.00102585   -0.00023975
     atom  115 type  2   force =     0.00002629    0.00218231   -0.00337675
     atom  116 type  2   force =     0.00007143    0.00149546   -0.00333335
     atom  117 type  2   force =     0.00043112    0.00083973    0.00114578
     atom  118 type  2   force =    -0.00070804   -0.00101891   -0.00023397
     atom  119 type  2   force =    -0.00071239    0.00190890   -0.00121765
     atom  120 type  2   force =     0.00067532    0.00126363   -0.00034362
     atom  121 type  2   force =    -0.00007316   -0.00348622    0.00252927
     atom  122 type  2   force =    -0.00013319    0.00062692   -0.00752545
     atom  123 type  2   force =    -0.00037064    0.00042725   -0.00257756
     atom  124 type  2   force =    -0.00115460    0.00069051    0.00117649
     atom  125 type  2   force =     0.00001778   -0.00238326   -0.00278805
     atom  126 type  2   force =     0.00114715   -0.00027795   -0.00080884
     atom  127 type  2   force =     0.00002296   -0.00021900    0.00229893
     atom  128 type  2   force =     0.00011965   -0.00022919   -0.00496744
     atom  129 type  2   force =    -0.00003398   -0.00227400   -0.00285216
     atom  130 type  2   force =    -0.00131756   -0.00031226   -0.00076651
     atom  131 type  2   force =     0.00046637    0.00046624   -0.00228223
     atom  132 type  2   force =     0.00134084    0.00071265    0.00128165
     atom  133 type  2   force =    -0.00003381    0.00164846    0.00128729
     atom  134 type  2   force =    -0.00005884    0.00062235   -0.00504874
     atom  135 type  2   force =     0.00093559   -0.00102059   -0.00328557
     atom  136 type  2   force =     0.00051031    0.00003766    0.00108477
     atom  137 type  2   force =    -0.00064397    0.00104362   -0.00501377
     atom  138 type  2   force =    -0.00033175    0.00103935    0.00133777
     atom  139 type  2   force =     0.00006766   -0.00065068    0.00295954
     atom  140 type  2   force =     0.00009727    0.00049605   -0.00425776
     atom  141 type  2   force =     0.00056892    0.00101701   -0.00479707
     atom  142 type  2   force =     0.00023871    0.00109461    0.00119124
     atom  143 type  2   force =    -0.00092027   -0.00107296   -0.00330256
     atom  144 type  2   force =    -0.00045853    0.00003833    0.00101991
     atom  145 type  2   force =    -0.00002831    0.00014529    0.00104244
     atom  146 type  2   force =     0.00007517   -0.00004752    0.00090643
     atom  147 type  2   force =     0.00086618   -0.00122766   -0.00198471
     atom  148 type  2   force =    -0.00079760   -0.00195744   -0.00321128
     atom  149 type  2   force =    -0.00089774    0.00049604   -0.00055670
     atom  150 type  2   force =     0.00070221   -0.00067474   -0.00042008
     atom  151 type  2   force =     0.00000462   -0.00196933    0.00070033
     atom  152 type  2   force =    -0.00007956   -0.00205483   -0.00088920
     atom  153 type  2   force =     0.00089611    0.00050285   -0.00061935
     atom  154 type  2   force =    -0.00051698   -0.00069933   -0.00034508
     atom  155 type  2   force =    -0.00087428   -0.00121651   -0.00196571
     atom  156 type  2   force =     0.00061623   -0.00193349   -0.00315752

     Total force =     0.030769     Total SCF correction =     0.000487

     number of scf cycles    =  13
     number of bfgs steps    =  12

     energy   old            =  -13670.8895203481 Ry
     energy   new            =  -13670.8907172758 Ry

     CASE: energy  _new < energy  _old

     new trust radius        =       0.0531125644 bohr
     new conv_thr            =       0.0000000100 Ry


ATOMIC_POSITIONS (angstrom)
Cu       0.000409014   0.010075424   6.420091071
Cu       1.844464508   1.736899864   6.428841955
Cu       3.688604779   0.010191788   6.420165745
Cu       5.533587799   1.737759676   6.430750849
Cu      -0.000528721   3.465837513   6.443840115
Cu       1.844522506   5.158251393   6.468066329
Cu       3.689538347   3.465801855   6.443770046
Cu       5.533528425   5.156932001   6.469876962
Cu       0.000164881   6.831944824   6.489859480
Cu       1.844471479   8.505152187   6.487567474
Cu       3.688845917   6.832042419   6.489726974
Cu       5.533575518   8.506896774   6.488797458
Cu      -0.000141881  10.178083635   6.466739187
Cu       1.844483415  11.870119411   6.442372517
Cu       3.689156239  10.178070405   6.466670472
Cu       5.533562196  11.869409786   6.444042711
Cu       0.000366733  13.600098327   6.429522102
Cu       1.844545448  15.327917651   6.422245029
Cu       3.688648079  13.600023415   6.429466754
Cu       5.533499739  15.328065932   6.418152510
Cu      -0.000427985   1.723961062   8.243727802
Cu       1.844537553   0.010148613   8.248126620
Cu       3.689430552   1.724016120   8.243342586
Cu       5.533509023   0.008257301   8.247355934
Cu       0.000914925   5.124974298   8.311376208
Cu       1.844421035   3.433324160   8.270367655
Cu       3.688101121   5.124832315   8.311137632
Cu       5.533623269   3.433257173   8.268751370
Cu       0.001034593   8.518376806   8.334121269
Cu       1.844371366   6.820559577   8.333657565
Cu       3.687987687   8.518446176   8.334269705
Cu       5.533679116   6.820350437   8.334324790
Cu      -0.000894666  11.901139717   8.269650334
Cu       1.844495186  10.212029847   8.311434240
Cu       3.689906756  11.901321071   8.269760971
Cu       5.533551461  10.212556417   8.312167458
Cu       0.001025421  15.330556577   8.247113434
Cu       1.844495947  13.611955892   8.242055210
Cu       3.687990217  15.330640121   8.246923114
Cu       5.533552879  13.613637107   8.242553099
Cu      -0.000748934   0.011353584  10.088731130
Cu       1.844506539   1.715208281  10.096128139
Cu       3.689744948   0.011394268  10.088818726
Cu       5.533521822   1.716040338  10.097812777
Cu      -0.000795100   3.398198220  10.126402954
Cu       1.844275574   5.106101693  10.161239022
Cu       3.689816022   3.398159829  10.126048532
Cu       5.533798525   5.103832337  10.157115586
Cu       0.002522051   6.816758696  10.163962335
Cu       1.844388594   8.519966456  10.168411423
Cu       3.686519668   6.816504485  10.163043388
Cu       5.533691733   8.520012307  10.162057752
Cu      -0.001714444  10.234262823  10.159586924
Cu       1.844558915  11.941137870  10.124392581
Cu       3.690744007  10.234175102  10.159582193
Cu       5.533488235  11.938903874  10.127008615
Cu      -0.000419305  13.620787837  10.096367706
Cu       1.844444535  15.328124635  10.085952482
Cu       3.689434849  13.620933147  10.096233550
Cu       5.533613613  15.328569579  10.089856609
Cu      -0.001057173   1.701221245  11.962745293
Cu       1.844557866   0.004285385  11.927162538
Cu       3.690094128   1.701322159  11.962988524
Cu       5.533484113   0.008354647  11.927927714
Cu       0.000614863   5.093139785  11.991934911
Cu       1.844624366   3.397094962  11.974832160
Cu       3.688403788   5.093174294  11.991521531
Cu       5.533482908   3.400099957  11.976003730
Cu      -0.000675772   8.542867646  12.023971708
Cu       1.844090817   6.791895918  12.033598029
Cu       3.689660761   8.541404639  12.022461549
Cu       5.533985839   6.794419911  12.024080706
Cu      -0.002149691  11.942213283  11.979494873
Cu       1.844184536  10.246060518  11.983828536
Cu       3.691161302  11.943147312  11.978505174
Cu       5.533900064  10.247533547  11.990619695
Cu      -0.003294938  15.332300397  11.925906769
Cu       1.844563341  13.637150545  11.962097635
Cu       3.692301545  15.332515183  11.925202950
Cu       5.533501989  13.637798880  11.958912870
Cu      -0.004967805  -0.012760984  13.768845225
Cu       1.844820145   1.661112622  13.822897477
Cu       3.694030505  -0.013855502  13.768617842
Cu       5.533272768   1.662607407  13.820964462
Cu      -0.001116725   3.317649142  13.846121693
Cu       1.843829195   4.993768216  13.887191121
Cu       3.690135426   3.318446145  13.846551961
Cu       5.534164276   4.994827661  13.889933153
Cu      -0.002747503   6.781139313  13.821104882
Cu       1.843430018   8.557990300  13.815622201
Cu       3.691692226   6.781863708  13.818829142
Cu       5.534502826   8.556705762  13.821429112
Cu       0.002356351  10.343330157  13.889668825
Cu       1.846928917  12.017954377  13.845949073
Cu       3.686477101  10.336710677  13.880945422
Cu       5.531174190  12.017972878  13.836450819
Cu      -0.001383403  13.675573711  13.820750348
Cu       1.843851529  15.353107069  13.770365616
Cu       3.690451443  13.678696912  13.819961272
Cu       5.534215925  15.352616156  13.766475264
Cu       1.852635258  10.248631491  15.615878883
Cu       5.525217977  10.257595402  15.615556935
Cu       0.005533561   8.526347114  15.604093030
Cu       1.841589445   6.814870300  15.566437166
Cu       3.683484910   8.516446356  15.606453057
Cu       5.536574347   6.818755631  15.610079021
Cu      -0.000299954   5.086898377  15.619171423
Cu       3.689211777   5.091994722  15.615836812
C        0.000059066   0.706380485  18.855574607
C        0.000068088   2.123348739  18.766311944
C        1.229734882  -0.003767627  18.886934789
C        1.230054105   2.833078400  18.714312456
C        2.459284071   0.705634541  18.852219058
C        2.459528405   2.122697135  18.766296512
C        3.689079769  -0.003495390  18.891582043
C        3.689052461   2.832146425  18.718585757
C        4.918867749   0.705662327  18.852308869
C        4.918580911   2.122724635  18.766159260
C        6.148442829  -0.003738074  18.887391305
C        6.148156404   2.833053094  18.714179678
C        0.000080458   4.962784822  18.580160790
C        0.000204915   6.387483387  18.590094174
C        1.231028539   4.251954128  18.627290840
C        1.228757314   7.096643630  18.568935437
C        2.458570560   4.963053417  18.601156087
C        2.459862071   6.385507338  18.572519065
C        3.689019654   4.251296937  18.614323808
C        3.688876234   7.094772821  18.578938213
C        4.919520682   4.962824159  18.601632763
C        4.917985921   6.385333754  18.572230212
C        6.147198704   4.251858105  18.626621139
C        6.149596167   7.096761373  18.568383456
C        0.000059891   9.228216671  18.582301841
C        0.000071251  10.649684702  18.626076146
C        1.230135119   8.516666455  18.583874677
C        1.228335699  11.361053519  18.637724548
C        2.458327106   9.226161858  18.584339213
C        2.459506051  10.650293448  18.596667780
C        3.689021517   8.515213067  18.558517699
C        3.689026264  11.360912558  18.642394816
C        4.919714113   9.226183143  18.584180037
C        4.918542670  10.650264173  18.597004946
C        6.147997340   8.516907911  18.584469560
C        6.149859123  11.360990461  18.637932573
C        0.000037755  13.489553355  18.778799677
C        0.000072749  14.906798514  18.862477861
C        1.229415265  12.779930548  18.732847470
C        1.229612409  15.615689472  18.897221064
C        2.459050926  13.489013435  18.780079961
C        2.459500513  14.906180181  18.864908135
C        3.689037350  12.779051099  18.727460393
C        3.689044245  15.615729141  18.891831888
C        4.919069537  13.488954762  18.780420127
C        4.918697261  14.906176125  18.864588386
C        6.148739340  12.779908080  18.732984868
C        6.148491393  15.615697086  18.897030772



     Writing output data file gc.save
     Check: negative starting charge=   -0.003941
     NEW-OLD atomic charge density approx. for the potential
     Check: negative starting charge=   -0.003962

     negative rho (up, down):  7.057E-04 0.000E+00

     total cpu time spent up to now is    47485.1 secs

     Self-consistent Calculation

     iteration #  1     ecut=    80.00 Ry     beta=0.70
     Davidson diagonalization with overlap
     ethr =  1.00E-06,  avg # of iterations = 14.7

     negative rho (up, down):  3.262E-07 0.000E+00

     total cpu time spent up to now is    48176.9 secs

     total energy              =  -13670.87561689 Ry
     Harris-Foulkes estimate   =  -13670.92769442 Ry
     estimated scf accuracy    <       0.89964061 Ry

     iteration #  2     ecut=    80.00 Ry     beta=0.70
     Davidson diagonalization with overlap
     ethr =  6.52E-05,  avg # of iterations =  1.0

     negative rho (up, down):  8.315E-08 0.000E+00

     total cpu time spent up to now is    48329.3 secs

     total energy              =  -13670.87694797 Ry
     Harris-Foulkes estimate   =  -13670.90843719 Ry
     estimated scf accuracy    <       0.14081915 Ry

     iteration #  3     ecut=    80.00 Ry     beta=0.70
     Davidson diagonalization with overlap
     ethr =  1.02E-05,  avg # of iterations =  7.2

     total cpu time spent up to now is    48570.1 secs

     total energy              =  -13670.88530965 Ry
     Harris-Foulkes estimate   =  -13670.90065447 Ry
     estimated scf accuracy    <       0.25373241 Ry

     iteration #  4     ecut=    80.00 Ry     beta=0.70
     Davidson diagonalization with overlap
