
     Program PWSCF v.5.4.0 starts on 15Apr2017 at  9:24: 2 

     This program is part of the open-source Quantum ESPRESSO suite
     for quantum simulation of materials; please cite
         "P. Giannozzi et al., J. Phys.:Condens. Matter 21 395502 (2009);
          URL http://www.quantum-espresso.org", 
     in publications or presentations arising from this work. More details at
     http://www.quantum-espresso.org/quote

     Parallel version (MPI & OpenMP), running on      56 processor cores
     Number of MPI processes:                56
     Threads/MPI process:                     1
     R & G space division:  proc/nbgrp/npool/nimage =      56
     Waiting for input...
     Reading input from standard input

     Current dimensions of program PWSCF are:
     Max number of different atomic species (ntypx) = 10
     Max number of k-points (npk) =  40000
     Max angular momentum in pseudopotentials (lmaxx) =  3

     -------------------------------------
     Parameters for Dispersion Correction:
     -------------------------------------
       atom      VdW radius       C_6     

        Cu         2.952        374.666
        C          2.744         60.710

     Subspace diagonalization in iterative solution of the eigenvalue problem:
     one sub-group per band group will be used
     scalapack distributed-memory algorithm (size of sub-group:  5*  5 procs)

 
     Parallelization info
     --------------------
     sticks:   dense  smooth     PW     G-vecs:    dense   smooth      PW
     Min         204     204     54                36612    36612    4962
     Max         205     205     55                36617    36617    4968
     Sum       11433   11433   3039              2050409  2050409  278033
 


     bravais-lattice index     =            0
     lattice parameter (alat)  =      13.9425  a.u.
     unit-cell volume          =   21209.0878 (a.u.)^3
     number of atoms/cell      =          156
     number of atomic types    =            2
     number of electrons       =      1380.00
     number of Kohn-Sham states=          828
     kinetic-energy cutoff     =      80.0000  Ry
     charge density cutoff     =     320.0000  Ry
     convergence threshold     =      1.0E-08
     mixing beta               =       0.7000
     number of iterations used =            8  local-TF  mixing
     Exchange-correlation      =  SLA  PW   PBX  PBC ( 1  4  3  4 0 0)
     nstep                     =           50


     celldm(1)=  13.942539  celldm(2)=   0.000000  celldm(3)=   0.000000
     celldm(4)=   0.000000  celldm(5)=   0.000000  celldm(6)=   0.000000

     crystal axes: (cart. coord. in units of alat)
               a(1) = (   1.000000   0.000000   0.000000 )  
               a(2) = (   0.000000   2.309401   0.000000 )  
               a(3) = (   0.000000   0.000000   3.388418 )  

     reciprocal axes: (cart. coord. in units 2 pi/alat)
               b(1) = (  1.000000  0.000000  0.000000 )  
               b(2) = (  0.000000  0.433013  0.000000 )  
               b(3) = (  0.000000  0.000000  0.295123 )  


     PseudoPot. # 1 for Cu read from file:
     /home/549/hxw549/Short/pseudopotentials/Cu.pbe-n-van_ak.UPF
     MD5 check sum: 601f7c30f7467666bec936e0661ce3e1
     Pseudo is Ultrasoft + core correction, Zval = 11.0
     Generated by new atomic code, or converted to UPF format
     Using radial grid of  867 points,  6 beta functions with: 
                l(1) =   0
                l(2) =   0
                l(3) =   1
                l(4) =   1
                l(5) =   2
                l(6) =   2
     Q(r) pseudized with  8 coefficients,  rinner =    1.400   1.400   1.400
                                                       1.400   1.400

     PseudoPot. # 2 for C  read from file:
     /home/549/hxw549/Short/pseudopotentials/C.pbe-mt_gipaw.UPF
     MD5 check sum: 5ac2f21f2c440b14befe521540822c15
     Pseudo is Norm-conserving, Zval =  4.0
     Generated by new atomic code, or converted to UPF format
     Using radial grid of 1073 points,  1 beta functions with: 
                l(1) =   0

     atomic species   valence    mass     pseudopotential
        Cu            11.00    63.54600     Cu( 1.00)
        C              4.00    12.01070     C ( 1.00)

     No symmetry found



   Cartesian axes

     site n.     atom                  positions (alat units)
         1           Cu  tau(   1) = (  -0.0000662   0.0037620   0.8819581  )
         2           Cu  tau(   2) = (   0.2499036   0.2363789   0.8856526  )
         3           Cu  tau(   3) = (   0.4999947   0.0038855   0.8817226  )
         4           Cu  tau(   4) = (   0.7500244   0.2364230   0.8856306  )
         5           Cu  tau(   5) = (  -0.0000260   0.4680300   0.8909987  )
         6           Cu  tau(   6) = (   0.2499623   0.6982479   0.8948277  )
         7           Cu  tau(   7) = (   0.4999504   0.4680042   0.8909420  )
         8           Cu  tau(   8) = (   0.7499581   0.6982746   0.8948237  )
         9           Cu  tau(   9) = (  -0.0000212   0.9274869   0.8961117  )
        10           Cu  tau(  10) = (   0.2499634   1.1564063   0.8962365  )
        11           Cu  tau(  11) = (   0.4999381   0.9274579   0.8960718  )
        12           Cu  tau(  12) = (   0.7499514   1.1563790   0.8961916  )
        13           Cu  tau(  13) = (  -0.0000557   1.3858225   0.8950660  )
        14           Cu  tau(  14) = (   0.2499269   1.6163209   0.8910150  )
        15           Cu  tau(  15) = (   0.4999707   1.3858599   0.8949386  )
        16           Cu  tau(  16) = (   0.7499910   1.6162903   0.8909589  )
        17           Cu  tau(  17) = (  -0.0000367   1.8480169   0.8854298  )
        18           Cu  tau(  18) = (   0.2500257   2.0804537   0.8817499  )
        19           Cu  tau(  19) = (   0.4999582   1.8478926   0.8856211  )
        20           Cu  tau(  20) = (   0.7499003   2.0804463   0.8817816  )
        21           Cu  tau(  21) = (  -0.0000159   0.2321669   1.1338809  )
        22           Cu  tau(  22) = (   0.2499081   0.0020615   1.1309338  )
        23           Cu  tau(  23) = (   0.4999386   0.2320647   1.1337157  )
        24           Cu  tau(  24) = (   0.7500127   0.0021100   1.1309664  )
        25           Cu  tau(  25) = (  -0.0000727   0.6957743   1.1439059  )
        26           Cu  tau(  26) = (   0.2499917   0.4635790   1.1388666  )
        27           Cu  tau(  27) = (   0.4999956   0.6957511   1.1439239  )
        28           Cu  tau(  28) = (   0.7499318   0.4635534   1.1388819  )
        29           Cu  tau(  29) = (  -0.0000843   1.1569840   1.1468465  )
        30           Cu  tau(  30) = (   0.2499708   0.9268180   1.1469211  )
        31           Cu  tau(  31) = (   0.5000039   1.1570480   1.1467814  )
        32           Cu  tau(  32) = (   0.7499491   0.9268395   1.1469706  )
        33           Cu  tau(  33) = (  -0.0000451   1.6209406   1.1386687  )
        34           Cu  tau(  34) = (   0.2499458   1.3883773   1.1436129  )
        35           Cu  tau(  35) = (   0.4999610   1.6206711   1.1387332  )
        36           Cu  tau(  36) = (   0.7499717   1.3883664   1.1437165  )
        37           Cu  tau(  37) = (  -0.0000764   2.0820479   1.1309868  )
        38           Cu  tau(  38) = (   0.2500028   1.8522867   1.1337808  )
        39           Cu  tau(  39) = (   0.4999944   2.0823035   1.1309177  )
        40           Cu  tau(  40) = (   0.7499123   1.8522194   1.1337133  )
        41           Cu  tau(  41) = (  -0.0000834   0.0013809   1.3840294  )
        42           Cu  tau(  42) = (   0.2498833   0.2295147   1.3853704  )
        43           Cu  tau(  43) = (   0.4999947   0.0015354   1.3839696  )
        44           Cu  tau(  44) = (   0.7500340   0.2295307   1.3853649  )
        45           Cu  tau(  45) = (  -0.0000140   0.4594480   1.3880117  )
        46           Cu  tau(  46) = (   0.2500250   0.6915954   1.3927349  )
        47           Cu  tau(  47) = (   0.4999381   0.4591624   1.3879805  )
        48           Cu  tau(  48) = (   0.7499013   0.6915630   1.3928428  )
        49           Cu  tau(  49) = (  -0.0001117   0.9252176   1.3976881  )
        50           Cu  tau(  50) = (   0.2499557   1.1590500   1.3972518  )
        51           Cu  tau(  51) = (   0.5000413   0.9252744   1.3975788  )
        52           Cu  tau(  52) = (   0.7499747   1.1589971   1.3975582  )
        53           Cu  tau(  53) = (  -0.0000913   1.3927289   1.3921725  )
        54           Cu  tau(  54) = (   0.2499736   1.6248260   1.3876376  )
        55           Cu  tau(  55) = (   0.5000190   1.3925180   1.3924422  )
        56           Cu  tau(  56) = (   0.7499442   1.6250180   1.3876888  )
        57           Cu  tau(  57) = (  -0.0000199   1.8547011   1.3854590  )
        58           Cu  tau(  58) = (   0.2499461   2.0828914   1.3839733  )
        59           Cu  tau(  59) = (   0.4999303   1.8547541   1.3851296  )
        60           Cu  tau(  60) = (   0.7499611   2.0827587   1.3840651  )
        61           Cu  tau(  61) = (  -0.0000180   0.2285654   1.6387475  )
        62           Cu  tau(  62) = (   0.2499930   0.0008234   1.6377315  )
        63           Cu  tau(  63) = (   0.4999314   0.2282594   1.6387003  )
        64           Cu  tau(  64) = (   0.7499097   0.0008364   1.6377946  )
        65           Cu  tau(  65) = (  -0.0000078   0.6851382   1.6415578  )
        66           Cu  tau(  66) = (   0.2498519   0.4563094   1.6392833  )
        67           Cu  tau(  67) = (   0.4999315   0.6849006   1.6413720  )
        68           Cu  tau(  68) = (   0.7500667   0.4561440   1.6392068  )
        69           Cu  tau(  69) = (  -0.0000242   1.1639206   1.6436798  )
        70           Cu  tau(  70) = (   0.2500212   0.9213298   1.6435714  )
        71           Cu  tau(  71) = (   0.4999644   1.1632949   1.6437691  )
        72           Cu  tau(  72) = (   0.7499037   0.9210986   1.6440325  )
        73           Cu  tau(  73) = (   0.0000158   1.6277112   1.6389934  )
        74           Cu  tau(  74) = (   0.2499579   1.3992914   1.6411058  )
        75           Cu  tau(  75) = (   0.4999116   1.6282964   1.6386486  )
        76           Cu  tau(  76) = (   0.7499809   1.3996336   1.6411293  )
        77           Cu  tau(  77) = (  -0.0000900   2.0834579   1.6379384  )
        78           Cu  tau(  78) = (   0.2497900   1.8557044   1.6383266  )
        79           Cu  tau(  79) = (   0.4999889   2.0832692   1.6374597  )
        80           Cu  tau(  80) = (   0.7501193   1.8556641   1.6387118  )
        81           Cu  tau(  81) = (   0.0001174   0.0007253   1.8927381  )
        82           Cu  tau(  82) = (   0.2502138   0.2250621   1.8928466  )
        83           Cu  tau(  83) = (   0.4997833  -0.0005452   1.8926852  )
        84           Cu  tau(  84) = (   0.7496918   0.2249389   1.8929250  )
        85           Cu  tau(  85) = (   0.0000565   0.4467716   1.8975859  )
        86           Cu  tau(  86) = (   0.2494682   0.6732113   1.8969649  )
        87           Cu  tau(  87) = (   0.4998595   0.4464890   1.8962537  )
        88           Cu  tau(  88) = (   0.7504317   0.6727299   1.8967988  )
        89           Cu  tau(  89) = (   0.0003025   0.9191603   1.8811797  )
        90           Cu  tau(  90) = (   0.2498827   1.1666347   1.8814862  )
        91           Cu  tau(  91) = (   0.4996037   0.9178176   1.8812840  )
        92           Cu  tau(  92) = (   0.7500611   1.1668425   1.8811671  )
        93           Cu  tau(  93) = (  -0.0000565   1.4126727   1.8983095  )
        94           Cu  tau(  94) = (   0.2503395   1.6378525   1.8965765  )
        95           Cu  tau(  95) = (   0.5000100   1.4115219   1.8954972  )
        96           Cu  tau(  96) = (   0.7495848   1.6379406   1.8971350  )
        97           Cu  tau(  97) = (  -0.0000784   1.8586464   1.8927872  )
        98           Cu  tau(  98) = (   0.2493335   2.0837885   1.8924211  )
        99           Cu  tau(  99) = (   0.4999872   1.8596213   1.8925603  )
       100           Cu  tau( 100) = (   0.7505673   2.0841050   1.8927808  )
       101           Cu  tau( 101) = (   0.2537574   1.3936204   2.1283168  )
       102           Cu  tau( 102) = (   0.7462035   1.3936899   2.1285089  )
       103           Cu  tau( 103) = (  -0.0003141   1.1586157   2.1147814  )
       104           Cu  tau( 104) = (   0.2502436   0.9284113   2.1160766  )
       105           Cu  tau( 105) = (   0.5002425   1.1560737   2.1148683  )
       106           Cu  tau( 106) = (   0.7496623   0.9279709   2.1146768  )
       107           Cu  tau( 107) = (  -0.0000089   0.6940040   2.1290308  )
       108           Cu  tau( 108) = (   0.4999080   0.6897265   2.1266129  )
       109           C   tau( 109) = (   0.0000835   0.0896767   2.4382240  )
       110           C   tau( 110) = (   0.0000875   0.2820870   2.4438532  )
       111           C   tau( 111) = (   0.1667592  -0.0066459   2.4365567  )
       112           C   tau( 112) = (   0.1668564   0.3781330   2.4476655  )
       113           C   tau( 113) = (   0.3334347   0.0895212   2.4376189  )
       114           C   tau( 114) = (   0.3334911   0.2819504   2.4422595  )
       115           C   tau( 115) = (   0.5000828  -0.0067287   2.4363362  )
       116           C   tau( 116) = (   0.5000868   0.3777700   2.4454560  )
       117           C   tau( 117) = (   0.6667347   0.0895193   2.4375656  )
       118           C   tau( 118) = (   0.6666857   0.2819509   2.4422000  )
       119           C   tau( 119) = (   0.8334064  -0.0066457   2.4364755  )
       120           C   tau( 120) = (   0.8333091   0.3781382   2.4476173  )
       121           C   tau( 121) = (   0.0000865   0.6671767   2.4647789  )
       122           C   tau( 122) = (   0.0000831   0.8596633   2.4854917  )
       123           C   tau( 123) = (   0.1671861   0.5700805   2.4607007  )
       124           C   tau( 124) = (   0.1665945   0.9556132   2.4922717  )
       125           C   tau( 125) = (   0.3330986   0.6666971   2.4693321  )
       126           C   tau( 126) = (   0.3334437   0.8590633   2.4864561  )
       127           C   tau( 127) = (   0.5000957   0.5706983   2.4568776  )
       128           C   tau( 128) = (   0.5001056   0.9550008   2.4927912  )
       129           C   tau( 129) = (   0.6670811   0.6667114   2.4693812  )
       130           C   tau( 130) = (   0.6667553   0.8590535   2.4866674  )
       131           C   tau( 131) = (   0.8329923   0.5700813   2.4607275  )
       132           C   tau( 132) = (   0.8335886   0.9555957   2.4925019  )
       133           C   tau( 133) = (   0.0000920   1.2447315   2.4859217  )
       134           C   tau( 134) = (   0.0000950   1.4371384   2.4699475  )
       135           C   tau( 135) = (   0.1668452   1.1483494   2.4927178  )
       136           C   tau( 136) = (   0.1662888   1.5332213   2.4578910  )
       137           C   tau( 137) = (   0.3332815   1.2440758   2.4848902  )
       138           C   tau( 138) = (   0.3335287   1.4364838   2.4644790  )
       139           C   tau( 139) = (   0.5000998   1.1477377   2.4905403  )
       140           C   tau( 140) = (   0.5000904   1.5334329   2.4590061  )
       141           C   tau( 141) = (   0.6669123   1.2440647   2.4848856  )
       142           C   tau( 142) = (   0.6666683   1.4364726   2.4643934  )
       143           C   tau( 143) = (   0.8333514   1.1483276   2.4927353  )
       144           C   tau( 144) = (   0.8338980   1.5332195   2.4578363  )
       145           C   tau( 145) = (   0.0000907   1.8217513   2.4422066  )
       146           C   tau( 146) = (   0.0000815   2.0141938   2.4376715  )
       147           C   tau( 147) = (   0.1666545   1.7257192   2.4461980  )
       148           C   tau( 148) = (   0.1667874   2.1103103   2.4366637  )
       149           C   tau( 149) = (   0.3333545   1.8215172   2.4431914  )
       150           C   tau( 150) = (   0.3334126   2.0139478   2.4383362  )
       151           C   tau( 151) = (   0.5000918   1.7251655   2.4471919  )
       152           C   tau( 152) = (   0.5000893   2.1101833   2.4365679  )
       153           C   tau( 153) = (   0.6668257   1.8215175   2.4431180  )
       154           C   tau( 154) = (   0.6667495   2.0139456   2.4382774  )
       155           C   tau( 155) = (   0.8335273   1.7257185   2.4461418  )
       156           C   tau( 156) = (   0.8333917   2.1103086   2.4365877  )

     number of k points=     6  gaussian smearing, width (Ry)=  0.1000
                       cart. coord. in units 2pi/alat
        k(    1) = (   0.0000000   0.0000000   0.0000000), wk =   0.2500000
        k(    2) = (   0.0000000  -0.2165064   0.0000000), wk =   0.2500000
        k(    3) = (   0.2500000   0.0000000   0.0000000), wk =   0.5000000
        k(    4) = (   0.2500000  -0.2165064   0.0000000), wk =   0.5000000
        k(    5) = (  -0.5000000   0.0000000   0.0000000), wk =   0.2500000
        k(    6) = (  -0.5000000  -0.2165064   0.0000000), wk =   0.2500000

     Dense  grid:  2050409 G-vectors     FFT dimensions: (  80, 192, 270)

     Largest allocated arrays     est. size (Mb)     dimensions
        Kohn-Sham Wavefunctions        58.17 Mb     (    4604,  828)
        NL pseudopotentials           139.94 Mb     (    4604, 1992)
        Each V/rho on FFT grid          1.17 Mb     (   76800)
        Each G-vector array             0.28 Mb     (   36616)
        G-vector shells                 0.14 Mb     (   17932)
     Largest temporary arrays     est. size (Mb)     dimensions
        Auxiliary wavefunctions       232.67 Mb     (    4604, 3312)
        Each subspace H/S matrix        6.69 Mb     (     662,  662)
        Each <psi_i|beta_j> matrix     25.17 Mb     (    1992,  828)
        Arrays for rho mixing           9.38 Mb     (   76800,    8)

     Initial potential from superposition of free atoms
     Check: negative starting charge=   -0.001499

     starting charge 1354.72292, renormalised to 1380.00000

     negative rho (up, down):  1.527E-03 0.000E+00
     Starting wfc are 1356 randomized atomic wfcs

     total cpu time spent up to now is      120.1 secs

     Self-consistent Calculation

     iteration #  1     ecut=    80.00 Ry     beta=0.70
     Davidson diagonalization with overlap
     c_bands:  2 eigenvalues not converged
     c_bands:  3 eigenvalues not converged
     ethr =  1.00E-04,  avg # of iterations = 33.5

     negative rho (up, down):  2.672E+01 0.000E+00

     total cpu time spent up to now is     2370.8 secs

     total energy              =  -10624.44063866 Ry
     Harris-Foulkes estimate   =  -18947.34717668 Ry
     estimated scf accuracy    <  218246.89804576 Ry

     iteration #  2     ecut=    80.00 Ry     beta=0.70
     Davidson diagonalization with overlap
     ethr =  1.00E-02,  avg # of iterations = 15.8

     negative rho (up, down):  3.125E+01 0.000E+00

     total cpu time spent up to now is     3586.2 secs

     total energy              =  -13085.81613645 Ry
     Harris-Foulkes estimate   =  -14617.75667866 Ry
     estimated scf accuracy    <   20051.70981700 Ry

     iteration #  3     ecut=    80.00 Ry     beta=0.70
     Davidson diagonalization with overlap
     ethr =  1.00E-02,  avg # of iterations =  6.0

     negative rho (up, down):  3.451E+01 0.000E+00

     total cpu time spent up to now is     4153.3 secs

     total energy              =  -13557.64951818 Ry
     Harris-Foulkes estimate   =  -14426.87395947 Ry
     estimated scf accuracy    <   16415.81208866 Ry

     iteration #  4     ecut=    80.00 Ry     beta=0.70
     Davidson diagonalization with overlap
     ethr =  1.00E-02,  avg # of iterations =  6.0

     negative rho (up, down):  2.674E+01 0.000E+00

     total cpu time spent up to now is     4761.3 secs

     total energy              =  -13697.29616663 Ry
     Harris-Foulkes estimate   =  -14134.01128146 Ry
     estimated scf accuracy    <    1963.08913438 Ry

     iteration #  5     ecut=    80.00 Ry     beta=0.70
     Davidson diagonalization with overlap
     ethr =  1.00E-02,  avg # of iterations =  4.0

     negative rho (up, down):  1.702E+01 0.000E+00

     total cpu time spent up to now is     5126.3 secs

     total energy              =  -13813.74108933 Ry
     Harris-Foulkes estimate   =  -13931.49092292 Ry
     estimated scf accuracy    <     669.61375371 Ry

     iteration #  6     ecut=    80.00 Ry     beta=0.70
     Davidson diagonalization with overlap
     ethr =  1.00E-02,  avg # of iterations =  2.0

     negative rho (up, down):  1.013E+01 0.000E+00

     total cpu time spent up to now is     5355.2 secs

     total energy              =  -13791.30642704 Ry
     Harris-Foulkes estimate   =  -13833.20813746 Ry
     estimated scf accuracy    <     341.46373466 Ry

     iteration #  7     ecut=    80.00 Ry     beta=0.70
     Davidson diagonalization with overlap
     ethr =  1.00E-02,  avg # of iterations =  2.0

     negative rho (up, down):  9.547E+00 0.000E+00

     total cpu time spent up to now is     5553.7 secs

     total energy              =  -13787.61634221 Ry
     Harris-Foulkes estimate   =  -13798.13241491 Ry
     estimated scf accuracy    <     374.76608342 Ry

     iteration #  8     ecut=    80.00 Ry     beta=0.70
     Davidson diagonalization with overlap
     ethr =  1.00E-02,  avg # of iterations =  1.0

     negative rho (up, down):  5.923E+00 0.000E+00

     total cpu time spent up to now is     5740.0 secs

     total energy              =  -13754.84860237 Ry
     Harris-Foulkes estimate   =  -13791.01549828 Ry
     estimated scf accuracy    <     251.77722565 Ry

     iteration #  9     ecut=    80.00 Ry     beta=0.70
     Davidson diagonalization with overlap
     ethr =  1.00E-02,  avg # of iterations =  1.0

     negative rho (up, down):  2.811E+00 0.000E+00

     total cpu time spent up to now is     5925.3 secs

     total energy              =  -13728.20621326 Ry
     Harris-Foulkes estimate   =  -13757.75732064 Ry
     estimated scf accuracy    <     178.67293602 Ry

     iteration # 10     ecut=    80.00 Ry     beta=0.70
     Davidson diagonalization with overlap
     ethr =  1.00E-02,  avg # of iterations =  1.0

     negative rho (up, down):  5.044E+00 0.000E+00

     total cpu time spent up to now is     6110.7 secs

     total energy              =  -13688.97625343 Ry
     Harris-Foulkes estimate   =  -13730.00331367 Ry
     estimated scf accuracy    <     122.58090760 Ry

     iteration # 11     ecut=    80.00 Ry     beta=0.70
     Davidson diagonalization with overlap
     ethr =  8.88E-03,  avg # of iterations =  2.0

     negative rho (up, down):  9.954E+00 0.000E+00

     total cpu time spent up to now is     6310.8 secs

     total energy              =  -13684.29502573 Ry
     Harris-Foulkes estimate   =  -13700.11149526 Ry
     estimated scf accuracy    <     416.97492608 Ry

     iteration # 12     ecut=    80.00 Ry     beta=0.70
     Davidson diagonalization with overlap
     ethr =  8.88E-03,  avg # of iterations =  1.0

     negative rho (up, down):  9.753E+00 0.000E+00

     total cpu time spent up to now is     6496.2 secs

     total energy              =  -13676.04050764 Ry
     Harris-Foulkes estimate   =  -13693.36026482 Ry
     estimated scf accuracy    <     288.05790287 Ry

     iteration # 13     ecut=    80.00 Ry     beta=0.70
     Davidson diagonalization with overlap
     ethr =  8.88E-03,  avg # of iterations =  1.8

     negative rho (up, down):  7.745E+00 0.000E+00

     total cpu time spent up to now is     6691.5 secs

     total energy              =  -13679.24364349 Ry
     Harris-Foulkes estimate   =  -13686.65418059 Ry
     estimated scf accuracy    <      56.62654144 Ry

     iteration # 14     ecut=    80.00 Ry     beta=0.70
     Davidson diagonalization with overlap
     ethr =  4.10E-03,  avg # of iterations =  2.0

     negative rho (up, down):  6.301E+00 0.000E+00

     total cpu time spent up to now is     6892.0 secs

     total energy              =  -13679.25597559 Ry
     Harris-Foulkes estimate   =  -13683.18524549 Ry
     estimated scf accuracy    <      21.29300431 Ry

     iteration # 15     ecut=    80.00 Ry     beta=0.70
     Davidson diagonalization with overlap
     ethr =  1.54E-03,  avg # of iterations =  4.5

     negative rho (up, down):  6.524E+00 0.000E+00

     total cpu time spent up to now is     7126.3 secs

     total energy              =  -13679.08035124 Ry
     Harris-Foulkes estimate   =  -13680.23234701 Ry
     estimated scf accuracy    <      16.22243199 Ry

     iteration # 16     ecut=    80.00 Ry     beta=0.70
     Davidson diagonalization with overlap
     ethr =  1.18E-03,  avg # of iterations =  7.0

     negative rho (up, down):  3.992E+00 0.000E+00

     total cpu time spent up to now is     7394.8 secs

     total energy              =  -13677.48431785 Ry
     Harris-Foulkes estimate   =  -13679.33796462 Ry
     estimated scf accuracy    <      11.97330613 Ry

     iteration # 17     ecut=    80.00 Ry     beta=0.70
     Davidson diagonalization with overlap
     ethr =  8.68E-04,  avg # of iterations =  2.0

     negative rho (up, down):  2.984E+00 0.000E+00

     total cpu time spent up to now is     7594.0 secs

     total energy              =  -13676.40805850 Ry
     Harris-Foulkes estimate   =  -13677.70889277 Ry
     estimated scf accuracy    <      12.75869681 Ry

     iteration # 18     ecut=    80.00 Ry     beta=0.70
     Davidson diagonalization with overlap
     ethr =  8.68E-04,  avg # of iterations =  1.3

     negative rho (up, down):  1.254E+00 0.000E+00

     total cpu time spent up to now is     7784.0 secs

     total energy              =  -13673.85818284 Ry
     Harris-Foulkes estimate   =  -13676.49472608 Ry
     estimated scf accuracy    <      10.03416611 Ry

     iteration # 19     ecut=    80.00 Ry     beta=0.70
     Davidson diagonalization with overlap
     ethr =  7.27E-04,  avg # of iterations =  1.0

     negative rho (up, down):  9.204E-01 0.000E+00

     total cpu time spent up to now is     7969.7 secs

     total energy              =  -13672.71117750 Ry
     Harris-Foulkes estimate   =  -13674.01558183 Ry
     estimated scf accuracy    <       9.11452906 Ry

     iteration # 20     ecut=    80.00 Ry     beta=0.70
     Davidson diagonalization with overlap
     ethr =  6.60E-04,  avg # of iterations =  3.7

     negative rho (up, down):  1.935E-01 0.000E+00

     total cpu time spent up to now is     8191.0 secs

     total energy              =  -13671.99397535 Ry
     Harris-Foulkes estimate   =  -13672.89421430 Ry
     estimated scf accuracy    <       6.45381672 Ry

     iteration # 21     ecut=    80.00 Ry     beta=0.70
     Davidson diagonalization with overlap
     ethr =  4.68E-04,  avg # of iterations =  4.3

     negative rho (up, down):  8.362E-01 0.000E+00

     total cpu time spent up to now is     8418.3 secs

     total energy              =  -13671.13437018 Ry
     Harris-Foulkes estimate   =  -13672.19665986 Ry
     estimated scf accuracy    <       3.28044278 Ry

     iteration # 22     ecut=    80.00 Ry     beta=0.70
     Davidson diagonalization with overlap
     ethr =  2.38E-04,  avg # of iterations =  9.2

     negative rho (up, down):  8.210E-01 0.000E+00

     total cpu time spent up to now is     8738.9 secs

     total energy              =  -13671.05476646 Ry
     Harris-Foulkes estimate   =  -13671.35416358 Ry
     estimated scf accuracy    <       2.30679737 Ry

     iteration # 23     ecut=    80.00 Ry     beta=0.70
     Davidson diagonalization with overlap
     ethr =  1.67E-04,  avg # of iterations =  7.0

     negative rho (up, down):  1.121E+00 0.000E+00

     total cpu time spent up to now is     9016.0 secs

     total energy              =  -13671.03052458 Ry
     Harris-Foulkes estimate   =  -13671.16941136 Ry
     estimated scf accuracy    <       1.12898217 Ry

     iteration # 24     ecut=    80.00 Ry     beta=0.70
     Davidson diagonalization with overlap
     ethr =  8.18E-05,  avg # of iterations =  7.8

     negative rho (up, down):  7.787E-01 0.000E+00

     total cpu time spent up to now is     9323.0 secs

     total energy              =  -13671.00109170 Ry
     Harris-Foulkes estimate   =  -13671.07726805 Ry
     estimated scf accuracy    <       0.44832465 Ry

     iteration # 25     ecut=    80.00 Ry     beta=0.70
     Davidson diagonalization with overlap
     ethr =  3.25E-05,  avg # of iterations =  5.8

     negative rho (up, down):  4.065E-01 0.000E+00

     total cpu time spent up to now is     9589.1 secs

     total energy              =  -13670.95694409 Ry
     Harris-Foulkes estimate   =  -13671.01489606 Ry
     estimated scf accuracy    <       0.28255443 Ry

     iteration # 26     ecut=    80.00 Ry     beta=0.70
     Davidson diagonalization with overlap
     ethr =  2.05E-05,  avg # of iterations = 13.3

     negative rho (up, down):  2.621E-01 0.000E+00

     total cpu time spent up to now is     9969.5 secs

     total energy              =  -13670.96158527 Ry
     Harris-Foulkes estimate   =  -13670.97652137 Ry
     estimated scf accuracy    <       0.06574148 Ry

     iteration # 27     ecut=    80.00 Ry     beta=0.70
     Davidson diagonalization with overlap
     c_bands:  1 eigenvalues not converged
     ethr =  4.76E-06,  avg # of iterations = 16.2

     negative rho (up, down):  1.626E-01 0.000E+00

     total cpu time spent up to now is    10392.0 secs

     total energy              =  -13670.96434544 Ry
     Harris-Foulkes estimate   =  -13670.96848093 Ry
     estimated scf accuracy    <       0.02891637 Ry

     iteration # 28     ecut=    80.00 Ry     beta=0.70
     Davidson diagonalization with overlap
     c_bands:  1 eigenvalues not converged
     c_bands:  2 eigenvalues not converged
     ethr =  2.10E-06,  avg # of iterations = 13.8

     negative rho (up, down):  6.094E-02 0.000E+00

     total cpu time spent up to now is    10805.8 secs

     total energy              =  -13670.96417378 Ry
     Harris-Foulkes estimate   =  -13670.96668798 Ry
     estimated scf accuracy    <       0.00606607 Ry

     iteration # 29     ecut=    80.00 Ry     beta=0.70
     Davidson diagonalization with overlap
     c_bands:  3 eigenvalues not converged
     c_bands:  2 eigenvalues not converged
     ethr =  4.40E-07,  avg # of iterations = 14.2

     negative rho (up, down):  3.915E-02 0.000E+00

     total cpu time spent up to now is    11224.0 secs

     total energy              =  -13670.96404778 Ry
     Harris-Foulkes estimate   =  -13670.96476965 Ry
     estimated scf accuracy    <       0.00281118 Ry

     iteration # 30     ecut=    80.00 Ry     beta=0.70
     Davidson diagonalization with overlap
     c_bands:  1 eigenvalues not converged
     ethr =  2.04E-07,  avg # of iterations =  9.3

     negative rho (up, down):  2.285E-02 0.000E+00

     total cpu time spent up to now is    11548.8 secs

     total energy              =  -13670.96389038 Ry
     Harris-Foulkes estimate   =  -13670.96423836 Ry
     estimated scf accuracy    <       0.00059643 Ry

     iteration # 31     ecut=    80.00 Ry     beta=0.70
     Davidson diagonalization with overlap
     ethr =  4.32E-08,  avg # of iterations =  7.3

     negative rho (up, down):  1.249E-02 0.000E+00

     total cpu time spent up to now is    11838.5 secs

     total energy              =  -13670.96370380 Ry
     Harris-Foulkes estimate   =  -13670.96394096 Ry
     estimated scf accuracy    <       0.00032187 Ry

     iteration # 32     ecut=    80.00 Ry     beta=0.70
     Davidson diagonalization with overlap
     ethr =  2.33E-08,  avg # of iterations =  9.0

     negative rho (up, down):  7.406E-03 0.000E+00

     total cpu time spent up to now is    12157.2 secs

     total energy              =  -13670.96362834 Ry
     Harris-Foulkes estimate   =  -13670.96373619 Ry
     estimated scf accuracy    <       0.00012808 Ry

     iteration # 33     ecut=    80.00 Ry     beta=0.70
     Davidson diagonalization with overlap
     ethr =  9.28E-09,  avg # of iterations = 10.2

     negative rho (up, down):  2.168E-03 0.000E+00

     total cpu time spent up to now is    12477.1 secs

     total energy              =  -13670.96354947 Ry
     Harris-Foulkes estimate   =  -13670.96364028 Ry
     estimated scf accuracy    <       0.00003112 Ry

     iteration # 34     ecut=    80.00 Ry     beta=0.70
     Davidson diagonalization with overlap
     c_bands:  1 eigenvalues not converged
     ethr =  2.25E-09,  avg # of iterations = 11.7

     negative rho (up, down):  2.127E-03 0.000E+00

     total cpu time spent up to now is    12838.3 secs

     total energy              =  -13670.96355224 Ry
     Harris-Foulkes estimate   =  -13670.96355300 Ry
     estimated scf accuracy    <       0.00001250 Ry

     iteration # 35     ecut=    80.00 Ry     beta=0.70
     Davidson diagonalization with overlap
     ethr =  9.06E-10,  avg # of iterations =  4.5

     negative rho (up, down):  1.383E-03 0.000E+00

     total cpu time spent up to now is    13074.1 secs

     total energy              =  -13670.96355003 Ry
     Harris-Foulkes estimate   =  -13670.96355345 Ry
     estimated scf accuracy    <       0.00000638 Ry

     iteration # 36     ecut=    80.00 Ry     beta=0.70
     Davidson diagonalization with overlap
     ethr =  4.62E-10,  avg # of iterations =  3.0

     negative rho (up, down):  1.371E-03 0.000E+00

     total cpu time spent up to now is    13296.8 secs

     total energy              =  -13670.96355047 Ry
     Harris-Foulkes estimate   =  -13670.96355061 Ry
     estimated scf accuracy    <       0.00000220 Ry

     iteration # 37     ecut=    80.00 Ry     beta=0.70
     Davidson diagonalization with overlap
     ethr =  1.60E-10,  avg # of iterations =  2.7

     negative rho (up, down):  1.480E-03 0.000E+00

     total cpu time spent up to now is    13522.0 secs

     total energy              =  -13670.96355102 Ry
     Harris-Foulkes estimate   =  -13670.96355074 Ry
     estimated scf accuracy    <       0.00000118 Ry

     iteration # 38     ecut=    80.00 Ry     beta=0.70
     Davidson diagonalization with overlap
     ethr =  8.54E-11,  avg # of iterations =  2.0

     negative rho (up, down):  1.539E-03 0.000E+00

     total cpu time spent up to now is    13730.0 secs

     total energy              =  -13670.96355117 Ry
     Harris-Foulkes estimate   =  -13670.96355110 Ry
     estimated scf accuracy    <       0.00000042 Ry

     iteration # 39     ecut=    80.00 Ry     beta=0.70
     Davidson diagonalization with overlap
     ethr =  3.05E-11,  avg # of iterations =  2.3

     negative rho (up, down):  1.609E-03 0.000E+00

     total cpu time spent up to now is    13956.4 secs

     total energy              =  -13670.96355124 Ry
     Harris-Foulkes estimate   =  -13670.96355123 Ry
     estimated scf accuracy    <       0.00000026 Ry

     iteration # 40     ecut=    80.00 Ry     beta=0.70
     Davidson diagonalization with overlap
     ethr =  1.91E-11,  avg # of iterations =  2.0

     negative rho (up, down):  1.578E-03 0.000E+00

     total cpu time spent up to now is    14160.9 secs

     total energy              =  -13670.96355130 Ry
     Harris-Foulkes estimate   =  -13670.96355126 Ry
     estimated scf accuracy    <       0.00000009 Ry

     iteration # 41     ecut=    80.00 Ry     beta=0.70
     Davidson diagonalization with overlap
     ethr =  6.74E-12,  avg # of iterations =  2.3

     negative rho (up, down):  1.557E-03 0.000E+00

     total cpu time spent up to now is    14374.3 secs

     total energy              =  -13670.96355132 Ry
     Harris-Foulkes estimate   =  -13670.96355131 Ry
     estimated scf accuracy    <       0.00000003 Ry

     iteration # 42     ecut=    80.00 Ry     beta=0.70
     Davidson diagonalization with overlap
     ethr =  1.92E-12,  avg # of iterations =  2.0

     negative rho (up, down):  1.522E-03 0.000E+00

     total cpu time spent up to now is    14581.7 secs

     total energy              =  -13670.96355134 Ry
     Harris-Foulkes estimate   =  -13670.96355132 Ry
     estimated scf accuracy    <       0.00000001 Ry

     iteration # 43     ecut=    80.00 Ry     beta=0.70
     Davidson diagonalization with overlap
     ethr =  8.75E-13,  avg # of iterations =  3.0

     negative rho (up, down):  1.504E-03 0.000E+00

     total cpu time spent up to now is    14805.0 secs

     End of self-consistent calculation

          k = 0.0000 0.0000 0.0000 (256287 PWs)   bands (ev):

   -15.5848 -15.1791 -15.0957 -14.0492 -14.0431 -13.6223 -13.6175 -13.2261
   -13.2211 -13.1429 -13.1417 -12.2589 -12.2505 -12.1359 -12.1343 -12.1252
   -12.1204 -10.4486 -10.4453 -10.4413 -10.4380 -10.2506  -9.2324  -8.5738
    -8.5707  -8.5610  -8.5596  -7.6903  -7.6837  -7.6633  -7.6611  -6.7004
    -6.6967  -6.6167  -6.6113  -6.6051  -6.6010  -6.5882  -6.5877  -5.1847
    -5.0641  -5.0603  -5.0575  -5.0532  -4.9076  -4.9065  -4.8960  -4.8936
    -4.6813  -4.6388  -4.3592  -4.0034  -3.7490  -3.7473  -3.7279  -3.6670
    -3.4605  -3.4366  -3.4268  -3.2488  -3.1392  -3.1385  -2.7891  -2.6304
    -2.6294  -2.6272  -2.6243  -2.5699  -2.5697  -2.4850  -2.4663  -2.4589
    -2.4199  -2.3377  -2.1933  -2.1921  -2.1705  -2.1609  -2.1608  -2.1047
    -2.1007  -2.0897  -2.0710  -2.0370  -1.9595  -1.9511  -1.7847  -1.7844
    -1.7604  -1.7600  -1.6658  -1.6656  -1.5215  -1.5215  -1.5111  -1.5111
    -1.4753  -1.3630  -1.3580  -1.3224  -1.3107  -1.3039  -1.3036  -1.2943
    -1.2942  -1.2357  -1.2014  -1.2013  -1.1637  -1.1635  -1.1590  -1.0724
    -1.0614  -1.0404  -1.0347  -1.0284  -0.9988  -0.9935  -0.9366  -0.9293
    -0.9161  -0.9151  -0.9110  -0.8835  -0.8834  -0.8597  -0.8139  -0.8101
    -0.8094  -0.8093  -0.7457  -0.7330  -0.7310  -0.7255  -0.7061  -0.7060
    -0.6874  -0.6829  -0.6755  -0.6321  -0.6319  -0.5770  -0.5556  -0.5552
    -0.5124  -0.5022  -0.4650  -0.4579  -0.4478  -0.4397  -0.4371  -0.4141
    -0.4139  -0.4096  -0.3810  -0.3717  -0.3704  -0.3526  -0.3459  -0.3401
    -0.3401  -0.3348  -0.3001  -0.2978  -0.2480  -0.2479  -0.2292  -0.2245
    -0.2230  -0.2184  -0.2150  -0.2136  -0.2122  -0.1993  -0.1984  -0.1929
    -0.1864  -0.1701  -0.1509  -0.1503  -0.1426  -0.1321  -0.1251  -0.1121
    -0.1085  -0.1050  -0.1049  -0.0981  -0.0960  -0.0887  -0.0584  -0.0517
    -0.0495  -0.0414  -0.0282  -0.0275  -0.0269  -0.0063  -0.0061  -0.0045
    -0.0029  -0.0009  -0.0005   0.0059   0.0067   0.0198   0.0320   0.0541
     0.0549   0.0874   0.0982   0.0994   0.1101   0.1144   0.1290   0.1604
     0.1649   0.1651   0.1737   0.1772   0.1900   0.1944   0.2067   0.2079
     0.2181   0.2198   0.2218   0.2258   0.2274   0.2394   0.2442   0.2528
     0.2541   0.2562   0.2665   0.2694   0.2706   0.3082   0.3102   0.3142
     0.3401   0.3560   0.3646   0.3649   0.3737   0.3742   0.3964   0.3968
     0.4018   0.4045   0.4241   0.4245   0.4254   0.4332   0.4334   0.4401
     0.4401   0.4412   0.4434   0.4570   0.4708   0.4772   0.4791   0.4833
     0.4837   0.4887   0.4888   0.5051   0.5136   0.5174   0.5176   0.5285
     0.5446   0.5450   0.5571   0.5588   0.5591   0.5626   0.5626   0.5727
     0.5731   0.5843   0.5860   0.5954   0.5957   0.6035   0.6038   0.6052
     0.6141   0.6142   0.6427   0.6430   0.6445   0.6451   0.6475   0.6491
     0.6506   0.6528   0.6577   0.6578   0.6852   0.6904   0.6909   0.6942
     0.7149   0.7159   0.7415   0.7477   0.7483   0.7496   0.7506   0.7694
     0.7700   0.7735   0.7791   0.7798   0.7823   0.7830   0.8107   0.8127
     0.8131   0.8222   0.8235   0.8243   0.8277   0.8427   0.8439   0.8450
     0.8496   0.8496   0.8648   0.8703   0.8707   0.8739   0.8770   0.8779
     0.8780   0.8864   0.8985   0.8990   0.9057   0.9061   0.9089   0.9100
     0.9150   0.9225   0.9416   0.9511   0.9519   0.9627   0.9689   0.9779
     0.9800   0.9984   0.9992   1.0045   1.0105   1.0119   1.0142   1.0385
     1.0396   1.0556   1.0566   1.0695   1.0698   1.0712   1.0751   1.0816
     1.0827   1.0942   1.1148   1.1196   1.1244   1.1245   1.1357   1.1409
     1.1423   1.1588   1.1589   1.1739   1.1742   1.1773   1.1836   1.1908
     1.1909   1.2254   1.2336   1.2357   1.2370   1.2441   1.2494   1.2502
     1.2509   1.2526   1.2592   1.2659   1.2674   1.2677   1.2693   1.3001
     1.3009   1.3049   1.3061   1.3134   1.3174   1.3222   1.3309   1.3312
     1.3666   1.3666   1.3774   1.3834   1.3838   1.3870   1.3918   1.3919
     1.3946   1.4012   1.4095   1.4106   1.4194   1.4233   1.4256   1.4267
     1.4268   1.4341   1.4427   1.4477   1.4509   1.4547   1.4558   1.4565
     1.4581   1.4698   1.4735   1.4766   1.4828   1.4839   1.4939   1.4940
     1.4995   1.5097   1.5119   1.5124   1.5124   1.5140   1.5171   1.5185
     1.5418   1.5431   1.5464   1.5522   1.5558   1.5570   1.5574   1.5601
     1.5611   1.5651   1.5687   1.5707   1.5709   1.5867   1.5884   1.5924
     1.5925   1.6045   1.6052   1.6067   1.6072   1.6175   1.6237   1.6315
     1.6412   1.6452   1.6627   1.6681   1.6697   1.6819   1.6833   1.6870
     1.6940   1.6963   1.7053   1.7084   1.7094   1.7136   1.7162   1.7171
     1.7206   1.7217   1.7307   1.7400   1.7454   1.7488   1.7499   1.7608
     1.7617   1.7665   1.7722   1.7758   1.7804   1.7828   1.7842   1.7923
     1.7973   1.7979   1.8067   1.8094   1.8116   1.8136   1.8163   1.8255
     1.8265   1.8271   1.8398   1.8418   1.8424   1.8487   1.8595   1.8627
     1.8704   1.8817   1.8823   1.8855   1.8874   1.8889   1.9010   1.9022
     1.9105   1.9107   1.9116   1.9170   1.9173   1.9182   1.9198   1.9300
     1.9322   1.9356   1.9432   1.9452   1.9466   1.9483   1.9509   1.9527
     1.9576   1.9587   1.9613   1.9730   1.9761   1.9773   1.9773   1.9837
     1.9839   1.9935   1.9956   2.0092   2.0120   2.0213   2.0223   2.0272
     2.0318   2.0339   2.0419   2.0428   2.0546   2.0561   2.0650   2.0660
     2.0706   2.0736   2.0767   2.0804   2.0855   2.0895   2.0895   2.0986
     2.1030   2.1076   2.1107   2.1122   2.1142   2.1192   2.1201   2.1287
     2.1288   2.1331   2.1332   2.1371   2.1431   2.1478   2.1480   2.1562
     2.1684   2.1721   2.1737   2.1784   2.1808   2.1846   2.1869   2.1886
     2.1889   2.1898   2.1945   2.2066   2.2113   2.2127   2.2165   2.2193
     2.2218   2.2240   2.2255   2.2260   2.2316   2.2327   2.2355   2.2355
     2.2366   2.2371   2.2407   2.2424   2.2457   2.2570   2.2584   2.2599
     2.2648   2.2672   2.2692   2.2700   2.2719   2.2861   2.2862   2.2955
     2.2994   2.3008   2.3017   2.3045   2.3164   2.3194   2.3198   2.3402
     2.3419   2.3426   2.3619   2.3646   2.3652   2.3882   2.3884   2.3950
     2.3984   2.4201   2.4203   2.4208   2.4506   2.4570   2.4605   2.4617
     2.4620   2.4622   2.4793   2.4829   2.5195   2.6202   2.7143   2.7795
     2.8041   2.8670   2.8824   2.8839   2.9738   2.9740   2.9993   2.9998
     3.0330   3.0331   3.0429   3.0432   3.1075   3.1076   3.1191   3.1658
     3.1658   3.2097   3.2159   3.3906   3.3911   3.4494   3.4501   3.5985
     3.7220   3.8984   3.8991   3.9570   3.9657   4.0346   4.0379   4.1541
     4.2371   4.2374   4.2650   4.4255   4.4293   4.5000   4.5010   4.6349
     4.7234   4.7236   4.7306   4.7606   4.7610   4.8089   4.8284   4.8286
     4.8324   4.8325   5.2027   5.2231   5.2254   5.2545   5.3954   5.5467
     5.6685   5.7275   5.7721   5.7863   5.8351   5.8417   5.8817   5.8886
     6.0201   6.1180   6.3072   6.3273   6.4426   6.5216   6.5251   6.6946
     6.7304   7.0041   7.0042   7.0167   7.0664   7.2490   7.2759   7.2785
     7.3580   7.5305   7.5451   7.5610   7.5858   7.6056   7.6057   7.6361
     7.6640   7.6900   7.7026   7.7614   7.7718   7.8673   7.8724   7.9060
     7.9412   8.0334   8.0743   8.1202   8.1326   8.2873   8.3082   8.3873
     8.4820   8.4843   8.4892   8.5022   8.5026   8.7557   8.7642   8.7662
     8.8718   8.8776   8.8833   8.9007   8.9914   9.0105   9.0191   9.0222
     9.1270   9.1487   9.2834   9.3337   9.3342   9.3594   9.3624   9.4108
     9.4113   9.4215   9.4292   9.4345   9.4995   9.5105   9.5325   9.5406
     9.5511   9.5999   9.7099   9.7420   9.7768   9.8727   9.8736   9.9106
     9.9155   9.9768  10.0699  10.1022  10.3049  10.3123  10.3374  10.3768
    10.3768  10.5231  10.5310  10.5639  10.5642  10.6432  10.6539  10.6840
    10.6892  10.8042  10.8078  10.8434

          k = 0.0000-0.2165 0.0000 (256176 PWs)   bands (ev):

   -15.5586 -15.3439 -14.7021 -14.6651 -13.5972 -13.5920 -13.3849 -13.3821
   -13.2462 -13.2187 -12.7627 -12.7575 -12.7263 -12.7254 -11.3686 -11.3660
   -11.3430 -11.3390 -11.1900 -11.0928  -9.4840  -9.4807  -9.4263  -9.4236
    -8.2372  -8.1796  -8.1009  -8.0971  -8.0016  -8.0005  -7.2219  -7.2156
    -7.1945  -7.1915  -6.1029  -6.1026  -5.9760  -5.9754  -5.8931  -5.8839
    -5.8680  -5.8663  -5.0947  -5.0762  -5.0663  -5.0318  -4.3987  -4.2954
    -4.2903  -4.1649  -4.1591  -4.0270  -3.9771  -3.9487  -3.9105  -3.6846
    -3.6817  -3.6788  -3.6781  -3.6339  -3.1244  -3.1155  -2.8555  -2.7739
    -2.7056  -2.4823  -2.4814  -2.4529  -2.4516  -2.4509  -2.4202  -2.2753
    -2.2130  -2.2079  -2.1871  -2.1863  -2.1159  -2.1156  -1.9859  -1.9851
    -1.8916  -1.8911  -1.8780  -1.8772  -1.8737  -1.8261  -1.8008  -1.7781
    -1.7347  -1.7347  -1.7281  -1.7261  -1.6682  -1.6395  -1.6388  -1.6287
    -1.6280  -1.6051  -1.4665  -1.4001  -1.3956  -1.3951  -1.3575  -1.3362
    -1.3361  -1.2889  -1.2887  -1.2383  -1.1708  -1.1340  -1.1340  -1.1287
    -1.1178  -1.1177  -1.0064  -1.0059  -0.9574  -0.9562  -0.9519  -0.9468
    -0.9255  -0.9088  -0.8839  -0.8838  -0.8715  -0.8704  -0.8315  -0.8236
    -0.8096  -0.8093  -0.8000  -0.7572  -0.7563  -0.7336  -0.7125  -0.7114
    -0.6515  -0.6514  -0.5981  -0.5962  -0.5891  -0.5620  -0.5348  -0.5259
    -0.4820  -0.4805  -0.4716  -0.4639  -0.4634  -0.4593  -0.4469  -0.4377
    -0.4333  -0.4291  -0.4235  -0.4235  -0.4154  -0.4099  -0.4084  -0.4052
    -0.3950  -0.3819  -0.3811  -0.3607  -0.3094  -0.3093  -0.2876  -0.2869
    -0.2598  -0.2444  -0.2432  -0.2245  -0.2196  -0.2062  -0.2048  -0.2043
    -0.2024  -0.1851  -0.1747  -0.1556  -0.1443  -0.1435  -0.1371  -0.1286
    -0.1279  -0.1246  -0.1119  -0.0934  -0.0883  -0.0875  -0.0865  -0.0735
    -0.0719  -0.0423  -0.0382  -0.0379  -0.0251  -0.0125  -0.0031  -0.0030
     0.0045   0.0171   0.0223   0.0400   0.0543   0.0555   0.0585   0.0943
     0.1116   0.1397   0.1402   0.1512   0.1731   0.1744   0.1784   0.1785
     0.1982   0.1994   0.2010   0.2011   0.2129   0.2146   0.2222   0.2328
     0.2330   0.2452   0.2453   0.2455   0.2493   0.2580   0.2674   0.2814
     0.2819   0.2928   0.2932   0.3132   0.3159   0.3275   0.3323   0.3479
     0.3481   0.3512   0.3517   0.3568   0.3701   0.3705   0.3853   0.3857
     0.4286   0.4361   0.4364   0.4495   0.4568   0.4573   0.4700   0.4729
     0.4735   0.4834   0.4846   0.4875   0.4920   0.5054   0.5058   0.5193
     0.5194   0.5226   0.5226   0.5357   0.5395   0.5465   0.5479   0.5481
     0.5488   0.5536   0.5554   0.5573   0.5639   0.5772   0.5870   0.5875
     0.5958   0.5959   0.5964   0.6128   0.6131   0.6265   0.6273   0.6300
     0.6343   0.6351   0.6374   0.6421   0.6435   0.6513   0.6537   0.6685
     0.6691   0.6762   0.6778   0.6940   0.7016   0.7106   0.7138   0.7141
     0.7157   0.7291   0.7299   0.7433   0.7500   0.7510   0.7548   0.7549
     0.7561   0.7607   0.7634   0.7707   0.7822   0.7835   0.7955   0.7969
     0.8091   0.8127   0.8147   0.8198   0.8225   0.8259   0.8302   0.8355
     0.8444   0.8451   0.8470   0.8571   0.8649   0.8660   0.8668   0.8776
     0.8881   0.8884   0.9033   0.9068   0.9077   0.9082   0.9194   0.9201
     0.9271   0.9279   0.9385   0.9406   0.9415   0.9455   0.9531   0.9534
     0.9587   0.9638   0.9699   0.9776   0.9841   0.9928   0.9936   1.0043
     1.0109   1.0152   1.0302   1.0404   1.0526   1.0541   1.0724   1.0766
     1.0776   1.0832   1.0834   1.0957   1.1145   1.1148   1.1179   1.1187
     1.1315   1.1448   1.1502   1.1550   1.1573   1.1659   1.1754   1.1813
     1.1816   1.1971   1.2060   1.2195   1.2196   1.2288   1.2467   1.2519
     1.2550   1.2551   1.2648   1.2652   1.2725   1.2805   1.2808   1.2988
     1.2989   1.3148   1.3160   1.3214   1.3270   1.3322   1.3324   1.3505
     1.3582   1.3583   1.3589   1.3593   1.3654   1.3659   1.3761   1.3763
     1.3771   1.3820   1.3914   1.3975   1.3985   1.4031   1.4058   1.4100
     1.4161   1.4199   1.4219   1.4392   1.4395   1.4468   1.4493   1.4529
     1.4540   1.4541   1.4612   1.4615   1.4637   1.4738   1.4747   1.4894
     1.4907   1.4966   1.4970   1.4999   1.5026   1.5063   1.5179   1.5181
     1.5192   1.5213   1.5225   1.5260   1.5292   1.5302   1.5431   1.5437
     1.5513   1.5548   1.5555   1.5567   1.5574   1.5659   1.5763   1.5811
     1.5880   1.5884   1.5896   1.6063   1.6250   1.6273   1.6311   1.6362
     1.6377   1.6413   1.6462   1.6472   1.6625   1.6931   1.6938   1.7133
     1.7165   1.7190   1.7237   1.7250   1.7287   1.7288   1.7366   1.7375
     1.7395   1.7437   1.7487   1.7487   1.7548   1.7549   1.7550   1.7613
     1.7722   1.7738   1.7756   1.7888   1.7897   1.7913   1.7925   1.8024
     1.8040   1.8041   1.8101   1.8111   1.8117   1.8133   1.8144   1.8145
     1.8170   1.8200   1.8340   1.8349   1.8382   1.8386   1.8426   1.8454
     1.8457   1.8474   1.8500   1.8503   1.8674   1.8715   1.8716   1.8784
     1.8815   1.8927   1.9017   1.9019   1.9020   1.9118   1.9121   1.9134
     1.9271   1.9309   1.9347   1.9460   1.9462   1.9469   1.9585   1.9605
     1.9634   1.9642   1.9700   1.9865   1.9956   1.9962   2.0049   2.0050
     2.0067   2.0084   2.0115   2.0214   2.0231   2.0234   2.0264   2.0315
     2.0323   2.0371   2.0385   2.0444   2.0450   2.0499   2.0522   2.0538
     2.0554   2.0614   2.0622   2.0793   2.0844   2.0853   2.0865   2.0898
     2.0967   2.0972   2.1075   2.1077   2.1081   2.1135   2.1141   2.1166
     2.1199   2.1330   2.1335   2.1361   2.1426   2.1479   2.1485   2.1530
     2.1536   2.1581   2.1597   2.1608   2.1660   2.1662   2.1758   2.1802
     2.1874   2.1874   2.1952   2.2007   2.2038   2.2041   2.2100   2.2231
     2.2253   2.2265   2.2290   2.2296   2.2302   2.2328   2.2371   2.2388
     2.2508   2.2509   2.2528   2.2586   2.2662   2.2700   2.2762   2.2764
     2.2806   2.2809   2.2825   2.2826   2.3001   2.3037   2.3042   2.3074
     2.3106   2.3247   2.3334   2.3335   2.3402   2.3507   2.3525   2.3536
     2.3541   2.3575   2.3580   2.3594   2.3702   2.3720   2.3721   2.3771
     2.4011   2.4400   2.4530   2.4671   2.4898   2.5448   2.5713   2.5754
     2.5756   2.5977   2.5977   2.6193   2.6196   2.6520   2.6523   2.6642
     2.6805   2.6854   2.8838   2.8851   2.9290   2.9337   2.9480   2.9638
     2.9795   3.0344   3.1066   3.1116   3.2094   3.2095   3.2185   3.2573
     3.2582   3.3121   3.3729   3.3980   3.3985   3.4861   3.4910   3.4911
     3.5242   3.7377   3.7377   3.7410   3.8067   3.8082   3.9863   3.9863
     4.0164   4.0174   4.2803   4.2966   4.3637   4.3639   4.4643   4.4983
     4.7111   4.7362   4.7417   4.8566   4.8618   4.8989   4.9019   4.9315
     4.9462   4.9886   5.1824   5.2139   5.3715   5.3752   5.6576   5.7599
     5.8041   5.8047   5.8753   5.9113   5.9419   6.0845   6.0849   6.1586
     6.1815   6.1946   6.1948   6.3466   6.4320   6.5297   6.5362   6.5812
     6.6061   6.7131   6.8026   6.8032   6.8258   6.8846   7.0016   7.1852
     7.2413   7.2447   7.3983   7.3984   7.4357   7.5256   7.6331   7.7278
     7.7311   7.7405   7.8382   7.8408   7.8891   7.9274   7.9278   7.9475
     7.9483   7.9891   8.0589   8.0892   8.1743   8.1763   8.3781   8.3839
     8.4776   8.5206   8.5736   8.6023   8.6103   8.6117   8.6250   8.7584
     8.7629   8.7637   8.8473   8.8935   8.9876   9.0685   9.0703   9.1823
     9.2132   9.2313   9.2319   9.2360   9.3318   9.3325   9.4198   9.4519
     9.4552   9.4831   9.4912   9.6104   9.6151   9.6264   9.6320   9.6694
     9.7416   9.7931   9.9041   9.9171   9.9182   9.9299   9.9393   9.9442
    10.0323  10.0324  10.1404  10.1411  10.1913  10.2162  10.2244  10.3016
    10.3030  10.4922  10.5108  10.5303  10.5316  10.6026  10.6068  10.6152
    10.6790  10.6820  10.6963  10.7777

          k = 0.2500 0.0000 0.0000 (256240 PWs)   bands (ev):

   -15.4605 -15.0554 -14.9720 -14.4725 -14.0726 -13.9900 -13.9275 -13.9214
   -12.9624 -12.9562 -12.5416 -12.1544 -12.1421 -12.1338 -12.0735 -11.2208
   -11.2128 -11.1030 -11.0963 -10.1451  -9.9228  -9.8113  -9.6828  -9.3026
    -9.1277  -8.8542  -8.8388  -8.4283  -8.1732  -8.1661  -7.6303  -6.6277
    -6.6233  -6.6143  -6.6126  -6.5054  -6.4997  -6.0314  -5.7660  -5.2008
    -5.0471  -5.0137  -5.0042  -4.9398  -4.9346  -4.5078  -4.4656  -4.2678
    -4.2564  -4.1926  -3.8414  -3.7533  -3.6300  -3.5790  -3.5157  -3.4574
    -3.4391  -3.4249  -3.4171  -3.2973  -3.1927  -3.1538  -3.1023  -3.0060
    -2.9921  -2.9915  -2.9465  -2.7085  -2.7040  -2.6796  -2.6583  -2.6386
    -2.6262  -2.5777  -2.5491  -2.4453  -2.4379  -2.3907  -2.3343  -2.2973
    -2.2274  -2.2043  -2.1855  -2.0396  -1.9834  -1.9649  -1.9614  -1.9497
    -1.9459  -1.9400  -1.6107  -1.5676  -1.5461  -1.5374  -1.5255  -1.4727
    -1.3624  -1.2836  -1.2738  -1.2648  -1.2568  -1.2425  -1.2421  -1.2002
    -1.1844  -1.1050  -1.0879  -1.0380  -1.0371  -1.0065  -1.0010  -0.9628
    -0.9502  -0.9473  -0.9452  -0.9370  -0.9309  -0.9308  -0.8991  -0.8761
    -0.8557  -0.8207  -0.8189  -0.8143  -0.7655  -0.7480  -0.7455  -0.7407
    -0.7380  -0.7324  -0.7238  -0.7101  -0.6988  -0.6802  -0.6795  -0.6709
    -0.6603  -0.6595  -0.6559  -0.6135  -0.6066  -0.5422  -0.5354  -0.5097
    -0.4894  -0.4726  -0.4569  -0.4539  -0.4306  -0.4116  -0.4025  -0.3991
    -0.3931  -0.3861  -0.3767  -0.3665  -0.3563  -0.3469  -0.3437  -0.3340
    -0.3225  -0.3200  -0.3010  -0.3001  -0.2969  -0.2911  -0.2841  -0.2773
    -0.2752  -0.2599  -0.2559  -0.2271  -0.2236  -0.2080  -0.2044  -0.1979
    -0.1942  -0.1877  -0.1831  -0.1817  -0.1783  -0.1745  -0.1697  -0.1670
    -0.1535  -0.1468  -0.1411  -0.1405  -0.1392  -0.1316  -0.1311  -0.1276
    -0.1228  -0.1145  -0.1040  -0.0852  -0.0731  -0.0536  -0.0503  -0.0496
    -0.0325  -0.0228  -0.0042  -0.0002   0.0086   0.0302   0.0319   0.0415
     0.0548   0.0563   0.0603   0.0637   0.0767   0.0920   0.0970   0.0973
     0.1156   0.1165   0.1283   0.1574   0.1612   0.2033   0.2112   0.2224
     0.2339   0.2423   0.2493   0.2504   0.2562   0.2723   0.2835   0.2857
     0.2902   0.2935   0.3022   0.3074   0.3205   0.3235   0.3319   0.3333
     0.3401   0.3406   0.3448   0.3661   0.3696   0.3702   0.3731   0.3881
     0.4061   0.4082   0.4223   0.4341   0.4379   0.4411   0.4458   0.4498
     0.4515   0.4580   0.4630   0.4708   0.4712   0.4723   0.4816   0.4855
     0.4993   0.5095   0.5122   0.5148   0.5218   0.5255   0.5316   0.5346
     0.5390   0.5472   0.5524   0.5537   0.5548   0.5579   0.5637   0.5764
     0.5846   0.5941   0.6052   0.6073   0.6087   0.6260   0.6329   0.6382
     0.6403   0.6429   0.6499   0.6582   0.6627   0.6684   0.6710   0.6728
     0.6798   0.6873   0.6996   0.7111   0.7124   0.7211   0.7230   0.7256
     0.7280   0.7352   0.7413   0.7448   0.7572   0.7580   0.7729   0.7773
     0.7832   0.7835   0.7983   0.8013   0.8072   0.8163   0.8208   0.8258
     0.8274   0.8323   0.8346   0.8355   0.8390   0.8463   0.8518   0.8539
     0.8568   0.8612   0.8655   0.8732   0.8871   0.8893   0.8918   0.8948
     0.9005   0.9038   0.9075   0.9086   0.9101   0.9178   0.9231   0.9270
     0.9377   0.9392   0.9533   0.9642   0.9743   0.9795   0.9798   0.9852
     0.9896   0.9907   1.0090   1.0167   1.0215   1.0252   1.0329   1.0364
     1.0469   1.0525   1.0629   1.0789   1.0851   1.0953   1.0989   1.1025
     1.1136   1.1198   1.1228   1.1281   1.1314   1.1349   1.1354   1.1403
     1.1453   1.1497   1.1506   1.1558   1.1590   1.1629   1.1668   1.1705
     1.1716   1.1814   1.1837   1.1849   1.1892   1.1945   1.2010   1.2106
     1.2130   1.2230   1.2334   1.2428   1.2485   1.2671   1.2698   1.2719
     1.2745   1.2853   1.2861   1.2877   1.2903   1.2953   1.2955   1.3108
     1.3156   1.3217   1.3282   1.3302   1.3320   1.3499   1.3507   1.3560
     1.3588   1.3623   1.3747   1.3783   1.3805   1.3874   1.3919   1.3973
     1.4013   1.4040   1.4114   1.4133   1.4196   1.4260   1.4287   1.4303
     1.4330   1.4438   1.4469   1.4523   1.4531   1.4616   1.4689   1.4695
     1.4708   1.4730   1.4862   1.4867   1.4881   1.4922   1.4951   1.4994
     1.5135   1.5160   1.5168   1.5210   1.5348   1.5386   1.5439   1.5571
     1.5627   1.5699   1.5756   1.5773   1.5872   1.5883   1.5897   1.5914
     1.5945   1.6041   1.6058   1.6120   1.6174   1.6193   1.6353   1.6434
     1.6453   1.6464   1.6496   1.6540   1.6624   1.6642   1.6814   1.6828
     1.6863   1.6880   1.6905   1.6936   1.6987   1.7069   1.7139   1.7149
     1.7163   1.7169   1.7193   1.7308   1.7377   1.7438   1.7450   1.7487
     1.7506   1.7586   1.7609   1.7618   1.7854   1.7890   1.7946   1.7959
     1.8043   1.8071   1.8136   1.8182   1.8197   1.8229   1.8285   1.8335
     1.8357   1.8387   1.8411   1.8445   1.8499   1.8572   1.8574   1.8588
     1.8639   1.8700   1.8727   1.8734   1.8787   1.8806   1.8815   1.8866
     1.8888   1.8912   1.8918   1.8954   1.9008   1.9043   1.9073   1.9140
     1.9193   1.9265   1.9275   1.9336   1.9354   1.9365   1.9381   1.9427
     1.9470   1.9531   1.9566   1.9588   1.9602   1.9787   1.9800   1.9851
     1.9889   1.9907   1.9966   2.0013   2.0138   2.0202   2.0272   2.0279
     2.0302   2.0324   2.0354   2.0466   2.0479   2.0480   2.0504   2.0566
     2.0640   2.0710   2.0746   2.0796   2.0831   2.0840   2.0891   2.0911
     2.0981   2.1013   2.1041   2.1052   2.1059   2.1098   2.1106   2.1156
     2.1198   2.1233   2.1273   2.1289   2.1342   2.1392   2.1405   2.1435
     2.1448   2.1512   2.1595   2.1618   2.1697   2.1854   2.1882   2.1917
     2.1936   2.1996   2.2001   2.2022   2.2040   2.2067   2.2081   2.2177
     2.2206   2.2233   2.2252   2.2270   2.2406   2.2410   2.2422   2.2433
     2.2442   2.2520   2.2538   2.2561   2.2595   2.2623   2.2653   2.2692
     2.2726   2.2739   2.2748   2.2827   2.2852   2.2860   2.2928   2.2971
     2.2990   2.2998   2.3021   2.3092   2.3115   2.3199   2.3231   2.3264
     2.3306   2.3352   2.3365   2.3426   2.3544   2.3597   2.3607   2.3757
     2.3903   2.3951   2.3978   2.4052   2.4260   2.4286   2.4385   2.4406
     2.4496   2.4626   2.4658   2.5501   2.5617   2.5699   2.6064   2.6193
     2.6350   2.6596   2.6731   2.7357   2.7600   2.8179   2.8404   2.8566
     2.8948   2.9253   2.9776   3.1927   3.2660   3.2884   3.2989   3.3323
     3.3805   3.5391   3.6832   3.7331   3.7987   3.7997   3.8147   3.9162
     3.9607   3.9942   4.0420   4.0455   4.0723   4.2165   4.2795   4.2956
     4.3569   4.3976   4.4551   4.4594   4.4870   4.4947   4.5008   4.5031
     4.5564   4.7720   4.9045   4.9518   5.0281   5.1099   5.1346   5.1711
     5.2366   5.2740   5.3536   5.3728   5.3920   5.4634   5.4793   5.5962
     5.6302   5.7918   5.8367   5.8597   5.8912   5.9230   5.9720   6.0167
     6.1160   6.1621   6.1818   6.2517   6.2577   6.3132   6.3971   6.3997
     6.6186   6.6379   6.7042   6.7189   6.7797   6.7889   6.7950   6.8069
     7.0054   7.1212   7.1587   7.3356   7.3843   7.4417   7.5325   7.5442
     7.5769   7.6052   7.6166   7.6386   7.6537   7.6936   7.7108   7.7355
     7.7454   7.7498   7.8286   7.8411   7.9563   8.0325   8.0609   8.1310
     8.1562   8.2630   8.3110   8.3157   8.4911   8.5051   8.5167   8.5570
     8.5968   8.6483   8.6542   8.6913   8.7122   8.8237   8.8431   8.9415
     8.9731   9.0790   9.1564   9.1654   9.1791   9.1959   9.2165   9.2292
     9.2851   9.2881   9.3653   9.4279   9.4451   9.5167   9.5505   9.5938
     9.7135   9.7332   9.7387   9.7498   9.7557   9.8018   9.8655   9.8674
     9.8943   9.9035   9.9930  10.0208  10.0380  10.0412  10.0776  10.1755
    10.2229  10.2451  10.3443  10.3465  10.4274  10.5274  10.5414  10.5524
    10.5560  10.5610  10.5774  10.6423

          k = 0.2500-0.2165 0.0000 (256316 PWs)   bands (ev):

   -15.4343 -15.2199 -14.5791 -14.5423 -14.4467 -14.2347 -13.6024 -13.5669
   -13.1264 -13.0990 -12.5170 -12.3106 -12.1771 -12.1511 -11.7024 -11.6706
   -11.0782 -10.9807 -10.4096 -10.3929 -10.1972 -10.1024  -9.8523  -9.6548
    -8.7294  -8.7051  -8.2544  -8.1431  -8.1267  -8.0843  -7.5860  -7.5169
    -7.4671  -7.4431  -5.8056  -5.7399  -5.7332  -5.6659  -5.6368  -5.4731
    -5.4174  -5.3118  -5.0506  -5.0356  -4.8896  -4.8534  -4.2415  -4.2235
    -4.2165  -3.9134  -3.9122  -3.8618  -3.8156  -3.7822  -3.7568  -3.5283
    -3.4944  -3.4859  -3.3317  -3.2405  -3.2375  -3.2162  -2.9792  -2.9753
    -2.9727  -2.9644  -2.7879  -2.7194  -2.7114  -2.6308  -2.6274  -2.6108
    -2.5712  -2.5595  -2.5476  -2.5404  -2.3382  -2.2761  -2.2743  -2.2696
    -2.1459  -2.1306  -2.0650  -2.0643  -1.9926  -1.9508  -1.9451  -1.9375
    -1.7063  -1.7008  -1.6802  -1.6778  -1.6457  -1.5933  -1.5045  -1.4854
    -1.4685  -1.3873  -1.3464  -1.3231  -1.3172  -1.3039  -1.2671  -1.1802
    -1.1791  -1.1322  -1.1213  -1.1031  -1.0822  -1.0576  -1.0112  -1.0011
    -0.9637  -0.9564  -0.9451  -0.9151  -0.9050  -0.8679  -0.8644  -0.8578
    -0.8541  -0.8537  -0.8441  -0.8437  -0.8362  -0.8316  -0.8286  -0.8202
    -0.7658  -0.7612  -0.7335  -0.7305  -0.7218  -0.7130  -0.6615  -0.6571
    -0.6206  -0.6140  -0.5750  -0.5536  -0.5185  -0.5126  -0.5009  -0.4882
    -0.4867  -0.4724  -0.4430  -0.4421  -0.4398  -0.4211  -0.4180  -0.4071
    -0.3983  -0.3950  -0.3933  -0.3823  -0.3649  -0.3623  -0.3614  -0.3601
    -0.3559  -0.3507  -0.3457  -0.3221  -0.3060  -0.2838  -0.2782  -0.2771
    -0.2759  -0.2706  -0.2658  -0.2410  -0.2290  -0.2281  -0.2218  -0.2119
    -0.2074  -0.2023  -0.2002  -0.1896  -0.1803  -0.1747  -0.1668  -0.1499
    -0.1441  -0.1433  -0.1373  -0.1308  -0.1298  -0.1286  -0.1210  -0.1165
    -0.0836  -0.0663  -0.0499  -0.0469  -0.0449  -0.0389  -0.0289  -0.0250
    -0.0099   0.0015   0.0139   0.0274   0.0326   0.0407   0.0468   0.0553
     0.0684   0.0763   0.0896   0.0939   0.0990   0.1056   0.1142   0.1285
     0.1328   0.1477   0.1527   0.1593   0.1636   0.1751   0.1860   0.2281
     0.2286   0.2309   0.2414   0.2622   0.2653   0.2659   0.2718   0.2748
     0.2790   0.2870   0.2991   0.3055   0.3177   0.3344   0.3357   0.3416
     0.3446   0.3517   0.3589   0.3661   0.3755   0.3828   0.3843   0.3864
     0.3882   0.4045   0.4103   0.4154   0.4280   0.4342   0.4426   0.4486
     0.4542   0.4572   0.4580   0.4609   0.4747   0.4760   0.4831   0.4844
     0.4880   0.4899   0.4942   0.5036   0.5041   0.5086   0.5109   0.5155
     0.5263   0.5307   0.5333   0.5563   0.5567   0.5634   0.5736   0.5809
     0.5902   0.5927   0.5993   0.6061   0.6092   0.6175   0.6216   0.6283
     0.6338   0.6366   0.6476   0.6509   0.6597   0.6629   0.6710   0.6823
     0.6988   0.7093   0.7117   0.7167   0.7173   0.7190   0.7217   0.7324
     0.7379   0.7420   0.7530   0.7594   0.7616   0.7673   0.7727   0.7751
     0.7805   0.7815   0.7859   0.7921   0.7955   0.8006   0.8105   0.8117
     0.8224   0.8257   0.8283   0.8303   0.8338   0.8346   0.8403   0.8556
     0.8582   0.8632   0.8646   0.8662   0.8733   0.8852   0.8881   0.9091
     0.9206   0.9212   0.9225   0.9229   0.9277   0.9311   0.9326   0.9473
     0.9567   0.9609   0.9658   0.9749   0.9814   0.9886   0.9909   0.9917
     0.9936   0.9944   1.0020   1.0079   1.0128   1.0198   1.0216   1.0253
     1.0325   1.0355   1.0374   1.0482   1.0581   1.0774   1.0820   1.0872
     1.1037   1.1117   1.1152   1.1205   1.1229   1.1276   1.1381   1.1442
     1.1473   1.1500   1.1519   1.1546   1.1648   1.1659   1.1680   1.1724
     1.1837   1.1849   1.1890   1.1905   1.1970   1.2095   1.2147   1.2178
     1.2198   1.2241   1.2268   1.2377   1.2430   1.2473   1.2581   1.2612
     1.2646   1.2690   1.2733   1.2738   1.2847   1.2887   1.3111   1.3234
     1.3304   1.3319   1.3369   1.3376   1.3385   1.3486   1.3533   1.3654
     1.3676   1.3696   1.3846   1.3864   1.3995   1.4066   1.4136   1.4150
     1.4160   1.4194   1.4256   1.4272   1.4281   1.4335   1.4342   1.4480
     1.4496   1.4578   1.4589   1.4643   1.4710   1.4744   1.4826   1.4860
     1.4869   1.4948   1.4956   1.5003   1.5026   1.5106   1.5133   1.5180
     1.5256   1.5275   1.5292   1.5344   1.5374   1.5390   1.5428   1.5463
     1.5594   1.5651   1.5704   1.5708   1.5719   1.5763   1.5776   1.5856
     1.5863   1.5865   1.5937   1.5993   1.6023   1.6074   1.6157   1.6238
     1.6295   1.6299   1.6360   1.6452   1.6572   1.6608   1.6627   1.6663
     1.6734   1.6766   1.6771   1.6825   1.6863   1.6950   1.7052   1.7082
     1.7133   1.7163   1.7168   1.7174   1.7200   1.7251   1.7257   1.7321
     1.7485   1.7502   1.7546   1.7574   1.7600   1.7647   1.7738   1.7805
     1.7849   1.7954   1.7957   1.7962   1.8012   1.8060   1.8200   1.8224
     1.8239   1.8254   1.8295   1.8356   1.8393   1.8625   1.8656   1.8691
     1.8775   1.8815   1.8887   1.8931   1.8968   1.9000   1.9036   1.9101
     1.9103   1.9147   1.9197   1.9213   1.9266   1.9295   1.9313   1.9339
     1.9361   1.9386   1.9393   1.9427   1.9522   1.9565   1.9587   1.9617
     1.9750   1.9773   1.9854   1.9911   1.9917   1.9947   1.9967   1.9979
     1.9995   2.0036   2.0053   2.0081   2.0094   2.0124   2.0152   2.0183
     2.0273   2.0327   2.0329   2.0352   2.0363   2.0397   2.0419   2.0454
     2.0469   2.0539   2.0624   2.0735   2.0742   2.0783   2.0827   2.0873
     2.0895   2.0897   2.0933   2.0956   2.1000   2.1003   2.1137   2.1219
     2.1259   2.1271   2.1341   2.1389   2.1402   2.1420   2.1470   2.1498
     2.1582   2.1599   2.1663   2.1731   2.1756   2.1783   2.1844   2.1853
     2.1900   2.1947   2.1979   2.2001   2.2014   2.2063   2.2078   2.2116
     2.2124   2.2161   2.2251   2.2277   2.2281   2.2311   2.2446   2.2461
     2.2488   2.2532   2.2541   2.2571   2.2588   2.2601   2.2621   2.2682
     2.2738   2.2748   2.2767   2.2786   2.2799   2.2848   2.2934   2.2961
     2.2993   2.3032   2.3044   2.3052   2.3109   2.3140   2.3159   2.3243
     2.3249   2.3322   2.3343   2.3350   2.3412   2.3475   2.3507   2.3669
     2.3699   2.3734   2.3774   2.3848   2.4060   2.4129   2.4319   2.4595
     2.4852   2.4965   2.5175   2.5328   2.5421   2.5513   2.5525   2.5743
     2.5784   2.5841   2.6359   2.7043   2.9286   2.9354   2.9526   2.9626
     2.9904   3.0528   3.0539   3.0637   3.1746   3.2852   3.3630   3.3802
     3.4007   3.4365   3.5012   3.5937   3.6078   3.6282   3.6745   3.7161
     3.7435   3.8942   3.9661   3.9762   3.9774   4.1994   4.4040   4.4283
     4.4664   4.5377   4.6079   4.6329   4.6450   4.6596   4.7732   4.8440
     4.8963   4.9413   4.9616   4.9619   5.0749   5.1116   5.1342   5.1381
     5.1687   5.2407   5.2824   5.3232   5.3655   5.4192   5.4289   5.4769
     5.5266   5.6621   5.6844   5.7039   5.7647   5.8059   5.8401   6.0039
     6.0242   6.0854   6.2080   6.2347   6.2448   6.2836   6.3431   6.4365
     6.5419   6.5459   6.6471   6.7620   6.7790   6.8111   6.8671   6.8922
     7.0035   7.0841   7.1805   7.2520   7.2557   7.2997   7.3157   7.5393
     7.5814   7.6187   7.6871   7.7638   7.8038   7.8845   7.8996   7.9207
     7.9475   7.9580   7.9859   7.9914   8.0018   8.0994   8.1438   8.1825
     8.2355   8.2457   8.2733   8.2808   8.3019   8.4418   8.5564   8.6430
     8.6592   8.7190   8.7808   8.7812   8.8145   8.8259   8.8774   8.9411
     8.9765   9.0241   9.0726   9.0741   9.0780   9.0905   9.2359   9.2989
     9.3292   9.3396   9.3544   9.3675   9.4427   9.5083   9.5275   9.5375
     9.5416   9.6234   9.6470   9.7144   9.7865   9.7944   9.8115   9.8256
     9.8481   9.8723   9.9122   9.9452   9.9636  10.0259  10.0507  10.1354
    10.1366  10.1514  10.1760  10.2087  10.2286  10.2626  10.3861  10.3892
    10.4092  10.4984  10.5785  10.6031

          k =-0.5000 0.0000 0.0000 (256496 PWs)   bands (ev):

   -15.0897 -15.0873 -14.6867 -14.6840 -14.6024 -14.6019 -13.5646 -13.5634
   -13.5586 -13.5566 -11.7947 -11.7929 -11.7862 -11.7850 -11.2742 -11.2585
   -10.9161 -10.8923 -10.8303 -10.8134 -10.2136 -10.2037  -9.8288  -9.8279
    -9.2493  -9.2412  -8.8297  -8.8270  -8.0081  -8.0044  -7.9898  -7.9871
    -6.5083  -6.5004  -6.4412  -6.4390  -6.4364  -6.4349  -4.9873  -4.9782
    -4.4753  -4.4732  -4.2856  -4.2799  -4.0020  -3.9989  -3.9577  -3.9558
    -3.8734  -3.8670  -3.8084  -3.8073  -3.7541  -3.7521  -3.7329  -3.7303
    -3.6826  -3.6787  -3.4751  -3.4745  -3.4622  -3.4562  -3.3602  -3.3545
    -3.1160  -3.1071  -3.0473  -3.0460  -2.8771  -2.8714  -2.6673  -2.6658
    -2.5718  -2.5709  -2.5704  -2.5700  -2.4538  -2.4505  -2.4483  -2.4442
    -2.4426  -2.4422  -2.2148  -2.2112  -1.9582  -1.9537  -1.8772  -1.8744
    -1.8600  -1.8588  -1.8472  -1.8465  -1.6888  -1.6884  -1.6774  -1.6763
    -1.5859  -1.5781  -1.5430  -1.5399  -1.1135  -1.1131  -1.1114  -1.1096
    -1.0386  -1.0370  -1.0350  -1.0339  -1.0284  -1.0279  -0.9846  -0.9828
    -0.8186  -0.8184  -0.8162  -0.8156  -0.7686  -0.7665  -0.7657  -0.7645
    -0.7627  -0.7620  -0.7511  -0.7507  -0.6968  -0.6954  -0.6543  -0.6541
    -0.6227  -0.6218  -0.6105  -0.6101  -0.5889  -0.5883  -0.5641  -0.5636
    -0.5475  -0.5459  -0.5220  -0.5209  -0.5149  -0.5137  -0.5119  -0.5105
    -0.4887  -0.4886  -0.4778  -0.4770  -0.4621  -0.4620  -0.4556  -0.4545
    -0.4431  -0.4426  -0.4384  -0.4364  -0.3766  -0.3756  -0.3686  -0.3625
    -0.3496  -0.3492  -0.3402  -0.3397  -0.3186  -0.3180  -0.3137  -0.3135
    -0.2893  -0.2880  -0.2730  -0.2725  -0.2673  -0.2669  -0.2499  -0.2490
    -0.2424  -0.2382  -0.2099  -0.2054  -0.1970  -0.1962  -0.1728  -0.1708
    -0.1481  -0.1470  -0.1343  -0.1335  -0.1334  -0.1331  -0.1250  -0.1240
    -0.1081  -0.1078  -0.0992  -0.0974  -0.0807  -0.0802  -0.0723  -0.0712
    -0.0665  -0.0660  -0.0590  -0.0565  -0.0517  -0.0504  -0.0057  -0.0053
     0.0645   0.0662   0.1039   0.1063   0.1118   0.1146   0.1354   0.1364
     0.1608   0.1627   0.1654   0.1675   0.1728   0.1736   0.1927   0.1985
     0.2015   0.2017   0.2173   0.2173   0.2216   0.2226   0.2451   0.2454
     0.2574   0.2602   0.2609   0.2621   0.3127   0.3195   0.3213   0.3254
     0.3549   0.3600   0.3670   0.3673   0.3736   0.3767   0.3917   0.3972
     0.3979   0.4031   0.4043   0.4108   0.4150   0.4161   0.4293   0.4299
     0.4556   0.4568   0.4605   0.4616   0.4836   0.4855   0.4938   0.4949
     0.5073   0.5085   0.5145   0.5338   0.5365   0.5373   0.5388   0.5395
     0.5528   0.5647   0.5648   0.5661   0.5810   0.5831   0.5833   0.5860
     0.5895   0.5896   0.6101   0.6276   0.6285   0.6301   0.6521   0.6554
     0.6657   0.6678   0.6822   0.6882   0.6909   0.6936   0.7030   0.7074
     0.7119   0.7239   0.7262   0.7328   0.7379   0.7633   0.7645   0.7674
     0.7692   0.7706   0.7813   0.7864   0.7926   0.7956   0.7969   0.7992
     0.8041   0.8174   0.8176   0.8184   0.8200   0.8213   0.8250   0.8331
     0.8457   0.8525   0.8605   0.8666   0.8681   0.8685   0.8988   0.8997
     0.9100   0.9103   0.9107   0.9182   0.9211   0.9246   0.9248   0.9279
     0.9316   0.9328   0.9352   0.9369   0.9407   0.9426   0.9508   0.9600
     0.9609   0.9611   0.9622   0.9640   0.9703   0.9721   0.9727   0.9752
     0.9787   0.9832   0.9941   0.9958   0.9975   0.9984   1.0007   1.0299
     1.0335   1.0424   1.0455   1.0613   1.0649   1.0995   1.1051   1.1104
     1.1163   1.1254   1.1272   1.1286   1.1313   1.1354   1.1372   1.1468
     1.1673   1.1683   1.1730   1.1741   1.1813   1.1857   1.1869   1.1891
     1.1911   1.1937   1.1965   1.1969   1.2048   1.2150   1.2185   1.2207
     1.2209   1.2216   1.2224   1.2252   1.2278   1.2378   1.2403   1.2499
     1.2512   1.2541   1.2596   1.2792   1.2904   1.2920   1.3031   1.3040
     1.3074   1.3204   1.3206   1.3276   1.3307   1.3317   1.3357   1.3385
     1.3496   1.3510   1.3549   1.3690   1.3723   1.3746   1.3768   1.3803
     1.3816   1.3897   1.3935   1.3954   1.3968   1.4012   1.4043   1.4079
     1.4085   1.4352   1.4356   1.4369   1.4417   1.4442   1.4446   1.4555
     1.4567   1.4604   1.4613   1.4726   1.4743   1.4761   1.4800   1.4887
     1.4892   1.4907   1.4944   1.4979   1.5092   1.5098   1.5154   1.5163
     1.5198   1.5218   1.5347   1.5390   1.5635   1.5672   1.5689   1.5720
     1.5764   1.5771   1.5906   1.5911   1.5923   1.5932   1.5979   1.5984
     1.6170   1.6185   1.6220   1.6284   1.6302   1.6398   1.6470   1.6496
     1.6549   1.6602   1.6607   1.6618   1.6619   1.6757   1.6830   1.6842
     1.6852   1.6866   1.6903   1.6976   1.6983   1.6997   1.7013   1.7117
     1.7248   1.7262   1.7296   1.7311   1.7362   1.7367   1.7499   1.7563
     1.7630   1.7831   1.7834   1.7885   1.7936   1.7946   1.8141   1.8144
     1.8214   1.8222   1.8288   1.8317   1.8398   1.8503   1.8626   1.8630
     1.8744   1.8813   1.8891   1.8899   1.8940   1.9003   1.9076   1.9079
     1.9150   1.9152   1.9154   1.9170   1.9219   1.9256   1.9325   1.9359
     1.9420   1.9438   1.9498   1.9501   1.9550   1.9565   1.9566   1.9573
     1.9659   1.9700   1.9784   1.9819   1.9823   1.9826   1.9997   2.0004
     2.0077   2.0091   2.0098   2.0113   2.0117   2.0157   2.0191   2.0293
     2.0368   2.0402   2.0405   2.0417   2.0447   2.0512   2.0513   2.0517
     2.0548   2.0551   2.0559   2.0582   2.0672   2.0694   2.0706   2.0781
     2.0936   2.0981   2.1056   2.1094   2.1108   2.1144   2.1182   2.1196
     2.1231   2.1237   2.1292   2.1298   2.1352   2.1388   2.1398   2.1441
     2.1448   2.1495   2.1505   2.1510   2.1516   2.1531   2.1574   2.1582
     2.1597   2.1704   2.1705   2.1779   2.1813   2.1878   2.1907   2.1944
     2.1988   2.2042   2.2045   2.2083   2.2108   2.2209   2.2239   2.2250
     2.2269   2.2281   2.2294   2.2428   2.2432   2.2445   2.2452   2.2461
     2.2470   2.2521   2.2572   2.2592   2.2620   2.2712   2.2722   2.2731
     2.2737   2.2746   2.2893   2.2952   2.2958   2.2987   2.3107   2.3108
     2.3188   2.3217   2.3225   2.3254   2.3344   2.3346   2.3351   2.3361
     2.3438   2.3440   2.3711   2.3835   2.3887   2.3893   2.3942   2.4007
     2.4040   2.4074   2.4310   2.4311   2.4485   2.4518   2.5652   2.5663
     2.6006   2.6023   2.7481   2.7493   3.0248   3.0302   3.0681   3.0684
     3.0801   3.0805   3.1051   3.1061   3.1224   3.1242   3.5408   3.5424
     3.5823   3.5829   3.8621   3.8644   3.8856   3.8911   3.9646   3.9692
     3.9947   3.9955   4.0867   4.0890   4.1599   4.1652   4.6018   4.6045
     4.6228   4.6233   4.7419   4.7524   4.7982   4.8085   4.8214   4.8257
     4.9156   4.9159   5.3048   5.3149   5.3752   5.3880   5.4551   5.4814
     5.4957   5.4988   5.5147   5.5483   5.6673   5.6731   5.6775   5.6838
     5.7065   5.7207   5.8200   5.8384   5.8448   5.8490   5.9076   5.9191
     5.9219   5.9363   6.0217   6.0281   6.0432   6.0821   6.1413   6.1563
     6.2133   6.2517   6.5194   6.5214   6.5549   6.5913   6.6704   6.6760
     6.7245   6.7313   6.7837   6.7989   6.8019   6.8282   6.8517   6.8806
     7.2915   7.2986   7.3673   7.3728   7.3922   7.4039   7.4359   7.4460
     7.8481   7.8753   7.8817   7.8885   8.0122   8.0150   8.0171   8.0222
     8.3118   8.3150   8.3988   8.4001   8.4114   8.4139   8.4285   8.4318
     8.5928   8.5963   8.6230   8.6235   8.6873   8.6886   8.7059   8.7093
     8.7112   8.7158   8.9857   8.9864   9.0543   9.0562   9.0668   9.0691
     9.1670   9.1672   9.2582   9.2748   9.4531   9.4598   9.5240   9.5258
     9.5728   9.5795   9.6472   9.6523   9.6753   9.6754   9.6865   9.6873
     9.8670   9.8714   9.9398   9.9463  10.0110  10.0122  10.1984  10.1988
    10.2743  10.2763  10.3235  10.3355  10.3390  10.3487  10.3763  10.3804
    10.3983  10.3991  10.4441  10.4463

          k =-0.5000-0.2165 0.0000 (256328 PWs)   bands (ev):

   -15.0637 -15.0612 -14.8497 -14.8482 -14.2124 -14.2102 -14.1753 -14.1745
   -12.7695 -12.7678 -12.7422 -12.7407 -11.2532 -11.2347 -11.0434 -11.0410
   -10.7451 -10.7442 -10.6480 -10.6466 -10.5628 -10.5422 -10.4415 -10.4132
    -8.8902  -8.8634  -8.7597  -8.7393  -7.8822  -7.8781  -7.8194  -7.8189
    -7.1587  -7.1508  -7.0241  -7.0108  -5.0238  -5.0214  -5.0143  -5.0121
    -4.4574  -4.4201  -4.3668  -4.3634  -4.3484  -4.3289  -4.3279  -4.3160
    -4.2478  -4.2407  -4.0557  -4.0540  -3.7393  -3.7312  -3.3824  -3.3778
    -3.3488  -3.3470  -3.3058  -3.3050  -3.2971  -3.2966  -3.2718  -3.2679
    -3.2642  -3.2637  -3.0565  -3.0482  -2.8393  -2.8377  -2.7354  -2.7348
    -2.7182  -2.7178  -2.6373  -2.6291  -2.5604  -2.5582  -2.5520  -2.5481
    -2.3037  -2.3010  -2.2201  -2.2146  -2.1440  -2.1388  -1.8659  -1.8643
    -1.7335  -1.7325  -1.7320  -1.7308  -1.4647  -1.4614  -1.4341  -1.4339
    -1.4264  -1.4252  -1.4148  -1.4139  -1.2493  -1.2482  -1.2367  -1.2360
    -1.1641  -1.1626  -1.0462  -1.0457  -1.0122  -1.0080  -0.9695  -0.9681
    -0.9619  -0.9606  -0.8906  -0.8898  -0.8711  -0.8699  -0.7488  -0.7486
    -0.7336  -0.7314  -0.6588  -0.6557  -0.6425  -0.6415  -0.6412  -0.6402
    -0.6030  -0.6025  -0.5991  -0.5990  -0.5889  -0.5858  -0.5844  -0.5836
    -0.5701  -0.5677  -0.5499  -0.5491  -0.5488  -0.5479  -0.5326  -0.5321
    -0.5283  -0.5270  -0.5181  -0.5173  -0.5169  -0.5165  -0.4727  -0.4710
    -0.4050  -0.4047  -0.3945  -0.3922  -0.3742  -0.3678  -0.3606  -0.3602
    -0.3474  -0.3468  -0.3245  -0.3241  -0.3135  -0.3132  -0.2986  -0.2982
    -0.2940  -0.2937  -0.2822  -0.2819  -0.2768  -0.2762  -0.2610  -0.2592
    -0.2338  -0.2323  -0.2302  -0.2281  -0.2106  -0.2102  -0.2077  -0.2071
    -0.1904  -0.1903  -0.1900  -0.1894  -0.1659  -0.1652  -0.1425  -0.1415
    -0.1392  -0.1352  -0.0935  -0.0904  -0.0855  -0.0838  -0.0543  -0.0532
    -0.0301  -0.0288  -0.0063  -0.0060   0.0152   0.0157   0.0239   0.0249
     0.0687   0.0691   0.0817   0.0824   0.0830   0.0833   0.0957   0.0960
     0.1029   0.1035   0.1302   0.1305   0.1403   0.1419   0.1501   0.1509
     0.1592   0.1600   0.1713   0.1719   0.2560   0.2563   0.2598   0.2625
     0.2665   0.2671   0.2935   0.2937   0.2950   0.3021   0.3049   0.3065
     0.3225   0.3385   0.3464   0.3466   0.3487   0.3496   0.3880   0.3895
     0.3950   0.3954   0.3971   0.3979   0.4002   0.4015   0.4336   0.4360
     0.4419   0.4464   0.4611   0.4653   0.4677   0.4686   0.5178   0.5186
     0.5402   0.5437   0.5642   0.5667   0.5704   0.5710   0.5725   0.5736
     0.5743   0.5760   0.5827   0.5838   0.5853   0.5872   0.5958   0.6058
     0.6086   0.6287   0.6526   0.6596   0.6603   0.6607   0.6620   0.6685
     0.6708   0.6742   0.7042   0.7074   0.7077   0.7103   0.7117   0.7119
     0.7130   0.7132   0.7155   0.7193   0.7261   0.7276   0.7360   0.7479
     0.7534   0.7671   0.7678   0.7770   0.7861   0.7894   0.7938   0.8001
     0.8158   0.8339   0.8344   0.8390   0.8538   0.8581   0.8624   0.8628
     0.8651   0.8663   0.8737   0.8771   0.8812   0.8875   0.8947   0.8950
     0.9038   0.9058   0.9189   0.9223   0.9230   0.9242   0.9243   0.9247
     0.9302   0.9385   0.9390   0.9393   0.9468   0.9514   0.9518   0.9523
     0.9649   0.9662   0.9680   0.9694   0.9696   0.9748   0.9754   0.9821
     0.9834   0.9938   1.0028   1.0356   1.0359   1.0361   1.0442   1.0456
     1.0481   1.0494   1.0539   1.0786   1.0815   1.0818   1.0828   1.0967
     1.0997   1.1018   1.1090   1.1100   1.1252   1.1387   1.1434   1.1539
     1.1571   1.1592   1.1759   1.1766   1.1869   1.1920   1.1962   1.1992
     1.2011   1.2024   1.2045   1.2178   1.2190   1.2212   1.2215   1.2384
     1.2386   1.2391   1.2397   1.2488   1.2519   1.2528   1.2547   1.2625
     1.2710   1.2733   1.2758   1.2792   1.2806   1.2815   1.2861   1.2941
     1.2985   1.3087   1.3123   1.3126   1.3211   1.3289   1.3327   1.3363
     1.3376   1.3408   1.3595   1.3673   1.3689   1.3747   1.3755   1.3862
     1.3933   1.3938   1.3960   1.4013   1.4038   1.4045   1.4064   1.4308
     1.4312   1.4318   1.4354   1.4376   1.4415   1.4517   1.4524   1.4540
     1.4556   1.4574   1.4605   1.4608   1.4631   1.4844   1.4897   1.4965
[...]
     atom   23 type  1   force =    -0.00009318   -0.00077646   -0.00047658
     atom   24 type  1   force =     0.00002661   -0.00016107   -0.00155283
     atom   25 type  1   force =    -0.00010438    0.00006282   -0.00000666
     atom   26 type  1   force =     0.00004972   -0.00056687    0.00053908
     atom   27 type  1   force =     0.00010501    0.00029029    0.00012359
     atom   28 type  1   force =    -0.00005205   -0.00073048    0.00053707
     atom   29 type  1   force =    -0.00013085   -0.00055216   -0.00091614
     atom   30 type  1   force =     0.00000071    0.00016284   -0.00090545
     atom   31 type  1   force =     0.00012599   -0.00063637   -0.00097216
     atom   32 type  1   force =    -0.00002442    0.00017390   -0.00078505
     atom   33 type  1   force =    -0.00001912    0.00123916    0.00056116
     atom   34 type  1   force =     0.00010129   -0.00003671   -0.00012969
     atom   35 type  1   force =     0.00001346    0.00070202    0.00053724
     atom   36 type  1   force =    -0.00011311   -0.00017125    0.00001631
     atom   37 type  1   force =    -0.00008304    0.00002813   -0.00145857
     atom   38 type  1   force =    -0.00005010    0.00101117   -0.00006422
     atom   39 type  1   force =     0.00008794    0.00055406   -0.00153040
     atom   40 type  1   force =     0.00003840    0.00054179   -0.00029849
     atom   41 type  1   force =    -0.00003258    0.00004632   -0.00008623
     atom   42 type  1   force =    -0.00003277   -0.00046432    0.00125979
     atom   43 type  1   force =     0.00002723    0.00035369    0.00008427
     atom   44 type  1   force =     0.00003287   -0.00032862    0.00137657
     atom   45 type  1   force =     0.00004661    0.00067340    0.00123281
     atom   46 type  1   force =     0.00012117    0.00014848    0.00079479
     atom   47 type  1   force =    -0.00002439    0.00021187    0.00114183
     atom   48 type  1   force =    -0.00012325    0.00016903    0.00088809
     atom   49 type  1   force =    -0.00023348   -0.00038040    0.00111166
     atom   50 type  1   force =     0.00016625    0.00008227    0.00081170
     atom   51 type  1   force =     0.00026611    0.00012377    0.00119207
     atom   52 type  1   force =    -0.00017385    0.00005414    0.00125979
     atom   53 type  1   force =    -0.00011682    0.00014358    0.00033689
     atom   54 type  1   force =     0.00004587   -0.00055764    0.00139654
     atom   55 type  1   force =     0.00012487   -0.00069270    0.00079828
     atom   56 type  1   force =    -0.00005825   -0.00033843    0.00147977
     atom   57 type  1   force =     0.00000663    0.00004456    0.00195264
     atom   58 type  1   force =    -0.00004923    0.00000438    0.00012489
     atom   59 type  1   force =    -0.00001851    0.00019892    0.00172302
     atom   60 type  1   force =     0.00002914   -0.00012972    0.00018256
     atom   61 type  1   force =     0.00002210    0.00023432    0.00045334
     atom   62 type  1   force =     0.00026803   -0.00005937   -0.00015791
     atom   63 type  1   force =     0.00000882    0.00013474    0.00070473
     atom   64 type  1   force =    -0.00029066   -0.00019133   -0.00025011
     atom   65 type  1   force =     0.00007313   -0.00031686    0.00103050
     atom   66 type  1   force =    -0.00044926    0.00133414    0.00060102
     atom   67 type  1   force =    -0.00004779   -0.00076626    0.00176812
     atom   68 type  1   force =     0.00047664    0.00108537    0.00046617
     atom   69 type  1   force =     0.00009361    0.00084622   -0.00100429
     atom   70 type  1   force =     0.00034221   -0.00021455   -0.00107097
     atom   71 type  1   force =    -0.00007000    0.00080546   -0.00018142
     atom   72 type  1   force =    -0.00031624   -0.00082262   -0.00021625
     atom   73 type  1   force =     0.00016911   -0.00127472    0.00016722
     atom   74 type  1   force =     0.00028050    0.00003804    0.00134985
     atom   75 type  1   force =    -0.00015906   -0.00086743    0.00033461
     atom   76 type  1   force =    -0.00028519    0.00066092    0.00140139
     atom   77 type  1   force =    -0.00001445    0.00031600    0.00027827
     atom   78 type  1   force =    -0.00023225   -0.00084501    0.00052350
     atom   79 type  1   force =    -0.00004760    0.00012832   -0.00051984
     atom   80 type  1   force =     0.00021551   -0.00086651    0.00101799
     atom   81 type  1   force =     0.00040003    0.00084191    0.00123010
     atom   82 type  1   force =     0.00003008   -0.00008075   -0.00134784
     atom   83 type  1   force =    -0.00040685   -0.00100546    0.00109808
     atom   84 type  1   force =    -0.00005606   -0.00052766   -0.00123640
     atom   85 type  1   force =     0.00018302   -0.00041635    0.00297209
     atom   86 type  1   force =     0.00129361    0.00139020    0.00202591
     atom   87 type  1   force =    -0.00016880    0.00124486    0.00649608
     atom   88 type  1   force =    -0.00136425    0.00077268    0.00205871
     atom   89 type  1   force =     0.00041472    0.00253994    0.00023695
     atom   90 type  1   force =     0.00000265   -0.00090787    0.00161654
     atom   91 type  1   force =    -0.00035825    0.00010243    0.00215443
     atom   92 type  1   force =     0.00007171   -0.00103452    0.00135591
     atom   93 type  1   force =    -0.00013256   -0.00207654    0.00163132
     atom   94 type  1   force =    -0.00024883   -0.00023280    0.00430210
     atom   95 type  1   force =     0.00020016   -0.00003103    0.00386205
     atom   96 type  1   force =     0.00020173   -0.00014033    0.00582238
     atom   97 type  1   force =    -0.00002026   -0.00033707   -0.00116159
     atom   98 type  1   force =    -0.00064808   -0.00033318    0.00080838
     atom   99 type  1   force =    -0.00000934    0.00012665   -0.00186990
     atom  100 type  1   force =     0.00064477    0.00019656    0.00142262
     atom  101 type  1   force =    -0.00103969   -0.00320807    0.00068632
     atom  102 type  1   force =     0.00104158   -0.00340134    0.00056940
     atom  103 type  1   force =    -0.00037864   -0.00178879    0.00097292
     atom  104 type  1   force =     0.00015439    0.00170926    0.00358439
     atom  105 type  1   force =     0.00045611   -0.00049075    0.00147009
     atom  106 type  1   force =    -0.00019056    0.00109243    0.00053100
     atom  107 type  1   force =     0.00024374    0.00331010   -0.00086944
     atom  108 type  1   force =    -0.00027982    0.00289951    0.00207232
     atom  109 type  2   force =     0.00003108   -0.00031781    0.00191632
     atom  110 type  2   force =     0.00018129   -0.00011601    0.00316141
     atom  111 type  2   force =     0.00132511    0.00033640   -0.00481755
     atom  112 type  2   force =     0.00024047    0.00210299   -0.00393246
     atom  113 type  2   force =    -0.00102255   -0.00004994   -0.00051283
     atom  114 type  2   force =    -0.00000802   -0.00028462   -0.00380607
     atom  115 type  2   force =    -0.00025336    0.00001583   -0.00127076
     atom  116 type  2   force =    -0.00026841    0.00155402    0.00067276
     atom  117 type  2   force =     0.00123764   -0.00012734   -0.00041875
     atom  118 type  2   force =     0.00041538   -0.00024842   -0.00405999
     atom  119 type  2   force =    -0.00168572    0.00039074   -0.00508544
     atom  120 type  2   force =    -0.00073124    0.00211943   -0.00415089
     atom  121 type  2   force =    -0.00019035    0.00184488    0.00241323
     atom  122 type  2   force =     0.00015293    0.00110590   -0.01028788
     atom  123 type  2   force =    -0.00095259   -0.00262707    0.00377585
     atom  124 type  2   force =    -0.00013728   -0.00203192    0.00472701
     atom  125 type  2   force =     0.00078310    0.00100522   -0.00106569
     atom  126 type  2   force =    -0.00012686    0.00124023   -0.00171607
     atom  127 type  2   force =     0.00022776   -0.00109597   -0.00197768
     atom  128 type  2   force =    -0.00007115   -0.00318298   -0.00415207
     atom  129 type  2   force =    -0.00121301    0.00115278   -0.00139480
     atom  130 type  2   force =     0.00039719    0.00121545   -0.00141420
     atom  131 type  2   force =     0.00139725   -0.00269871    0.00394793
     atom  132 type  2   force =    -0.00009858   -0.00206029    0.00531564
     atom  133 type  2   force =    -0.00017552   -0.00242988   -0.00344142
     atom  134 type  2   force =     0.00018156    0.00163338    0.00001711
     atom  135 type  2   force =     0.00072994    0.00279922   -0.00207736
     atom  136 type  2   force =    -0.00002551    0.00046792   -0.00222247
     atom  137 type  2   force =    -0.00080778   -0.00202827   -0.00515766
     atom  138 type  2   force =    -0.00020300   -0.00055160    0.00116514
     atom  139 type  2   force =     0.00020712    0.00274839    0.00709163
     atom  140 type  2   force =    -0.00023264    0.00247860    0.00646676
     atom  141 type  2   force =     0.00041246   -0.00206404   -0.00510250
     atom  142 type  2   force =     0.00076085   -0.00057672    0.00097647
     atom  143 type  2   force =    -0.00033300    0.00275947   -0.00244035
     atom  144 type  2   force =    -0.00030538    0.00050743   -0.00220185
     atom  145 type  2   force =     0.00015739    0.00111502   -0.00376710
     atom  146 type  2   force =    -0.00038614    0.00001101   -0.00271611
     atom  147 type  2   force =    -0.00096970   -0.00080767   -0.00252629
     atom  148 type  2   force =    -0.00047864    0.00027374   -0.00274837
     atom  149 type  2   force =     0.00054640    0.00025116    0.00129757
     atom  150 type  2   force =     0.00068111   -0.00044879    0.00183752
     atom  151 type  2   force =    -0.00002346   -0.00313973   -0.00426616
     atom  152 type  2   force =     0.00043326   -0.00113013   -0.00728448
     atom  153 type  2   force =    -0.00029733    0.00034113    0.00109164
     atom  154 type  2   force =    -0.00158890   -0.00048099    0.00193862
     atom  155 type  2   force =     0.00082925   -0.00087036   -0.00254290
     atom  156 type  2   force =     0.00121558    0.00027886   -0.00288739

     Total force =     0.034288     Total SCF correction =     0.000573

     number of scf cycles    =  11
     number of bfgs steps    =  10

     energy   old            =  -13670.9696903076 Ry
     energy   new            =  -13670.9714282649 Ry

     CASE: energy  _new < energy  _old

     new trust radius        =       0.0802441016 bohr
     new conv_thr            =       0.0000000100 Ry


ATOMIC_POSITIONS (angstrom)
Cu       0.000514352   0.024797763   6.606614211
Cu       1.844847012   1.739500206   6.597780232
Cu       3.687693082   0.024365783   6.613186868
Cu       5.532444279   1.737908166   6.599484850
Cu      -0.000820062   3.462631320   6.601285915
Cu       1.844543276   5.171105168   6.636943366
Cu       3.689211865   3.461300436   6.601886478
Cu       5.532998027   5.170194302   6.637481004
Cu      -0.001064520   6.852707805   6.684411077
Cu       1.844447992   8.522876490   6.680533598
Cu       3.689658653   6.854019611   6.687565057
Cu       5.533219127   8.524142143   6.682782339
Cu       0.000254335  10.202680052   6.627291016
Cu       1.844661189  11.908907158   6.595751067
Cu       3.688338098  10.202450408   6.630137771
Cu       5.532853790  11.909783804   6.598281661
Cu      -0.000448321  13.635617546   6.601339584
Cu       1.843105443  15.354896681   6.611663034
Cu       3.688807817  13.636194982   6.596133458
Cu       5.534178143  15.355099291   6.609901113
Cu      -0.001287155   1.728079926   8.414345066
Cu       1.844749665   0.024900216   8.422910983
Cu       3.689661453   1.731494890   8.419453848
Cu       5.532673477   0.022291249   8.422108135
Cu       0.000916877   5.130180379   8.482931830
Cu       1.842686129   3.432437935   8.433275942
Cu       3.687520847   5.128347303   8.480909404
Cu       5.534733630   3.433841348   8.433436446
Cu       0.001187128   8.546875658   8.519905120
Cu       1.843962674   6.834522834   8.521677558
Cu       3.687353264   8.547495938   8.523592461
Cu       5.533607836   6.833667659   8.520696844
Cu      -0.000282084  11.935566705   8.429351998
Cu       1.844369185  10.245739798   8.482348528
Cu       3.688866269  11.941052570   8.429259872
Cu       5.533222723  10.246078021   8.480241885
Cu       0.001150080  15.359330287   8.421337615
Cu       1.842709659  13.643047250   8.410013164
Cu       3.687312672  15.352033794   8.417865115
Cu       5.534885128  13.646031657   8.412181357
Cu       0.000846561   0.012564056  10.267570974
Cu       1.844764134   1.693285987  10.254042360
Cu       3.687746324   0.001393698  10.258709667
Cu       5.532684172   1.692531149  10.253854974
Cu      -0.001077025   3.380205477  10.274475019
Cu       1.840198413   5.097540315  10.315989765
Cu       3.689329664   3.387988129  10.273017999
Cu       5.537071203   5.098981529  10.313347744
Cu       0.002067501   6.829445131  10.347726921
Cu       1.842619142   8.549379598  10.351761913
Cu       3.686160085   6.824566497  10.342868581
Cu       5.534639914   8.550487510  10.342622458
Cu       0.001188050  10.278206565  10.318656266
Cu       1.842412260  11.997053478  10.271328464
Cu       3.687106136  10.282974724  10.315559461
Cu       5.535159015  11.992201480  10.269803389
Cu      -0.000593019  13.683049555  10.245568615
Cu       1.842738952  15.368247488  10.259421490
Cu       3.689268919  13.686781872  10.247291262
Cu       5.535045311  15.371994732  10.257729459
Cu      -0.000723568   1.669013789  12.126766350
Cu       1.839555205   0.005558698  12.140832393
Cu       3.689113143   1.654180116  12.097030013
Cu       5.538221669   0.006281733  12.139738483
Cu      -0.001487757   5.050821606  12.120601916
Cu       1.844636650   3.338368497  12.107546650
Cu       3.689648509   5.061806523  12.110876558
Cu       5.532650564   3.342309683  12.108770833
Cu      -0.000729360   8.576003327  12.175877735
Cu       1.835355765   6.797766597  12.173389068
Cu       3.688670961   8.569326085  12.153615145
Cu       5.541929279   6.805222203  12.160354421
Cu      -0.001295640  12.042670873  12.112657866
Cu       1.836073543  10.327279063  12.113592360
Cu       3.689582275  12.042526730  12.099986914
Cu       5.540925765  10.317627549  12.111840259
Cu       0.000705453  15.367246628  12.135287519
Cu       1.847058501  13.720666377  12.112942257
Cu       3.688224082  15.374790778  12.143557220
Cu       5.530769515  13.721374444  12.101586575
Cu      -0.005675234  -0.010064098  14.014900793
Cu       1.837343262   1.658361389  14.036900938
Cu       3.694451708   0.017569447  14.012725820
Cu       5.540202322   1.663989217  14.035356636
Cu      -0.002492607   3.289611191  13.981598176
Cu       1.828335759   4.934472187  13.987669097
Cu       3.690523890   3.281320212  13.915288679
Cu       5.549240719   4.947839860  13.990909375
Cu      -0.010764232   6.746018682  13.928464179
Cu       1.834779505   8.633088289  13.906163286
Cu       3.699604395   6.756008387  13.894001545
Cu       5.542127379   8.628862085  13.916474689
Cu       0.000190071  10.459512950  14.022332740
Cu       1.853544196  12.094881150  13.945683897
Cu       3.687531175  10.411719663  13.944100384
Cu       5.524006373  12.091768095  13.928796752
Cu       0.000858395  13.722366164  14.035726046
Cu       1.854952873  15.380845306  14.020622198
Cu       3.688045535  13.716214262  14.042710121
Cu       5.523090086  15.371086639  14.010174725
Cu       1.904165008  10.363622871  15.704597799
Cu       5.472116347  10.364820666  15.700935162
Cu       0.007248260   8.579437456  15.611453839
Cu       1.850669127   6.816041724  15.577459213
Cu       3.681172925   8.541011751  15.593860527
Cu       5.527132783   6.828733092  15.616816611
Cu      -0.002615969   5.043903104  15.752009147
Cu       3.691321577   5.011331006  15.659892143
C        0.000961968   0.665392140  17.808865170
C        0.000912630   2.086631338  17.872404325
C        1.230613064  -0.046958345  17.796909004
C        1.231553295   2.795942796  17.932328400
C        2.460145834   0.663605496  17.816270721
C        2.460392395   2.083939724  17.887212872
C        3.689884046  -0.048343461  17.796375173
C        3.689761136   2.792343574  17.939192219
C        4.919854200   0.663556475  17.818323256
C        4.919436014   2.083860092  17.889246264
C        6.149192304  -0.046967702  17.798998800
C        6.148125305   2.795723959  17.934128588
C        0.000708709   4.930735677  18.140828656
C        0.000917225   6.342599800  18.386678497
C        1.234301904   4.211037472  18.078507794
C        1.229028927   7.049773128  18.452164291
C        2.457276544   4.921929350  18.199493722
C        2.459558715   6.336578639  18.385679970
C        3.689730661   4.213732342  18.079110361
C        3.689214003   7.044076660  18.441313232
C        4.921898174   4.921510809  18.199002259
C        4.919514426   6.336868908  18.380856498
C        6.145465942   4.210876533  18.078963152
C        6.150103799   7.050236518  18.447037035
C        0.000481607   9.189332770  18.408672288
C        0.000594904  10.604779153  18.225453917
C        1.231878878   8.477159139  18.461235217
C        1.225776178  11.310157588  18.077944697
C        2.458431987   9.180507138  18.360965752
C        2.460450207  10.593698416  18.128991610
C        3.689527417   8.470012510  18.407126887
C        3.689543024  11.309187555  18.032525323
C        4.920294873   9.180761087  18.361587026
C        4.918723707  10.593894180  18.130338916
C        6.147239405   8.477656649  18.460541832
C        6.153325115  11.310223125  18.079118368
C        0.000794449  13.438614465  17.887924589
C        0.000771224  14.858189105  17.817711321
C        1.229282723  12.727918890  17.926905581
C        1.230582129  15.569426962  17.794150445
C        2.459385803  13.434805395  17.849315944
C        2.459869936  14.856328680  17.792150988
C        3.689680709  12.722408103  17.890889655
C        3.690044298  15.567945449  17.781497766
C        4.920223232  13.434853417  17.850806556
C        4.919713938  14.856350824  17.793823107
C        6.150067810  12.727925896  17.928235833
C        6.149432246  15.569458098  17.796063389



     Writing output data file gc.save
     Check: negative starting charge=   -0.001473
     NEW-OLD atomic charge density approx. for the potential
     Check: negative starting charge=   -0.001476

     negative rho (up, down):  1.593E-03 0.000E+00

     total cpu time spent up to now is    51583.5 secs

     Self-consistent Calculation

     iteration #  1     ecut=    80.00 Ry     beta=0.70
     Davidson diagonalization with overlap
     ethr =  1.00E-06,  avg # of iterations = 14.2

     negative rho (up, down):  2.211E-04 0.000E+00

     total cpu time spent up to now is    52362.0 secs

     total energy              =  -13670.96207528 Ry
     Harris-Foulkes estimate   =  -13671.01017954 Ry
     estimated scf accuracy    <       0.61116687 Ry

     iteration #  2     ecut=    80.00 Ry     beta=0.70
     Davidson diagonalization with overlap
     ethr =  4.43E-05,  avg # of iterations =  2.5

     negative rho (up, down):  1.291E-04 0.000E+00

     total cpu time spent up to now is    52579.1 secs

     total energy              =  -13670.96257025 Ry
     Harris-Foulkes estimate   =  -13670.98693155 Ry
     estimated scf accuracy    <       0.10772305 Ry

     iteration #  3     ecut=    80.00 Ry     beta=0.70
     Davidson diagonalization with overlap
     ethr =  7.81E-06,  avg # of iterations =  6.3

     negative rho (up, down):  5.398E-05 0.000E+00

     total cpu time spent up to now is    52854.0 secs

     total energy              =  -13670.96681786 Ry
     Harris-Foulkes estimate   =  -13670.98032481 Ry
     estimated scf accuracy    <       0.17038510 Ry

     iteration #  4     ecut=    80.00 Ry     beta=0.70
     Davidson diagonalization with overlap
