
     Program PWSCF v.5.4.0 starts on 14Mar2017 at  9:55:57 

     This program is part of the open-source Quantum ESPRESSO suite
     for quantum simulation of materials; please cite
         "P. Giannozzi et al., J. Phys.:Condens. Matter 21 395502 (2009);
          URL http://www.quantum-espresso.org", 
     in publications or presentations arising from this work. More details at
     http://www.quantum-espresso.org/quote

     Parallel version (MPI & OpenMP), running on      56 processor cores
     Number of MPI processes:                56
     Threads/MPI process:                     1
     R & G space division:  proc/nbgrp/npool/nimage =      56
     Waiting for input...
     Reading input from standard input

     Current dimensions of program PWSCF are:
     Max number of different atomic species (ntypx) = 10
     Max number of k-points (npk) =  40000
     Max angular momentum in pseudopotentials (lmaxx) =  3

     -------------------------------------
     Parameters for Dispersion Correction:
     -------------------------------------
       atom      VdW radius       C_6     

        Cu         2.952        374.666
        C          2.744         60.710

     Subspace diagonalization in iterative solution of the eigenvalue problem:
     one sub-group per band group will be used
     scalapack distributed-memory algorithm (size of sub-group:  5*  5 procs)

 
     Parallelization info
     --------------------
     sticks:   dense  smooth     PW     G-vecs:    dense   smooth      PW
     Min         114     114     54                15434    15434    4962
     Max         115     115     55                15451    15451    4968
     Sum        6411    6411   3039               864803   864803  278033
 


     bravais-lattice index     =            0
     lattice parameter (alat)  =      13.9425  a.u.
     unit-cell volume          =   21209.0878 (a.u.)^3
     number of atoms/cell      =          156
     number of atomic types    =            2
     number of electrons       =      1380.00
     number of Kohn-Sham states=          828
     kinetic-energy cutoff     =      80.0000  Ry
     charge density cutoff     =     180.0000  Ry
     convergence threshold     =      1.0E-08
     mixing beta               =       0.7000
     number of iterations used =            8  local-TF  mixing
     Exchange-correlation      =  SLA  PW   PBX  PBC ( 1  4  3  4 0 0)
     nstep                     =           50


     celldm(1)=  13.942539  celldm(2)=   0.000000  celldm(3)=   0.000000
     celldm(4)=   0.000000  celldm(5)=   0.000000  celldm(6)=   0.000000

     crystal axes: (cart. coord. in units of alat)
               a(1) = (   1.000000   0.000000   0.000000 )  
               a(2) = (   0.000000   2.309401   0.000000 )  
               a(3) = (   0.000000   0.000000   3.388418 )  

     reciprocal axes: (cart. coord. in units 2 pi/alat)
               b(1) = (  1.000000  0.000000  0.000000 )  
               b(2) = (  0.000000  0.433013  0.000000 )  
               b(3) = (  0.000000  0.000000  0.295123 )  


     PseudoPot. # 1 for Cu read from file:
     /home/549/hxw549/Short/pseudopotentials/Cu.pbe-n-van_ak.UPF
     MD5 check sum: 601f7c30f7467666bec936e0661ce3e1
     Pseudo is Ultrasoft + core correction, Zval = 11.0
     Generated by new atomic code, or converted to UPF format
     Using radial grid of  867 points,  6 beta functions with: 
                l(1) =   0
                l(2) =   0
                l(3) =   1
                l(4) =   1
                l(5) =   2
                l(6) =   2
     Q(r) pseudized with  8 coefficients,  rinner =    1.400   1.400   1.400
                                                       1.400   1.400

     PseudoPot. # 2 for C  read from file:
     /home/549/hxw549/Short/pseudopotentials/C.pbe-mt_gipaw.UPF
     MD5 check sum: 5ac2f21f2c440b14befe521540822c15
     Pseudo is Norm-conserving, Zval =  4.0
     Generated by new atomic code, or converted to UPF format
     Using radial grid of 1073 points,  1 beta functions with: 
                l(1) =   0

     atomic species   valence    mass     pseudopotential
        Cu            11.00    63.54600     Cu( 1.00)
        C              4.00    12.01070     C ( 1.00)

     No symmetry found



   Cartesian axes

     site n.     atom                  positions (alat units)
         1           Cu  tau(   1) = (   0.0000416   0.0013901   0.8623043  )
         2           Cu  tau(   2) = (   0.2500059   0.2342590   0.8628910  )
         3           Cu  tau(   3) = (   0.4999582   0.0013979   0.8623119  )
         4           Cu  tau(   4) = (   0.7499953   0.2344525   0.8631423  )
         5           Cu  tau(   5) = (  -0.0000580   0.4673896   0.8656778  )
         6           Cu  tau(   6) = (   0.2499981   0.6989744   0.8685978  )
         7           Cu  tau(   7) = (   0.5000570   0.4673659   0.8656632  )
         8           Cu  tau(   8) = (   0.7500017   0.6989346   0.8686593  )
         9           Cu  tau(   9) = (   0.0000035   0.9267186   0.8701283  )
        10           Cu  tau(  10) = (   0.2499958   1.1517166   0.8700689  )
        11           Cu  tau(  11) = (   0.4999962   0.9267245   0.8701263  )
        12           Cu  tau(  12) = (   0.7500039   1.1517856   0.8700947  )
        13           Cu  tau(  13) = (  -0.0000566   1.3795470   0.8685195  )
        14           Cu  tau(  14) = (   0.2499965   1.6111442   0.8654536  )
        15           Cu  tau(  15) = (   0.5000565   1.3795444   0.8685198  )
        16           Cu  tau(  16) = (   0.7500026   1.6109387   0.8656896  )
        17           Cu  tau(  17) = (   0.0000557   1.8439920   0.8629777  )
        18           Cu  tau(  18) = (   0.2500103   2.0772213   0.8624879  )
        19           Cu  tau(  19) = (   0.4999450   1.8440030   0.8629603  )
        20           Cu  tau(  20) = (   0.7499875   2.0772433   0.8620781  )
        21           Cu  tau(  21) = (  -0.0000233   0.2341784   1.1088018  )
        22           Cu  tau(  22) = (   0.2500116   0.0012783   1.1092342  )
        23           Cu  tau(  23) = (   0.5000227   0.2341699   1.1087824  )
        24           Cu  tau(  24) = (   0.7499879   0.0010185   1.1089824  )
        25           Cu  tau(  25) = (   0.0000243   0.6942161   1.1163980  )
        26           Cu  tau(  26) = (   0.2499916   0.4656142   1.1119463  )
        27           Cu  tau(  27) = (   0.4999752   0.6941919   1.1163670  )
        28           Cu  tau(  28) = (   0.7500081   0.4655597   1.1120372  )
        29           Cu  tau(  29) = (   0.0000145   1.1549142   1.1200091  )
        30           Cu  tau(  30) = (   0.2499831   0.9236633   1.1200134  )
        31           Cu  tau(  31) = (   0.4999853   1.1549156   1.1200137  )
        32           Cu  tau(  32) = (   0.7500173   0.9236870   1.1200947  )
        33           Cu  tau(  33) = (  -0.0000276   1.6125885   1.1122086  )
        34           Cu  tau(  34) = (   0.2499914   1.3841968   1.1162731  )
        35           Cu  tau(  35) = (   0.5000275   1.6126009   1.1122099  )
        36           Cu  tau(  36) = (   0.7500079   1.3841599   1.1165703  )
        37           Cu  tau(  37) = (   0.0001517   2.0776322   1.1088591  )
        38           Cu  tau(  38) = (   0.2499933   1.8441152   1.1088668  )
        39           Cu  tau(  39) = (   0.4998488   2.0776502   1.1088414  )
        40           Cu  tau(  40) = (   0.7500064   1.8443855   1.1085737  )
        41           Cu  tau(  41) = (   0.0000105   0.0017756   1.3583101  )
        42           Cu  tau(  42) = (   0.2500132   0.2322313   1.3594186  )
        43           Cu  tau(  43) = (   0.4999891   0.0017953   1.3583050  )
        44           Cu  tau(  44) = (   0.7499863   0.2325733   1.3599455  )
        45           Cu  tau(  45) = (  -0.0003172   0.4594473   1.3636714  )
        46           Cu  tau(  46) = (   0.2499678   0.6924436   1.3683625  )
        47           Cu  tau(  47) = (   0.5003167   0.4594551   1.3636404  )
        48           Cu  tau(  48) = (   0.7500307   0.6916243   1.3674537  )
        49           Cu  tau(  49) = (   0.0005498   0.9236683   1.3647009  )
        50           Cu  tau(  50) = (   0.2499852   1.1545138   1.3656056  )
        51           Cu  tau(  51) = (   0.4994512   0.9236429   1.3645996  )
        52           Cu  tau(  52) = (   0.7500153   1.1549274   1.3645825  )
        53           Cu  tau(  53) = (  -0.0003832   1.3866263   1.3678859  )
        54           Cu  tau(  54) = (   0.2500037   1.6193893   1.3632989  )
        55           Cu  tau(  55) = (   0.5003814   1.3866042   1.3678957  )
        56           Cu  tau(  56) = (   0.7499957   1.6188413   1.3640407  )
        57           Cu  tau(  57) = (   0.0000615   1.8458382   1.3597232  )
        58           Cu  tau(  58) = (   0.2499986   2.0770446   1.3579251  )
        59           Cu  tau(  59) = (   0.4999388   1.8458291   1.3597252  )
        60           Cu  tau(  60) = (   0.7500017   2.0770579   1.3583112  )
        61           Cu  tau(  61) = (  -0.0001827   0.2311072   1.6136928  )
        62           Cu  tau(  62) = (   0.2499981   0.0005034   1.6076088  )
        63           Cu  tau(  63) = (   0.5001818   0.2310896   1.6136977  )
        64           Cu  tau(  64) = (   0.7500022   0.0011769   1.6077228  )
        65           Cu  tau(  65) = (   0.0001937   0.6931842   1.6149927  )
        66           Cu  tau(  66) = (   0.2499983   0.4626857   1.6124663  )
        67           Cu  tau(  67) = (   0.4998058   0.6931681   1.6148911  )
        68           Cu  tau(  68) = (   0.7500012   0.4630878   1.6130735  )
        69           Cu  tau(  69) = (  -0.0002446   1.1565189   1.6201934  )
        70           Cu  tau(  70) = (   0.2499311   0.9215210   1.6219372  )
        71           Cu  tau(  71) = (   0.5002357   1.1564802   1.6201498  )
        72           Cu  tau(  72) = (   0.7500704   0.9220088   1.6202915  )
        73           Cu  tau(  73) = (  -0.0005535   1.6159391   1.6136544  )
        74           Cu  tau(  74) = (   0.2500004   1.3858202   1.6136749  )
        75           Cu  tau(  75) = (   0.5005497   1.6160166   1.6136250  )
        76           Cu  tau(  76) = (   0.7500026   1.3858389   1.6150193  )
        77           Cu  tau(  77) = (  -0.0003779   2.0777627   1.6074824  )
        78           Cu  tau(  78) = (   0.2500130   1.8475774   1.6134928  )
        79           Cu  tau(  79) = (   0.5003785   2.0777970   1.6073934  )
        80           Cu  tau(  80) = (   0.7499883   1.8471025   1.6132165  )
        81           Cu  tau(  81) = (  -0.0006575  -0.0010010   1.8571078  )
        82           Cu  tau(  82) = (   0.2500293   0.2278327   1.8632760  )
        83           Cu  tau(  83) = (   0.5006596  -0.0011381   1.8570908  )
        84           Cu  tau(  84) = (   0.7499657   0.2278104   1.8629389  )
        85           Cu  tau(  85) = (  -0.0003169   0.4521308   1.8672435  )
        86           Cu  tau(  86) = (   0.2499321   0.6793015   1.8733782  )
        87           Cu  tau(  87) = (   0.5003203   0.4521999   1.8672549  )
        88           Cu  tau(  88) = (   0.7500743   0.6780783   1.8734190  )
        89           Cu  tau(  89) = (   0.0004710   0.9209284   1.8653708  )
        90           Cu  tau(  90) = (   0.2498292   1.1571152   1.8646773  )
        91           Cu  tau(  91) = (   0.4995495   0.9209309   1.8649925  )
        92           Cu  tau(  92) = (   0.7501579   1.1574657   1.8646798  )
        93           Cu  tau(  93) = (   0.0002849   1.4000242   1.8733443  )
        94           Cu  tau(  94) = (   0.2501990   1.6258310   1.8672333  )
        95           Cu  tau(  95) = (   0.4996986   1.3996361   1.8723803  )
        96           Cu  tau(  96) = (   0.7498005   1.6261427   1.8659963  )
        97           Cu  tau(  97) = (  -0.0003054   1.8505664   1.8627657  )
        98           Cu  tau(  98) = (   0.2499240   2.0798854   1.8572689  )
        99           Cu  tau(  99) = (   0.5003080   1.8508872   1.8626991  )
       100           Cu  tau( 100) = (   0.7500778   2.0798011   1.8570136  )
       101           Cu  tau( 101) = (   0.2507167   1.3856680   2.1071105  )
       102           Cu  tau( 102) = (   0.7492968   1.3874154   2.1075489  )
       103           Cu  tau( 103) = (   0.0010144   1.1540279   2.1134632  )
       104           Cu  tau( 104) = (   0.2497137   0.9245554   2.1081109  )
       105           Cu  tau( 105) = (   0.4989833   1.1528751   2.1133815  )
       106           Cu  tau( 106) = (   0.7502663   0.9251710   2.1141989  )
       107           Cu  tau( 107) = (   0.0002903   0.6925232   2.1073736  )
       108           Cu  tau( 108) = (   0.4996992   0.6927664   2.1072219  )
       109           C   tau( 109) = (   0.0000053   0.0962590   2.5668073  )
       110           C   tau( 110) = (   0.0000053   0.2885057   2.5601819  )
       111           C   tau( 111) = (   0.1665679  -0.0001923   2.5690675  )
       112           C   tau( 112) = (   0.1667260   0.3847607   2.5574055  )
       113           C   tau( 113) = (   0.3334179   0.0960217   2.5658661  )
       114           C   tau( 114) = (   0.3333346   0.2884023   2.5606661  )
       115           C   tau( 115) = (   0.5000022  -0.0003056   2.5684915  )
       116           C   tau( 116) = (   0.4999954   0.3844974   2.5575100  )
       117           C   tau( 117) = (   0.6665871   0.0960289   2.5659227  )
       118           C   tau( 118) = (   0.6666625   0.2884159   2.5608293  )
       119           C   tau( 119) = (   0.8334397  -0.0001874   2.5690290  )
       120           C   tau( 120) = (   0.8332829   0.3847558   2.5574160  )
       121           C   tau( 121) = (   0.0000073   0.6735142   2.5452486  )
       122           C   tau( 122) = (   0.0000212   0.8661954   2.5442959  )
       123           C   tau( 123) = (   0.1668105   0.5771552   2.5506353  )
       124           C   tau( 124) = (   0.1666107   0.9621434   2.5426095  )
       125           C   tau( 125) = (   0.3332420   0.6734390   2.5476435  )
       126           C   tau( 126) = (   0.3333312   0.8660038   2.5430854  )
       127           C   tau( 127) = (   0.4999961   0.5770713   2.5491212  )
       128           C   tau( 128) = (   0.4999805   0.9619573   2.5430187  )
       129           C   tau( 129) = (   0.6667547   0.6734135   2.5477335  )
       130           C   tau( 130) = (   0.6666591   0.8659881   2.5430183  )
       131           C   tau( 131) = (   0.8331936   0.5771467   2.5505397  )
       132           C   tau( 132) = (   0.8333977   0.9621553   2.5425094  )
       133           C   tau( 133) = (   0.0000054   1.2508709   2.5444296  )
       134           C   tau( 134) = (   0.0000078   1.4434162   2.5506882  )
       135           C   tau( 135) = (   0.1666682   1.1547709   2.5436353  )
       136           C   tau( 136) = (   0.1665245   1.5397008   2.5516561  )
       137           C   tau( 137) = (   0.3332722   1.2506534   2.5441970  )
       138           C   tau( 138) = (   0.3333692   1.4433784   2.5472075  )
       139           C   tau( 139) = (   0.4999945   1.1545678   2.5422620  )
       140           C   tau( 140) = (   0.4999919   1.5395968   2.5523194  )
       141           C   tau( 141) = (   0.6667251   1.2506571   2.5441986  )
       142           C   tau( 142) = (   0.6666232   1.4433780   2.5472866  )
       143           C   tau( 143) = (   0.8333357   1.1547976   2.5437399  )
       144           C   tau( 144) = (   0.8334839   1.5396889   2.5518651  )
       145           C   tau( 145) = (   0.0000013   1.8284121   2.5617341  )
       146           C   tau( 146) = (   0.0000007   2.0208083   2.5663824  )
       147           C   tau( 147) = (   0.1666141   1.7321957   2.5588597  )
       148           C   tau( 148) = (   0.1667456   2.1170354   2.5691238  )
       149           C   tau( 149) = (   0.3333175   1.8283310   2.5613105  )
       150           C   tau( 150) = (   0.3332436   2.0206077   2.5670485  )
       151           C   tau( 151) = (   0.4999962   1.7319743   2.5587687  )
       152           C   tau( 152) = (   0.5000026   2.1169383   2.5696083  )
       153           C   tau( 153) = (   0.6666785   1.8283274   2.5612752  )
       154           C   tau( 154) = (   0.6667573   2.0206043   2.5669980  )
       155           C   tau( 155) = (   0.8333856   1.7321894   2.5589420  )
       156           C   tau( 156) = (   0.8332580   2.1170396   2.5690806  )

     number of k points=     6  gaussian smearing, width (Ry)=  0.1000
                       cart. coord. in units 2pi/alat
        k(    1) = (   0.0000000   0.0000000   0.0000000), wk =   0.2500000
        k(    2) = (   0.0000000  -0.2165064   0.0000000), wk =   0.2500000
        k(    3) = (   0.2500000   0.0000000   0.0000000), wk =   0.5000000
        k(    4) = (   0.2500000  -0.2165064   0.0000000), wk =   0.5000000
        k(    5) = (  -0.5000000   0.0000000   0.0000000), wk =   0.2500000
        k(    6) = (  -0.5000000  -0.2165064   0.0000000), wk =   0.2500000

     Dense  grid:   864803 G-vectors     FFT dimensions: (  60, 144, 216)

     Largest allocated arrays     est. size (Mb)     dimensions
        Kohn-Sham Wavefunctions        58.29 Mb     (    4614,  828)
        NL pseudopotentials           140.24 Mb     (    4614, 1992)
        Each V/rho on FFT grid          0.53 Mb     (   34560)
        Each G-vector array             0.12 Mb     (   15451)
        G-vector shells                 0.06 Mb     (    7683)
     Largest temporary arrays     est. size (Mb)     dimensions
        Auxiliary wavefunctions       233.18 Mb     (    4614, 3312)
        Each subspace H/S matrix        6.69 Mb     (     662,  662)
        Each <psi_i|beta_j> matrix     25.17 Mb     (    1992,  828)
        Arrays for rho mixing           4.22 Mb     (   34560,    8)

     Initial potential from superposition of free atoms
     Check: negative starting charge=   -0.003768

     starting charge 1354.72292, renormalised to 1380.00000

     negative rho (up, down):  3.838E-03 0.000E+00
     Starting wfc are 1356 randomized atomic wfcs

     total cpu time spent up to now is       94.7 secs

     Self-consistent Calculation

     iteration #  1     ecut=    80.00 Ry     beta=0.70
     Davidson diagonalization with overlap
     c_bands:  3 eigenvalues not converged
     c_bands:  5 eigenvalues not converged
     c_bands:  4 eigenvalues not converged
     ethr =  1.00E-04,  avg # of iterations = 41.5

     negative rho (up, down):  2.855E+01 0.000E+00

     total cpu time spent up to now is     2356.0 secs

     total energy              =  -10893.82338481 Ry
     Harris-Foulkes estimate   =  -19653.58760309 Ry
     estimated scf accuracy    <  246898.39561128 Ry

     iteration #  2     ecut=    80.00 Ry     beta=0.70
     Davidson diagonalization with overlap
     ethr =  1.00E-02,  avg # of iterations =  9.2

     negative rho (up, down):  3.843E+01 0.000E+00

     total cpu time spent up to now is     3237.7 secs

     total energy              =  -12895.14689296 Ry
     Harris-Foulkes estimate   =  -14686.84293453 Ry
     estimated scf accuracy    <   32667.32123316 Ry

     iteration #  3     ecut=    80.00 Ry     beta=0.70
     Davidson diagonalization with overlap
     c_bands:  1 eigenvalues not converged
     ethr =  1.00E-02,  avg # of iterations = 19.0

     negative rho (up, down):  3.045E+01 0.000E+00

     total cpu time spent up to now is     4503.6 secs

     total energy              =  -12616.02073312 Ry
     Harris-Foulkes estimate   =  -14702.64729104 Ry
     estimated scf accuracy    <    8395.68549134 Ry

     iteration #  4     ecut=    80.00 Ry     beta=0.70
     Davidson diagonalization with overlap
     ethr =  1.00E-02,  avg # of iterations =  5.2

     negative rho (up, down):  2.306E+01 0.000E+00

     total cpu time spent up to now is     5071.6 secs

     total energy              =  -13614.17878613 Ry
     Harris-Foulkes estimate   =  -14037.75499356 Ry
     estimated scf accuracy    <    6258.01637277 Ry

     iteration #  5     ecut=    80.00 Ry     beta=0.70
     Davidson diagonalization with overlap
     ethr =  1.00E-02,  avg # of iterations =  5.0

     negative rho (up, down):  1.956E+01 0.000E+00

     total cpu time spent up to now is     5545.5 secs

     total energy              =  -13717.59886120 Ry
     Harris-Foulkes estimate   =  -13989.46715785 Ry
     estimated scf accuracy    <    2395.50138394 Ry

     iteration #  6     ecut=    80.00 Ry     beta=0.70
     Davidson diagonalization with overlap
     ethr =  1.00E-02,  avg # of iterations =  3.7

     negative rho (up, down):  1.557E+01 0.000E+00

     total cpu time spent up to now is     5936.4 secs

     total energy              =  -13783.36645130 Ry
     Harris-Foulkes estimate   =  -13842.76635422 Ry
     estimated scf accuracy    <    1161.24913926 Ry

     iteration #  7     ecut=    80.00 Ry     beta=0.70
     Davidson diagonalization with overlap
     ethr =  1.00E-02,  avg # of iterations =  1.0

     negative rho (up, down):  9.510E+00 0.000E+00

     total cpu time spent up to now is     6088.7 secs

     total energy              =  -13750.73215148 Ry
     Harris-Foulkes estimate   =  -13800.10103785 Ry
     estimated scf accuracy    <     400.20944739 Ry

     iteration #  8     ecut=    80.00 Ry     beta=0.70
     Davidson diagonalization with overlap
     ethr =  1.00E-02,  avg # of iterations =  1.2

     negative rho (up, down):  6.865E+00 0.000E+00

     total cpu time spent up to now is     6243.0 secs

     total energy              =  -13738.67689872 Ry
     Harris-Foulkes estimate   =  -13761.67579147 Ry
     estimated scf accuracy    <     199.25949800 Ry

     iteration #  9     ecut=    80.00 Ry     beta=0.70
     Davidson diagonalization with overlap
     ethr =  1.00E-02,  avg # of iterations =  1.0

     negative rho (up, down):  5.922E+00 0.000E+00

     total cpu time spent up to now is     6395.5 secs

     total energy              =  -13733.12052783 Ry
     Harris-Foulkes estimate   =  -13743.29043384 Ry
     estimated scf accuracy    <     176.23450506 Ry

     iteration # 10     ecut=    80.00 Ry     beta=0.70
     Davidson diagonalization with overlap
     ethr =  1.00E-02,  avg # of iterations =  1.0

     negative rho (up, down):  3.499E+00 0.000E+00

     total cpu time spent up to now is     6548.2 secs

     total energy              =  -13705.53117369 Ry
     Harris-Foulkes estimate   =  -13735.51140247 Ry
     estimated scf accuracy    <     137.97906412 Ry

     iteration # 11     ecut=    80.00 Ry     beta=0.70
     Davidson diagonalization with overlap
     ethr =  1.00E-02,  avg # of iterations =  2.0

     negative rho (up, down):  1.850E+00 0.000E+00

     total cpu time spent up to now is     6713.3 secs

     total energy              =  -13693.37603375 Ry
     Harris-Foulkes estimate   =  -13718.83021436 Ry
     estimated scf accuracy    <     130.78643333 Ry

     iteration # 12     ecut=    80.00 Ry     beta=0.70
     Davidson diagonalization with overlap
     ethr =  9.48E-03,  avg # of iterations =  1.2

     negative rho (up, down):  5.836E+00 0.000E+00

     total cpu time spent up to now is     6869.0 secs

     total energy              =  -13681.49719026 Ry
     Harris-Foulkes estimate   =  -13696.77925265 Ry
     estimated scf accuracy    <      81.50040215 Ry

     iteration # 13     ecut=    80.00 Ry     beta=0.70
     Davidson diagonalization with overlap
     ethr =  5.91E-03,  avg # of iterations =  3.5

     negative rho (up, down):  5.093E+00 0.000E+00

     total cpu time spent up to now is     7054.4 secs

     total energy              =  -13679.84667191 Ry
     Harris-Foulkes estimate   =  -13683.64648086 Ry
     estimated scf accuracy    <      48.25010671 Ry

     iteration # 14     ecut=    80.00 Ry     beta=0.70
     Davidson diagonalization with overlap
     ethr =  3.50E-03,  avg # of iterations =  3.7

     negative rho (up, down):  3.465E+00 0.000E+00

     total cpu time spent up to now is     7247.9 secs

     total energy              =  -13677.44012322 Ry
     Harris-Foulkes estimate   =  -13680.94745281 Ry
     estimated scf accuracy    <      31.31577412 Ry

     iteration # 15     ecut=    80.00 Ry     beta=0.70
     Davidson diagonalization with overlap
     ethr =  2.27E-03,  avg # of iterations =  1.5

     negative rho (up, down):  5.184E-01 0.000E+00

     total cpu time spent up to now is     7406.2 secs

     total energy              =  -13676.42170354 Ry
     Harris-Foulkes estimate   =  -13678.81929109 Ry
     estimated scf accuracy    <      52.92910086 Ry

     iteration # 16     ecut=    80.00 Ry     beta=0.70
     Davidson diagonalization with overlap
     ethr =  2.27E-03,  avg # of iterations =  1.2

     negative rho (up, down):  6.401E-01 0.000E+00

     total cpu time spent up to now is     7561.2 secs

     total energy              =  -13675.06826320 Ry
     Harris-Foulkes estimate   =  -13677.37500184 Ry
     estimated scf accuracy    <      20.58830884 Ry

     iteration # 17     ecut=    80.00 Ry     beta=0.70
     Davidson diagonalization with overlap
     ethr =  1.49E-03,  avg # of iterations =  1.0

     negative rho (up, down):  1.606E+00 0.000E+00

     total cpu time spent up to now is     7714.1 secs

     total energy              =  -13674.02643383 Ry
     Harris-Foulkes estimate   =  -13675.50673942 Ry
     estimated scf accuracy    <      12.85659300 Ry

     iteration # 18     ecut=    80.00 Ry     beta=0.70
     Davidson diagonalization with overlap
     ethr =  9.32E-04,  avg # of iterations =  4.7

     negative rho (up, down):  1.245E+00 0.000E+00

     total cpu time spent up to now is     7915.5 secs

     total energy              =  -13673.08526924 Ry
     Harris-Foulkes estimate   =  -13674.31181423 Ry
     estimated scf accuracy    <      14.30968245 Ry

     iteration # 19     ecut=    80.00 Ry     beta=0.70
     Davidson diagonalization with overlap
     ethr =  9.32E-04,  avg # of iterations =  3.5

     negative rho (up, down):  1.458E+00 0.000E+00

     total cpu time spent up to now is     8101.0 secs

     total energy              =  -13672.12088868 Ry
     Harris-Foulkes estimate   =  -13673.16734052 Ry
     estimated scf accuracy    <      12.44156605 Ry

     iteration # 20     ecut=    80.00 Ry     beta=0.70
     Davidson diagonalization with overlap
     ethr =  9.02E-04,  avg # of iterations =  5.0

     negative rho (up, down):  5.188E-01 0.000E+00

     total cpu time spent up to now is     8312.9 secs

     total energy              =  -13671.30562187 Ry
     Harris-Foulkes estimate   =  -13672.29729153 Ry
     estimated scf accuracy    <      13.73212470 Ry

     iteration # 21     ecut=    80.00 Ry     beta=0.70
     Davidson diagonalization with overlap
     ethr =  9.02E-04,  avg # of iterations =  3.2

     negative rho (up, down):  5.350E-01 0.000E+00

     total cpu time spent up to now is     8493.6 secs

     total energy              =  -13670.94521284 Ry
     Harris-Foulkes estimate   =  -13671.55004680 Ry
     estimated scf accuracy    <       6.63579502 Ry

     iteration # 22     ecut=    80.00 Ry     beta=0.70
     Davidson diagonalization with overlap
     ethr =  4.81E-04,  avg # of iterations =  6.0

     negative rho (up, down):  8.405E-01 0.000E+00

     total cpu time spent up to now is     8715.3 secs

     total energy              =  -13670.88505381 Ry
     Harris-Foulkes estimate   =  -13671.08807807 Ry
     estimated scf accuracy    <       1.78447727 Ry

     iteration # 23     ecut=    80.00 Ry     beta=0.70
     Davidson diagonalization with overlap
     ethr =  1.29E-04,  avg # of iterations =  7.0

     negative rho (up, down):  4.214E-01 0.000E+00

     total cpu time spent up to now is     8963.7 secs

     total energy              =  -13670.86662898 Ry
     Harris-Foulkes estimate   =  -13670.95454742 Ry
     estimated scf accuracy    <       0.83474570 Ry

     iteration # 24     ecut=    80.00 Ry     beta=0.70
     Davidson diagonalization with overlap
     ethr =  6.05E-05,  avg # of iterations =  3.5

     negative rho (up, down):  3.613E-01 0.000E+00

     total cpu time spent up to now is     9151.1 secs

     total energy              =  -13670.85382899 Ry
     Harris-Foulkes estimate   =  -13670.88894889 Ry
     estimated scf accuracy    <       0.28639950 Ry

     iteration # 25     ecut=    80.00 Ry     beta=0.70
     Davidson diagonalization with overlap
     ethr =  2.08E-05,  avg # of iterations = 10.5

     negative rho (up, down):  3.078E-01 0.000E+00

     total cpu time spent up to now is     9454.1 secs

     total energy              =  -13670.86450058 Ry
     Harris-Foulkes estimate   =  -13670.86986134 Ry
     estimated scf accuracy    <       0.06653647 Ry

     iteration # 26     ecut=    80.00 Ry     beta=0.70
     Davidson diagonalization with overlap
     ethr =  4.82E-06,  avg # of iterations =  9.0

     negative rho (up, down):  9.153E-02 0.000E+00

     total cpu time spent up to now is     9755.3 secs

     total energy              =  -13670.86238481 Ry
     Harris-Foulkes estimate   =  -13670.87095364 Ry
     estimated scf accuracy    <       0.02647200 Ry

     iteration # 27     ecut=    80.00 Ry     beta=0.70
     Davidson diagonalization with overlap
     c_bands:  2 eigenvalues not converged
     ethr =  1.92E-06,  avg # of iterations = 15.5

     negative rho (up, down):  6.987E-02 0.000E+00

     total cpu time spent up to now is    10158.8 secs

     total energy              =  -13670.86423547 Ry
     Harris-Foulkes estimate   =  -13670.86524460 Ry
     estimated scf accuracy    <       0.00915958 Ry

     iteration # 28     ecut=    80.00 Ry     beta=0.70
     Davidson diagonalization with overlap
     ethr =  6.64E-07,  avg # of iterations =  3.7

     negative rho (up, down):  2.847E-02 0.000E+00

     total cpu time spent up to now is    10350.8 secs

     total energy              =  -13670.86432762 Ry
     Harris-Foulkes estimate   =  -13670.86502538 Ry
     estimated scf accuracy    <       0.00125890 Ry

     iteration # 29     ecut=    80.00 Ry     beta=0.70
     Davidson diagonalization with overlap
     ethr =  9.12E-08,  avg # of iterations =  9.5

     negative rho (up, down):  2.119E-02 0.000E+00

     total cpu time spent up to now is    10648.8 secs

     total energy              =  -13670.86427189 Ry
     Harris-Foulkes estimate   =  -13670.86447823 Ry
     estimated scf accuracy    <       0.00069434 Ry

     iteration # 30     ecut=    80.00 Ry     beta=0.70
     Davidson diagonalization with overlap
     ethr =  5.03E-08,  avg # of iterations =  4.2

     negative rho (up, down):  1.454E-02 0.000E+00

     total cpu time spent up to now is    10846.4 secs

     total energy              =  -13670.86414862 Ry
     Harris-Foulkes estimate   =  -13670.86432801 Ry
     estimated scf accuracy    <       0.00032627 Ry

     iteration # 31     ecut=    80.00 Ry     beta=0.70
     Davidson diagonalization with overlap
     ethr =  2.36E-08,  avg # of iterations =  6.5

     negative rho (up, down):  7.471E-03 0.000E+00

     total cpu time spent up to now is    11077.0 secs

     total energy              =  -13670.86401084 Ry
     Harris-Foulkes estimate   =  -13670.86417179 Ry
     estimated scf accuracy    <       0.00016680 Ry

     iteration # 32     ecut=    80.00 Ry     beta=0.70
     Davidson diagonalization with overlap
     ethr =  1.21E-08,  avg # of iterations =  7.7

     negative rho (up, down):  2.770E-03 0.000E+00

     total cpu time spent up to now is    11329.8 secs

     total energy              =  -13670.86394300 Ry
     Harris-Foulkes estimate   =  -13670.86402297 Ry
     estimated scf accuracy    <       0.00004222 Ry

     iteration # 33     ecut=    80.00 Ry     beta=0.70
     Davidson diagonalization with overlap
     ethr =  3.06E-09,  avg # of iterations =  7.5

     negative rho (up, down):  4.615E-04 0.000E+00

     total cpu time spent up to now is    11579.7 secs

     total energy              =  -13670.86393878 Ry
     Harris-Foulkes estimate   =  -13670.86394710 Ry
     estimated scf accuracy    <       0.00001790 Ry

     iteration # 34     ecut=    80.00 Ry     beta=0.70
     Davidson diagonalization with overlap
     ethr =  1.30E-09,  avg # of iterations =  4.3

     negative rho (up, down):  2.539E-04 0.000E+00

     total cpu time spent up to now is    11784.6 secs

     total energy              =  -13670.86393978 Ry
     Harris-Foulkes estimate   =  -13670.86393939 Ry
     estimated scf accuracy    <       0.00000264 Ry

     iteration # 35     ecut=    80.00 Ry     beta=0.70
     Davidson diagonalization with overlap
     ethr =  1.91E-10,  avg # of iterations =  3.0

     negative rho (up, down):  1.737E-04 0.000E+00

     total cpu time spent up to now is    12029.5 secs

     total energy              =  -13670.86394013 Ry
     Harris-Foulkes estimate   =  -13670.86394026 Ry
     estimated scf accuracy    <       0.00000213 Ry

     iteration # 36     ecut=    80.00 Ry     beta=0.70
     Davidson diagonalization with overlap
     ethr =  1.54E-10,  avg # of iterations =  2.2

     negative rho (up, down):  1.989E-04 0.000E+00

     total cpu time spent up to now is    12200.5 secs

     total energy              =  -13670.86394003 Ry
     Harris-Foulkes estimate   =  -13670.86394010 Ry
     estimated scf accuracy    <       0.00000039 Ry

     iteration # 37     ecut=    80.00 Ry     beta=0.70
     Davidson diagonalization with overlap
     ethr =  2.82E-11,  avg # of iterations =  3.0

     negative rho (up, down):  2.195E-04 0.000E+00

     total cpu time spent up to now is    12387.9 secs

     total energy              =  -13670.86394007 Ry
     Harris-Foulkes estimate   =  -13670.86394012 Ry
     estimated scf accuracy    <       0.00000019 Ry

     iteration # 38     ecut=    80.00 Ry     beta=0.70
     Davidson diagonalization with overlap
     ethr =  1.36E-11,  avg # of iterations =  2.0

     negative rho (up, down):  2.427E-04 0.000E+00

     total cpu time spent up to now is    12556.8 secs

     total energy              =  -13670.86394006 Ry
     Harris-Foulkes estimate   =  -13670.86394012 Ry
     estimated scf accuracy    <       0.00000008 Ry

     iteration # 39     ecut=    80.00 Ry     beta=0.70
     Davidson diagonalization with overlap
     ethr =  5.83E-12,  avg # of iterations =  2.0

     negative rho (up, down):  2.645E-04 0.000E+00

     total cpu time spent up to now is    12725.7 secs

     total energy              =  -13670.86394007 Ry
     Harris-Foulkes estimate   =  -13670.86394011 Ry
     estimated scf accuracy    <       0.00000003 Ry

     iteration # 40     ecut=    80.00 Ry     beta=0.70
     Davidson diagonalization with overlap
     ethr =  2.48E-12,  avg # of iterations =  2.3

     negative rho (up, down):  2.708E-04 0.000E+00

     total cpu time spent up to now is    12903.7 secs

     total energy              =  -13670.86394009 Ry
     Harris-Foulkes estimate   =  -13670.86394011 Ry
     estimated scf accuracy    <       0.00000002 Ry

     iteration # 41     ecut=    80.00 Ry     beta=0.70
     Davidson diagonalization with overlap
     ethr =  1.40E-12,  avg # of iterations =  2.0

     negative rho (up, down):  2.687E-04 0.000E+00

     total cpu time spent up to now is    13073.4 secs

     total energy              =  -13670.86394011 Ry
     Harris-Foulkes estimate   =  -13670.86394011 Ry
     estimated scf accuracy    <       0.00000001 Ry

     iteration # 42     ecut=    80.00 Ry     beta=0.70
     Davidson diagonalization with overlap
     ethr =  7.44E-13,  avg # of iterations =  2.0

     negative rho (up, down):  2.593E-04 0.000E+00

     total cpu time spent up to now is    13239.0 secs

     End of self-consistent calculation

          k = 0.0000 0.0000 0.0000 (256287 PWs)   bands (ev):

   -15.3952 -15.0144 -15.0106 -13.9109 -13.9100 -13.4339 -13.4335 -13.0627
   -13.0625 -13.0588 -13.0580 -12.1149 -12.1127 -11.9966 -11.9964 -11.9949
   -11.9942 -10.3064 -10.3058 -10.3041 -10.3029 -10.1002  -9.1013  -8.4237
    -8.4233  -8.4199  -8.4196  -7.5474  -7.5465  -7.5368  -7.5366  -6.5582
    -6.5513  -6.4792  -6.4783  -6.4766  -6.4765  -6.4619  -6.4615  -5.2320
    -4.9242  -4.9238  -4.9222  -4.9210  -4.7663  -4.7660  -4.7594  -4.7591
    -4.7019  -4.6898  -4.2840  -3.7678  -3.6797  -3.6239  -3.6157  -3.5918
    -3.2896  -3.2881  -3.2012  -3.2011  -3.1400  -3.1219  -2.8819  -2.6179
    -2.6173  -2.4805  -2.4802  -2.4751  -2.4748  -2.4537  -2.3426  -2.3328
    -2.3116  -2.3115  -2.2164  -2.2162  -2.2143  -2.2134  -2.1787  -2.1533
    -1.9607  -1.9553  -1.8700  -1.8698  -1.8506  -1.8406  -1.6584  -1.6574
    -1.6540  -1.6538  -1.5821  -1.5585  -1.5575  -1.5435  -1.5434  -1.4159
    -1.4067  -1.3597  -1.3591  -1.3489  -1.3487  -1.3344  -1.3338  -1.3128
    -1.2386  -1.2384  -1.2250  -1.2249  -1.1928  -1.0825  -1.0804  -1.0784
    -1.0126  -1.0069  -0.9821  -0.9688  -0.9578  -0.9499  -0.9380  -0.9377
    -0.9280  -0.8955  -0.8935  -0.8909  -0.8585  -0.8567  -0.8543  -0.8533
    -0.8364  -0.8359  -0.7908  -0.7899  -0.7847  -0.7829  -0.7293  -0.7288
    -0.7286  -0.7269  -0.7181  -0.6784  -0.6780  -0.6316  -0.5924  -0.5904
    -0.5638  -0.5276  -0.5078  -0.4753  -0.4731  -0.4638  -0.4574  -0.4553
    -0.4248  -0.4175  -0.4093  -0.3944  -0.3931  -0.3903  -0.3892  -0.3860
    -0.3554  -0.3369  -0.3040  -0.3017  -0.2977  -0.2976  -0.2652  -0.2647
    -0.2555  -0.2506  -0.2502  -0.2443  -0.2434  -0.2383  -0.2346  -0.2310
    -0.2202  -0.1911  -0.1870  -0.1759  -0.1641  -0.1621  -0.1491  -0.1454
    -0.1451  -0.1377  -0.1349  -0.1345  -0.1165  -0.0899  -0.0892  -0.0845
    -0.0813  -0.0676  -0.0663  -0.0583  -0.0581  -0.0580  -0.0575  -0.0435
    -0.0411  -0.0314  -0.0256   0.0041   0.0054   0.0533   0.0545   0.0780
     0.0960   0.1100   0.1105   0.1172   0.1287   0.1337   0.1367   0.1415
     0.1505   0.1642   0.1653   0.1711   0.1736   0.1768   0.1805   0.1941
     0.2016   0.2017   0.2139   0.2146   0.2165   0.2263   0.2399   0.2482
     0.2488   0.2787   0.2909   0.2920   0.2974   0.2978   0.2985   0.3185
     0.3211   0.3219   0.3310   0.3324   0.3413   0.3420   0.3544   0.3544
     0.3585   0.3703   0.3792   0.3807   0.3813   0.3843   0.3918   0.3920
     0.3932   0.4069   0.4071   0.4091   0.4293   0.4368   0.4391   0.4415
     0.4468   0.4507   0.4513   0.4704   0.4729   0.4748   0.4829   0.4954
     0.4963   0.4994   0.5165   0.5177   0.5211   0.5215   0.5259   0.5293
     0.5301   0.5420   0.5464   0.5484   0.5565   0.5681   0.5700   0.5808
     0.5815   0.5865   0.5951   0.5979   0.5987   0.6023   0.6031   0.6086
     0.6095   0.6121   0.6186   0.6275   0.6494   0.6592   0.6650   0.6659
     0.6793   0.6795   0.6932   0.7025   0.7216   0.7226   0.7235   0.7261
     0.7269   0.7449   0.7461   0.7462   0.7561   0.7568   0.7710   0.7815
     0.7816   0.7872   0.7876   0.8002   0.8005   0.8029   0.8092   0.8181
     0.8182   0.8198   0.8244   0.8258   0.8265   0.8289   0.8344   0.8365
     0.8407   0.8415   0.8451   0.8649   0.8688   0.8693   0.8894   0.8900
     0.9078   0.9156   0.9163   0.9220   0.9281   0.9297   0.9461   0.9471
     0.9506   0.9627   0.9698   0.9966   0.9970   1.0096   1.0101   1.0148
     1.0161   1.0260   1.0271   1.0339   1.0361   1.0394   1.0416   1.0468
     1.0596   1.0651   1.0712   1.0757   1.0765   1.0802   1.1137   1.1154
     1.1189   1.1196   1.1218   1.1280   1.1435   1.1450   1.1588   1.1614
     1.1651   1.1868   1.1979   1.2055   1.2108   1.2137   1.2158   1.2165
     1.2169   1.2178   1.2199   1.2203   1.2320   1.2338   1.2541   1.2545
     1.2783   1.2804   1.2805   1.2814   1.2932   1.2945   1.2949   1.2971
     1.2978   1.3339   1.3392   1.3398   1.3415   1.3418   1.3459   1.3469
     1.3477   1.3546   1.3720   1.3725   1.3794   1.3797   1.3869   1.3913
     1.4006   1.4011   1.4116   1.4123   1.4127   1.4203   1.4324   1.4326
     1.4339   1.4344   1.4512   1.4514   1.4589   1.4612   1.4698   1.4700
     1.4744   1.4773   1.4782   1.4784   1.4838   1.4957   1.4969   1.5089
     1.5203   1.5219   1.5221   1.5222   1.5232   1.5235   1.5236   1.5294
     1.5351   1.5385   1.5390   1.5488   1.5591   1.5601   1.5614   1.5621
     1.5628   1.5657   1.5697   1.5700   1.5721   1.5744   1.5859   1.5897
     1.6209   1.6213   1.6344   1.6388   1.6502   1.6565   1.6569   1.6633
     1.6652   1.6660   1.6702   1.6705   1.6723   1.6757   1.6764   1.6866
     1.6963   1.6973   1.7032   1.7082   1.7089   1.7092   1.7200   1.7215
     1.7223   1.7252   1.7395   1.7457   1.7542   1.7567   1.7600   1.7636
     1.7688   1.7733   1.7801   1.7850   1.7871   1.7874   1.7897   1.7946
     1.7992   1.8035   1.8084   1.8159   1.8161   1.8308   1.8341   1.8342
     1.8380   1.8393   1.8492   1.8502   1.8506   1.8568   1.8590   1.8732
     1.8732   1.8736   1.8754   1.8757   1.8791   1.8821   1.8821   1.8872
     1.8982   1.9059   1.9110   1.9117   1.9120   1.9139   1.9271   1.9375
     1.9383   1.9467   1.9471   1.9484   1.9573   1.9616   1.9617   1.9631
     1.9650   1.9745   1.9843   1.9870   1.9873   1.9881   1.9991   2.0014
     2.0154   2.0181   2.0188   2.0216   2.0234   2.0281   2.0289   2.0313
     2.0326   2.0445   2.0466   2.0483   2.0550   2.0561   2.0582   2.0613
     2.0632   2.0734   2.0752   2.0757   2.0773   2.0822   2.0897   2.0945
     2.0954   2.0962   2.0981   2.1022   2.1031   2.1134   2.1155   2.1171
     2.1273   2.1319   2.1342   2.1405   2.1480   2.1528   2.1558   2.1565
     2.1608   2.1622   2.1632   2.1669   2.1685   2.1692   2.1707   2.1757
     2.1803   2.1818   2.1885   2.1902   2.1911   2.1926   2.1941   2.1961
     2.1979   2.1998   2.2028   2.2061   2.2090   2.2138   2.2157   2.2205
     2.2326   2.2338   2.2372   2.2406   2.2432   2.2445   2.2495   2.2505
     2.2547   2.2623   2.2625   2.2643   2.2732   2.2742   2.2799   2.2810
     2.2814   2.2955   2.3067   2.3071   2.3153   2.3430   2.3467   2.3470
     2.3614   2.3711   2.3872   2.3875   2.4018   2.4084   2.4096   2.4154
     2.4209   2.4223   2.4238   2.4354   2.5190   2.5366   2.6612   2.7315
     2.7467   2.7994   2.8015   2.8292   2.9321   2.9340   2.9535   2.9550
     2.9895   2.9896   2.9977   2.9989   3.0046   3.0497   3.0503   3.1516
     3.1584   3.1589   3.1655   3.3596   3.3606   3.4096   3.4101   3.4656
     3.6365   3.8382   3.8394   4.0683   4.0974   4.1024   4.1189   4.1199
     4.1356   4.1404   4.2154   4.3922   4.4091   4.4604   4.4622   4.5813
     4.6861   4.6862   4.7126   4.7473   4.7484   4.7565   4.7867   4.7873
     4.8071   4.8072   5.0194   5.0655   5.1916   5.1947   5.4012   5.5049
     5.6117   5.6133   5.6576   5.7894   5.9152   5.9847   6.0201   6.0210
     6.0426   6.0490   6.0645   6.2901   6.2978   6.3058   6.3386   6.6470
     6.6480   6.6795   7.0077   7.0251   7.0273   7.0816   7.2262   7.2769
     7.2784   7.4892   7.4932   7.4978   7.5006   7.5430   7.5444   7.5793
     7.5794   7.7673   7.7698   7.7890   7.8300   7.8392   7.8641   7.9120
     7.9130   7.9265   7.9329   7.9435   8.0304   8.2078   8.2270   8.3111
     8.3648   8.3700   8.4452   8.4497   8.4500   8.4925   8.6667   8.6667
     8.7764   8.8221   8.8330   8.8335   8.8385   8.9650   8.9672   9.0139
     9.0145   9.0736   9.1077   9.2324   9.2350   9.2630   9.3140   9.3151
     9.3597   9.3718   9.3731   9.4110   9.4112   9.4329   9.5922   9.6002
     9.6093   9.6144   9.6340   9.7133   9.7148   9.7438   9.7461   9.7494
     9.7526   9.8695   9.9286  10.0096  10.2679  10.2803  10.3051  10.4274
    10.4286  10.4342  10.5248  10.5272  10.5290  10.5295  10.5494  10.5523
    10.6004  10.6017  10.6809  10.6908

          k = 0.0000-0.2165 0.0000 (256176 PWs)   bands (ev):

   -15.3358 -15.2560 -14.5563 -14.5479 -13.3764 -13.3759 -13.2973 -13.2971
   -13.0947 -13.0936 -12.6189 -12.6173 -12.6103 -12.6093 -11.2195 -11.2190
   -11.2169 -11.2167 -11.0172 -10.9792  -9.3258  -9.3252  -9.2998  -9.2998
    -8.0774  -8.0593  -7.9285  -7.9275  -7.8906  -7.8903  -7.0812  -7.0802
    -7.0762  -7.0760  -5.9273  -5.9272  -5.8810  -5.8810  -5.7486  -5.7480
    -5.7453  -5.7445  -5.1258  -5.0639  -4.9366  -4.9356  -4.2667  -4.1248
    -4.1231  -4.0648  -4.0644  -4.0501  -4.0329  -3.9772  -3.5996  -3.5393
    -3.5389  -3.5378  -3.5374  -3.3856  -3.1682  -3.1142  -2.8105  -2.6162
    -2.5636  -2.5377  -2.5371  -2.4857  -2.4851  -2.4437  -2.2746  -2.2386
    -2.2355  -2.1941  -2.0026  -2.0024  -1.9705  -1.9704  -1.8737  -1.8704
    -1.8601  -1.8467  -1.7976  -1.7967  -1.7908  -1.7903  -1.7820  -1.7815
    -1.7782  -1.7769  -1.7022  -1.6922  -1.6566  -1.6562  -1.5246  -1.5223
    -1.5004  -1.4327  -1.4280  -1.3901  -1.3863  -1.3501  -1.3468  -1.3023
    -1.3009  -1.1897  -1.1897  -1.1733  -1.1705  -1.1704  -1.0977  -1.0974
    -1.0556  -1.0546  -1.0332  -0.9877  -0.9836  -0.9810  -0.9780  -0.9699
    -0.9430  -0.9412  -0.9358  -0.9344  -0.9271  -0.9091  -0.8784  -0.8587
    -0.8560  -0.8517  -0.8377  -0.7751  -0.7404  -0.7395  -0.6888  -0.6887
    -0.6315  -0.6116  -0.5820  -0.5796  -0.5763  -0.5610  -0.5388  -0.5136
    -0.5119  -0.5026  -0.4905  -0.4898  -0.4895  -0.4877  -0.4761  -0.4707
    -0.4684  -0.4643  -0.4509  -0.4294  -0.4216  -0.4152  -0.4141  -0.4118
    -0.3905  -0.3898  -0.3613  -0.3612  -0.3238  -0.3211  -0.3000  -0.2953
    -0.2936  -0.2870  -0.2752  -0.2601  -0.2586  -0.2552  -0.2500  -0.2446
    -0.2432  -0.2384  -0.2255  -0.2028  -0.2025  -0.1887  -0.1814  -0.1723
    -0.1719  -0.1613  -0.1422  -0.1392  -0.1321  -0.1294  -0.1178  -0.1151
    -0.1149  -0.1034  -0.0960  -0.0955  -0.0734  -0.0545  -0.0389  -0.0323
    -0.0298  -0.0276  -0.0177  -0.0083   0.0131   0.0165   0.0185   0.0565
     0.0714   0.0731   0.0776   0.1274   0.1278   0.1438   0.1457   0.1463
     0.1488   0.1512   0.1556   0.1651   0.1668   0.1671   0.1807   0.1814
     0.1901   0.1907   0.1922   0.1959   0.2220   0.2223   0.2460   0.2471
     0.2502   0.2504   0.2524   0.2700   0.2816   0.2819   0.2826   0.2893
     0.3063   0.3075   0.3094   0.3258   0.3376   0.3385   0.3539   0.3539
     0.3707   0.3848   0.3854   0.3981   0.3983   0.4196   0.4204   0.4472
     0.4473   0.4529   0.4548   0.4581   0.4718   0.4725   0.4863   0.4864
     0.4881   0.4896   0.4995   0.4996   0.5102   0.5152   0.5153   0.5192
     0.5253   0.5288   0.5290   0.5440   0.5449   0.5512   0.5581   0.5603
     0.5627   0.5630   0.5696   0.5700   0.5946   0.5949   0.5984   0.5989
     0.5994   0.6035   0.6171   0.6201   0.6235   0.6468   0.6475   0.6542
     0.6576   0.6608   0.6688   0.6716   0.6845   0.6852   0.6936   0.7012
     0.7022   0.7083   0.7103   0.7104   0.7186   0.7197   0.7288   0.7560
     0.7569   0.7578   0.7586   0.7591   0.7777   0.7850   0.7851   0.7923
     0.7938   0.8008   0.8020   0.8025   0.8150   0.8154   0.8228   0.8245
     0.8250   0.8267   0.8323   0.8328   0.8436   0.8586   0.8588   0.8706
     0.8707   0.8783   0.8799   0.8815   0.8917   0.9055   0.9056   0.9076
     0.9081   0.9092   0.9149   0.9167   0.9294   0.9307   0.9328   0.9420
     0.9520   0.9529   0.9633   0.9657   0.9799   0.9849   0.9916   0.9981
     0.9995   1.0099   1.0104   1.0392   1.0398   1.0460   1.0659   1.0681
     1.0765   1.0798   1.0802   1.0827   1.0853   1.0935   1.0942   1.0982
     1.1002   1.1351   1.1357   1.1360   1.1441   1.1462   1.1497   1.1508
     1.1521   1.1655   1.1810   1.1810   1.2059   1.2141   1.2156   1.2159
     1.2230   1.2230   1.2290   1.2357   1.2364   1.2592   1.2645   1.2649
     1.2678   1.2780   1.2804   1.2915   1.2920   1.2978   1.3020   1.3107
     1.3117   1.3131   1.3180   1.3192   1.3231   1.3233   1.3308   1.3309
     1.3345   1.3358   1.3471   1.3473   1.3484   1.3649   1.3696   1.3743
     1.3770   1.3782   1.3881   1.3893   1.3931   1.4011   1.4032   1.4041
     1.4059   1.4074   1.4103   1.4113   1.4170   1.4340   1.4401   1.4406
     1.4555   1.4555   1.4620   1.4640   1.4646   1.4663   1.4754   1.4809
     1.4812   1.4850   1.4860   1.4971   1.5032   1.5047   1.5095   1.5109
     1.5155   1.5162   1.5198   1.5208   1.5212   1.5315   1.5550   1.5576
     1.5598   1.5603   1.5641   1.5760   1.5768   1.5882   1.5901   1.5919
     1.6032   1.6059   1.6070   1.6319   1.6641   1.6648   1.6680   1.6691
     1.6786   1.6809   1.6855   1.6893   1.6903   1.6904   1.6979   1.7034
     1.7049   1.7057   1.7070   1.7074   1.7094   1.7133   1.7136   1.7219
     1.7300   1.7360   1.7402   1.7409   1.7460   1.7521   1.7531   1.7554
     1.7604   1.7613   1.7619   1.7640   1.7665   1.7666   1.7699   1.7743
     1.7755   1.7758   1.7768   1.7922   1.7926   1.8027   1.8033   1.8078
     1.8136   1.8226   1.8233   1.8269   1.8323   1.8389   1.8395   1.8415
     1.8522   1.8544   1.8547   1.8565   1.8581   1.8696   1.8713   1.8719
     1.8943   1.9021   1.9083   1.9146   1.9158   1.9171   1.9173   1.9310
     1.9324   1.9336   1.9344   1.9474   1.9543   1.9567   1.9682   1.9716
     1.9731   1.9737   1.9739   1.9752   1.9843   1.9844   1.9920   1.9924
     1.9931   1.9954   2.0048   2.0064   2.0076   2.0094   2.0171   2.0203
     2.0220   2.0226   2.0289   2.0381   2.0388   2.0487   2.0523   2.0571
     2.0572   2.0694   2.0710   2.0711   2.0740   2.0793   2.0795   2.0908
     2.0940   2.1000   2.1037   2.1053   2.1093   2.1120   2.1132   2.1173
     2.1196   2.1215   2.1248   2.1264   2.1274   2.1393   2.1456   2.1456
     2.1473   2.1556   2.1628   2.1642   2.1646   2.1653   2.1686   2.1886
     2.1911   2.1920   2.1945   2.1972   2.1987   2.1992   2.2005   2.2067
     2.2153   2.2156   2.2174   2.2270   2.2275   2.2403   2.2404   2.2405
     2.2459   2.2462   2.2467   2.2478   2.2491   2.2517   2.2519   2.2630
     2.2655   2.2866   2.2869   2.2924   2.2942   2.2965   2.3026   2.3134
     2.3146   2.3146   2.3247   2.3254   2.3262   2.3321   2.3435   2.3445
     2.3448   2.4025   2.4313   2.4381   2.5013   2.5279   2.5295   2.5374
     2.5383   2.5526   2.5527   2.5786   2.5802   2.6103   2.6130   2.6150
     2.6280   2.6380   2.7849   2.8158   2.8169   2.9114   2.9921   2.9939
     3.0856   3.0871   3.1167   3.1173   3.1347   3.1951   3.1961   3.2270
     3.2281   3.2584   3.3115   3.3473   3.3488   3.4473   3.4474   3.4543
     3.4834   3.6925   3.6926   3.7096   3.7751   3.7757   3.8577   3.8579
     3.9352   3.9353   4.1725   4.1938   4.2513   4.2530   4.3581   4.4258
     4.5923   4.7314   4.7338   4.8824   4.8831   4.9630   5.0950   5.0984
     5.1008   5.1019   5.1844   5.2157   5.3249   5.3270   5.5073   5.6063
     5.6087   5.6976   5.7266   5.8001   5.8842   5.9783   5.9942   5.9968
     6.1330   6.1347   6.2269   6.3226   6.3729   6.4678   6.4732   6.4791
     6.5157   6.8159   6.9232   6.9320   6.9355   6.9443   6.9493   7.1278
     7.1931   7.1965   7.2239   7.3432   7.3447   7.4193   7.4843   7.5037
     7.5089   7.6924   7.7861   7.7897   7.8446   7.8471   7.8640   7.8651
     7.8659   7.8991   7.9022   7.9560   8.0352   8.0357   8.1492   8.2262
     8.2347   8.6007   8.6148   8.6774   8.6893   8.7025   8.7031   8.7507
     8.7525   8.7588   8.7695   8.8107   8.8901   8.9429   8.9672   8.9749
     9.0940   9.0942   9.1710   9.1711   9.2481   9.2525   9.3332   9.3361
     9.3572   9.3862   9.3898   9.4663   9.4812   9.5719   9.6263   9.6421
     9.6714   9.6755   9.8652   9.8705   9.8729   9.8837   9.9509   9.9522
    10.0417  10.1291  10.1315  10.1887  10.1892  10.2053  10.2079  10.2605
    10.2974  10.3001  10.3881  10.4096  10.4100  10.4375  10.4431  10.4748
    10.5696  10.6364  10.6876  10.6878

          k = 0.2500 0.0000 0.0000 (256240 PWs)   bands (ev):

   -15.2711 -14.8908 -14.8870 -14.2851 -13.9095 -13.9056 -13.7894 -13.7884
   -12.8251 -12.8242 -12.3582 -11.9983 -11.9962 -11.9945 -11.9907 -11.0778
   -11.0759 -10.9679 -10.9671  -9.9949  -9.7141  -9.6703  -9.6299  -9.1544
    -8.9965  -8.7021  -8.6991  -8.2968  -8.0424  -8.0418  -7.4899  -6.4843
    -6.4796  -6.4787  -6.4763  -6.3681  -6.3585  -5.8987  -5.6281  -5.0630
    -5.0519  -4.8751  -4.8741  -4.8371  -4.8301  -4.5283  -4.5165  -4.1259
    -4.1200  -4.1121  -3.6773  -3.6166  -3.6058  -3.5193  -3.4500  -3.3086
    -3.3077  -3.2851  -3.2831  -3.2125  -3.2048  -3.0535  -3.0533  -2.9939
    -2.9764  -2.8509  -2.8212  -2.7310  -2.5604  -2.5602  -2.4852  -2.4839
    -2.4717  -2.4670  -2.4046  -2.3632  -2.3600  -2.3492  -2.3285  -2.2898
    -2.2190  -2.0861  -2.0585  -2.0412  -2.0059  -2.0050  -1.8555  -1.8355
    -1.7109  -1.6994  -1.6792  -1.6170  -1.5691  -1.5248  -1.4656  -1.4187
    -1.4182  -1.3446  -1.3272  -1.3131  -1.2931  -1.2852  -1.2547  -1.2192
    -1.1409  -1.0707  -1.0557  -1.0525  -1.0194  -1.0079  -1.0041  -0.9930
    -0.9907  -0.9880  -0.9825  -0.9524  -0.9430  -0.9054  -0.8842  -0.8726
    -0.8511  -0.8364  -0.8217  -0.8054  -0.8012  -0.7946  -0.7855  -0.7787
    -0.7777  -0.7587  -0.7222  -0.7185  -0.7158  -0.7135  -0.6495  -0.6365
    -0.6311  -0.6073  -0.6026  -0.5958  -0.5890  -0.5828  -0.5502  -0.5314
    -0.5119  -0.5043  -0.4830  -0.4770  -0.4531  -0.4500  -0.4461  -0.4354
    -0.4312  -0.4265  -0.4141  -0.4001  -0.3953  -0.3900  -0.3826  -0.3707
    -0.3508  -0.3434  -0.3408  -0.3387  -0.3316  -0.3307  -0.3165  -0.3160
    -0.3095  -0.3072  -0.2806  -0.2782  -0.2520  -0.2474  -0.2455  -0.2335
    -0.2236  -0.2212  -0.2202  -0.2154  -0.2106  -0.2098  -0.2038  -0.2026
    -0.1921  -0.1882  -0.1854  -0.1763  -0.1738  -0.1725  -0.1455  -0.1334
    -0.1139  -0.1110  -0.1052  -0.0947  -0.0924  -0.0709  -0.0644  -0.0534
    -0.0264  -0.0148  -0.0120  -0.0063   0.0061   0.0098   0.0154   0.0258
     0.0357   0.0401   0.0412   0.0424   0.0439   0.0484   0.0512   0.1006
     0.1224   0.1645   0.1667   0.1868   0.1983   0.1991   0.2018   0.2076
     0.2195   0.2276   0.2375   0.2387   0.2490   0.2499   0.2621   0.2629
     0.2660   0.2692   0.2810   0.2814   0.2874   0.2887   0.2920   0.2933
     0.2943   0.2965   0.3063   0.3216   0.3261   0.3425   0.3438   0.3480
     0.3732   0.3845   0.3864   0.3886   0.3913   0.3923   0.3935   0.3993
     0.4115   0.4195   0.4220   0.4277   0.4356   0.4369   0.4425   0.4640
     0.4659   0.4673   0.4809   0.4831   0.4955   0.5012   0.5019   0.5038
     0.5094   0.5128   0.5138   0.5161   0.5227   0.5365   0.5531   0.5551
     0.5697   0.5701   0.5810   0.5820   0.5853   0.5903   0.5945   0.6008
     0.6050   0.6060   0.6112   0.6161   0.6225   0.6267   0.6392   0.6396
     0.6398   0.6490   0.6746   0.6892   0.6920   0.6930   0.6989   0.7014
     0.7058   0.7110   0.7128   0.7175   0.7275   0.7446   0.7460   0.7480
     0.7496   0.7679   0.7702   0.7732   0.7772   0.7792   0.7874   0.7889
     0.7905   0.7954   0.7974   0.8069   0.8086   0.8121   0.8129   0.8208
     0.8232   0.8355   0.8379   0.8432   0.8499   0.8538   0.8606   0.8631
     0.8651   0.8662   0.8708   0.8769   0.8917   0.8954   0.9133   0.9174
     0.9206   0.9236   0.9268   0.9387   0.9580   0.9593   0.9610   0.9664
     0.9767   0.9890   0.9976   1.0106   1.0118   1.0181   1.0288   1.0319
     1.0421   1.0438   1.0553   1.0597   1.0649   1.0657   1.0688   1.0722
     1.0784   1.0795   1.0886   1.0894   1.0898   1.0916   1.1006   1.1019
     1.1082   1.1112   1.1134   1.1137   1.1258   1.1272   1.1397   1.1415
     1.1484   1.1493   1.1514   1.1637   1.1738   1.1758   1.1931   1.2042
     1.2173   1.2199   1.2228   1.2274   1.2318   1.2333   1.2397   1.2453
     1.2488   1.2493   1.2509   1.2579   1.2614   1.2632   1.2763   1.2805
     1.2827   1.2971   1.2990   1.3034   1.3054   1.3066   1.3245   1.3277
     1.3347   1.3370   1.3411   1.3477   1.3491   1.3507   1.3597   1.3616
     1.3640   1.3656   1.3668   1.3682   1.3720   1.3795   1.3847   1.3901
     1.3964   1.4057   1.4069   1.4190   1.4250   1.4281   1.4292   1.4303
     1.4391   1.4399   1.4432   1.4537   1.4577   1.4588   1.4605   1.4812
     1.4840   1.4867   1.4879   1.4888   1.4924   1.5109   1.5159   1.5301
     1.5394   1.5399   1.5444   1.5466   1.5490   1.5508   1.5520   1.5539
     1.5557   1.5590   1.5735   1.5767   1.5937   1.5969   1.6070   1.6084
     1.6152   1.6224   1.6291   1.6332   1.6357   1.6365   1.6402   1.6469
     1.6480   1.6556   1.6575   1.6594   1.6630   1.6681   1.6686   1.6694
     1.6756   1.6775   1.6925   1.7053   1.7056   1.7064   1.7093   1.7179
     1.7215   1.7224   1.7410   1.7424   1.7474   1.7578   1.7634   1.7678
     1.7776   1.7794   1.7837   1.7903   1.7908   1.7922   1.7933   1.7959
     1.7969   1.8017   1.8027   1.8041   1.8091   1.8093   1.8243   1.8283
     1.8331   1.8358   1.8368   1.8376   1.8406   1.8435   1.8452   1.8473
     1.8524   1.8584   1.8590   1.8609   1.8702   1.8713   1.8759   1.8808
     1.8840   1.8868   1.8954   1.8958   1.8973   1.8982   1.8993   1.9113
     1.9215   1.9250   1.9289   1.9354   1.9403   1.9436   1.9447   1.9483
     1.9510   1.9641   1.9744   1.9755   1.9802   1.9858   1.9915   1.9947
     1.9967   1.9980   2.0010   2.0027   2.0082   2.0108   2.0174   2.0266
     2.0299   2.0345   2.0383   2.0425   2.0430   2.0435   2.0521   2.0568
     2.0649   2.0657   2.0675   2.0687   2.0701   2.0728   2.0819   2.0841
     2.0855   2.0888   2.0936   2.0945   2.0982   2.1009   2.1022   2.1048
     2.1200   2.1206   2.1222   2.1408   2.1435   2.1444   2.1475   2.1523
     2.1546   2.1556   2.1595   2.1648   2.1649   2.1676   2.1799   2.1845
     2.1852   2.1877   2.1908   2.1940   2.1946   2.1958   2.1998   2.2014
     2.2097   2.2103   2.2135   2.2157   2.2185   2.2235   2.2270   2.2294
     2.2313   2.2371   2.2406   2.2508   2.2520   2.2528   2.2528   2.2569
     2.2595   2.2596   2.2625   2.2703   2.2721   2.2826   2.2879   2.2908
     2.2917   2.2992   2.3060   2.3089   2.3095   2.3119   2.3203   2.3392
     2.3434   2.3481   2.3765   2.3780   2.3897   2.3902   2.3983   2.4105
     2.4131   2.4197   2.4210   2.4952   2.5223   2.5236   2.5502   2.5680
     2.5782   2.6126   2.6341   2.6918   2.7687   2.7990   2.8127   2.8280
     2.8518   2.8731   3.0604   3.0968   3.1943   3.2365   3.2486   3.2496
     3.2897   3.4116   3.5474   3.7230   3.7324   3.7516   3.7543   3.8309
     3.9169   3.9556   3.9975   3.9996   4.0442   4.1830   4.2269   4.2859
     4.2914   4.3397   4.4069   4.4115   4.4470   4.4536   4.4649   4.4790
     4.5172   4.6223   4.8517   5.0181   5.0298   5.0528   5.0563   5.1960
     5.2174   5.2199   5.2454   5.3878   5.4964   5.5648   5.5710   5.5732
     5.6077   5.7425   5.7884   5.7930   5.8248   5.8628   5.9362   5.9792
     6.1213   6.1533   6.1651   6.2565   6.2616   6.3858   6.3955   6.4288
     6.4364   6.4711   6.5977   6.6886   6.7165   6.7428   6.8058   6.8325
     6.9353   6.9376   6.9940   7.0962   7.1524   7.3636   7.4528   7.5038
     7.5088   7.5472   7.5585   7.5634   7.6216   7.6608   7.7730   7.7786
     7.8347   7.8434   7.8481   7.8608   7.9105   7.9222   7.9560   8.0384
     8.0614   8.1144   8.1646   8.1880   8.2612   8.3219   8.4180   8.5307
     8.5493   8.6222   8.6264   8.6382   8.6633   8.6842   8.7707   8.8074
     8.8100   8.9763   8.9818   9.0790   9.1045   9.1549   9.1816   9.1836
     9.2051   9.2386   9.3101   9.3433   9.3467   9.3903   9.3984   9.4305
     9.5610   9.5703   9.6741   9.6817   9.7062   9.7180   9.7763   9.7792
     9.8053   9.8204   9.9366   9.9608   9.9648  10.0259  10.0269  10.0830
    10.1395  10.1736  10.2557  10.2791  10.2842  10.4138  10.4470  10.5183
    10.5220  10.5542  10.5682  10.5701

          k = 0.2500-0.2165 0.0000 (256316 PWs)   bands (ev):

   -15.2118 -15.1321 -14.4336 -14.4252 -14.2267 -14.1474 -13.4585 -13.4504
   -12.9752 -12.9740 -12.3020 -12.2237 -12.0280 -12.0265 -11.5626 -11.5549
   -10.9055 -10.8673 -10.2648 -10.2622 -10.0273  -9.9891  -9.6565  -9.5860
    -8.5787  -8.5745  -8.0797  -8.0306  -7.9836  -7.9655  -7.4238  -7.4032
    -7.3239  -7.3219  -5.6268  -5.5801  -5.5768  -5.5694  -5.4835  -5.4141
    -5.2463  -5.2113  -4.9471  -4.8962  -4.8954  -4.8856  -4.0995  -4.0960
    -4.0956  -3.8858  -3.8692  -3.8091  -3.7737  -3.7735  -3.5845  -3.5272
    -3.4503  -3.2385  -3.1526  -3.1207  -3.0918  -3.0909  -3.0209  -2.9701
    -2.8141  -2.7913  -2.7109  -2.6660  -2.6646  -2.6535  -2.5572  -2.5374
    -2.4844  -2.4655  -2.4191  -2.2991  -2.2814  -2.1561  -2.1526  -2.1163
    -2.1138  -2.0800  -2.0217  -2.0196  -1.9919  -1.9706  -1.8296  -1.8198
    -1.7630  -1.7405  -1.6610  -1.5491  -1.5419  -1.5362  -1.5038  -1.4231
    -1.4104  -1.3855  -1.3713  -1.3682  -1.3577  -1.3025  -1.2980  -1.2263
    -1.2218  -1.1569  -1.1450  -1.0791  -1.0261  -1.0150  -1.0133  -0.9572
    -0.9395  -0.9385  -0.9318  -0.9075  -0.9052  -0.8992  -0.8984  -0.8948
    -0.8862  -0.8832  -0.8738  -0.8617  -0.8458  -0.8303  -0.8049  -0.8040
    -0.7793  -0.7655  -0.7433  -0.7333  -0.7039  -0.6995  -0.6975  -0.6848
    -0.6572  -0.6062  -0.5972  -0.5705  -0.5650  -0.5322  -0.5220  -0.5016
    -0.5012  -0.4996  -0.4820  -0.4746  -0.4718  -0.4632  -0.4556  -0.4518
    -0.4500  -0.4304  -0.4281  -0.4151  -0.4133  -0.4106  -0.4084  -0.3908
    -0.3764  -0.3720  -0.3552  -0.3547  -0.3485  -0.3273  -0.3215  -0.3176
    -0.3152  -0.3038  -0.2961  -0.2710  -0.2685  -0.2646  -0.2521  -0.2474
    -0.2457  -0.2402  -0.2369  -0.2087  -0.2049  -0.2002  -0.1977  -0.1917
    -0.1871  -0.1799  -0.1719  -0.1701  -0.1685  -0.1594  -0.1291  -0.1097
    -0.1048  -0.0951  -0.0851  -0.0781  -0.0746  -0.0662  -0.0652  -0.0561
    -0.0460  -0.0279  -0.0162  -0.0029   0.0124   0.0127   0.0191   0.0356
     0.0582   0.0639   0.0819   0.0835   0.0981   0.1001   0.1050   0.1142
     0.1268   0.1377   0.1771   0.1790   0.1827   0.1853   0.1959   0.2093
     0.2184   0.2219   0.2243   0.2301   0.2314   0.2325   0.2481   0.2519
     0.2565   0.2640   0.2802   0.2900   0.2942   0.3028   0.3051   0.3163
     0.3209   0.3239   0.3302   0.3340   0.3428   0.3492   0.3506   0.3536
     0.3557   0.3682   0.3862   0.3956   0.4010   0.4045   0.4049   0.4085
     0.4104   0.4132   0.4221   0.4255   0.4279   0.4320   0.4377   0.4459
     0.4467   0.4556   0.4621   0.4729   0.4803   0.4833   0.4986   0.5043
     0.5104   0.5231   0.5367   0.5439   0.5537   0.5583   0.5593   0.5636
     0.5690   0.5740   0.5753   0.5763   0.6046   0.6076   0.6127   0.6200
     0.6221   0.6243   0.6254   0.6274   0.6333   0.6552   0.6564   0.6668
     0.6748   0.6776   0.6787   0.6800   0.6875   0.6924   0.6978   0.6995
     0.7077   0.7146   0.7212   0.7237   0.7308   0.7328   0.7351   0.7367
     0.7447   0.7507   0.7580   0.7597   0.7600   0.7738   0.7769   0.7813
     0.7824   0.7870   0.7951   0.7966   0.7997   0.8004   0.8072   0.8109
     0.8125   0.8200   0.8223   0.8333   0.8521   0.8585   0.8611   0.8688
     0.8726   0.8825   0.8853   0.8964   0.8975   0.9150   0.9230   0.9244
     0.9250   0.9315   0.9323   0.9353   0.9365   0.9428   0.9461   0.9595
     0.9637   0.9642   0.9726   0.9770   0.9870   0.9919   1.0043   1.0057
     1.0107   1.0129   1.0133   1.0235   1.0364   1.0447   1.0605   1.0662
     1.0689   1.0721   1.0829   1.0893   1.0896   1.0910   1.0980   1.1059
     1.1119   1.1154   1.1164   1.1255   1.1269   1.1286   1.1337   1.1427
     1.1446   1.1549   1.1665   1.1777   1.1797   1.1850   1.1867   1.1911
     1.1940   1.2002   1.2071   1.2136   1.2162   1.2245   1.2306   1.2399
     1.2439   1.2454   1.2537   1.2613   1.2636   1.2733   1.2759   1.2809
     1.2866   1.2924   1.2989   1.3019   1.3024   1.3053   1.3269   1.3292
     1.3422   1.3571   1.3589   1.3639   1.3657   1.3663   1.3682   1.3713
     1.3775   1.3794   1.3857   1.3930   1.3955   1.4004   1.4025   1.4102
     1.4176   1.4184   1.4201   1.4243   1.4357   1.4404   1.4419   1.4507
     1.4603   1.4653   1.4662   1.4698   1.4729   1.4775   1.4814   1.4834
     1.4871   1.4910   1.4928   1.4943   1.5051   1.5067   1.5266   1.5278
     1.5300   1.5360   1.5389   1.5403   1.5441   1.5454   1.5504   1.5540
     1.5627   1.5634   1.5673   1.5774   1.5778   1.5813   1.5867   1.5895
     1.6006   1.6026   1.6212   1.6228   1.6252   1.6266   1.6280   1.6307
     1.6393   1.6417   1.6486   1.6551   1.6606   1.6657   1.6666   1.6685
     1.6733   1.6792   1.6815   1.6825   1.6979   1.6994   1.7013   1.7058
     1.7136   1.7145   1.7230   1.7247   1.7371   1.7414   1.7506   1.7581
     1.7593   1.7609   1.7665   1.7669   1.7710   1.7786   1.7815   1.7878
     1.8018   1.8063   1.8125   1.8173   1.8231   1.8315   1.8389   1.8417
     1.8423   1.8459   1.8496   1.8499   1.8538   1.8589   1.8658   1.8662
     1.8788   1.8836   1.8846   1.8866   1.8892   1.8938   1.8958   1.8985
     1.8998   1.9041   1.9132   1.9175   1.9211   1.9215   1.9255   1.9297
     1.9335   1.9351   1.9428   1.9481   1.9507   1.9521   1.9568   1.9625
     1.9634   1.9641   1.9698   1.9725   1.9781   1.9795   1.9824   1.9855
     1.9867   1.9965   1.9976   1.9993   2.0015   2.0128   2.0188   2.0215
     2.0264   2.0300   2.0350   2.0395   2.0416   2.0425   2.0460   2.0496
     2.0506   2.0514   2.0553   2.0625   2.0641   2.0724   2.0803   2.0836
     2.0904   2.0930   2.0992   2.1073   2.1083   2.1123   2.1145   2.1159
     2.1186   2.1202   2.1278   2.1297   2.1409   2.1428   2.1438   2.1452
     2.1530   2.1572   2.1600   2.1628   2.1642   2.1657   2.1666   2.1674
     2.1703   2.1835   2.1850   2.1897   2.1903   2.1915   2.1996   2.2010
     2.2122   2.2139   2.2147   2.2214   2.2219   2.2255   2.2273   2.2279
     2.2324   2.2333   2.2370   2.2400   2.2429   2.2492   2.2541   2.2556
     2.2584   2.2640   2.2650   2.2658   2.2664   2.2756   2.2822   2.2839
     2.2852   2.2881   2.2898   2.2913   2.3020   2.3145   2.3211   2.3274
     2.3369   2.3434   2.3451   2.3612   2.3750   2.3770   2.4097   2.4468
     2.4544   2.4794   2.4867   2.4931   2.5012   2.5132   2.5293   2.5336
     2.5387   2.5410   2.6814   2.7442   2.8787   2.8956   2.9040   2.9184
     2.9189   2.9338   2.9581   3.0321   3.0353   3.1927   3.2488   3.3418
     3.3587   3.3888   3.4699   3.5402   3.5568   3.5697   3.6247   3.6642
     3.7002   3.8576   3.8999   3.9134   3.9266   4.1768   4.2937   4.3462
     4.4414   4.5039   4.5563   4.5735   4.5925   4.5983   4.6024   4.7729
     4.7949   4.8703   4.9045   4.9120   4.9853   5.0555   5.0584   5.0970
     5.2273   5.2373   5.3515   5.3657   5.3949   5.4463   5.4508   5.4924
     5.6912   5.7269   5.7676   5.7888   5.7902   5.8585   5.8815   5.8849
     5.9653   5.9920   6.1201   6.1876   6.1921   6.2793   6.3089   6.4708
     6.4774   6.4959   6.5152   6.5202   6.6634   6.7025   6.8515   6.9079
     6.9559   7.0387   7.0898   7.1370   7.1807   7.2045   7.2830   7.4159
     7.4871   7.5422   7.5618   7.6496   7.6534   7.7755   7.8322   7.8983
     7.9008   7.9020   7.9122   7.9616   8.0516   8.0755   8.1295   8.1464
     8.1663   8.1692   8.1779   8.1997   8.3139   8.3565   8.3930   8.4843
     8.5246   8.5922   8.6185   8.7533   8.7841   8.7979   8.8089   8.8575
     8.8590   8.9253   8.9695   9.0012   9.0143   9.0153   9.0416   9.0521
     9.2276   9.3160   9.3704   9.3836   9.4150   9.4333   9.4585   9.5010
     9.5176   9.5321   9.5434   9.5546   9.5918   9.6308   9.7405   9.7521
     9.7977   9.8156   9.8287   9.8681   9.9005   9.9870   9.9898  10.0418
    10.1260  10.1706  10.1850  10.1884  10.2622  10.2644  10.2674  10.3254
    10.4048  10.4312  10.4403  10.4768

          k =-0.5000 0.0000 0.0000 (256496 PWs)   bands (ev):

   -14.9002 -14.8995 -14.5216 -14.5211 -14.5176 -14.5173 -13.4262 -13.4259
   -13.4254 -13.4249 -11.6508 -11.6499 -11.6487 -11.6480 -11.0845 -11.0826
   -10.7465 -10.7439 -10.7399 -10.7359 -10.0930 -10.0930  -9.6793  -9.6790
    -9.1036  -9.1034  -8.6977  -8.6970  -7.8619  -7.8614  -7.8599  -7.8589
    -6.3649  -6.3643  -6.3005  -6.2992  -6.2931  -6.2926  -4.8491  -4.8480
    -4.5219  -4.5211  -4.1276  -4.1257  -4.0205  -4.0168  -4.0100  -4.0047
    -3.7049  -3.7035  -3.7003  -3.6988  -3.6137  -3.6131  -3.6128  -3.6119
    -3.6117  -3.6047  -3.3310  -3.3272  -3.3249  -3.3205  -3.1365  -3.1353
    -3.0567  -3.0533  -3.0057  -3.0038  -2.6314  -2.6302  -2.6294  -2.6276
    -2.5605  -2.5596  -2.5455  -2.5437  -2.3275  -2.3268  -2.3126  -2.3119
    -2.3115  -2.3104  -2.3072  -2.2944  -1.9950  -1.9894  -1.9036  -1.9003
    -1.7399  -1.7377  -1.7230  -1.7222  -1.7178  -1.7177  -1.7135  -1.7120
    -1.3067  -1.3056  -1.2958  -1.2940  -1.1709  -1.1660  -1.1602  -1.1568
    -1.0896  -1.0885  -1.0883  -1.0881  -1.0823  -1.0816  -1.0581  -1.0578
    -0.8671  -0.8655  -0.8652  -0.8644  -0.8151  -0.8130  -0.8121  -0.8112
    -0.8017  -0.8012  -0.7157  -0.7151  -0.7139  -0.7133  -0.6575  -0.6569
    -0.6522  -0.6512  -0.6421  -0.6388  -0.6067  -0.6050  -0.5910  -0.5903
    -0.5686  -0.5657  -0.5604  -0.5602  -0.5302  -0.5300  -0.5276  -0.5266
    -0.5099  -0.5089  -0.4983  -0.4981  -0.4859  -0.4849  -0.4801  -0.4799
    -0.4170  -0.4156  -0.4116  -0.4105  -0.4080  -0.4015  -0.4003  -0.3991
    -0.3979  -0.3962  -0.3909  -0.3865  -0.3564  -0.3559  -0.3554  -0.3549
    -0.3284  -0.3282  -0.3277  -0.3268  -0.3072  -0.3033  -0.2951  -0.2918
    -0.2731  -0.2715  -0.2510  -0.2508  -0.2347  -0.2304  -0.2241  -0.2223
    -0.1908  -0.1887  -0.1839  -0.1829  -0.1747  -0.1736  -0.1715  -0.1686
    -0.1520  -0.1490  -0.1315  -0.1284  -0.1259  -0.1228  -0.1224  -0.1175
    -0.1132  -0.1081  -0.0847  -0.0832  -0.0445  -0.0424   0.0082   0.0113
     0.0493   0.0504   0.0650   0.0666   0.0711   0.0719   0.0798   0.0809
     0.1066   0.1088   0.1155   0.1171   0.1232   0.1252   0.1495   0.1505
     0.1722   0.1728   0.1742   0.1747   0.2004   0.2017   0.2211   0.2226
     0.2244   0.2249   0.2741   0.2768   0.3239   0.3249   0.3254   0.3257
     0.3275   0.3300   0.3300   0.3311   0.3614   0.3678   0.3692   0.3701
     0.3741   0.3764   0.3913   0.3942   0.4071   0.4086   0.4091   0.4113
     0.4417   0.4423   0.4549   0.4554   0.4593   0.4596   0.4801   0.4807
     0.4866   0.4895   0.4942   0.4944   0.5164   0.5170   0.5267   0.5275
     0.5401   0.5405   0.5410   0.5429   0.5704   0.5722   0.5851   0.5856
     0.5913   0.5917   0.6195   0.6200   0.6219   0.6253   0.6449   0.6464
     0.6570   0.6591   0.6600   0.6603   0.6763   0.6768   0.6852   0.6866
     0.6958   0.6986   0.7207   0.7214   0.7381   0.7389   0.7426   0.7432
     0.7480   0.7499   0.7536   0.7547   0.7589   0.7593   0.7627   0.7680
     0.7706   0.7712   0.7839   0.7853   0.7979   0.7980   0.7990   0.8002
     0.8348   0.8358   0.8436   0.8447   0.8622   0.8624   0.8695   0.8701
     0.8741   0.8761   0.8768   0.8801   0.8895   0.8901   0.8936   0.8940
     0.8962   0.8980   0.9036   0.9047   0.9104   0.9108   0.9134   0.9153
     0.9297   0.9298   0.9336   0.9354   0.9368   0.9376   0.9458   0.9459
     0.9588   0.9603   0.9630   0.9650   0.9900   0.9917   1.0027   1.0043
     1.0603   1.0635   1.0668   1.0674   1.0879   1.0887   1.0942   1.0952
     1.1042   1.1043   1.1050   1.1071   1.1107   1.1124   1.1204   1.1208
     1.1352   1.1361   1.1419   1.1434   1.1447   1.1463   1.1518   1.1541
     1.1609   1.1624   1.1628   1.1661   1.1673   1.1679   1.1727   1.1745
     1.1835   1.1855   1.1951   1.1969   1.2092   1.2111   1.2127   1.2190
     1.2583   1.2593   1.2631   1.2657   1.2759   1.2760   1.2783   1.2807
     1.2875   1.2895   1.2902   1.2911   1.3079   1.3099   1.3162   1.3224
     1.3269   1.3287   1.3294   1.3299   1.3495   1.3514   1.3534   1.3537
     1.3558   1.3577   1.3600   1.3609   1.3641   1.3682   1.3760   1.3849
     1.3985   1.4004   1.4020   1.4040   1.4129   1.4144   1.4174   1.4177
     1.4270   1.4280   1.4302   1.4376   1.4400   1.4417   1.4435   1.4441
     1.4590   1.4643   1.4674   1.4689   1.4693   1.4740   1.4800   1.4964
     1.5083   1.5141   1.5194   1.5284   1.5289   1.5294   1.5372   1.5377
     1.5418   1.5457   1.5560   1.5564   1.5677   1.5684   1.5744   1.5763
     1.5832   1.5874   1.5972   1.5994   1.6081   1.6093   1.6126   1.6129
     1.6141   1.6194   1.6240   1.6273   1.6404   1.6434   1.6493   1.6496
     1.6501   1.6506   1.6540   1.6546   1.6689   1.6742   1.6832   1.6843
     1.6891   1.6909   1.7040   1.7047   1.7146   1.7179   1.7196   1.7320
     1.7510   1.7561   1.7576   1.7611   1.7698   1.7734   1.7749   1.7769
     1.7828   1.7846   1.8019   1.8032   1.8169   1.8185   1.8204   1.8296
     1.8464   1.8470   1.8493   1.8555   1.8576   1.8578   1.8589   1.8609
     1.8669   1.8679   1.8770   1.8798   1.8897   1.8963   1.9022   1.9025
     1.9063   1.9066   1.9071   1.9082   1.9239   1.9254   1.9264   1.9266
     1.9273   1.9279   1.9294   1.9296   1.9452   1.9476   1.9521   1.9525
     1.9625   1.9647   1.9708   1.9719   1.9891   1.9948   1.9951   1.9963
     1.9973   1.9995   2.0020   2.0025   2.0027   2.0076   2.0125   2.0182
     2.0187   2.0194   2.0290   2.0303   2.0309   2.0335   2.0376   2.0380
     2.0528   2.0532   2.0700   2.0710   2.0760   2.0775   2.0821   2.0836
     2.0877   2.0881   2.0975   2.0994   2.1000   2.1009   2.1027   2.1037
     2.1046   2.1061   2.1113   2.1116   2.1137   2.1163   2.1175   2.1177
     2.1184   2.1236   2.1259   2.1277   2.1399   2.1404   2.1509   2.1528
     2.1557   2.1578   2.1721   2.1722   2.1728   2.1736   2.1922   2.1927
     2.1934   2.1938   2.1979   2.1995   2.2020   2.2029   2.2066   2.2086
     2.2103   2.2107   2.2155   2.2173   2.2176   2.2190   2.2336   2.2338
     2.2428   2.2439   2.2496   2.2499   2.2630   2.2663   2.2752   2.2758
     2.2831   2.2845   2.2877   2.2882   2.2933   2.2934   2.2950   2.2952
     2.3066   2.3067   2.3394   2.3421   2.3463   2.3465   2.3654   2.3673
     2.3838   2.3851   2.3914   2.3919   2.4074   2.4079   2.4699   2.4721
     2.5212   2.5229   2.6875   2.6889   2.9745   2.9759   2.9946   2.9970
     3.0549   3.0565   3.0644   3.0646   3.0739   3.0748   3.4945   3.4958
     3.5396   3.5400   3.7029   3.7045   3.7833   3.7842   3.9266   3.9272
     3.9424   3.9436   3.9795   3.9820   4.1084   4.1088   4.5718   4.5731
     4.5932   4.5934   4.6915   4.6932   4.7235   4.7312   4.7807   4.7840
     4.8754   4.8758   5.3765   5.3781   5.3871   5.3929   5.4528   5.4556
     5.5285   5.5302   5.5529   5.5572   5.6136   5.6141   5.6354   5.6398
     5.7073   5.7452   5.7726   5.7901   5.7954   5.7974   5.8222   5.8318
     5.8595   5.8691   6.0410   6.0455   6.0528   6.0597   6.3132   6.3271
     6.3374   6.3395   6.4034   6.4152   6.4807   6.4980   6.6365   6.6387
     6.6450   6.6528   6.7373   6.7418   6.8002   6.8119   6.9446   6.9456
     7.0353   7.0361   7.1866   7.1916   7.4932   7.4976   7.5690   7.5702
     7.5784   7.6008   7.6033   7.6350   7.9314   7.9322   7.9861   7.9884
     8.1952   8.1985   8.3273   8.3325   8.3414   8.3433   8.3523   8.3528
     8.4662   8.4670   8.5305   8.5308   8.5705   8.5722   8.6266   8.6295
     8.6647   8.6660   8.8291   8.8379   8.8981   8.8986   8.9645   8.9664
     9.0649   9.0676   9.1738   9.1740   9.3072   9.3099   9.4394   9.4407
     9.4706   9.4730   9.5499   9.5538   9.5858   9.5860   9.6903   9.6908
     9.6941   9.6945   9.8375   9.8402   9.8770   9.8784   9.9562   9.9574
    10.0968  10.0989  10.3461  10.3477  10.3568  10.3592  10.3908  10.3911
    10.4649  10.4699  10.6390  10.6396

          k =-0.5000-0.2165 0.0000 (256328 PWs)   bands (ev):

   -14.8414 -14.8403 -14.7614 -14.7613 -14.0666 -14.0662 -14.0583 -14.0578
   -12.6181 -12.6178 -12.6169 -12.6164 -11.0332 -11.0298 -10.9547 -10.9535
   -10.5728 -10.5722 -10.5339 -10.5337 -10.3941 -10.3862 -10.3515 -10.3447
    -8.7012  -8.7002  -8.6514  -8.6501  -7.7206  -7.7195  -7.7019  -7.7017
    -6.9755  -6.9745  -6.9210  -6.9199  -4.8746  -4.8744  -4.8742  -4.8736
    -4.4218  -4.4201  -4.3629  -4.3589  -4.2685  -4.2628  -4.2348  -4.2302
    -4.0588  -4.0564  -3.9778  -3.9771  -3.6045  -3.5883  -3.4076  -3.4058
    -3.3944  -3.3899  -3.3216  -3.3150  -3.1513  -3.1501  -3.1495  -3.1476
    -3.0070  -3.0026  -2.8005  -2.8003  -2.6380  -2.6355  -2.6051  -2.6022
    -2.6017  -2.5979  -2.5948  -2.5941  -2.5719  -2.5685  -2.5618  -2.5609
    -2.2587  -2.2519  -2.0482  -2.0469  -1.9910  -1.9890  -1.8949  -1.8936
    -1.7839  -1.7834  -1.7821  -1.7809  -1.5117  -1.5059  -1.4671  -1.4659
    -1.2979  -1.2959  -1.2867  -1.2848  -1.2843  -1.2839  -1.2786  -1.2775
    -1.1205  -1.1151  -1.0316  -1.0305  -0.9997  -0.9981  -0.9963  -0.9950
    -0.9428  -0.9427  -0.9261  -0.9246  -0.8703  -0.8688  -0.7874  -0.7837
    -0.7018  -0.7014  -0.6948  -0.6933  -0.6796  -0.6790  -0.6478  -0.6441
    -0.6389  -0.6381  -0.6334  -0.6297  -0.6209  -0.6195  -0.5943  -0.5940
    -0.5903  -0.5896  -0.5890  -0.5870  -0.5797  -0.5759  -0.5740  -0.5732
    -0.5681  -0.5680  -0.5049  -0.5028  -0.4461  -0.4452  -0.4389  -0.4372
    -0.4219  -0.4175  -0.4145  -0.4129  -0.3923  -0.3918  -0.3898  -0.3890
    -0.3639  -0.3611  -0.3604  -0.3594  -0.3561  -0.3557  -0.3529  -0.3524
    -0.3463  -0.3450  -0.3441  -0.3428  -0.3356  -0.3300  -0.2935  -0.2866
    -0.2779  -0.2770  -0.2698  -0.2681  -0.2580  -0.2569  -0.2461  -0.2437
    -0.2425  -0.2402  -0.2363  -0.2339  -0.1883  -0.1814  -0.1757  -0.1719
    -0.1387  -0.1298  -0.1177  -0.1161  -0.0677  -0.0651  -0.0583  -0.0569
    -0.0333  -0.0310  -0.0221  -0.0211   0.0034   0.0038   0.0167   0.0216
     0.0273   0.0280   0.0337   0.0360   0.0365   0.0383   0.0481   0.0500
     0.0675   0.0712   0.0848   0.0867   0.0915   0.0930   0.0939   0.0957
     0.0993   0.1019   0.1150   0.1177   0.2157   0.2177   0.2200   0.2236
     0.2454   0.2476   0.2576   0.2584   0.2668   0.2696   0.2955   0.2975
     0.3019   0.3025   0.3183   0.3194   0.3251   0.3324   0.3489   0.3506
     0.3604   0.3616   0.3622   0.3628   0.3715   0.3824   0.4016   0.4043
     0.4194   0.4222   0.4406   0.4414   0.4564   0.4614   0.4906   0.4910
     0.4957   0.4973   0.5211   0.5220   0.5266   0.5277   0.5303   0.5309
     0.5350   0.5351   0.5369   0.5375   0.5534   0.5556   0.5811   0.5826
     0.5865   0.5890   0.6152   0.6166   0.6179   0.6197   0.6220   0.6222
     0.6508   0.6523   0.6633   0.6646   0.6672   0.6687   0.6692   0.6698
     0.6829   0.6830   0.6851   0.6858   0.6910   0.6916   0.7328   0.7351
     0.7363   0.7368   0.7706   0.7720   0.7729   0.7743   0.7913   0.7948
     0.7988   0.8018   0.8119   0.8132   0.8157   0.8171   0.8219   0.8224
     0.8419   0.8422   0.8576   0.8596   0.8613   0.8623   0.8643   0.8646
     0.8704   0.8715   0.8797   0.8803   0.8842   0.8843   0.8983   0.8998
     0.9002   0.9031   0.9167   0.9171   0.9187   0.9200   0.9338   0.9342
     0.9369   0.9374   0.9516   0.9525   0.9529   0.9538   0.9734   0.9762
     0.9926   0.9942   0.9968   0.9975   1.0003   1.0019   1.0226   1.0232
     1.0371   1.0389   1.0442   1.0470   1.0817   1.0825   1.0886   1.0900
     1.1108   1.1112   1.1131   1.1135   1.1283   1.1309   1.1329   1.1346
     1.1438   1.1454   1.1486   1.1495   1.1558   1.1577   1.1604   1.1618
     1.1660   1.1672   1.1742   1.1748   1.1838   1.1855   1.1917   1.2059
     1.2135   1.2225   1.2239   1.2250   1.2379   1.2381   1.2399   1.2404
     1.2418   1.2433   1.2457   1.2501   1.2607   1.2628   1.2719   1.2780
     1.2919   1.2955   1.2989   1.2999   1.3050   1.3092   1.3164   1.3240
     1.3387   1.3397   1.3426   1.3441   1.3451   1.3507   1.3509   1.3543
     1.3581   1.3593   1.3728   1.3771   1.3780   1.3800   1.3943   1.3989
     1.4051   1.4084   1.4111   1.4125   1.4130   1.4260   1.4273   1.4301
     1.4334   1.4339   1.4346   1.4495   1.4551   1.4567   1.4574   1.4579
     1.4704   1.4715   1.4728   1.4735   1.4894   1.4903   1.4981   1.4989
     1.5109   1.5114   1.5121   1.5139   1.5200   1.5210   1.5405   1.5437
     1.5489   1.5504   1.5562   1.5575   1.5636   1.5648   1.5670   1.5702
     1.5812   1.5866   1.5932   1.5934   1.5974   1.5984   1.6120   1.6140
     1.6242   1.6317   1.6444   1.6492   1.6505   1.6515   1.6654   1.6679
     1.6817   1.6900   1.6974   1.7011   1.7227   1.7256   1.7285   1.7311
     1.7353   1.7378   1.7386   1.7391   1.7545   1.7547   1.7603   1.7622
     1.7666   1.7699   1.7709   1.7716   1.7917   1.7967   1.8053   1.8064
[...]
     atom   77 type  1   force =    -0.00031722   -0.00038075   -0.00111281
     atom   78 type  1   force =    -0.00003277   -0.00146352    0.00283678
     atom   79 type  1   force =     0.00031990   -0.00026877   -0.00118224
     atom   80 type  1   force =     0.00003230    0.00046012    0.00187349
     atom   81 type  1   force =     0.00024156   -0.00152478    0.00040548
     atom   82 type  1   force =     0.00001665    0.00170052    0.00151647
     atom   83 type  1   force =    -0.00024646   -0.00143998    0.00040305
     atom   84 type  1   force =    -0.00001963    0.00185744    0.00229592
     atom   85 type  1   force =     0.00139277    0.00176555    0.00126468
     atom   86 type  1   force =     0.00013131   -0.00528359   -0.00024680
     atom   87 type  1   force =    -0.00138166    0.00183730    0.00133083
     atom   88 type  1   force =    -0.00009513    0.00079855    0.00246829
     atom   89 type  1   force =    -0.00316762   -0.00133728    0.00296087
     atom   90 type  1   force =     0.00003614    0.00577969    0.00084121
     atom   91 type  1   force =     0.00309622   -0.00151329    0.00298191
     atom   92 type  1   force =    -0.00002085    0.00174348    0.00600302
     atom   93 type  1   force =    -0.00003690   -0.00043292    0.00236105
     atom   94 type  1   force =    -0.00010804   -0.00053406    0.00104613
     atom   95 type  1   force =     0.00006357   -0.00086467    0.00278543
     atom   96 type  1   force =     0.00010246   -0.00210420    0.00202168
     atom   97 type  1   force =     0.00021511   -0.00103336    0.00193150
     atom   98 type  1   force =    -0.00002588    0.00145725    0.00015985
     atom   99 type  1   force =    -0.00021553   -0.00090427    0.00197402
     atom  100 type  1   force =     0.00002889    0.00092834    0.00027649
     atom  101 type  1   force =     0.00006009    0.00060635   -0.00148730
     atom  102 type  1   force =    -0.00010228    0.00037745   -0.00271618
     atom  103 type  1   force =    -0.00116964    0.00227068   -0.00031243
     atom  104 type  1   force =    -0.00001236   -0.00271138   -0.00003888
     atom  105 type  1   force =     0.00119466    0.00252618   -0.00062581
     atom  106 type  1   force =     0.00002355   -0.00092894   -0.00175964
     atom  107 type  1   force =    -0.00062220   -0.00135196   -0.00047643
     atom  108 type  1   force =     0.00058886   -0.00118040   -0.00053189
     atom  109 type  2   force =     0.00001908    0.00072778   -0.00012043
     atom  110 type  2   force =    -0.00000478   -0.00102695    0.00181433
     atom  111 type  2   force =     0.00006117   -0.00154023   -0.00164300
     atom  112 type  2   force =    -0.00008689   -0.00018937   -0.00373886
     atom  113 type  2   force =    -0.00009478    0.00098537    0.00096042
     atom  114 type  2   force =     0.00002064   -0.00078152   -0.00158685
     atom  115 type  2   force =    -0.00003856   -0.00064840    0.00086511
     atom  116 type  2   force =     0.00000790    0.00083856   -0.00201552
     atom  117 type  2   force =     0.00013735    0.00096142    0.00096179
     atom  118 type  2   force =    -0.00003243   -0.00081367   -0.00189386
     atom  119 type  2   force =    -0.00010913   -0.00154844   -0.00141881
     atom  120 type  2   force =     0.00008425   -0.00013454   -0.00345570
     atom  121 type  2   force =    -0.00006179   -0.00098486    0.00099609
     atom  122 type  2   force =    -0.00006179    0.00136550   -0.00023166
     atom  123 type  2   force =    -0.00040805    0.00007803   -0.00379668
     atom  124 type  2   force =    -0.00083377   -0.00147350   -0.00386323
     atom  125 type  2   force =     0.00012432    0.00016533   -0.00113375
     atom  126 type  2   force =     0.00077502    0.00121791   -0.00041924
     atom  127 type  2   force =     0.00002760   -0.00015134   -0.00076534
     atom  128 type  2   force =     0.00003862   -0.00180402   -0.00031481
     atom  129 type  2   force =    -0.00020407    0.00025382   -0.00143802
     atom  130 type  2   force =    -0.00089851    0.00116037   -0.00059681
     atom  131 type  2   force =     0.00056097    0.00008656   -0.00346911
     atom  132 type  2   force =     0.00098125   -0.00143873   -0.00391789
     atom  133 type  2   force =    -0.00002756   -0.00128738   -0.00073305
     atom  134 type  2   force =    -0.00000184   -0.00042250   -0.00153536
     atom  135 type  2   force =     0.00074934    0.00125870   -0.00115148
     atom  136 type  2   force =     0.00039360   -0.00010976   -0.00229260
     atom  137 type  2   force =    -0.00058540   -0.00108852   -0.00027969
     atom  138 type  2   force =    -0.00039881    0.00024490    0.00032095
     atom  139 type  2   force =     0.00006847    0.00184202   -0.00510908
     atom  140 type  2   force =     0.00001766    0.00055541   -0.00402496
     atom  141 type  2   force =     0.00043723   -0.00112475    0.00001266
     atom  142 type  2   force =     0.00040716    0.00024247    0.00050602
     atom  143 type  2   force =    -0.00067587    0.00119581   -0.00129577
     atom  144 type  2   force =    -0.00039006   -0.00009598   -0.00261806
     atom  145 type  2   force =     0.00002399    0.00069820   -0.00270728
     atom  146 type  2   force =     0.00002063   -0.00091470    0.00066424
     atom  147 type  2   force =     0.00014120   -0.00039757   -0.00224164
     atom  148 type  2   force =    -0.00011828    0.00095435   -0.00000900
     atom  149 type  2   force =    -0.00022772    0.00081138    0.00101163
     atom  150 type  2   force =     0.00021986   -0.00076026    0.00034022
     atom  151 type  2   force =    -0.00002305   -0.00002348   -0.00460744
     atom  152 type  2   force =    -0.00001363    0.00169069   -0.00289490
     atom  153 type  2   force =     0.00028566    0.00079694    0.00131207
     atom  154 type  2   force =    -0.00022333   -0.00072832    0.00016685
     atom  155 type  2   force =    -0.00017120   -0.00036352   -0.00220979
     atom  156 type  2   force =     0.00011462    0.00093515   -0.00020815

     Total force =     0.030886     Total SCF correction =     0.000412

     number of scf cycles    =  12
     number of bfgs steps    =  11

     energy   old            =  -13670.8763568755 Ry
     energy   new            =  -13670.8780131245 Ry

     CASE: energy  _new < energy  _old

     new trust radius        =       0.0397000429 bohr
     new conv_thr            =       0.0000000100 Ry


ATOMIC_POSITIONS (angstrom)
Cu       0.000247566   0.008568706   6.381289417
Cu       1.844515345   1.716983622   6.389283031
Cu       3.688784135   0.008663867   6.381325010
Cu       5.533551723   1.718533488   6.388148054
Cu      -0.000670791   3.419317872   6.401019621
Cu       1.844513812   5.115139764   6.406430473
Cu       3.689696190   3.419256348   6.401029914
Cu       5.533554924   5.114456011   6.405045499
Cu       0.000680374   6.815778498   6.400994975
Cu       1.844521570   8.519846854   6.402814415
Cu       3.688348391   6.815805232   6.401011216
Cu       5.533542104   8.520279462   6.400935997
Cu      -0.000592021  10.220092198   6.407421970
Cu       1.844489972  11.917417418   6.402220831
Cu       3.689624057  10.220043840   6.407378761
Cu       5.533572084  11.916778152   6.400630529
Cu       0.000356181  13.619392430   6.387571745
Cu       1.844510085  15.326732183   6.378909227
Cu       3.688680477  13.619413758   6.387762356
Cu       5.533557135  15.326847847   6.382307406
Cu       0.000184630   1.713871957   8.222683464
Cu       1.844519805   0.003588296   8.204469858
Cu       3.688844081   1.713757040   8.222586593
Cu       5.533547334   0.005943759   8.203573202
Cu      -0.000789411   5.139842789   8.247285518
Cu       1.844541054   3.424704828   8.228411004
Cu       3.689817286   5.139537338   8.247288543
Cu       5.533529479   3.425426166   8.229604476
Cu      -0.000807775   8.502031550   8.270409862
Cu       1.844486759   6.831403704   8.270905009
Cu       3.689834670   8.502142441   8.270728306
Cu       5.533574460   6.831587907   8.270818997
Cu       0.000373701  11.910735482   8.230241636
Cu       1.844435227  10.197499233   8.245548202
Cu       3.688657553  11.910779659   8.230337201
Cu       5.533629312  10.197031511   8.247658784
Cu       0.000182129  15.332236740   8.203659371
Cu       1.844482816  13.623569186   8.223639106
Cu       3.688851363  15.332513965   8.203375106
Cu       5.533577656  13.621259310   8.222484217
Cu       0.000103013  -0.003048063  10.049023584
Cu       1.844451243   1.705964535  10.061464228
Cu       3.688927854  -0.003250833  10.049014300
Cu       5.533625036   1.706627383  10.063360421
Cu      -0.001324609   3.410729373  10.075188274
Cu       1.844466558   5.113940223  10.110144672
Cu       3.690359154   3.410537163  10.075403457
Cu       5.533587142   5.109775635  10.112074208
Cu      -0.000084853   6.813096303  10.157504942
Cu       1.844309449   8.522365043  10.155586890
Cu       3.689095876   6.812681836  10.156792874
Cu       5.533750959   8.524448446  10.156108174
Cu      -0.000349009  10.221748044  10.108973003
Cu       1.844450726  11.925761185  10.074756125
Cu       3.689367803  10.221916355  10.108726931
Cu       5.533611594  11.923589015  10.076036403
Cu      -0.000108672  13.629105318  10.063725125
Cu       1.844490150  15.340249620  10.048928343
Cu       3.689131773  13.629089264  10.063729436
Cu       5.533571734  15.339386517  10.052110224
Cu      -0.002566445   1.692187675  11.903258893
Cu       1.844584242  -0.006688027  11.899957190
Cu       3.691611519   1.691626943  11.902723852
Cu       5.533486512  -0.008963931  11.902306165
Cu       0.001310945   5.055183872  11.994657249
Cu       1.844396383   3.393885309  11.936267417
Cu       3.687660492   5.055250547  11.994961002
Cu       5.533656599   3.390596644  11.936829229
Cu       0.002019940   8.576105464  12.013899889
Cu       1.844230723   6.760829708  12.009533095
Cu       3.686964199   8.575268797  12.012196228
Cu       5.533817153   6.763001905  12.014203488
Cu      -0.003304636  11.943937407  11.935048114
Cu       1.844284780  10.277807922  11.994829986
Cu       3.692329888  11.944344744  11.934577866
Cu       5.533815079  10.285587984  11.992365848
Cu      -0.000125202  15.343343487  11.902407523
Cu       1.844595022  13.641146963  11.902261078
Cu       3.689132122  15.343011124  11.902365067
Cu       5.533458501  13.640047108  11.905233445
Cu       0.000434429  -0.007397548  13.753775301
Cu       1.844581906   1.653100609  13.755881981
Cu       3.688604537  -0.007978317  13.753749940
Cu       5.533456945   1.645569303  13.754841822
Cu      -0.001678580   3.287948589  13.847380707
Cu       1.843470182   4.987159022  13.901966209
Cu       3.690653416   3.288175124  13.845578089
Cu       5.534560448   4.966124776  13.890004416
Cu       0.012517224   6.786278946  13.778544471
Cu       1.844510745   8.534599045  13.787762425
Cu       3.676737735   6.786545776  13.776825003
Cu       5.533571519   8.547566188  13.766553796
Cu      -0.000087118  10.374430180  13.895673217
Cu       1.845732604  12.045724012  13.846420501
Cu       3.689069750  10.370355050  13.887078521
Cu       5.532324998  12.050714687  13.848511792
Cu      -0.000023087  13.682688012  13.754404788
Cu       1.844375364  15.342355557  13.753809679
Cu       3.689036899  13.683554604  13.754386137
Cu       5.533667178  15.344837427  13.754046551
Cu       1.853263009  10.203841271  15.598170457
Cu       5.525050556  10.201381814  15.605088183
Cu       0.001258666   8.508082395  15.589275607
Cu       1.841465318   6.841018866  15.613503691
Cu       3.687651483   8.496598694  15.592694315
Cu       5.536423588   6.833543449  15.592211299
Cu       0.002487820   5.135542356  15.600360712
Cu       3.686679801   5.136466015  15.597365790
C        0.000013901   0.710254405  18.896966040
C       -0.000017831   2.129902405  18.848706455
C        1.229869651  -0.000226634  18.908124238
C        1.229712620   2.838523012  18.814566452
C        2.459367620   0.709595053  18.896636342
C        2.459624863   2.129216608  18.847040776
C        3.689047779  -0.000853827  18.903573599
C        3.689055601   2.837280360  18.807437390
C        4.918767028   0.709594725  18.896916638
C        4.918454430   2.129200517  18.846934585
C        6.148210861  -0.000228175  18.908110692
C        6.148339848   2.838512770  18.813921494
C       -0.000044958   4.966246454  18.705937345
C       -0.000088588   6.387673470  18.665823193
C        1.230460489   4.255799891  18.738481050
C        1.229038718   7.098301967  18.664286930
C        2.458947844   4.965739420  18.701424268
C        2.459936494   6.386181998  18.665662149
C        3.689063430   4.254996618  18.735599494
C        3.689140961   7.097088723  18.657410472
C        4.919105433   4.965865321  18.701184953
C        4.918188786   6.386229444  18.666600528
C        6.147641312   4.255791111  18.738103547
C        6.149056610   7.098278772  18.665037648
C        0.000003976   9.231404612  18.677899904
C        0.000013225  10.650609374  18.720174256
C        1.229798072   8.519474385  18.663824475
C        1.228941707  11.360985997  18.754494753
C        2.458696285   9.230016333  18.665991032
C        2.459471826  10.650415778  18.712660475
C        3.689090316   8.518346847  18.662066609
C        3.689055437  11.360887797  18.745868394
C        4.919392311   9.229970670  18.665271747
C        4.918646479  10.650455478  18.712144438
C        6.148370301   8.519333446  18.662967584
C        6.149170723  11.361006476  18.754505436
C       -0.000001345  13.487206468  18.861085063
C        0.000002888  14.907378061  18.904698644
C        1.229751864  12.778410619  18.824208671
C        1.229497487  15.617311138  18.909260379
C        2.459059466  13.486680088  18.858735534
C        2.459508612  14.906728208  18.902906124
C        3.689031569  12.777183670  18.825593057
C        3.689050535  15.616741727  18.910648829
C        4.919031953  13.486700796  18.858398985
C        4.918585336  14.906739807  18.902750531
C        6.148292007  12.778437252  18.824298917
C        6.148578501  15.617314332  18.909211345



     Writing output data file gc.save
     Check: negative starting charge=   -0.003874
     NEW-OLD atomic charge density approx. for the potential
     Check: negative starting charge=   -0.003893

     negative rho (up, down):  4.837E-04 0.000E+00

     total cpu time spent up to now is    45192.6 secs

     Self-consistent Calculation

     iteration #  1     ecut=    80.00 Ry     beta=0.70
     Davidson diagonalization with overlap
     ethr =  1.00E-06,  avg # of iterations = 11.7

     negative rho (up, down):  1.947E-06 0.000E+00

     total cpu time spent up to now is    45820.9 secs

     total energy              =  -13670.87162274 Ry
     Harris-Foulkes estimate   =  -13670.89756205 Ry
     estimated scf accuracy    <       0.44523539 Ry

     iteration #  2     ecut=    80.00 Ry     beta=0.70
     Davidson diagonalization with overlap
     ethr =  3.23E-05,  avg # of iterations =  1.0

     negative rho (up, down):  4.688E-07 0.000E+00

     total cpu time spent up to now is    45975.4 secs

     total energy              =  -13670.87216932 Ry
     Harris-Foulkes estimate   =  -13670.88775576 Ry
     estimated scf accuracy    <       0.06895117 Ry

     iteration #  3     ecut=    80.00 Ry     beta=0.70
     Davidson diagonalization with overlap
     ethr =  5.00E-06,  avg # of iterations =  5.8

     negative rho (up, down):  3.030E-08 0.000E+00

     total cpu time spent up to now is    46202.1 secs

     total energy              =  -13670.87639134 Ry
     Harris-Foulkes estimate   =  -13670.88405241 Ry
     estimated scf accuracy    <       0.12670631 Ry

     iteration #  4     ecut=    80.00 Ry     beta=0.70
     Davidson diagonalization with overlap
     ethr =  5.00E-06,  avg # of iterations =  4.7

     total cpu time spent up to now is    46405.1 secs

     total energy              =  -13670.87984346 Ry
     Harris-Foulkes estimate   =  -13670.88012588 Ry
     estimated scf accuracy    <       0.00421280 Ry

     iteration #  5     ecut=    80.00 Ry     beta=0.70
     Davidson diagonalization with overlap
     ethr =  3.05E-07,  avg # of iterations =  3.7

     negative rho (up, down):  2.397E-08 0.000E+00

     total cpu time spent up to now is    46596.6 secs

     total energy              =  -13670.87965895 Ry
     Harris-Foulkes estimate   =  -13670.88001958 Ry
     estimated scf accuracy    <       0.00399355 Ry

     iteration #  6     ecut=    80.00 Ry     beta=0.70
     Davidson diagonalization with overlap
     ethr =  2.89E-07,  avg # of iterations =  8.8

     negative rho (up, down):  4.567E-08 0.000E+00

     total cpu time spent up to now is    46858.6 secs

     total energy              =  -13670.87979656 Ry
     Harris-Foulkes estimate   =  -13670.87980681 Ry
     estimated scf accuracy    <       0.00080824 Ry

     iteration #  7     ecut=    80.00 Ry     beta=0.70
     Davidson diagonalization with overlap
     ethr =  5.86E-08,  avg # of iterations =  2.8

     negative rho (up, down):  1.364E-07 0.000E+00

     total cpu time spent up to now is    47034.9 secs

     total energy              =  -13670.87987884 Ry
     Harris-Foulkes estimate   =  -13670.87984305 Ry
     estimated scf accuracy    <       0.00016813 Ry

     iteration #  8     ecut=    80.00 Ry     beta=0.70
     Davidson diagonalization with overlap
     ethr =  1.22E-08,  avg # of iterations =  5.0

     negative rho (up, down):  1.094E-05 0.000E+00

     total cpu time spent up to now is    47246.5 secs

     total energy              =  -13670.87990951 Ry
     Harris-Foulkes estimate   =  -13670.87989335 Ry
     estimated scf accuracy    <       0.00006790 Ry

     iteration #  9     ecut=    80.00 Ry     beta=0.70
     Davidson diagonalization with overlap
     ethr =  4.92E-09,  avg # of iterations =  3.3

     negative rho (up, down):  4.831E-05 0.000E+00

     total cpu time spent up to now is    47433.6 secs

     total energy              =  -13670.87991604 Ry
     Harris-Foulkes estimate   =  -13670.87991431 Ry
     estimated scf accuracy    <       0.00001754 Ry

     iteration # 10     ecut=    80.00 Ry     beta=0.70
     Davidson diagonalization with overlap
     ethr =  1.27E-09,  avg # of iterations =  2.0

     negative rho (up, down):  2.061E-04 0.000E+00

     total cpu time spent up to now is    47601.3 secs

     total energy              =  -13670.87991808 Ry
     Harris-Foulkes estimate   =  -13670.87991736 Ry
     estimated scf accuracy    <       0.00000444 Ry

     iteration # 11     ecut=    80.00 Ry     beta=0.70
     Davidson diagonalization with overlap
     ethr =  3.21E-10,  avg # of iterations =  3.0

     negative rho (up, down):  2.765E-04 0.000E+00

     total cpu time spent up to now is    47787.7 secs

     total energy              =  -13670.87991872 Ry
     Harris-Foulkes estimate   =  -13670.87991898 Ry
     estimated scf accuracy    <       0.00000168 Ry

     iteration # 12     ecut=    80.00 Ry     beta=0.70
     Davidson diagonalization with overlap
     ethr =  1.22E-10,  avg # of iterations =  2.3

     negative rho (up, down):  2.987E-04 0.000E+00

     total cpu time spent up to now is    47962.5 secs

     total energy              =  -13670.87991886 Ry
     Harris-Foulkes estimate   =  -13670.87991900 Ry
     estimated scf accuracy    <       0.00000089 Ry

     iteration # 13     ecut=    80.00 Ry     beta=0.70
     Davidson diagonalization with overlap
     ethr =  6.45E-11,  avg # of iterations =  2.2

     negative rho (up, down):  2.883E-04 0.000E+00

     total cpu time spent up to now is    48135.4 secs

     total energy              =  -13670.87991893 Ry
     Harris-Foulkes estimate   =  -13670.87991896 Ry
     estimated scf accuracy    <       0.00000018 Ry

     iteration # 14     ecut=    80.00 Ry     beta=0.70
     Davidson diagonalization with overlap
