
     Program PWSCF v.5.4.0 starts on  9Mar2017 at 19:47:55 

     This program is part of the open-source Quantum ESPRESSO suite
     for quantum simulation of materials; please cite
         "P. Giannozzi et al., J. Phys.:Condens. Matter 21 395502 (2009);
          URL http://www.quantum-espresso.org", 
     in publications or presentations arising from this work. More details at
     http://www.quantum-espresso.org/quote

     Parallel version (MPI & OpenMP), running on      56 processor cores
     Number of MPI processes:                56
     Threads/MPI process:                     1
     R & G space division:  proc/nbgrp/npool/nimage =      56
     Waiting for input...
     Reading input from standard input

     Current dimensions of program PWSCF are:
     Max number of different atomic species (ntypx) = 10
     Max number of k-points (npk) =  40000
     Max angular momentum in pseudopotentials (lmaxx) =  3

     -------------------------------------
     Parameters for Dispersion Correction:
     -------------------------------------
       atom      VdW radius       C_6     

        Cu         2.952        374.666
        C          2.744         60.710

     Subspace diagonalization in iterative solution of the eigenvalue problem:
     one sub-group per band group will be used
     scalapack distributed-memory algorithm (size of sub-group:  5*  5 procs)

 
     Parallelization info
     --------------------
     sticks:   dense  smooth     PW     G-vecs:    dense   smooth      PW
     Min         114     114     54                15434    15434    4962
     Max         115     115     55                15451    15451    4968
     Sum        6411    6411   3039               864803   864803  278033
 


     bravais-lattice index     =            0
     lattice parameter (alat)  =      13.9425  a.u.
     unit-cell volume          =   21209.0878 (a.u.)^3
     number of atoms/cell      =          156
     number of atomic types    =            2
     number of electrons       =      1380.00
     number of Kohn-Sham states=          828
     kinetic-energy cutoff     =      80.0000  Ry
     charge density cutoff     =     180.0000  Ry
     convergence threshold     =      1.0E-08
     mixing beta               =       0.7000
     number of iterations used =            8  local-TF  mixing
     Exchange-correlation      =  SLA  PW   PBX  PBC ( 1  4  3  4 0 0)
     nstep                     =           50


     celldm(1)=  13.942539  celldm(2)=   0.000000  celldm(3)=   0.000000
     celldm(4)=   0.000000  celldm(5)=   0.000000  celldm(6)=   0.000000

     crystal axes: (cart. coord. in units of alat)
               a(1) = (   1.000000   0.000000   0.000000 )  
               a(2) = (   0.000000   2.309401   0.000000 )  
               a(3) = (   0.000000   0.000000   3.388418 )  

     reciprocal axes: (cart. coord. in units 2 pi/alat)
               b(1) = (  1.000000  0.000000  0.000000 )  
               b(2) = (  0.000000  0.433013  0.000000 )  
               b(3) = (  0.000000  0.000000  0.295123 )  


     PseudoPot. # 1 for Cu read from file:
     /home/549/hxw549/Short/pseudopotentials/Cu.pbe-n-van_ak.UPF
     MD5 check sum: 601f7c30f7467666bec936e0661ce3e1
     Pseudo is Ultrasoft + core correction, Zval = 11.0
     Generated by new atomic code, or converted to UPF format
     Using radial grid of  867 points,  6 beta functions with: 
                l(1) =   0
                l(2) =   0
                l(3) =   1
                l(4) =   1
                l(5) =   2
                l(6) =   2
     Q(r) pseudized with  8 coefficients,  rinner =    1.400   1.400   1.400
                                                       1.400   1.400

     PseudoPot. # 2 for C  read from file:
     /home/549/hxw549/Short/pseudopotentials/C.pbe-mt_gipaw.UPF
     MD5 check sum: 5ac2f21f2c440b14befe521540822c15
     Pseudo is Norm-conserving, Zval =  4.0
     Generated by new atomic code, or converted to UPF format
     Using radial grid of 1073 points,  1 beta functions with: 
                l(1) =   0

     atomic species   valence    mass     pseudopotential
        Cu            11.00    63.54600     Cu( 1.00)
        C              4.00    12.01070     C ( 1.00)

     No symmetry found



   Cartesian axes

     site n.     atom                  positions (alat units)
         1           Cu  tau(   1) = (   0.0000000   0.0000000   0.8578296  )
         2           Cu  tau(   2) = (   0.2499971   0.2309471   0.8578296  )
         3           Cu  tau(   3) = (   0.5000000   0.0000000   0.8578269  )
         4           Cu  tau(   4) = (   0.7500029   0.2309471   0.8578296  )
         5           Cu  tau(   5) = (   0.0000000   0.4618892   0.8578350  )
         6           Cu  tau(   6) = (   0.2499940   0.6928207   0.8578269  )
         7           Cu  tau(   7) = (   0.5000000   0.4618881   0.8578309  )
         8           Cu  tau(   8) = (   0.7500060   0.6928207   0.8578269  )
         9           Cu  tau(   9) = (   0.0000000   0.9237570   0.8578228  )
        10           Cu  tau(  10) = (   0.2499910   1.1547005   0.8578160  )
        11           Cu  tau(  11) = (   0.5000000   0.9237573   0.8578187  )
        12           Cu  tau(  12) = (   0.7500090   1.1547005   0.8578160  )
        13           Cu  tau(  13) = (   0.0000000   1.3856441   0.8578228  )
        14           Cu  tau(  14) = (   0.2499940   1.6165804   0.8578269  )
        15           Cu  tau(  15) = (   0.5000000   1.3856437   0.8578187  )
        16           Cu  tau(  16) = (   0.7500060   1.6165804   0.8578269  )
        17           Cu  tau(  17) = (   0.0000000   1.8475119   0.8578350  )
        18           Cu  tau(  18) = (   0.2499971   2.0784540   0.8578296  )
        19           Cu  tau(  19) = (   0.5000000   1.8475130   0.8578309  )
        20           Cu  tau(  20) = (   0.7500029   2.0784540   0.8578296  )
        21           Cu  tau(  21) = (   0.0000000   0.2309453   1.1060759  )
        22           Cu  tau(  22) = (   0.2499978   0.0000000   1.1060746  )
        23           Cu  tau(  23) = (   0.5000000   0.2309452   1.1060732  )
        24           Cu  tau(  24) = (   0.7500022   0.0000000   1.1060746  )
        25           Cu  tau(  25) = (   0.0000000   0.6928180   1.1060691  )
        26           Cu  tau(  26) = (   0.2499952   0.4618844   1.1060719  )
        27           Cu  tau(  27) = (   0.5000000   0.6928179   1.1060678  )
        28           Cu  tau(  28) = (   0.7500048   0.4618844   1.1060719  )
        29           Cu  tau(  29) = (   0.0000000   1.1547005   1.1060637  )
        30           Cu  tau(  30) = (   0.2499909   0.9237558   1.1060637  )
        31           Cu  tau(  31) = (   0.5000000   1.1547005   1.1060624  )
        32           Cu  tau(  32) = (   0.7500091   0.9237558   1.1060637  )
        33           Cu  tau(  33) = (   0.0000000   1.6165831   1.1060691  )
        34           Cu  tau(  34) = (   0.2499909   1.3856453   1.1060637  )
        35           Cu  tau(  35) = (   0.5000000   1.6165832   1.1060678  )
        36           Cu  tau(  36) = (   0.7500091   1.3856453   1.1060637  )
        37           Cu  tau(  37) = (   0.0000000   2.0784558   1.1060759  )
        38           Cu  tau(  38) = (   0.2499952   1.8475166   1.1060719  )
        39           Cu  tau(  39) = (   0.5000000   2.0784559   1.1060732  )
        40           Cu  tau(  40) = (   0.7500048   1.8475166   1.1060719  )
        41           Cu  tau(  41) = (   0.0000000   0.0000000   1.3553673  )
        42           Cu  tau(  42) = (   0.2499968   0.2309463   1.3553673  )
        43           Cu  tau(  43) = (   0.5000000   0.0000000   1.3553673  )
        44           Cu  tau(  44) = (   0.7500032   0.2309463   1.3553673  )
        45           Cu  tau(  45) = (   0.0000000   0.4618838   1.3553673  )
        46           Cu  tau(  46) = (   0.2499930   0.6928153   1.3553673  )
        47           Cu  tau(  47) = (   0.5000000   0.4618832   1.3553673  )
        48           Cu  tau(  48) = (   0.7500070   0.6928153   1.3553673  )
        49           Cu  tau(  49) = (   0.0000000   0.9237541   1.3553673  )
        50           Cu  tau(  50) = (   0.2499898   1.1547005   1.3553673  )
        51           Cu  tau(  51) = (   0.5000000   0.9237537   1.3553673  )
        52           Cu  tau(  52) = (   0.7500102   1.1547005   1.3553673  )
        53           Cu  tau(  53) = (   0.0000000   1.3856470   1.3553673  )
        54           Cu  tau(  54) = (   0.2499930   1.6165858   1.3553673  )
        55           Cu  tau(  55) = (   0.5000000   1.3856474   1.3553673  )
        56           Cu  tau(  56) = (   0.7500070   1.6165858   1.3553673  )
        57           Cu  tau(  57) = (   0.0000000   1.8475173   1.3553673  )
        58           Cu  tau(  58) = (   0.2499968   2.0784548   1.3553673  )
        59           Cu  tau(  59) = (   0.5000000   1.8475179   1.3553673  )
        60           Cu  tau(  60) = (   0.7500032   2.0784548   1.3553673  )
        61           Cu  tau(  61) = (   0.0000000   0.2309453   1.6046600  )
        62           Cu  tau(  62) = (   0.2499978   0.0000000   1.6046600  )
        63           Cu  tau(  63) = (   0.5000000   0.2309452   1.6046600  )
        64           Cu  tau(  64) = (   0.7500022   0.0000000   1.6046600  )
        65           Cu  tau(  65) = (   0.0000000   0.6928180   1.6046600  )
        66           Cu  tau(  66) = (   0.2499952   0.4618844   1.6046600  )
        67           Cu  tau(  67) = (   0.5000000   0.6928179   1.6046735  )
        68           Cu  tau(  68) = (   0.7500048   0.4618844   1.6046600  )
        69           Cu  tau(  69) = (   0.0000000   1.1547005   1.6046735  )
        70           Cu  tau(  70) = (   0.2499909   0.9237558   1.6046735  )
        71           Cu  tau(  71) = (   0.5000000   1.1547005   1.6046735  )
        72           Cu  tau(  72) = (   0.7500091   0.9237558   1.6046735  )
        73           Cu  tau(  73) = (   0.0000000   1.6165831   1.6046600  )
        74           Cu  tau(  74) = (   0.2499909   1.3856453   1.6046735  )
        75           Cu  tau(  75) = (   0.5000000   1.6165832   1.6046735  )
        76           Cu  tau(  76) = (   0.7500091   1.3856453   1.6046735  )
        77           Cu  tau(  77) = (   0.0000000   2.0784558   1.6046600  )
        78           Cu  tau(  78) = (   0.2499952   1.8475166   1.6046600  )
        79           Cu  tau(  79) = (   0.5000000   2.0784559   1.6046600  )
        80           Cu  tau(  80) = (   0.7500048   1.8475166   1.6046600  )
        81           Cu  tau(  81) = (   0.0000000   0.0000000   1.8529090  )
        82           Cu  tau(  82) = (   0.2499971   0.2309471   1.8529090  )
        83           Cu  tau(  83) = (   0.5000000   0.0000000   1.8529090  )
        84           Cu  tau(  84) = (   0.7500029   0.2309471   1.8529090  )
        85           Cu  tau(  85) = (   0.0000000   0.4618892   1.8528955  )
        86           Cu  tau(  86) = (   0.2499940   0.6928207   1.8529090  )
        87           Cu  tau(  87) = (   0.5000000   0.4618881   1.8529090  )
        88           Cu  tau(  88) = (   0.7500060   0.6928207   1.8529090  )
        89           Cu  tau(  89) = (   0.0000000   0.9237570   1.8529090  )
        90           Cu  tau(  90) = (   0.2499910   1.1547005   1.8529226  )
        91           Cu  tau(  91) = (   0.5000000   0.9237573   1.8529226  )
        92           Cu  tau(  92) = (   0.7500090   1.1547005   1.8529226  )
        93           Cu  tau(  93) = (   0.0000000   1.3856441   1.8529090  )
        94           Cu  tau(  94) = (   0.2499940   1.6165804   1.8529090  )
        95           Cu  tau(  95) = (   0.5000000   1.3856437   1.8529226  )
        96           Cu  tau(  96) = (   0.7500060   1.6165804   1.8529090  )
        97           Cu  tau(  97) = (   0.0000000   1.8475119   1.8528955  )
        98           Cu  tau(  98) = (   0.2499971   2.0784540   1.8529090  )
        99           Cu  tau(  99) = (   0.5000000   1.8475130   1.8529090  )
       100           Cu  tau( 100) = (   0.7500029   2.0784540   1.8529090  )
       101           Cu  tau( 101) = (   0.2499909   1.3856453   2.1000060  )
       102           Cu  tau( 102) = (   0.7500091   1.3856453   2.1000060  )
       103           Cu  tau( 103) = (   0.0000000   1.1547005   2.1000060  )
       104           Cu  tau( 104) = (   0.2499909   0.9237558   2.0926057  )
       105           Cu  tau( 105) = (   0.5000000   1.1547005   2.1000060  )
       106           Cu  tau( 106) = (   0.7500091   0.9237558   2.1000060  )
       107           Cu  tau( 107) = (   0.0000000   0.6928180   2.1000060  )
       108           Cu  tau( 108) = (   0.5000000   0.6928179   2.1000060  )
       109           C   tau( 109) = (   0.0000000   0.0961908   2.5751978  )
       110           C   tau( 110) = (   0.0000000   0.2887094   2.5751978  )
       111           C   tau( 111) = (   0.1666667   0.0000342   2.5751978  )
       112           C   tau( 112) = (   0.1666667   0.3848660   2.5751978  )
       113           C   tau( 113) = (   0.3333334   0.0961908   2.5751978  )
       114           C   tau( 114) = (   0.3333333   0.2887094   2.5751978  )
       115           C   tau( 115) = (   0.5000000   0.0000342   2.5751978  )
       116           C   tau( 116) = (   0.5000000   0.3848660   2.5751978  )
       117           C   tau( 117) = (   0.6666666   0.0961908   2.5751978  )
       118           C   tau( 118) = (   0.6666667   0.2887094   2.5751978  )
       119           C   tau( 119) = (   0.8333333   0.0000342   2.5751978  )
       120           C   tau( 120) = (   0.8333333   0.3848660   2.5751978  )
       121           C   tau( 121) = (   0.0000000   0.6735411   2.5751978  )
       122           C   tau( 122) = (   0.0000000   0.8660596   2.5751978  )
       123           C   tau( 123) = (   0.1666667   0.5773845   2.5751978  )
       124           C   tau( 124) = (   0.1666666   0.9622162   2.5751978  )
       125           C   tau( 125) = (   0.3333333   0.6735411   2.5751978  )
       126           C   tau( 126) = (   0.3333333   0.8660596   2.5751978  )
       127           C   tau( 127) = (   0.5000000   0.5773845   2.5751978  )
       128           C   tau( 128) = (   0.5000000   0.9622162   2.5751978  )
       129           C   tau( 129) = (   0.6666667   0.6735411   2.5751978  )
       130           C   tau( 130) = (   0.6666667   0.8660596   2.5751978  )
       131           C   tau( 131) = (   0.8333333   0.5773845   2.5751978  )
       132           C   tau( 132) = (   0.8333334   0.9622162   2.5751978  )
       133           C   tau( 133) = (   0.0000000   1.2508913   2.5751978  )
       134           C   tau( 134) = (   0.0000000   1.4434099   2.5751978  )
       135           C   tau( 135) = (   0.1666666   1.1547348   2.5751978  )
       136           C   tau( 136) = (   0.1666667   1.5395665   2.5751978  )
       137           C   tau( 137) = (   0.3333333   1.2508914   2.5751978  )
       138           C   tau( 138) = (   0.3333333   1.4434099   2.5751978  )
       139           C   tau( 139) = (   0.5000000   1.1547348   2.5751978  )
       140           C   tau( 140) = (   0.5000000   1.5395665   2.5751978  )
       141           C   tau( 141) = (   0.6666667   1.2508914   2.5751978  )
       142           C   tau( 142) = (   0.6666667   1.4434099   2.5751978  )
       143           C   tau( 143) = (   0.8333334   1.1547348   2.5751978  )
       144           C   tau( 144) = (   0.8333333   1.5395665   2.5751978  )
       145           C   tau( 145) = (   0.0000000   1.8282416   2.5751978  )
       146           C   tau( 146) = (   0.0000000   2.0207602   2.5751978  )
       147           C   tau( 147) = (   0.1666667   1.7320851   2.5751978  )
       148           C   tau( 148) = (   0.1666667   2.1169167   2.5751978  )
       149           C   tau( 149) = (   0.3333334   1.8282416   2.5751978  )
       150           C   tau( 150) = (   0.3333334   2.0207601   2.5751978  )
       151           C   tau( 151) = (   0.5000000   1.7320851   2.5751978  )
       152           C   tau( 152) = (   0.5000000   2.1169167   2.5751978  )
       153           C   tau( 153) = (   0.6666666   1.8282416   2.5751978  )
       154           C   tau( 154) = (   0.6666666   2.0207601   2.5751978  )
       155           C   tau( 155) = (   0.8333333   1.7320851   2.5751978  )
       156           C   tau( 156) = (   0.8333333   2.1169167   2.5751978  )

     number of k points=     6  gaussian smearing, width (Ry)=  0.1000
                       cart. coord. in units 2pi/alat
        k(    1) = (   0.0000000   0.0000000   0.0000000), wk =   0.2500000
        k(    2) = (   0.0000000  -0.2165064   0.0000000), wk =   0.2500000
        k(    3) = (   0.2500000   0.0000000   0.0000000), wk =   0.5000000
        k(    4) = (   0.2500000  -0.2165064   0.0000000), wk =   0.5000000
        k(    5) = (  -0.5000000   0.0000000   0.0000000), wk =   0.2500000
        k(    6) = (  -0.5000000  -0.2165064   0.0000000), wk =   0.2500000

     Dense  grid:   864803 G-vectors     FFT dimensions: (  60, 144, 216)

     Largest allocated arrays     est. size (Mb)     dimensions
        Kohn-Sham Wavefunctions        58.29 Mb     (    4614,  828)
        NL pseudopotentials           140.24 Mb     (    4614, 1992)
        Each V/rho on FFT grid          0.53 Mb     (   34560)
        Each G-vector array             0.12 Mb     (   15451)
        G-vector shells                 0.06 Mb     (    7683)
     Largest temporary arrays     est. size (Mb)     dimensions
        Auxiliary wavefunctions       233.18 Mb     (    4614, 3312)
        Each subspace H/S matrix        6.69 Mb     (     662,  662)
        Each <psi_i|beta_j> matrix     25.17 Mb     (    1992,  828)
        Arrays for rho mixing           4.22 Mb     (   34560,    8)

     Initial potential from superposition of free atoms
     Check: negative starting charge=   -0.003584

     starting charge 1354.72292, renormalised to 1380.00000

     negative rho (up, down):  3.651E-03 0.000E+00
     Starting wfc are 1356 randomized atomic wfcs

     total cpu time spent up to now is       95.7 secs

     Self-consistent Calculation

     iteration #  1     ecut=    80.00 Ry     beta=0.70
     Davidson diagonalization with overlap
     c_bands:  4 eigenvalues not converged
     c_bands:  4 eigenvalues not converged
     c_bands:  4 eigenvalues not converged
     ethr =  1.00E-04,  avg # of iterations = 44.8

     negative rho (up, down):  2.900E+01 0.000E+00

     total cpu time spent up to now is     2505.5 secs

     total energy              =  -10847.55419184 Ry
     Harris-Foulkes estimate   =  -19830.31180630 Ry
     estimated scf accuracy    <  255520.00275074 Ry

     iteration #  2     ecut=    80.00 Ry     beta=0.70
     Davidson diagonalization with overlap
     ethr =  1.00E-02,  avg # of iterations = 13.8

     negative rho (up, down):  3.860E+01 0.000E+00

     total cpu time spent up to now is     3481.0 secs

     total energy              =  -12358.27503652 Ry
     Harris-Foulkes estimate   =  -14759.42068999 Ry
     estimated scf accuracy    <   40878.47980432 Ry

     iteration #  3     ecut=    80.00 Ry     beta=0.70
     Davidson diagonalization with overlap
     ethr =  1.00E-02,  avg # of iterations = 18.2

     negative rho (up, down):  3.026E+01 0.000E+00

     total cpu time spent up to now is     4880.6 secs

     total energy              =  -12466.64841827 Ry
     Harris-Foulkes estimate   =  -14958.65667969 Ry
     estimated scf accuracy    <    9445.35644578 Ry

     iteration #  4     ecut=    80.00 Ry     beta=0.70
     Davidson diagonalization with overlap
     ethr =  1.00E-02,  avg # of iterations =  5.0

     negative rho (up, down):  2.352E+01 0.000E+00

     total cpu time spent up to now is     5442.8 secs

     total energy              =  -13595.66609120 Ry
     Harris-Foulkes estimate   =  -14030.48623108 Ry
     estimated scf accuracy    <    5676.36619168 Ry

     iteration #  5     ecut=    80.00 Ry     beta=0.70
     Davidson diagonalization with overlap
     ethr =  1.00E-02,  avg # of iterations =  4.0

     negative rho (up, down):  1.935E+01 0.000E+00

     total cpu time spent up to now is     5916.0 secs

     total energy              =  -13680.74829389 Ry
     Harris-Foulkes estimate   =  -13940.97544400 Ry
     estimated scf accuracy    <    2012.19488960 Ry

     iteration #  6     ecut=    80.00 Ry     beta=0.70
     Davidson diagonalization with overlap
     ethr =  1.00E-02,  avg # of iterations =  3.3

     negative rho (up, down):  1.493E+01 0.000E+00

     total cpu time spent up to now is     6220.7 secs

     total energy              =  -13773.20716183 Ry
     Harris-Foulkes estimate   =  -13826.81798541 Ry
     estimated scf accuracy    <     789.82186823 Ry

     iteration #  7     ecut=    80.00 Ry     beta=0.70
     Davidson diagonalization with overlap
     ethr =  1.00E-02,  avg # of iterations =  1.0

     negative rho (up, down):  8.732E+00 0.000E+00

     total cpu time spent up to now is     6373.2 secs

     total energy              =  -13738.40271699 Ry
     Harris-Foulkes estimate   =  -13786.91508212 Ry
     estimated scf accuracy    <     341.23004172 Ry

     iteration #  8     ecut=    80.00 Ry     beta=0.70
     Davidson diagonalization with overlap
     ethr =  1.00E-02,  avg # of iterations =  1.0

     negative rho (up, down):  6.599E+00 0.000E+00

     total cpu time spent up to now is     6525.7 secs

     total energy              =  -13734.79323663 Ry
     Harris-Foulkes estimate   =  -13750.27579389 Ry
     estimated scf accuracy    <     144.13283059 Ry

     iteration #  9     ecut=    80.00 Ry     beta=0.70
     Davidson diagonalization with overlap
     ethr =  1.00E-02,  avg # of iterations =  1.0

     negative rho (up, down):  5.652E+00 0.000E+00

     total cpu time spent up to now is     6677.9 secs

     total energy              =  -13726.96275808 Ry
     Harris-Foulkes estimate   =  -13736.31160524 Ry
     estimated scf accuracy    <     142.94570088 Ry

     iteration # 10     ecut=    80.00 Ry     beta=0.70
     Davidson diagonalization with overlap
     ethr =  1.00E-02,  avg # of iterations =  1.0

     negative rho (up, down):  2.541E+00 0.000E+00

     total cpu time spent up to now is     6830.7 secs

     total energy              =  -13691.89163730 Ry
     Harris-Foulkes estimate   =  -13729.11653510 Ry
     estimated scf accuracy    <     125.20522414 Ry

     iteration # 11     ecut=    80.00 Ry     beta=0.70
     Davidson diagonalization with overlap
     ethr =  9.07E-03,  avg # of iterations =  2.0

     negative rho (up, down):  2.414E+00 0.000E+00

     total cpu time spent up to now is     7003.4 secs

     total energy              =  -13685.98965667 Ry
     Harris-Foulkes estimate   =  -13708.62194907 Ry
     estimated scf accuracy    <     228.49498160 Ry

     iteration # 12     ecut=    80.00 Ry     beta=0.70
     Davidson diagonalization with overlap
     ethr =  9.07E-03,  avg # of iterations =  1.0

     negative rho (up, down):  5.122E+00 0.000E+00

     total cpu time spent up to now is     7155.8 secs

     total energy              =  -13675.79190991 Ry
     Harris-Foulkes estimate   =  -13690.17965317 Ry
     estimated scf accuracy    <      89.50181023 Ry

     iteration # 13     ecut=    80.00 Ry     beta=0.70
     Davidson diagonalization with overlap
     ethr =  6.49E-03,  avg # of iterations =  1.0

     negative rho (up, down):  5.728E+00 0.000E+00

     total cpu time spent up to now is     7308.3 secs

     total energy              =  -13676.32710421 Ry
     Harris-Foulkes estimate   =  -13681.67405316 Ry
     estimated scf accuracy    <      94.07345201 Ry

     iteration # 14     ecut=    80.00 Ry     beta=0.70
     Davidson diagonalization with overlap
     ethr =  6.49E-03,  avg # of iterations =  1.5

     negative rho (up, down):  4.297E+00 0.000E+00

     total cpu time spent up to now is     7467.3 secs

     total energy              =  -13675.26570795 Ry
     Harris-Foulkes estimate   =  -13679.94214207 Ry
     estimated scf accuracy    <      23.73043226 Ry

     iteration # 15     ecut=    80.00 Ry     beta=0.70
     Davidson diagonalization with overlap
     ethr =  1.72E-03,  avg # of iterations =  6.3

     negative rho (up, down):  2.272E+00 0.000E+00

     total cpu time spent up to now is     7703.9 secs

     total energy              =  -13674.69992913 Ry
     Harris-Foulkes estimate   =  -13677.84723166 Ry
     estimated scf accuracy    <      65.47636686 Ry

     iteration # 16     ecut=    80.00 Ry     beta=0.70
     Davidson diagonalization with overlap
     ethr =  1.72E-03,  avg # of iterations =  1.5

     negative rho (up, down):  5.573E-01 0.000E+00

     total cpu time spent up to now is     7862.3 secs

     total energy              =  -13673.90867817 Ry
     Harris-Foulkes estimate   =  -13675.71668796 Ry
     estimated scf accuracy    <      13.92911357 Ry

     iteration # 17     ecut=    80.00 Ry     beta=0.70
     Davidson diagonalization with overlap
     ethr =  1.01E-03,  avg # of iterations =  1.5

     negative rho (up, down):  4.279E-01 0.000E+00

     total cpu time spent up to now is     8021.5 secs

     total energy              =  -13673.41257658 Ry
     Harris-Foulkes estimate   =  -13674.20246219 Ry
     estimated scf accuracy    <      15.57504213 Ry

     iteration # 18     ecut=    80.00 Ry     beta=0.70
     Davidson diagonalization with overlap
     ethr =  1.01E-03,  avg # of iterations =  1.0

     negative rho (up, down):  3.012E-01 0.000E+00

     total cpu time spent up to now is     8173.9 secs

     total energy              =  -13672.29051588 Ry
     Harris-Foulkes estimate   =  -13673.67544493 Ry
     estimated scf accuracy    <      18.40644555 Ry

     iteration # 19     ecut=    80.00 Ry     beta=0.70
     Davidson diagonalization with overlap
     ethr =  1.01E-03,  avg # of iterations =  1.3

     negative rho (up, down):  9.140E-01 0.000E+00

     total cpu time spent up to now is     8330.3 secs

     total energy              =  -13671.45816585 Ry
     Harris-Foulkes estimate   =  -13672.45198909 Ry
     estimated scf accuracy    <      16.01878446 Ry

     iteration # 20     ecut=    80.00 Ry     beta=0.70
     Davidson diagonalization with overlap
     ethr =  1.01E-03,  avg # of iterations =  6.0

     negative rho (up, down):  1.444E+00 0.000E+00

     total cpu time spent up to now is     8554.1 secs

     total energy              =  -13670.94300722 Ry
     Harris-Foulkes estimate   =  -13671.56879444 Ry
     estimated scf accuracy    <      11.38463385 Ry

     iteration # 21     ecut=    80.00 Ry     beta=0.70
     Davidson diagonalization with overlap
     ethr =  8.25E-04,  avg # of iterations =  6.5

     negative rho (up, down):  1.501E+00 0.000E+00

     total cpu time spent up to now is     8792.7 secs

     total energy              =  -13670.85993266 Ry
     Harris-Foulkes estimate   =  -13671.15505777 Ry
     estimated scf accuracy    <       3.28054022 Ry

     iteration # 22     ecut=    80.00 Ry     beta=0.70
     Davidson diagonalization with overlap
     ethr =  2.38E-04,  avg # of iterations =  5.5

     negative rho (up, down):  8.544E-01 0.000E+00

     total cpu time spent up to now is     9014.6 secs

     total energy              =  -13670.80737899 Ry
     Harris-Foulkes estimate   =  -13670.99956684 Ry
     estimated scf accuracy    <       0.92030035 Ry

     iteration # 23     ecut=    80.00 Ry     beta=0.70
     Davidson diagonalization with overlap
     ethr =  6.67E-05,  avg # of iterations =  7.3

     negative rho (up, down):  6.376E-01 0.000E+00

     total cpu time spent up to now is     9263.4 secs

     total energy              =  -13670.83703360 Ry
     Harris-Foulkes estimate   =  -13670.86472318 Ry
     estimated scf accuracy    <       0.18317062 Ry

     iteration # 24     ecut=    80.00 Ry     beta=0.70
     Davidson diagonalization with overlap
     c_bands:  1 eigenvalues not converged
     ethr =  1.33E-05,  avg # of iterations = 13.0

     negative rho (up, down):  4.792E-01 0.000E+00

     total cpu time spent up to now is     9602.9 secs

     total energy              =  -13670.83503713 Ry
     Harris-Foulkes estimate   =  -13670.85032132 Ry
     estimated scf accuracy    <       0.09583184 Ry

     iteration # 25     ecut=    80.00 Ry     beta=0.70
     Davidson diagonalization with overlap
     ethr =  6.94E-06,  avg # of iterations =  5.8

     negative rho (up, down):  3.417E-01 0.000E+00

     total cpu time spent up to now is     9830.2 secs

     total energy              =  -13670.83380295 Ry
     Harris-Foulkes estimate   =  -13670.84075054 Ry
     estimated scf accuracy    <       0.03389541 Ry

     iteration # 26     ecut=    80.00 Ry     beta=0.70
     Davidson diagonalization with overlap
     ethr =  2.46E-06,  avg # of iterations =  9.3

     negative rho (up, down):  1.914E-01 0.000E+00

     total cpu time spent up to now is    10119.6 secs

     total energy              =  -13670.82851723 Ry
     Harris-Foulkes estimate   =  -13670.83597584 Ry
     estimated scf accuracy    <       0.01731570 Ry

     iteration # 27     ecut=    80.00 Ry     beta=0.70
     Davidson diagonalization with overlap
     c_bands:  1 eigenvalues not converged
     ethr =  1.25E-06,  avg # of iterations = 13.0

     negative rho (up, down):  6.451E-02 0.000E+00

     total cpu time spent up to now is    10469.2 secs

     total energy              =  -13670.82490171 Ry
     Harris-Foulkes estimate   =  -13670.82978436 Ry
     estimated scf accuracy    <       0.00795331 Ry

     iteration # 28     ecut=    80.00 Ry     beta=0.70
     Davidson diagonalization with overlap
     c_bands:  1 eigenvalues not converged
     c_bands:  1 eigenvalues not converged
     ethr =  5.76E-07,  avg # of iterations = 17.0

     negative rho (up, down):  3.211E-02 0.000E+00

     total cpu time spent up to now is    10894.8 secs

     total energy              =  -13670.82459099 Ry
     Harris-Foulkes estimate   =  -13670.82555006 Ry
     estimated scf accuracy    <       0.00356145 Ry

     iteration # 29     ecut=    80.00 Ry     beta=0.70
     Davidson diagonalization with overlap
     ethr =  2.58E-07,  avg # of iterations =  9.8

     negative rho (up, down):  1.318E-02 0.000E+00

     total cpu time spent up to now is    11179.7 secs

     total energy              =  -13670.82418504 Ry
     Harris-Foulkes estimate   =  -13670.82488062 Ry
     estimated scf accuracy    <       0.00232248 Ry

     iteration # 30     ecut=    80.00 Ry     beta=0.70
     Davidson diagonalization with overlap
     ethr =  1.68E-07,  avg # of iterations = 10.2

     negative rho (up, down):  9.504E-03 0.000E+00

     total cpu time spent up to now is    11474.4 secs

     total energy              =  -13670.82415881 Ry
     Harris-Foulkes estimate   =  -13670.82429860 Ry
     estimated scf accuracy    <       0.00047940 Ry

     iteration # 31     ecut=    80.00 Ry     beta=0.70
     Davidson diagonalization with overlap
     ethr =  3.47E-08,  avg # of iterations =  3.8

     negative rho (up, down):  1.206E-03 0.000E+00

     total cpu time spent up to now is    11667.3 secs

     total energy              =  -13670.82400479 Ry
     Harris-Foulkes estimate   =  -13670.82417195 Ry
     estimated scf accuracy    <       0.00017406 Ry

     iteration # 32     ecut=    80.00 Ry     beta=0.70
     Davidson diagonalization with overlap
     c_bands:  1 eigenvalues not converged
     ethr =  1.26E-08,  avg # of iterations =  9.5

     negative rho (up, down):  2.897E-05 0.000E+00

     total cpu time spent up to now is    11958.8 secs

     total energy              =  -13670.82405889 Ry
     Harris-Foulkes estimate   =  -13670.82401909 Ry
     estimated scf accuracy    <       0.00008460 Ry

     iteration # 33     ecut=    80.00 Ry     beta=0.70
     Davidson diagonalization with overlap
     ethr =  6.13E-09,  avg # of iterations =  3.5

     negative rho (up, down):  2.994E-05 0.000E+00

     total cpu time spent up to now is    12152.1 secs

     total energy              =  -13670.82407485 Ry
     Harris-Foulkes estimate   =  -13670.82406400 Ry
     estimated scf accuracy    <       0.00001605 Ry

     iteration # 34     ecut=    80.00 Ry     beta=0.70
     Davidson diagonalization with overlap
     ethr =  1.16E-09,  avg # of iterations =  3.0

     negative rho (up, down):  7.114E-05 0.000E+00

     total cpu time spent up to now is    12337.1 secs

     total energy              =  -13670.82408044 Ry
     Harris-Foulkes estimate   =  -13670.82407629 Ry
     estimated scf accuracy    <       0.00000711 Ry

     iteration # 35     ecut=    80.00 Ry     beta=0.70
     Davidson diagonalization with overlap
     ethr =  5.16E-10,  avg # of iterations =  2.8

     negative rho (up, down):  1.964E-04 0.000E+00

     total cpu time spent up to now is    12516.3 secs

     total energy              =  -13670.82408048 Ry
     Harris-Foulkes estimate   =  -13670.82408104 Ry
     estimated scf accuracy    <       0.00000288 Ry

     iteration # 36     ecut=    80.00 Ry     beta=0.70
     Davidson diagonalization with overlap
     ethr =  2.08E-10,  avg # of iterations =  3.0

     negative rho (up, down):  3.042E-04 0.000E+00

     total cpu time spent up to now is    12706.5 secs

     total energy              =  -13670.82408116 Ry
     Harris-Foulkes estimate   =  -13670.82408108 Ry
     estimated scf accuracy    <       0.00000209 Ry

     iteration # 37     ecut=    80.00 Ry     beta=0.70
     Davidson diagonalization with overlap
     ethr =  1.51E-10,  avg # of iterations =  2.8

     negative rho (up, down):  2.701E-04 0.000E+00

     total cpu time spent up to now is    12889.1 secs

     total energy              =  -13670.82408167 Ry
     Harris-Foulkes estimate   =  -13670.82408147 Ry
     estimated scf accuracy    <       0.00000044 Ry

     iteration # 38     ecut=    80.00 Ry     beta=0.70
     Davidson diagonalization with overlap
     ethr =  3.22E-11,  avg # of iterations =  3.0

     negative rho (up, down):  2.238E-04 0.000E+00

     total cpu time spent up to now is    13080.3 secs

     total energy              =  -13670.82408181 Ry
     Harris-Foulkes estimate   =  -13670.82408173 Ry
     estimated scf accuracy    <       0.00000013 Ry

     iteration # 39     ecut=    80.00 Ry     beta=0.70
     Davidson diagonalization with overlap
     ethr =  9.52E-12,  avg # of iterations =  2.8

     negative rho (up, down):  2.356E-04 0.000E+00

     total cpu time spent up to now is    13298.3 secs

     total energy              =  -13670.82408173 Ry
     Harris-Foulkes estimate   =  -13670.82408180 Ry
     estimated scf accuracy    <       0.00000006 Ry

     iteration # 40     ecut=    80.00 Ry     beta=0.70
     Davidson diagonalization with overlap
     ethr =  4.33E-12,  avg # of iterations =  2.5

     negative rho (up, down):  2.399E-04 0.000E+00

     total cpu time spent up to now is    13474.8 secs

     total energy              =  -13670.82408176 Ry
     Harris-Foulkes estimate   =  -13670.82408176 Ry
     estimated scf accuracy    <       0.00000001 Ry

     iteration # 41     ecut=    80.00 Ry     beta=0.70
     Davidson diagonalization with overlap
     ethr =  8.63E-13,  avg # of iterations =  3.0

     negative rho (up, down):  2.419E-04 0.000E+00

     total cpu time spent up to now is    13658.4 secs

     End of self-consistent calculation

          k = 0.0000 0.0000 0.0000 (256287 PWs)   bands (ev):

   -15.3604 -14.9899 -14.9826 -13.8827 -13.8813 -13.3995 -13.3994 -13.0386
   -13.0386 -13.0314 -13.0312 -12.0850 -12.0833 -11.9693 -11.9688 -11.9664
   -11.9661 -10.2765 -10.2762 -10.2749 -10.2749 -10.0697  -9.0700  -8.3942
    -8.3941  -8.3895  -8.3894  -7.5174  -7.5173  -7.5129  -7.5128  -6.5222
    -6.5213  -6.4520  -6.4517  -6.4509  -6.4504  -6.4355  -6.4354  -5.2720
    -4.8968  -4.8967  -4.8949  -4.8948  -4.7579  -4.7335  -4.7334  -4.7316
    -4.7315  -4.7180  -4.2988  -3.7752  -3.6989  -3.5915  -3.5913  -3.5275
    -3.2525  -3.2514  -3.2325  -3.2277  -3.0912  -3.0769  -2.9228  -2.6580
    -2.6573  -2.4793  -2.4458  -2.4453  -2.4448  -2.4442  -2.3552  -2.3042
    -2.2780  -2.2779  -2.2698  -2.2691  -2.2424  -2.2420  -2.2032  -2.1401
    -1.9418  -1.9353  -1.8937  -1.8911  -1.7877  -1.7801  -1.6271  -1.6269
    -1.6252  -1.6250  -1.6048  -1.5850  -1.5847  -1.5700  -1.5680  -1.4516
    -1.4446  -1.3899  -1.3898  -1.3816  -1.3815  -1.3261  -1.2726  -1.2724
    -1.2573  -1.2572  -1.2396  -1.2389  -1.1929  -1.1225  -1.1219  -1.0969
    -1.0387  -1.0328  -1.0148  -0.9754  -0.9634  -0.9632  -0.9578  -0.9290
    -0.9282  -0.9105  -0.8906  -0.8903  -0.8883  -0.8882  -0.8134  -0.8132
    -0.8074  -0.8069  -0.8063  -0.8038  -0.8014  -0.8002  -0.7920  -0.7677
    -0.7516  -0.7502  -0.7498  -0.7001  -0.6993  -0.6509  -0.6161  -0.6156
    -0.5939  -0.5814  -0.5361  -0.5048  -0.5002  -0.4925  -0.4805  -0.4790
    -0.4560  -0.4432  -0.4358  -0.4312  -0.4203  -0.4142  -0.4137  -0.4109
    -0.3794  -0.3714  -0.3157  -0.3157  -0.2902  -0.2839  -0.2761  -0.2697
    -0.2676  -0.2670  -0.2642  -0.2637  -0.2629  -0.2613  -0.2584  -0.2576
    -0.2248  -0.2168  -0.1972  -0.1832  -0.1820  -0.1797  -0.1704  -0.1702
    -0.1673  -0.1620  -0.1567  -0.1526  -0.1190  -0.1128  -0.1069  -0.1050
    -0.1047  -0.1043  -0.0889  -0.0865  -0.0864  -0.0787  -0.0779  -0.0689
    -0.0677  -0.0546  -0.0399  -0.0270  -0.0269   0.0260   0.0381   0.0644
     0.0691   0.0814   0.0819   0.0850   0.1051   0.1126   0.1244   0.1455
     0.1467   0.1480   0.1530   0.1559   0.1665   0.1683   0.1786   0.1799
     0.1820   0.1919   0.1989   0.1990   0.2139   0.2146   0.2205   0.2257
     0.2261   0.2691   0.2724   0.2854   0.2982   0.3005   0.3053   0.3065
     0.3228   0.3234   0.3394   0.3418   0.3422   0.3451   0.3499   0.3516
     0.3548   0.3673   0.3673   0.3692   0.3696   0.3698   0.3737   0.3812
     0.3842   0.3847   0.3851   0.3936   0.4126   0.4138   0.4138   0.4189
     0.4312   0.4369   0.4382   0.4610   0.4625   0.4756   0.4759   0.4792
     0.4836   0.4883   0.5030   0.5036   0.5082   0.5083   0.5122   0.5135
     0.5219   0.5298   0.5373   0.5412   0.5420   0.5530   0.5536   0.5560
     0.5664   0.5667   0.5718   0.5723   0.5811   0.5812   0.5873   0.5878
     0.5930   0.6023   0.6035   0.6091   0.6343   0.6365   0.6437   0.6467
     0.6730   0.6734   0.6823   0.6979   0.7003   0.7005   0.7099   0.7101
     0.7118   0.7270   0.7297   0.7451   0.7465   0.7522   0.7569   0.7667
     0.7679   0.7733   0.7751   0.7845   0.7854   0.7917   0.7917   0.7927
     0.8098   0.8106   0.8111   0.8138   0.8181   0.8190   0.8191   0.8285
     0.8303   0.8307   0.8432   0.8438   0.8526   0.8659   0.8694   0.8704
     0.8998   0.9016   0.9017   0.9120   0.9133   0.9294   0.9322   0.9329
     0.9425   0.9439   0.9556   0.9792   0.9798   0.9892   0.9902   1.0000
     1.0005   1.0190   1.0198   1.0201   1.0212   1.0376   1.0386   1.0439
     1.0511   1.0682   1.0685   1.0739   1.0875   1.0938   1.0989   1.1022
     1.1066   1.1071   1.1119   1.1129   1.1351   1.1371   1.1453   1.1656
     1.1672   1.1856   1.1922   1.1934   1.2001   1.2024   1.2031   1.2035
     1.2082   1.2101   1.2107   1.2135   1.2143   1.2223   1.2433   1.2442
     1.2502   1.2710   1.2717   1.2754   1.2768   1.2769   1.2844   1.2852
     1.2859   1.3169   1.3296   1.3307   1.3323   1.3339   1.3346   1.3381
     1.3387   1.3532   1.3559   1.3564   1.3674   1.3718   1.3719   1.3788
     1.3870   1.3870   1.3875   1.3895   1.3980   1.4124   1.4227   1.4304
     1.4323   1.4325   1.4414   1.4484   1.4488   1.4551   1.4572   1.4574
     1.4646   1.4654   1.4676   1.4702   1.4784   1.4839   1.4891   1.4953
     1.5044   1.5047   1.5061   1.5068   1.5141   1.5173   1.5184   1.5184
     1.5227   1.5287   1.5298   1.5328   1.5356   1.5366   1.5460   1.5484
     1.5515   1.5563   1.5574   1.5632   1.5671   1.5721   1.5729   1.5774
     1.6113   1.6117   1.6249   1.6257   1.6376   1.6405   1.6421   1.6459
     1.6508   1.6603   1.6631   1.6645   1.6720   1.6724   1.6741   1.6832
     1.6878   1.6908   1.6909   1.6948   1.6989   1.7018   1.7060   1.7077
     1.7092   1.7108   1.7324   1.7355   1.7406   1.7498   1.7515   1.7540
     1.7575   1.7614   1.7692   1.7728   1.7748   1.7828   1.7904   1.7923
     1.7937   1.7961   1.8005   1.8057   1.8071   1.8113   1.8157   1.8282
     1.8288   1.8317   1.8353   1.8368   1.8411   1.8537   1.8571   1.8645
     1.8651   1.8655   1.8660   1.8685   1.8772   1.8775   1.8783   1.8825
     1.8897   1.9012   1.9025   1.9032   1.9048   1.9082   1.9118   1.9333
     1.9336   1.9376   1.9376   1.9489   1.9492   1.9527   1.9556   1.9561
     1.9576   1.9734   1.9821   1.9838   1.9851   1.9900   1.9965   1.9982
     2.0142   2.0149   2.0155   2.0192   2.0250   2.0252   2.0265   2.0292
     2.0336   2.0391   2.0397   2.0402   2.0453   2.0470   2.0513   2.0578
     2.0585   2.0638   2.0646   2.0706   2.0772   2.0806   2.0852   2.0862
     2.0863   2.0892   2.0910   2.0947   2.0954   2.1053   2.1186   2.1189
     2.1239   2.1276   2.1317   2.1320   2.1355   2.1375   2.1457   2.1466
     2.1473   2.1536   2.1550   2.1617   2.1620   2.1628   2.1636   2.1640
     2.1650   2.1729   2.1794   2.1848   2.1855   2.1876   2.1886   2.1921
     2.1927   2.1950   2.1958   2.1972   2.2025   2.2031   2.2042   2.2134
     2.2159   2.2182   2.2225   2.2262   2.2325   2.2340   2.2400   2.2418
     2.2455   2.2479   2.2482   2.2552   2.2555   2.2622   2.2663   2.2708
     2.2708   2.2901   2.2957   2.2965   2.2987   2.3281   2.3324   2.3453
     2.3455   2.3572   2.3767   2.3771   2.3845   2.3980   2.4004   2.4026
     2.4111   2.4133   2.4153   2.4184   2.5062   2.5188   2.6337   2.7275
     2.7372   2.7851   2.7878   2.8284   2.9174   2.9176   2.9466   2.9484
     2.9774   2.9777   2.9869   2.9897   2.9905   3.0489   3.0495   3.1393
     3.1570   3.1572   3.1587   3.3669   3.3690   3.4038   3.4054   3.4521
     3.6372   3.8296   3.8320   4.0296   4.1104   4.1121   4.1563   4.1563
     4.1632   4.1639   4.2253   4.3900   4.4081   4.4400   4.4419   4.5920
     4.6823   4.6826   4.7060   4.7164   4.7362   4.7363   4.7798   4.7801
     4.7920   4.7924   4.9561   5.0282   5.2308   5.2373   5.3745   5.4734
     5.5740   5.5745   5.6727   5.8377   5.8868   5.9676   6.0490   6.0696
     6.0711   6.0817   6.0838   6.2103   6.2107   6.2842   6.3229   6.5445
     6.5951   6.6608   7.0073   7.0289   7.0290   7.0602   7.1920   7.2689
     7.2691   7.4351   7.4374   7.4648   7.5148   7.5330   7.5331   7.5479
     7.5479   7.7635   7.7697   7.7797   7.8116   7.8745   7.8983   7.9077
     7.9244   7.9296   7.9587   7.9692   8.0254   8.1915   8.2055   8.2837
     8.3709   8.3732   8.4169   8.4176   8.4195   8.5010   8.6687   8.6697
     8.7144   8.7771   8.8377   8.8435   8.8437   8.9612   8.9664   9.0122
     9.0215   9.0461   9.0865   9.1701   9.1759   9.2240   9.3093   9.3114
     9.3248   9.3878   9.3880   9.3942   9.4132   9.4133   9.5874   9.6506
     9.6525   9.6527   9.6549   9.6732   9.6745   9.7376   9.7555   9.7578
     9.7693   9.8682   9.9179  10.0709  10.2696  10.2736  10.3084  10.3985
    10.3992  10.4048  10.5136  10.5169  10.5319  10.5364  10.5691  10.5868
    10.6103  10.6653  10.6656  10.6807

          k = 0.0000-0.2165 0.0000 (256176 PWs)   bands (ev):

   -15.2842 -15.2477 -14.5285 -14.5202 -13.3255 -13.3253 -13.2893 -13.2893
   -13.0664 -13.0638 -12.5910 -12.5909 -12.5827 -12.5825 -11.1911 -11.1907
   -11.1882 -11.1881 -10.9745 -10.9615  -9.2864  -9.2862  -9.2796  -9.2795
    -8.0427  -8.0303  -7.8902  -7.8901  -7.8719  -7.8718  -7.0560  -7.0558
    -7.0492  -7.0491  -5.8870  -5.8869  -5.8641  -5.8640  -5.7217  -5.7216
    -5.7188  -5.7186  -5.1680  -5.1022  -4.9025  -4.9017  -4.3047  -4.0966
    -4.0785  -4.0784  -4.0573  -4.0572  -4.0488  -3.9901  -3.5081  -3.5078
    -3.5062  -3.5058  -3.4747  -3.3647  -3.2062  -3.1468  -2.8257  -2.5797
    -2.5786  -2.5499  -2.5237  -2.5236  -2.5146  -2.4468  -2.2731  -2.2707
    -2.2278  -2.1942  -1.9611  -1.9610  -1.9408  -1.9408  -1.9176  -1.9146
    -1.8807  -1.8774  -1.8230  -1.8224  -1.7929  -1.7924  -1.7670  -1.7667
    -1.7659  -1.7655  -1.6777  -1.6771  -1.6628  -1.6587  -1.5055  -1.5006
    -1.4985  -1.4510  -1.4304  -1.4084  -1.4083  -1.3841  -1.3831  -1.2221
    -1.2219  -1.2043  -1.2037  -1.1901  -1.1898  -1.1786  -1.0920  -1.0916
    -1.0754  -1.0752  -1.0243  -1.0165  -1.0115  -1.0081  -1.0065  -1.0036
    -0.9737  -0.9728  -0.9644  -0.9458  -0.9329  -0.9194  -0.8762  -0.8755
    -0.8755  -0.8706  -0.8432  -0.7934  -0.7650  -0.7649  -0.7103  -0.7096
    -0.6731  -0.6312  -0.6219  -0.5960  -0.5957  -0.5918  -0.5692  -0.5428
    -0.5315  -0.5290  -0.5198  -0.5184  -0.5052  -0.5045  -0.4977  -0.4938
    -0.4824  -0.4809  -0.4717  -0.4596  -0.4566  -0.4332  -0.3917  -0.3909
    -0.3662  -0.3644  -0.3475  -0.3466  -0.3323  -0.3166  -0.3074  -0.3045
    -0.3044  -0.3039  -0.2844  -0.2819  -0.2771  -0.2747  -0.2726  -0.2676
    -0.2665  -0.2598  -0.2465  -0.2238  -0.2220  -0.2180  -0.2037  -0.2033
    -0.2003  -0.1985  -0.1617  -0.1586  -0.1545  -0.1502  -0.1349  -0.1344
    -0.1331  -0.1144  -0.1143  -0.0978  -0.0949  -0.0721  -0.0663  -0.0489
    -0.0458  -0.0329  -0.0258  -0.0249  -0.0151  -0.0085  -0.0047   0.0257
     0.0259   0.0303   0.0477   0.0987   0.0997   0.1141   0.1164   0.1187
     0.1214   0.1222   0.1385   0.1386   0.1529   0.1550   0.1586   0.1589
     0.1686   0.1688   0.1759   0.1759   0.1773   0.1969   0.2146   0.2191
     0.2192   0.2264   0.2273   0.2335   0.2574   0.2815   0.2845   0.2845
     0.2846   0.2866   0.3021   0.3140   0.3152   0.3153   0.3314   0.3321
     0.3540   0.3746   0.3748   0.3852   0.3858   0.4038   0.4048   0.4275
     0.4360   0.4365   0.4519   0.4550   0.4556   0.4581   0.4651   0.4662
     0.4695   0.4695   0.4826   0.4835   0.4841   0.4913   0.4956   0.4958
     0.5026   0.5028   0.5203   0.5299   0.5300   0.5484   0.5487   0.5511
     0.5533   0.5540   0.5555   0.5587   0.5735   0.5738   0.5801   0.5812
     0.5817   0.5887   0.5952   0.5956   0.6167   0.6314   0.6329   0.6499
     0.6588   0.6608   0.6675   0.6675   0.6679   0.6851   0.6902   0.6912
     0.6927   0.6931   0.6943   0.6953   0.7163   0.7224   0.7328   0.7329
     0.7476   0.7509   0.7521   0.7523   0.7603   0.7683   0.7704   0.7705
     0.7773   0.7811   0.7850   0.7986   0.7991   0.8070   0.8081   0.8207
     0.8265   0.8271   0.8275   0.8418   0.8421   0.8495   0.8499   0.8511
     0.8674   0.8689   0.8742   0.8745   0.8846   0.8913   0.8926   0.8938
     0.8940   0.8987   0.9020   0.9066   0.9151   0.9165   0.9190   0.9326
     0.9406   0.9471   0.9650   0.9653   0.9718   0.9720   0.9729   0.9769
     0.9814   0.9995   0.9998   1.0176   1.0197   1.0201   1.0566   1.0573
     1.0591   1.0606   1.0761   1.0773   1.0929   1.0952   1.1052   1.1056
     1.1339   1.1489   1.1495   1.1511   1.1655   1.1666   1.1680   1.1711
     1.1720   1.1748   1.1766   1.1791   1.1995   1.2006   1.2016   1.2103
     1.2117   1.2234   1.2238   1.2243   1.2442   1.2470   1.2578   1.2584
     1.2662   1.2687   1.2742   1.2803   1.2820   1.2863   1.2864   1.2916
     1.3065   1.3065   1.3126   1.3144   1.3158   1.3167   1.3183   1.3195
     1.3231   1.3278   1.3289   1.3297   1.3308   1.3577   1.3625   1.3633
     1.3667   1.3669   1.3682   1.3734   1.3821   1.3838   1.3875   1.3906
     1.3909   1.3912   1.3934   1.4005   1.4159   1.4238   1.4334   1.4377
     1.4484   1.4490   1.4499   1.4517   1.4543   1.4572   1.4625   1.4643
     1.4688   1.4691   1.4711   1.4819   1.4892   1.4971   1.4973   1.4979
     1.4981   1.5091   1.5110   1.5162   1.5164   1.5165   1.5337   1.5366
     1.5389   1.5509   1.5600   1.5604   1.5655   1.5716   1.5808   1.5810
     1.5876   1.5887   1.6000   1.6120   1.6489   1.6497   1.6505   1.6571
     1.6621   1.6624   1.6735   1.6794   1.6799   1.6816   1.6827   1.6869
     1.6870   1.6892   1.6908   1.7006   1.7050   1.7050   1.7073   1.7122
     1.7147   1.7218   1.7275   1.7360   1.7364   1.7364   1.7483   1.7486
     1.7503   1.7514   1.7559   1.7573   1.7575   1.7575   1.7584   1.7592
     1.7594   1.7616   1.7675   1.7749   1.7752   1.7857   1.7943   1.7951
     1.7959   1.8118   1.8126   1.8127   1.8194   1.8308   1.8311   1.8338
     1.8408   1.8409   1.8457   1.8479   1.8522   1.8646   1.8669   1.8684
     1.8882   1.9002   1.9011   1.9062   1.9112   1.9138   1.9158   1.9224
     1.9233   1.9315   1.9323   1.9371   1.9402   1.9547   1.9592   1.9598
     1.9618   1.9665   1.9668   1.9719   1.9775   1.9780   1.9819   1.9824
     1.9830   1.9881   1.9930   1.9962   1.9976   1.9983   2.0123   2.0148
     2.0150   2.0155   2.0250   2.0308   2.0330   2.0392   2.0426   2.0452
     2.0455   2.0575   2.0646   2.0656   2.0661   2.0763   2.0764   2.0791
     2.0868   2.0910   2.0960   2.0964   2.0972   2.1028   2.1034   2.1101
     2.1118   2.1183   2.1221   2.1227   2.1228   2.1287   2.1380   2.1380
     2.1491   2.1500   2.1508   2.1516   2.1535   2.1540   2.1587   2.1797
     2.1822   2.1829   2.1845   2.1852   2.1858   2.1925   2.1941   2.2003
     2.2097   2.2098   2.2103   2.2162   2.2185   2.2272   2.2277   2.2285
     2.2312   2.2314   2.2315   2.2391   2.2397   2.2397   2.2399   2.2495
     2.2535   2.2792   2.2802   2.2821   2.2843   2.2876   2.2924   2.3018
     2.3055   2.3093   2.3093   2.3139   2.3167   2.3188   2.3191   2.3425
     2.3425   2.3914   2.4190   2.4274   2.4916   2.5120   2.5184   2.5276
     2.5281   2.5419   2.5419   2.5696   2.5711   2.5884   2.5996   2.6008
     2.6237   2.6255   2.7529   2.8003   2.8025   2.8918   3.0013   3.0026
     3.1245   3.1352   3.1357   3.1437   3.1439   3.1916   3.1918   3.2296
     3.2308   3.2393   3.2970   3.3377   3.3384   3.4372   3.4373   3.4540
     3.4792   3.6799   3.6799   3.7100   3.7651   3.7691   3.8400   3.8423
     3.9312   3.9312   4.1511   4.1782   4.2494   4.2497   4.3378   4.4009
     4.5992   4.7444   4.7449   4.8557   4.8558   4.9673   5.1395   5.1415
     5.1469   5.1478   5.1871   5.2124   5.3510   5.3571   5.3732   5.5690
     5.5699   5.6966   5.7508   5.7653   5.8539   5.9282   5.9705   5.9709
     6.1167   6.1177   6.2359   6.3026   6.3521   6.4043   6.4064   6.4982
     6.5469   6.8046   6.9183   6.9800   6.9850   6.9868   6.9937   7.1004
     7.1061   7.1784   7.1788   7.3225   7.3238   7.4129   7.4598   7.4608
     7.4751   7.6810   7.7581   7.7720   7.8236   7.8237   7.8516   7.8529
     7.8539   7.8563   7.8824   7.9324   7.9887   7.9893   8.1083   8.2235
     8.2319   8.5896   8.6296   8.6711   8.6750   8.7190   8.7191   8.7880
     8.7889   8.7924   8.7990   8.8040   8.8588   8.9299   8.9626   8.9671
     9.0831   9.0848   9.1397   9.1844   9.2252   9.2320   9.3240   9.3437
     9.3438   9.3883   9.3888   9.4341   9.4815   9.5759   9.6679   9.6698
     9.6781   9.6851   9.8253   9.8830   9.8844   9.8896   9.9202   9.9235
    10.0998  10.1045  10.1047  10.1537  10.1539  10.2757  10.2759  10.2817
    10.3148  10.3151  10.3505  10.3677  10.3694  10.4263  10.4309  10.4356
    10.5450  10.6792  10.6801  10.7391

          k = 0.2500 0.0000 0.0000 (256240 PWs)   bands (ev):

   -15.2363 -14.8664 -14.8591 -14.2506 -13.8853 -13.8781 -13.7612 -13.7598
   -12.7972 -12.7959 -12.3242 -11.9709 -11.9684 -11.9668 -11.9637 -11.0483
   -11.0467 -10.9404 -10.9390  -9.9645  -9.6618  -9.6470  -9.6204  -9.1247
    -8.9652  -8.6735  -8.6722  -8.2654  -8.0168  -8.0159  -7.4620  -6.4527
    -6.4508  -6.4480  -6.4471  -6.3340  -6.3317  -5.8687  -5.6024  -5.0920
    -5.0370  -4.8404  -4.8345  -4.8188  -4.8181  -4.5841  -4.5447  -4.1271
    -4.0927  -4.0912  -3.7172  -3.6126  -3.5844  -3.5390  -3.3794  -3.2730
    -3.2718  -3.2671  -3.2583  -3.2566  -3.2334  -3.0848  -3.0802  -2.9438
    -2.9305  -2.8387  -2.8220  -2.7728  -2.5291  -2.5284  -2.4525  -2.4475
    -2.4460  -2.4453  -2.4174  -2.3729  -2.3565  -2.3379  -2.3375  -2.2323
    -2.2156  -2.0829  -2.0625  -2.0388  -2.0363  -2.0284  -1.8129  -1.7834
    -1.7141  -1.6533  -1.6468  -1.6395  -1.6076  -1.5500  -1.4918  -1.3968
    -1.3960  -1.3627  -1.3551  -1.3506  -1.3302  -1.3206  -1.2700  -1.2365
    -1.1407  -1.0856  -1.0832  -1.0514  -1.0374  -1.0366  -1.0257  -1.0218
    -1.0167  -1.0118  -1.0032  -0.9221  -0.9172  -0.9165  -0.8969  -0.8956
    -0.8786  -0.8762  -0.8455  -0.8354  -0.8289  -0.8211  -0.8158  -0.8009
    -0.8000  -0.7820  -0.7625  -0.7433  -0.7284  -0.7277  -0.7161  -0.6722
    -0.6552  -0.6154  -0.5792  -0.5709  -0.5687  -0.5673  -0.5532  -0.5431
    -0.5360  -0.5178  -0.5010  -0.4927  -0.4875  -0.4770  -0.4705  -0.4602
    -0.4569  -0.4484  -0.4471  -0.4232  -0.4194  -0.4163  -0.4133  -0.4012
    -0.3754  -0.3661  -0.3644  -0.3598  -0.3545  -0.3460  -0.3436  -0.3348
    -0.3305  -0.3210  -0.2918  -0.2906  -0.2802  -0.2740  -0.2660  -0.2624
    -0.2577  -0.2509  -0.2491  -0.2478  -0.2379  -0.2259  -0.2196  -0.2133
    -0.2132  -0.2106  -0.2105  -0.1992  -0.1918  -0.1891  -0.1664  -0.1597
    -0.1497  -0.1370  -0.1257  -0.1163  -0.1102  -0.0949  -0.0916  -0.0499
    -0.0391  -0.0314  -0.0210  -0.0183  -0.0158  -0.0111  -0.0058   0.0082
     0.0162   0.0167   0.0186   0.0195   0.0344   0.0722   0.0739   0.0865
     0.1003   0.1424   0.1452   0.1570   0.1839   0.1868   0.1924   0.1948
     0.1964   0.2058   0.2134   0.2235   0.2258   0.2265   0.2375   0.2520
     0.2538   0.2664   0.2686   0.2702   0.2770   0.2770   0.2877   0.2982
     0.3011   0.3063   0.3206   0.3268   0.3328   0.3397   0.3429   0.3466
     0.3534   0.3629   0.3684   0.3693   0.3699   0.3709   0.3801   0.3852
     0.3898   0.3959   0.4003   0.4118   0.4181   0.4254   0.4267   0.4413
     0.4541   0.4601   0.4659   0.4733   0.4752   0.4868   0.4884   0.4925
     0.4935   0.5005   0.5014   0.5028   0.5147   0.5166   0.5333   0.5386
     0.5511   0.5591   0.5696   0.5715   0.5720   0.5793   0.5830   0.5923
     0.5958   0.5970   0.6071   0.6090   0.6175   0.6178   0.6249   0.6266
     0.6272   0.6332   0.6399   0.6562   0.6692   0.6752   0.6835   0.6845
     0.6901   0.6975   0.7155   0.7168   0.7216   0.7295   0.7415   0.7480
     0.7489   0.7495   0.7595   0.7654   0.7679   0.7682   0.7687   0.7713
     0.7792   0.7870   0.7959   0.7977   0.7991   0.8012   0.8069   0.8154
     0.8240   0.8254   0.8286   0.8335   0.8344   0.8363   0.8483   0.8539
     0.8559   0.8604   0.8685   0.8724   0.8769   0.8900   0.8919   0.8986
     0.9074   0.9150   0.9223   0.9239   0.9380   0.9460   0.9632   0.9655
     0.9743   0.9781   0.9815   0.9997   1.0011   1.0020   1.0071   1.0173
     1.0261   1.0294   1.0451   1.0462   1.0524   1.0533   1.0548   1.0628
     1.0656   1.0713   1.0720   1.0725   1.0790   1.0815   1.0847   1.0851
     1.0920   1.0962   1.1041   1.1051   1.1067   1.1213   1.1222   1.1274
     1.1294   1.1388   1.1447   1.1602   1.1687   1.1697   1.1909   1.1996
     1.2059   1.2072   1.2150   1.2159   1.2215   1.2315   1.2355   1.2372
     1.2408   1.2445   1.2466   1.2484   1.2654   1.2677   1.2684   1.2812
     1.2837   1.2855   1.2880   1.2889   1.2992   1.2996   1.3169   1.3276
     1.3359   1.3371   1.3382   1.3393   1.3406   1.3481   1.3516   1.3542
     1.3574   1.3611   1.3618   1.3633   1.3693   1.3735   1.3764   1.3857
     1.3884   1.3923   1.3946   1.4023   1.4109   1.4148   1.4150   1.4177
     1.4256   1.4289   1.4352   1.4366   1.4430   1.4455   1.4495   1.4593
     1.4721   1.4775   1.4844   1.4867   1.4873   1.4916   1.4973   1.5079
     1.5252   1.5280   1.5324   1.5343   1.5370   1.5390   1.5397   1.5425
     1.5465   1.5539   1.5634   1.5698   1.5710   1.5849   1.5880   1.5918
     1.6039   1.6089   1.6172   1.6211   1.6213   1.6243   1.6253   1.6306
     1.6348   1.6383   1.6495   1.6502   1.6539   1.6569   1.6576   1.6636
     1.6648   1.6669   1.6711   1.6856   1.6898   1.6903   1.6944   1.7009
     1.7031   1.7114   1.7263   1.7336   1.7409   1.7528   1.7578   1.7638
     1.7669   1.7701   1.7773   1.7810   1.7836   1.7862   1.7887   1.7910
     1.7920   1.7929   1.7956   1.7978   1.7990   1.8039   1.8136   1.8156
     1.8197   1.8218   1.8260   1.8315   1.8384   1.8392   1.8394   1.8453
     1.8480   1.8494   1.8576   1.8591   1.8635   1.8647   1.8649   1.8732
     1.8812   1.8833   1.8857   1.8863   1.8873   1.8908   1.8933   1.8999
     1.9134   1.9165   1.9188   1.9302   1.9312   1.9317   1.9394   1.9422
     1.9462   1.9573   1.9658   1.9671   1.9765   1.9798   1.9820   1.9878
     1.9938   1.9946   1.9961   1.9985   1.9997   2.0071   2.0073   2.0225
     2.0232   2.0245   2.0322   2.0331   2.0336   2.0350   2.0430   2.0471
     2.0564   2.0583   2.0594   2.0632   2.0642   2.0657   2.0725   2.0755
     2.0763   2.0781   2.0822   2.0837   2.0891   2.0923   2.0967   2.0984
     2.1117   2.1129   2.1173   2.1299   2.1313   2.1377   2.1380   2.1417
     2.1427   2.1465   2.1472   2.1571   2.1578   2.1590   2.1693   2.1732
     2.1769   2.1795   2.1804   2.1854   2.1859   2.1864   2.1945   2.1949
     2.1966   2.2007   2.2038   2.2071   2.2072   2.2113   2.2129   2.2211
     2.2215   2.2263   2.2372   2.2391   2.2400   2.2462   2.2473   2.2508
     2.2517   2.2534   2.2559   2.2629   2.2666   2.2740   2.2770   2.2782
     2.2801   2.2905   2.2911   2.2977   2.2979   2.3031   2.3050   2.3251
     2.3274   2.3372   2.3750   2.3801   2.3881   2.3906   2.3996   2.4006
     2.4054   2.4094   2.4126   2.4831   2.5074   2.5167   2.5281   2.5540
     2.5631   2.6080   2.6385   2.6920   2.7544   2.7806   2.8016   2.8466
     2.8581   2.8717   3.0395   3.1304   3.1706   3.2225   3.2330   3.2457
     3.2873   3.3916   3.5337   3.7122   3.7376   3.7387   3.7424   3.8149
     3.9194   3.9449   3.9823   3.9871   4.0337   4.2011   4.2412   4.2541
     4.2893   4.3426   4.3991   4.4041   4.4366   4.4487   4.4515   4.4764
     4.4932   4.5856   4.8413   5.0127   5.0145   5.0192   5.1120   5.1801
     5.1878   5.1984   5.2711   5.4467   5.4935   5.5532   5.5573   5.5994
     5.6206   5.7084   5.8010   5.8080   5.8248   5.8688   5.9183   5.9603
     6.1248   6.1536   6.1885   6.2013   6.2489   6.3632   6.3779   6.4120
     6.4810   6.4887   6.5741   6.6893   6.6940   6.7154   6.7215   6.7832
     6.9307   6.9719   6.9963   7.0113   7.1409   7.3526   7.4350   7.4710
     7.4958   7.5183   7.5326   7.5446   7.6060   7.6588   7.7731   7.7774
     7.8501   7.8708   7.8833   7.8895   7.9019   7.9082   7.9384   7.9882
     8.0426   8.0460   8.1602   8.1907   8.2405   8.2980   8.3955   8.4916
     8.5388   8.5924   8.6234   8.6380   8.6722   8.7194   8.7666   8.7977
     8.8170   8.9297   8.9804   9.0434   9.0511   9.1556   9.1815   9.1909
     9.2133   9.2456   9.3058   9.3808   9.3847   9.3895   9.3944   9.4135
     9.5221   9.5368   9.6610   9.6826   9.6909   9.7098   9.7544   9.7631
     9.7989   9.8270   9.9112   9.9415   9.9484  10.0324  10.0353  10.0782
    10.1320  10.2228  10.2363  10.2587  10.2855  10.4087  10.4093  10.5019
    10.5322  10.5638  10.5643  10.5757

          k = 0.2500-0.2165 0.0000 (256316 PWs)   bands (ev):

   -15.1603 -15.1238 -14.4058 -14.3975 -14.1756 -14.1394 -13.4311 -13.4229
   -12.9469 -12.9443 -12.2517 -12.2159 -11.9998 -11.9973 -11.5357 -11.5277
   -10.8628 -10.8497 -10.2354 -10.2342  -9.9848  -9.9720  -9.6106  -9.5767
    -8.5523  -8.5463  -8.0374  -8.0187  -7.9489  -7.9364  -7.3892  -7.3752
    -7.2977  -7.2947  -5.5816  -5.5608  -5.5482  -5.5425  -5.4457  -5.4125
    -5.2083  -5.1887  -4.9893  -4.9239  -4.8624  -4.8614  -4.1342  -4.0716
    -4.0693  -3.9319  -3.8850  -3.8223  -3.7462  -3.7430  -3.6266  -3.5656
    -3.3257  -3.2172  -3.1149  -3.0946  -3.0608  -3.0589  -3.0579  -3.0033
    -2.8557  -2.7442  -2.7105  -2.7087  -2.6825  -2.6685  -2.5742  -2.4924
    -2.4714  -2.4056  -2.3700  -2.3034  -2.1615  -2.1512  -2.1477  -2.1255
    -2.1239  -2.0584  -2.0192  -2.0074  -2.0028  -1.9958  -1.7920  -1.7882
    -1.7845  -1.7679  -1.6970  -1.5872  -1.5410  -1.5071  -1.5060  -1.4367
    -1.4122  -1.4041  -1.4037  -1.3897  -1.3552  -1.2638  -1.2567  -1.2466
    -1.2453  -1.1791  -1.1589  -1.0874  -1.0710  -1.0495  -1.0376  -0.9827
    -0.9715  -0.9659  -0.9369  -0.9313  -0.9301  -0.9285  -0.9253  -0.9187
    -0.9118  -0.8909  -0.8680  -0.8614  -0.8474  -0.8473  -0.8340  -0.8135
    -0.8093  -0.7909  -0.7312  -0.7102  -0.7091  -0.7005  -0.6972  -0.6809
    -0.6757  -0.6316  -0.6186  -0.6053  -0.5971  -0.5664  -0.5530  -0.5407
    -0.5253  -0.5216  -0.5095  -0.5037  -0.4988  -0.4941  -0.4872  -0.4617
    -0.4599  -0.4593  -0.4479  -0.4458  -0.4421  -0.4384  -0.4245  -0.4050
    -0.4026  -0.3855  -0.3793  -0.3708  -0.3528  -0.3519  -0.3503  -0.3480
    -0.3397  -0.3313  -0.3060  -0.3013  -0.2895  -0.2876  -0.2795  -0.2720
    -0.2636  -0.2611  -0.2606  -0.2466  -0.2307  -0.2279  -0.2199  -0.2145
    -0.2025  -0.2003  -0.1985  -0.1919  -0.1846  -0.1784  -0.1495  -0.1446
    -0.1289  -0.1207  -0.1176  -0.1023  -0.0971  -0.0946  -0.0945  -0.0670
    -0.0509  -0.0421  -0.0137  -0.0095  -0.0061  -0.0036   0.0105   0.0343
     0.0370   0.0457   0.0511   0.0614   0.0747   0.0798   0.0913   0.1064
     0.1198   0.1317   0.1596   0.1614   0.1627   0.1758   0.1870   0.1966
     0.1971   0.2003   0.2057   0.2063   0.2230   0.2271   0.2362   0.2487
     0.2631   0.2651   0.2698   0.2719   0.2765   0.2933   0.2977   0.3022
     0.3055   0.3097   0.3162   0.3170   0.3273   0.3300   0.3355   0.3500
     0.3554   0.3573   0.3677   0.3690   0.3843   0.3849   0.3929   0.3949
     0.3980   0.3989   0.4010   0.4079   0.4118   0.4153   0.4158   0.4279
     0.4337   0.4435   0.4444   0.4697   0.4767   0.4775   0.4791   0.4987
     0.4996   0.5169   0.5285   0.5301   0.5397   0.5425   0.5467   0.5499
     0.5530   0.5637   0.5641   0.5797   0.5812   0.5886   0.5970   0.6059
     0.6079   0.6188   0.6273   0.6306   0.6490   0.6495   0.6543   0.6555
     0.6618   0.6623   0.6712   0.6737   0.6787   0.6849   0.6881   0.6908
     0.7004   0.7129   0.7146   0.7178   0.7237   0.7262   0.7285   0.7308
     0.7392   0.7470   0.7492   0.7524   0.7572   0.7634   0.7653   0.7666
     0.7687   0.7776   0.7791   0.7838   0.7887   0.7900   0.7980   0.7996
     0.8007   0.8023   0.8137   0.8217   0.8369   0.8426   0.8478   0.8500
     0.8623   0.8688   0.8816   0.8843   0.8898   0.9041   0.9093   0.9125
     0.9145   0.9187   0.9187   0.9270   0.9313   0.9321   0.9334   0.9361
     0.9408   0.9458   0.9570   0.9650   0.9739   0.9878   0.9906   0.9967
     1.0018   1.0036   1.0062   1.0153   1.0240   1.0288   1.0363   1.0444
     1.0564   1.0637   1.0640   1.0737   1.0787   1.0796   1.0847   1.0861
     1.0897   1.0943   1.1057   1.1092   1.1171   1.1187   1.1276   1.1328
     1.1362   1.1530   1.1660   1.1701   1.1735   1.1742   1.1846   1.1867
     1.1880   1.1890   1.2031   1.2077   1.2104   1.2131   1.2152   1.2201
     1.2342   1.2376   1.2432   1.2465   1.2478   1.2589   1.2638   1.2777
     1.2786   1.2816   1.2928   1.2964   1.2971   1.3038   1.3065   1.3395
     1.3403   1.3413   1.3439   1.3460   1.3479   1.3490   1.3657   1.3663
     1.3669   1.3805   1.3815   1.3852   1.3912   1.3970   1.4045   1.4065
     1.4095   1.4101   1.4183   1.4203   1.4238   1.4320   1.4327   1.4330
     1.4396   1.4422   1.4538   1.4565   1.4600   1.4612   1.4658   1.4684
     1.4710   1.4737   1.4782   1.4824   1.4869   1.4875   1.5114   1.5150
     1.5180   1.5189   1.5321   1.5335   1.5341   1.5399   1.5413   1.5458
     1.5516   1.5547   1.5568   1.5623   1.5666   1.5738   1.5751   1.5834
     1.5906   1.5914   1.6072   1.6110   1.6137   1.6208   1.6212   1.6247
     1.6255   1.6268   1.6345   1.6414   1.6471   1.6484   1.6572   1.6594
     1.6637   1.6652   1.6690   1.6741   1.6861   1.6874   1.6879   1.6905
     1.7052   1.7085   1.7139   1.7170   1.7268   1.7345   1.7370   1.7399
     1.7501   1.7517   1.7536   1.7566   1.7580   1.7730   1.7761   1.7771
     1.7914   1.7988   1.8058   1.8175   1.8241   1.8261   1.8288   1.8374
     1.8429   1.8442   1.8459   1.8523   1.8531   1.8568   1.8592   1.8609
     1.8668   1.8721   1.8738   1.8815   1.8848   1.8860   1.8928   1.8939
     1.8948   1.8993   1.9007   1.9080   1.9105   1.9147   1.9193   1.9205
     1.9218   1.9294   1.9331   1.9385   1.9418   1.9498   1.9509   1.9513
     1.9544   1.9567   1.9619   1.9628   1.9674   1.9702   1.9766   1.9811
     1.9849   1.9893   1.9913   1.9938   2.0038   2.0079   2.0097   2.0117
     2.0156   2.0184   2.0262   2.0288   2.0323   2.0332   2.0386   2.0420
     2.0424   2.0447   2.0497   2.0516   2.0613   2.0630   2.0720   2.0760
     2.0832   2.0880   2.0890   2.0917   2.0949   2.0972   2.1068   2.1080
     2.1090   2.1122   2.1158   2.1190   2.1348   2.1372   2.1387   2.1401
     2.1430   2.1474   2.1496   2.1504   2.1536   2.1602   2.1608   2.1632
     2.1647   2.1723   2.1732   2.1788   2.1828   2.1836   2.1897   2.1910
     2.1998   2.2047   2.2086   2.2105   2.2156   2.2176   2.2203   2.2221
     2.2223   2.2242   2.2283   2.2307   2.2313   2.2344   2.2381   2.2444
     2.2524   2.2538   2.2542   2.2558   2.2644   2.2651   2.2655   2.2692
     2.2774   2.2779   2.2782   2.2794   2.2875   2.3037   2.3111   2.3220
     2.3302   2.3345   2.3414   2.3479   2.3666   2.3695   2.3977   2.4309
     2.4741   2.4774   2.4796   2.4821   2.5037   2.5071   2.5204   2.5215
     2.5313   2.5360   2.7216   2.7605   2.8708   2.8822   2.8881   2.8950
     2.9126   2.9253   2.9395   3.0148   3.0296   3.1903   3.2404   3.3354
     3.3440   3.3900   3.4636   3.5332   3.5422   3.5480   3.6148   3.6521
     3.6910   3.8507   3.8908   3.8969   3.9244   4.1859   4.2866   4.3405
     4.4274   4.5098   4.5287   4.5594   4.5732   4.5832   4.5925   4.7536
     4.7690   4.8447   4.8915   4.8999   4.9567   5.0340   5.0567   5.0910
     5.2190   5.2557   5.3432   5.3952   5.4511   5.4561   5.4763   5.4868
     5.6733   5.7040   5.7831   5.7947   5.8213   5.8651   5.9087   5.9195
     5.9633   5.9764   6.0707   6.1811   6.1835   6.2925   6.3228   6.4645
     6.4679   6.4793   6.4911   6.5048   6.6362   6.6827   6.8229   6.8895
     6.9186   6.9634   7.0795   7.1708   7.1874   7.2010   7.2601   7.3138
     7.4786   7.5374   7.5509   7.6348   7.6501   7.7200   7.7893   7.8857
     7.9022   7.9070   7.9098   7.9162   8.0152   8.0569   8.1245   8.1272
     8.1456   8.1776   8.2136   8.2187   8.2967   8.3018   8.4615   8.4904
     8.5043   8.5740   8.5801   8.7191   8.7827   8.7972   8.7987   8.8286
     8.8349   8.9191   8.9682   8.9952   9.0040   9.0222   9.0267   9.0324
     9.2028   9.3157   9.3713   9.3847   9.4283   9.4458   9.4571   9.4848
     9.5087   9.5324   9.5329   9.5620   9.5737   9.6324   9.7317   9.7426
     9.8097   9.8107   9.8300   9.8563   9.8812   9.9743   9.9769  10.0451
    10.1378  10.1705  10.1713  10.2154  10.2438  10.2548  10.3014  10.3079
    10.4250  10.4517  10.4590  10.5354

          k =-0.5000 0.0000 0.0000 (256496 PWs)   bands (ev):

   -14.8656 -14.8648 -14.4974 -14.4967 -14.4901 -14.4894 -13.3983 -13.3977
   -13.3970 -13.3963 -11.6210 -11.6203 -11.6194 -11.6187 -11.0502 -11.0489
   -10.7201 -10.7198 -10.7136 -10.7118 -10.0670 -10.0657  -9.6493  -9.6487
    -9.0767  -9.0762  -8.6664  -8.6655  -7.8350  -7.8333  -7.8329  -7.8309
    -6.3376  -6.3376  -6.2648  -6.2640  -6.2636  -6.2629  -4.8181  -4.8169
    -4.5623  -4.5608  -4.0980  -4.0974  -4.0750  -4.0722  -4.0363  -4.0359
    -3.6820  -3.6814  -3.6751  -3.6745  -3.6276  -3.6214  -3.5845  -3.5840
    -3.5839  -3.5834  -3.2963  -3.2956  -3.2940  -3.2916  -3.1425  -3.1390
    -3.0770  -3.0753  -2.9389  -2.9371  -2.6625  -2.6619  -2.6585  -2.6578
    -2.5084  -2.5071  -2.4954  -2.4945  -2.3488  -2.3412  -2.2974  -2.2967
    -2.2856  -2.2854  -2.2851  -2.2847  -2.0280  -2.0242  -1.9197  -1.9187
    -1.7357  -1.7344  -1.7295  -1.7288  -1.6937  -1.6936  -1.6928  -1.6926
    -1.2533  -1.2524  -1.2468  -1.2464  -1.1879  -1.1865  -1.1765  -1.1752
    -1.1257  -1.1241  -1.1230  -1.1226  -1.1095  -1.1093  -1.0656  -1.0650
    -0.8928  -0.8926  -0.8903  -0.8901  -0.8584  -0.8567  -0.8405  -0.8398
    -0.8301  -0.8290  -0.7404  -0.7380  -0.7236  -0.7233  -0.6907  -0.6875
    -0.6707  -0.6701  -0.6653  -0.6625  -0.6288  -0.6269  -0.5917  -0.5914
    -0.5904  -0.5902  -0.5784  -0.5778  -0.5528  -0.5512  -0.5417  -0.5415
    -0.5286  -0.5277  -0.5193  -0.5187  -0.5126  -0.5117  -0.5089  -0.5081
    -0.4677  -0.4619  -0.4428  -0.4425  -0.4245  -0.4239  -0.4135  -0.4134
    -0.3776  -0.3773  -0.3768  -0.3766  -0.3759  -0.3756  -0.3751  -0.3744
    -0.3568  -0.3547  -0.3389  -0.3388  -0.3377  -0.3372  -0.3307  -0.3305
    -0.3044  -0.3006  -0.2813  -0.2800  -0.2629  -0.2619  -0.2535  -0.2521
    -0.2208  -0.2195  -0.2102  -0.2093  -0.1963  -0.1950  -0.1911  -0.1907
    -0.1827  -0.1813  -0.1544  -0.1515  -0.1506  -0.1484  -0.1472  -0.1462
    -0.1409  -0.1377  -0.1021  -0.0994  -0.0574  -0.0568  -0.0221  -0.0218
     0.0362   0.0366   0.0434   0.0449   0.0531   0.0547   0.0837   0.0844
     0.0861   0.0863   0.0964   0.0967   0.1147   0.1156   0.1396   0.1400
     0.1606   0.1609   0.1609   0.1611   0.1727   0.1748   0.2111   0.2119
     0.2147   0.2154   0.2608   0.2610   0.2975   0.2983   0.3002   0.3007
     0.3089   0.3095   0.3115   0.3142   0.3537   0.3548   0.3571   0.3585
     0.3648   0.3734   0.3876   0.3883   0.3986   0.3988   0.4046   0.4059
     0.4187   0.4189   0.4380   0.4382   0.4393   0.4394   0.4725   0.4728
     0.4767   0.4774   0.4775   0.4791   0.5060   0.5075   0.5134   0.5143
     0.5195   0.5200   0.5226   0.5236   0.5593   0.5597   0.5694   0.5697
     0.5722   0.5730   0.6029   0.6030   0.6034   0.6045   0.6302   0.6303
     0.6519   0.6522   0.6525   0.6525   0.6642   0.6652   0.7135   0.7139
     0.7229   0.7237   0.7244   0.7245   0.7290   0.7295   0.7417   0.7420
     0.7524   0.7526   0.7540   0.7546   0.7555   0.7556   0.7593   0.7601
     0.7695   0.7702   0.7793   0.7810   0.7868   0.7870   0.7911   0.7913
     0.8158   0.8160   0.8190   0.8215   0.8649   0.8660   0.8677   0.8680
     0.8687   0.8695   0.8724   0.8725   0.8784   0.8795   0.8865   0.8865
     0.8872   0.8873   0.8908   0.8909   0.8963   0.8971   0.8999   0.9008
     0.9021   0.9031   0.9120   0.9126   0.9171   0.9171   0.9324   0.9325
     0.9612   0.9620   0.9672   0.9681   0.9812   0.9820   0.9823   0.9849
     1.0434   1.0460   1.0540   1.0543   1.0735   1.0794   1.0796   1.0802
     1.0883   1.0886   1.0894   1.0911   1.0971   1.0977   1.1031   1.1065
     1.1199   1.1200   1.1202   1.1207   1.1266   1.1277   1.1296   1.1308
     1.1426   1.1427   1.1431   1.1435   1.1473   1.1475   1.1672   1.1678
     1.1765   1.1786   1.1876   1.1896   1.2074   1.2103   1.2150   1.2166
     1.2437   1.2447   1.2519   1.2558   1.2692   1.2700   1.2743   1.2767
     1.2820   1.2830   1.2890   1.2900   1.3055   1.3058   1.3097   1.3121
     1.3228   1.3233   1.3336   1.3339   1.3343   1.3348   1.3355   1.3363
     1.3511   1.3514   1.3597   1.3625   1.3717   1.3747   1.3754   1.3766
     1.3869   1.3879   1.3942   1.3947   1.4008   1.4013   1.4077   1.4086
     1.4097   1.4113   1.4262   1.4271   1.4284   1.4288   1.4352   1.4366
     1.4484   1.4490   1.4592   1.4595   1.4613   1.4623   1.4913   1.4915
     1.5019   1.5062   1.5157   1.5175   1.5240   1.5258   1.5400   1.5419
     1.5427   1.5461   1.5492   1.5514   1.5542   1.5553   1.5629   1.5651
     1.5677   1.5707   1.5943   1.5950   1.6047   1.6072   1.6080   1.6086
     1.6092   1.6096   1.6106   1.6127   1.6303   1.6318   1.6322   1.6332
     1.6368   1.6373   1.6403   1.6455   1.6473   1.6478   1.6753   1.6758
     1.6765   1.6772   1.6959   1.6963   1.7067   1.7080   1.7194   1.7235
     1.7416   1.7447   1.7457   1.7478   1.7691   1.7696   1.7707   1.7710
     1.7828   1.7870   1.7930   1.7940   1.7948   1.8009   1.8154   1.8227
     1.8391   1.8397   1.8427   1.8464   1.8495   1.8511   1.8529   1.8533
     1.8598   1.8602   1.8623   1.8661   1.8859   1.8923   1.8938   1.8941
     1.8976   1.8986   1.9003   1.9007   1.9105   1.9113   1.9133   1.9145
     1.9155   1.9191   1.9271   1.9276   1.9372   1.9388   1.9462   1.9462
     1.9607   1.9615   1.9658   1.9665   1.9819   1.9849   1.9858   1.9865
     1.9936   1.9937   1.9941   1.9957   1.9984   1.9992   2.0017   2.0055
     2.0098   2.0101   2.0183   2.0186   2.0202   2.0221   2.0285   2.0291
     2.0377   2.0387   2.0627   2.0632   2.0663   2.0679   2.0797   2.0798
     2.0872   2.0879   2.0884   2.0886   2.0903   2.0912   2.0920   2.0922
     2.0963   2.0993   2.1035   2.1040   2.1047   2.1054   2.1056   2.1079
     2.1123   2.1129   2.1137   2.1146   2.1322   2.1325   2.1343   2.1343
     2.1465   2.1489   2.1631   2.1639   2.1651   2.1655   2.1846   2.1850
     2.1875   2.1880   2.1882   2.1885   2.1934   2.1937   2.1998   2.2002
     2.2025   2.2025   2.2101   2.2107   2.2108   2.2126   2.2258   2.2262
     2.2374   2.2377   2.2387   2.2388   2.2466   2.2489   2.2658   2.2666
     2.2738   2.2743   2.2780   2.2783   2.2850   2.2851   2.2855   2.2858
     2.2942   2.2944   2.3191   2.3235   2.3386   2.3388   2.3527   2.3546
     2.3844   2.3845   2.3886   2.3887   2.4043   2.4046   2.4529   2.4536
     2.5146   2.5153   2.6812   2.6830   2.9580   2.9584   2.9790   2.9797
     3.0331   3.0333   3.0598   3.0599   3.0603   3.0606   3.4943   3.4955
     3.5399   3.5409   3.6710   3.6716   3.7761   3.7783   3.8954   3.8960
     3.9329   3.9333   3.9710   3.9713   4.1073   4.1084   4.5728   4.5742
     4.5829   4.5831   4.6665   4.6673   4.7116   4.7149   4.7843   4.7851
     4.8549   4.8554   5.3801   5.3827   5.3908   5.3916   5.4581   5.4603
     5.4915   5.4961   5.5843   5.5861   5.6010   5.6018   5.6401   5.6415
     5.7542   5.7621   5.7771   5.7788   5.7809   5.7860   5.8109   5.8325
     5.8385   5.8475   6.0269   6.0289   6.0616   6.0665   6.3171   6.3255
     6.3784   6.3813   6.3997   6.4066   6.4710   6.4833   6.6462   6.6491
     6.6648   6.6661   6.7364   6.7371   6.7991   6.8070   6.9400   6.9469
     6.9949   6.9957   7.1317   7.1334   7.4376   7.4387   7.5367   7.5463
     7.6249   7.6268   7.6289   7.6297   7.9209   7.9212   7.9838   7.9850
     8.1483   8.1522   8.3171   8.3176   8.3321   8.3358   8.3395   8.3399
     8.4490   8.4494   8.4877   8.4880   8.5142   8.5151   8.6260   8.6269
     8.6549   8.6550   8.8039   8.8106   8.8794   8.8804   8.9494   8.9511
     9.0482   9.0493   9.1821   9.1824   9.3051   9.3082   9.4334   9.4343
     9.4640   9.4654   9.5281   9.5298   9.5698   9.5719   9.6939   9.6944
     9.6983   9.6985   9.8609   9.8620   9.8635   9.8654   9.9224   9.9228
    10.0546  10.0579  10.3293  10.3304  10.3483  10.3507  10.3770  10.3778
    10.4564  10.4570  10.5706  10.5720

          k =-0.5000-0.2165 0.0000 (256328 PWs)   bands (ev):

   -14.7901 -14.7890 -14.7533 -14.7530 -14.0391 -14.0384 -14.0307 -14.0301
   -12.5901 -12.5894 -12.5874 -12.5867 -10.9832 -10.9801 -10.9466 -10.9457
   -10.5301 -10.5294 -10.5169 -10.5163 -10.3574 -10.3492 -10.3349 -10.3290
    -8.6603  -8.6578  -8.6394  -8.6368  -7.6861  -7.6850  -7.6730  -7.6725
    -6.9313  -6.9291  -6.9110  -6.9091  -4.8426  -4.8418  -4.8406  -4.8401
    -4.4645  -4.4618  -4.3992  -4.3990  -4.2308  -4.2253  -4.2102  -4.2065
    -4.0108  -4.0099  -3.9765  -3.9763  -3.6401  -3.6308  -3.4527  -3.4518
    -3.4078  -3.4075  -3.3330  -3.3328  -3.1292  -3.1287  -3.1226  -3.1221
    -2.8844  -2.8815  -2.7782  -2.7778  -2.6383  -2.6316  -2.5974  -2.5951
    -2.5899  -2.5875  -2.5712  -2.5710  -2.5708  -2.5707  -2.5570  -2.5562
    -2.2799  -2.2756  -1.9818  -1.9809  -1.9418  -1.9402  -1.9029  -1.9016
    -1.8198  -1.8194  -1.8114  -1.8112  -1.5372  -1.5342  -1.4919  -1.4884
    -1.3184  -1.3178  -1.3058  -1.3057  -1.2511  -1.2510  -1.2491  -1.2490
    -1.1304  -1.1286  -1.0690  -1.0667  -1.0310  -1.0308  -0.9564  -0.9558
    -0.9507  -0.9489  -0.9371  -0.9370  -0.8911  -0.8895  -0.8017  -0.8015
    -0.7302  -0.7292  -0.7260  -0.7259  -0.6799  -0.6761  -0.6750  -0.6724
    -0.6702  -0.6701  -0.6667  -0.6660  -0.6395  -0.6390  -0.6334  -0.6322
    -0.6232  -0.6207  -0.6112  -0.6110  -0.6059  -0.6058  -0.5934  -0.5933
    -0.5929  -0.5929  -0.5338  -0.5332  -0.4766  -0.4729  -0.4725  -0.4704
    -0.4545  -0.4535  -0.4351  -0.4342  -0.4173  -0.4172  -0.4000  -0.3995
    -0.3919  -0.3907  -0.3650  -0.3645  -0.3585  -0.3582  -0.3528  -0.3524
    -0.3482  -0.3481  -0.3390  -0.3384  -0.3205  -0.3202  -0.3148  -0.3143
    -0.3028  -0.3020  -0.2925  -0.2912  -0.2850  -0.2834  -0.2802  -0.2797
    -0.2659  -0.2655  -0.2598  -0.2597  -0.2212  -0.2142  -0.2107  -0.2097
    -0.1660  -0.1616  -0.1354  -0.1329  -0.1029  -0.1015  -0.0875  -0.0870
    -0.0526  -0.0505  -0.0414  -0.0403   0.0020   0.0025   0.0141   0.0144
     0.0180   0.0200   0.0243   0.0244   0.0338   0.0361   0.0378   0.0387
     0.0524   0.0527   0.0565   0.0565   0.0706   0.0710   0.0754   0.0756
     0.0971   0.0973   0.0993   0.0995   0.2041   0.2042   0.2122   0.2125
     0.2206   0.2221   0.2383   0.2398   0.2483   0.2499   0.2843   0.2848
     0.2853   0.2854   0.3055   0.3064   0.3147   0.3165   0.3338   0.3341
     0.3389   0.3389   0.3503   0.3506   0.3585   0.3664   0.3899   0.3951
     0.4126   0.4128   0.4177   0.4194   0.4600   0.4615   0.4717   0.4727
     0.4755   0.4760   0.5009   0.5011   0.5073   0.5074   0.5132   0.5133
     0.5190   0.5192   0.5251   0.5266   0.5335   0.5356   0.5762   0.5780
     0.5790   0.5799   0.5978   0.5984   0.6047   0.6048   0.6061   0.6063
     0.6413   0.6415   0.6553   0.6555   0.6571   0.6572   0.6586   0.6588
     0.6656   0.6660   0.6689   0.6690   0.6790   0.6790   0.7167   0.7174
     0.7270   0.7294   0.7574   0.7583   0.7731   0.7742   0.7757   0.7762
     0.7868   0.7903   0.7919   0.7926   0.8078   0.8085   0.8107   0.8126
     0.8387   0.8391   0.8472   0.8474   0.8523   0.8530   0.8555   0.8563
     0.8731   0.8732   0.8764   0.8765   0.8792   0.8795   0.8895   0.8903
     0.8943   0.8944   0.9048   0.9048   0.9054   0.9055   0.9205   0.9206
     0.9212   0.9215   0.9450   0.9456   0.9463   0.9484   0.9627   0.9641
     0.9732   0.9733   0.9833   0.9838   0.9896   0.9929   1.0074   1.0079
     1.0205   1.0206   1.0303   1.0317   1.0557   1.0579   1.0774   1.0789
     1.0943   1.0966   1.0994   1.1011   1.1099   1.1114   1.1191   1.1197
     1.1263   1.1267   1.1315   1.1323   1.1333   1.1336   1.1382   1.1384
     1.1486   1.1488   1.1542   1.1544   1.1730   1.1737   1.2005   1.2029
     1.2207   1.2216   1.2281   1.2286   1.2300   1.2339   1.2368   1.2370
     1.2376   1.2383   1.2463   1.2485   1.2573   1.2647   1.2656   1.2668
     1.2865   1.2881   1.2935   1.2939   1.2974   1.2980   1.3174   1.3197
     1.3208   1.3219   1.3293   1.3297   1.3407   1.3412   1.3414   1.3414
     1.3578   1.3582   1.3599   1.3616   1.3788   1.3820   1.3881   1.3882
     1.3989   1.4011   1.4097   1.4125   1.4131   1.4165   1.4228   1.4239
     1.4301   1.4331   1.4416   1.4431   1.4450   1.4455   1.4506   1.4512
     1.4602   1.4626   1.4708   1.4747   1.4775   1.4779   1.4871   1.4872
     1.4952   1.4977   1.5027   1.5028   1.5099   1.5117   1.5281   1.5292
     1.5362   1.5382   1.5464   1.5466   1.5538   1.5558   1.5604   1.5619
     1.5679   1.5687   1.5815   1.5829   1.5836   1.5857   1.5983   1.6026
     1.6275   1.6277   1.6491   1.6534   1.6549   1.6653   1.6701   1.6766
     1.6900   1.6913   1.6964   1.7013   1.7095   1.7167   1.7256   1.7267
     1.7360   1.7400   1.7420   1.7475   1.7540   1.7547   1.7613   1.7619
     1.7673   1.7692   1.7761   1.7768   1.7857   1.7870   1.7903   1.7926
     1.7988   1.7992   1.7999   1.8010   1.8104   1.8108   1.8162   1.8164
     1.8173   1.8178   1.8192   1.8210   1.8231   1.8243   1.8270   1.8285
     1.8362   1.8379   1.8386   1.8399   1.8615   1.8617   1.8620   1.8623
     1.8707   1.8722   1.8768   1.8806   1.8864   1.8868   1.8908   1.8928
[...]
     atom   24 type  1   force =    -0.00000573    0.00029795    0.00006919
     atom   25 type  1   force =    -0.00001369    0.00104349    0.00182021
     atom   26 type  1   force =     0.00001369    0.00061046    0.00102000
     atom   27 type  1   force =     0.00001369    0.00105448    0.00181906
     atom   28 type  1   force =    -0.00001367    0.00065162    0.00108292
     atom   29 type  1   force =    -0.00001260   -0.00059277    0.00305517
     atom   30 type  1   force =     0.00002284    0.00061292    0.00304154
     atom   31 type  1   force =     0.00001263   -0.00059173    0.00305356
     atom   32 type  1   force =    -0.00002288    0.00061158    0.00309438
     atom   33 type  1   force =     0.00002561   -0.00063414    0.00104541
     atom   34 type  1   force =     0.00002430   -0.00103523    0.00179771
     atom   35 type  1   force =    -0.00002570   -0.00064253    0.00103858
     atom   36 type  1   force =    -0.00002420   -0.00106440    0.00185123
     atom   37 type  1   force =    -0.00001547   -0.00031079    0.00007702
     atom   38 type  1   force =     0.00001341   -0.00055626    0.00080888
     atom   39 type  1   force =     0.00001545   -0.00032267    0.00006960
     atom   40 type  1   force =    -0.00001332   -0.00052257    0.00076248
     atom   41 type  1   force =     0.00003717    0.00043463   -0.00101372
     atom   42 type  1   force =     0.00001002    0.00090953    0.00034838
     atom   43 type  1   force =    -0.00003701    0.00043210   -0.00102550
     atom   44 type  1   force =    -0.00000996    0.00043335   -0.00021666
     atom   45 type  1   force =     0.00016330    0.00065380    0.00147087
     atom   46 type  1   force =     0.00002209   -0.00153795    0.00261182
     atom   47 type  1   force =    -0.00016308    0.00067816    0.00147248
     atom   48 type  1   force =    -0.00002209   -0.00119256    0.00288583
     atom   49 type  1   force =    -0.00015960   -0.00093539    0.00268764
     atom   50 type  1   force =     0.00002321    0.00114338    0.00244189
     atom   51 type  1   force =     0.00015938   -0.00093785    0.00268867
     atom   52 type  1   force =    -0.00002324    0.00085343    0.00284874
     atom   53 type  1   force =     0.00016680    0.00114283    0.00295951
     atom   54 type  1   force =     0.00001969   -0.00108181    0.00174686
     atom   55 type  1   force =    -0.00016643    0.00114325    0.00295492
     atom   56 type  1   force =    -0.00001963   -0.00053677    0.00110623
     atom   57 type  1   force =     0.00003641   -0.00040550   -0.00025488
     atom   58 type  1   force =     0.00000506   -0.00042112   -0.00102412
     atom   59 type  1   force =    -0.00003634   -0.00041397   -0.00026407
     atom   60 type  1   force =    -0.00000520   -0.00042735   -0.00106686
     atom   61 type  1   force =     0.00022276    0.00077789    0.00210045
     atom   62 type  1   force =     0.00000448   -0.00046154   -0.00173428
     atom   63 type  1   force =    -0.00022263    0.00083159    0.00214270
     atom   64 type  1   force =    -0.00000448   -0.00045790   -0.00169835
     atom   65 type  1   force =    -0.00021448    0.00254869   -0.00443365
     atom   66 type  1   force =     0.00002762   -0.00148472    0.00093414
     atom   67 type  1   force =     0.00021447    0.00258790   -0.00445459
     atom   68 type  1   force =    -0.00002831   -0.00178526    0.00033301
     atom   69 type  1   force =     0.00008079   -0.00428921   -0.00421216
     atom   70 type  1   force =     0.00002411    0.00425795   -0.00486825
     atom   71 type  1   force =    -0.00007870   -0.00435748   -0.00424434
     atom   72 type  1   force =    -0.00002465    0.00387703   -0.00415237
     atom   73 type  1   force =     0.00036083    0.00170026    0.00007020
     atom   74 type  1   force =     0.00001431   -0.00276743   -0.00338314
     atom   75 type  1   force =    -0.00035941    0.00167245    0.00004334
     atom   76 type  1   force =    -0.00001667   -0.00260090   -0.00435995
     atom   77 type  1   force =     0.00004034    0.00050941   -0.00171075
     atom   78 type  1   force =     0.00001126   -0.00055122    0.00198987
     atom   79 type  1   force =    -0.00004023    0.00050628   -0.00171435
     atom   80 type  1   force =    -0.00001122   -0.00054229    0.00205830
     atom   81 type  1   force =     0.00005529   -0.00077595    0.00047243
     atom   82 type  1   force =     0.00003255    0.00228086    0.00079650
     atom   83 type  1   force =    -0.00005545   -0.00076566    0.00045792
     atom   84 type  1   force =    -0.00003121    0.00315264    0.00075487
     atom   85 type  1   force =     0.00034432    0.00299698    0.00216563
     atom   86 type  1   force =     0.00008507   -0.00608739   -0.00151873
     atom   87 type  1   force =    -0.00034327    0.00304560    0.00221860
     atom   88 type  1   force =    -0.00008201   -0.00127614    0.00198970
     atom   89 type  1   force =    -0.00319189   -0.00225275    0.00439276
     atom   90 type  1   force =     0.00002867    0.00692664    0.00203072
     atom   91 type  1   force =     0.00318009   -0.00231019    0.00442915
     atom   92 type  1   force =    -0.00002455    0.00203861    0.00625096
     atom   93 type  1   force =    -0.00005079    0.00107935    0.00173905
     atom   94 type  1   force =     0.00004719   -0.00235809    0.00220962
     atom   95 type  1   force =     0.00005166    0.00097585    0.00193183
     atom   96 type  1   force =    -0.00004613   -0.00292195    0.00226737
     atom   97 type  1   force =     0.00000411   -0.00247545    0.00087167
     atom   98 type  1   force =    -0.00000081    0.00078780    0.00049340
     atom   99 type  1   force =    -0.00000394   -0.00244916    0.00085097
     atom  100 type  1   force =     0.00000070    0.00080112    0.00053764
     atom  101 type  1   force =     0.00006980    0.00039503   -0.00223594
     atom  102 type  1   force =    -0.00007737   -0.00030376   -0.00299407
     atom  103 type  1   force =    -0.00101106    0.00313007    0.00125374
     atom  104 type  1   force =    -0.00000768   -0.00303733    0.00239446
     atom  105 type  1   force =     0.00100540    0.00319509    0.00099319
     atom  106 type  1   force =     0.00001308   -0.00274980    0.00011344
     atom  107 type  1   force =    -0.00117139   -0.00043534   -0.00117111
     atom  108 type  1   force =     0.00116965   -0.00032419   -0.00120509
     atom  109 type  2   force =    -0.00003877    0.00132196   -0.00098807
     atom  110 type  2   force =    -0.00006346   -0.00063315   -0.00126275
     atom  111 type  2   force =    -0.00196165   -0.00027929   -0.00055263
     atom  112 type  2   force =    -0.00076651   -0.00001130   -0.00103686
     atom  113 type  2   force =     0.00212738   -0.00111874   -0.00031842
     atom  114 type  2   force =     0.00080115    0.00164426   -0.00088386
     atom  115 type  2   force =    -0.00005052    0.00126526   -0.00065067
     atom  116 type  2   force =     0.00000049   -0.00129690   -0.00207051
     atom  117 type  2   force =    -0.00206984   -0.00116764   -0.00033346
     atom  118 type  2   force =    -0.00081978    0.00171521   -0.00094444
     atom  119 type  2   force =     0.00199416   -0.00026731   -0.00054839
     atom  120 type  2   force =     0.00083778   -0.00005665   -0.00103942
     atom  121 type  2   force =     0.00000220    0.00131787   -0.00260488
     atom  122 type  2   force =     0.00005081   -0.00001692   -0.00266578
     atom  123 type  2   force =     0.00084601   -0.00045818   -0.00167849
     atom  124 type  2   force =    -0.00041185   -0.00147295   -0.00127300
     atom  125 type  2   force =    -0.00089151    0.00159785   -0.00198275
     atom  126 type  2   force =     0.00052797   -0.00049354   -0.00144544
     atom  127 type  2   force =     0.00002460   -0.00121373   -0.00184942
     atom  128 type  2   force =    -0.00003159   -0.00160895   -0.00172796
     atom  129 type  2   force =     0.00085648    0.00161604   -0.00184945
     atom  130 type  2   force =    -0.00043984   -0.00048792   -0.00169194
     atom  131 type  2   force =    -0.00084218   -0.00048268   -0.00145208
     atom  132 type  2   force =     0.00030669   -0.00147742   -0.00152257
     atom  133 type  2   force =    -0.00003329   -0.00007595   -0.00162548
     atom  134 type  2   force =    -0.00001248   -0.00157290   -0.00181595
     atom  135 type  2   force =     0.00006788    0.00193253   -0.00187440
     atom  136 type  2   force =    -0.00064390    0.00115687   -0.00156246
     atom  137 type  2   force =    -0.00019294   -0.00024452   -0.00242975
     atom  138 type  2   force =     0.00065867   -0.00121527   -0.00207843
     atom  139 type  2   force =    -0.00001509    0.00150485   -0.00145828
     atom  140 type  2   force =     0.00005349   -0.00008943   -0.00132616
     atom  141 type  2   force =     0.00020075   -0.00021797   -0.00219162
     atom  142 type  2   force =    -0.00071916   -0.00116845   -0.00207301
     atom  143 type  2   force =    -0.00001836    0.00193101   -0.00173202
     atom  144 type  2   force =     0.00067634    0.00109156   -0.00163710
     atom  145 type  2   force =     0.00005713   -0.00231356   -0.00060642
     atom  146 type  2   force =     0.00000955    0.00193772   -0.00013910
     atom  147 type  2   force =     0.00099344    0.00074638   -0.00167645
     atom  148 type  2   force =     0.00178586   -0.00072763   -0.00048572
     atom  149 type  2   force =    -0.00100267   -0.00029347   -0.00095053
     atom  150 type  2   force =    -0.00187159   -0.00069443   -0.00066934
     atom  151 type  2   force =     0.00004238   -0.00008012   -0.00080847
     atom  152 type  2   force =     0.00000680    0.00117976   -0.00053587
     atom  153 type  2   force =     0.00096302   -0.00027511   -0.00094445
     atom  154 type  2   force =     0.00187577   -0.00078209   -0.00066682
     atom  155 type  2   force =    -0.00105451    0.00076072   -0.00169658
     atom  156 type  2   force =    -0.00180629   -0.00065069   -0.00048438

     Total force =     0.032139     Total SCF correction =     0.000265

     number of scf cycles    =  13
     number of bfgs steps    =  12

     energy   old            =  -13670.8447579060 Ry
     energy   new            =  -13670.8469713987 Ry

     CASE: energy  _new < energy  _old

     new trust radius        =       0.0339709569 bohr
     new conv_thr            =       0.0000000100 Ry


ATOMIC_POSITIONS (angstrom)
Cu      -0.000043050  -0.001674532   6.322407970
Cu       1.844512141   1.702169082   6.324970139
Cu       3.689080709  -0.001665768   6.322417457
Cu       5.533561449   1.702023574   6.324721600
Cu       0.000050425   3.408653505   6.326992903
Cu       1.844503309   5.112876727   6.327939764
Cu       3.688986385   3.408598613   6.326961638
Cu       5.533570114   5.112892467   6.327800182
Cu       0.000031979   6.815686859   6.326597622
Cu       1.844494179   8.519342601   6.326663717
Cu       3.689004254   6.815670957   6.326571245
Cu       5.533580470   8.519320602   6.326518861
Cu       0.000048368  10.222171188   6.327795330
Cu       1.844499107  11.926508022   6.326958944
Cu       3.688987856  10.222187311   6.327758539
Cu       5.533574635  11.926657114   6.326688902
Cu      -0.000047151  13.632996643   6.324786003
Cu       1.844507797  15.336478254   6.322190903
Cu       3.689084155  13.633038066   6.324745266
Cu       5.533565550  15.336474782   6.322670066
Cu      -0.000129268   1.698430597   8.160056654
Cu       1.844473424  -0.003290124   8.163165074
Cu       3.689166041   1.698426760   8.160105300
Cu       5.533600818  -0.002522498   8.164017241
Cu      -0.000003353   5.118365904   8.167568084
Cu       1.844472704   3.406600059   8.161242069
Cu       3.689040338   5.118313883   8.167566422
Cu       5.533600830   3.406336958   8.160764349
Cu       0.000022699   8.513831445   8.171650293
Cu       1.844446857   6.821260179   8.171672455
Cu       3.689014008   8.513825409   8.171691432
Cu       5.533626705   6.821183678   8.171767691
Cu      -0.000141502  11.929105043   8.160563110
Cu       1.844439325  10.216809875   8.167626600
Cu       3.689178452  11.929154912   8.160570987
Cu       5.533633890  10.217160252   8.167036065
Cu      -0.000194768  15.337125472   8.164115512
Cu       1.844460784  13.637043768   8.159835550
Cu       3.689231552  15.337112930   8.164064686
Cu       5.533612926  13.636222581   8.160687454
Cu      -0.000331250  -0.002987748  10.012769523
Cu       1.844426878   1.703172278  10.008664558
Cu       3.689368298  -0.003179313  10.012574449
Cu       5.533647932   1.704130467  10.010037507
Cu       0.000049567   3.411361000  10.006477346
Cu       1.844435098   5.116152852  10.019361478
Cu       3.688987889   3.411381300  10.006530307
Cu       5.533639764   5.116195348  10.019690611
Cu      -0.000158211   6.818899697  10.065354326
Cu       1.844371211   8.516411528  10.065049666
Cu       3.689195247   6.818749064  10.065238985
Cu       5.533702083   8.516761816  10.064689589
Cu       0.000083420  10.219755024  10.018666723
Cu       1.844411283  11.924749632  10.005468546
Cu       3.688954694  10.219894280  10.018463652
Cu       5.533663917  11.923722237  10.006896643
Cu      -0.000365224  13.630599661  10.010588134
Cu       1.844447480  15.337065405  10.013203860
Cu       3.689402018  13.630705384  10.010509097
Cu       5.533626552  15.336961257  10.012992933
Cu      -0.000464360   1.703206249  11.848537194
Cu       1.844395934  -0.002901076  11.855584006
Cu       3.689502728   1.702704355  11.847881200
Cu       5.533678709  -0.004381253  11.855127838
Cu       0.001251656   5.053214878  11.918603231
Cu       1.844418842   3.398060439  11.880269744
Cu       3.687790830   5.053321063  11.918738731
Cu       5.533657488   3.394484732  11.876319142
Cu       0.002229131   8.573165892  11.916504316
Cu       1.844266551   6.762587270  11.909587842
Cu       3.686815775   8.572950447  11.915236987
Cu       5.533805770   6.762729224  11.916696111
Cu      -0.000460597  11.940623718  11.876455183
Cu       1.844175196  10.276945995  11.920305631
Cu       3.689500279  11.940941085  11.875917787
Cu       5.533907175  10.283024984  11.916012900
Cu       0.000271757  15.337763479  11.855825563
Cu       1.844449434  13.630783415  11.849037277
Cu       3.688765354  15.337820222  11.855835224
Cu       5.533624330  13.631950366  11.849139261
Cu       0.000975975  -0.010299358  13.698297784
Cu       1.844311454   1.654135633  13.707064367
Cu       3.688062596  -0.010078137  13.698245776
Cu       5.533763492   1.649792429  13.708215026
Cu       0.002516923   3.310792261  13.779464902
Cu       1.843533055   5.015462160  13.823444111
Cu       3.686543034   3.310712958  13.777489697
Cu       5.534498736   5.005531127  13.812294881
Cu       0.006949186   6.793272039  13.692271854
Cu       1.844556008   8.530136963  13.701727820
Cu       3.682068085   6.793952911  13.691309061
Cu       5.533544656   8.539311240  13.687595483
Cu       0.001486273  10.334734301  13.815111551
Cu       1.844962777  12.025211128  13.778936175
Cu       3.687542506  10.331738186  13.810772976
Cu       5.533108286  12.027299426  13.781069364
Cu       0.000616136  13.682340925  13.708143938
Cu       1.844512463  15.344363237  13.697892961
Cu       3.688417069  13.682594161  13.708263965
Cu       5.533560851  15.344562001  13.698295274
Cu       1.849333851  10.182160409  15.538507342
Cu       5.528728380  10.181407319  15.541207119
Cu      -0.000517047   8.497680398  15.520300484
Cu       1.842825105   6.845084594  15.536521315
Cu       3.689534902   8.491481532  15.524524252
Cu       5.535214249   6.842678301  15.523641325
Cu       0.002655250   5.152542917  15.541415341
Cu       3.686395962   5.152306965  15.536868827
C       -0.000004586   0.709620918  18.981174725
C       -0.000010044   2.129562707  18.960239121
C        1.229155919   0.000143565  18.986412677
C        1.229690685   2.839860899  18.947567331
C        2.459816939   0.708795174  18.979155526
C        2.459551219   2.129621879  18.960426449
C        3.689026094   0.000192373  18.985046783
C        3.689026699   2.838669338  18.946496709
C        4.918268860   0.708794560  18.979255042
C        4.918492662   2.129646499  18.960346447
C        6.148932826   0.000147507  18.986432530
C        6.148397466   2.839827625  18.947084364
C        0.000009481   4.970306777  18.902072397
C        0.000004472   6.390568150  18.896104482
C        1.230541770   4.258299477  18.919570497
C        1.229609510   7.098887820  18.889142516
C        2.458732744   4.970269927  18.905816477
C        2.459229947   6.389492520  18.888586089
C        3.689029795   4.258130029  18.913799750
C        3.689042905   7.098536758  18.888049207
C        4.919310521   4.970271208  18.905982380
C        4.918892511   6.389495838  18.889450475
C        6.147507081   4.258293408  18.919083393
C        6.148414604   7.098891860  18.889979986
C        0.000008865   9.229163870  18.896034201
C        0.000009268  10.648704694  18.916379743
C        1.229403948   8.520129956  18.893231127
C        1.228850636  11.360356490  18.923512237
C        2.459347516   9.228091296  18.894442550
C        2.459714420  10.648887698  18.906580987
C        3.689025291   8.519542346  18.887035632
C        3.689038594  11.360007897  18.922645220
C        4.918761179   9.228083670  18.893788187
C        4.918352216  10.648915809  18.905950062
C        6.148714394   8.520122642  18.893282309
C        6.149266289  11.360341862  18.923358551
C        0.000012896  13.489085136  18.965885168
C        0.000006372  14.909969483  18.981392585
C        1.229733397  12.779415077  18.952927842
C        1.230089344  15.618463645  18.986746719
C        2.459051559  13.489152222  18.963352107
C        2.458953291  14.909148608  18.981853649
C        3.689042010  12.778527272  18.950275692
C        3.689035829  15.618649371  18.987178827
C        4.919007752  13.489155252  18.963371267
C        4.919123097  14.909128375  18.981844065
C        6.148331488  12.779405835  18.953043235
C        6.147980236  15.618480931  18.986742531



     Writing output data file gc.save
     Check: negative starting charge=   -0.003651
     NEW-OLD atomic charge density approx. for the potential
     Check: negative starting charge=   -0.003668

     negative rho (up, down):  4.214E-04 0.000E+00

     total cpu time spent up to now is    48556.0 secs

     Self-consistent Calculation

     iteration #  1     ecut=    80.00 Ry     beta=0.70
     Davidson diagonalization with overlap
     c_bands:  1 eigenvalues not converged
     ethr =  1.00E-06,  avg # of iterations = 12.8

     negative rho (up, down):  5.436E-06 0.000E+00

     total cpu time spent up to now is    49189.7 secs

     total energy              =  -13670.84320718 Ry
     Harris-Foulkes estimate   =  -13670.86091379 Ry
     estimated scf accuracy    <       0.30391280 Ry

     iteration #  2     ecut=    80.00 Ry     beta=0.70
     Davidson diagonalization with overlap
     ethr =  2.20E-05,  avg # of iterations =  1.0

     negative rho (up, down):  1.917E-06 0.000E+00

     total cpu time spent up to now is    49344.8 secs

     total energy              =  -13670.84342729 Ry
     Harris-Foulkes estimate   =  -13670.85430474 Ry
     estimated scf accuracy    <       0.04600302 Ry

     iteration #  3     ecut=    80.00 Ry     beta=0.70
     Davidson diagonalization with overlap
     ethr =  3.33E-06,  avg # of iterations =  5.8

     negative rho (up, down):  2.791E-07 0.000E+00

     total cpu time spent up to now is    49576.8 secs

     total energy              =  -13670.84653025 Ry
     Harris-Foulkes estimate   =  -13670.85188302 Ry
     estimated scf accuracy    <       0.08928749 Ry

     iteration #  4     ecut=    80.00 Ry     beta=0.70
     Davidson diagonalization with overlap
