
     Program PWSCF v.5.4.0 starts on 12Mar2017 at  8: 7:52 

     This program is part of the open-source Quantum ESPRESSO suite
     for quantum simulation of materials; please cite
         "P. Giannozzi et al., J. Phys.:Condens. Matter 21 395502 (2009);
          URL http://www.quantum-espresso.org", 
     in publications or presentations arising from this work. More details at
     http://www.quantum-espresso.org/quote

     Parallel version (MPI & OpenMP), running on      56 processor cores
     Number of MPI processes:                56
     Threads/MPI process:                     1
     R & G space division:  proc/nbgrp/npool/nimage =      56
     Waiting for input...
     Reading input from standard input

     Current dimensions of program PWSCF are:
     Max number of different atomic species (ntypx) = 10
     Max number of k-points (npk) =  40000
     Max angular momentum in pseudopotentials (lmaxx) =  3

     -------------------------------------
     Parameters for Dispersion Correction:
     -------------------------------------
       atom      VdW radius       C_6     

        Cu         2.952        374.666
        C          2.744         60.710

     Subspace diagonalization in iterative solution of the eigenvalue problem:
     one sub-group per band group will be used
     scalapack distributed-memory algorithm (size of sub-group:  5*  5 procs)

 
     Parallelization info
     --------------------
     sticks:   dense  smooth     PW     G-vecs:    dense   smooth      PW
     Min         114     114     54                15434    15434    4962
     Max         115     115     55                15451    15451    4968
     Sum        6411    6411   3039               864803   864803  278033
 


     bravais-lattice index     =            0
     lattice parameter (alat)  =      13.9425  a.u.
     unit-cell volume          =   21209.0878 (a.u.)^3
     number of atoms/cell      =          156
     number of atomic types    =            2
     number of electrons       =      1380.00
     number of Kohn-Sham states=          828
     kinetic-energy cutoff     =      80.0000  Ry
     charge density cutoff     =     180.0000  Ry
     convergence threshold     =      1.0E-08
     mixing beta               =       0.7000
     number of iterations used =            8  local-TF  mixing
     Exchange-correlation      =  SLA  PW   PBX  PBC ( 1  4  3  4 0 0)
     nstep                     =           50


     celldm(1)=  13.942539  celldm(2)=   0.000000  celldm(3)=   0.000000
     celldm(4)=   0.000000  celldm(5)=   0.000000  celldm(6)=   0.000000

     crystal axes: (cart. coord. in units of alat)
               a(1) = (   1.000000   0.000000   0.000000 )  
               a(2) = (   0.000000   2.309401   0.000000 )  
               a(3) = (   0.000000   0.000000   3.388418 )  

     reciprocal axes: (cart. coord. in units 2 pi/alat)
               b(1) = (  1.000000  0.000000  0.000000 )  
               b(2) = (  0.000000  0.433013  0.000000 )  
               b(3) = (  0.000000  0.000000  0.295123 )  


     PseudoPot. # 1 for Cu read from file:
     /home/549/hxw549/Short/pseudopotentials/Cu.pbe-n-van_ak.UPF
     MD5 check sum: 601f7c30f7467666bec936e0661ce3e1
     Pseudo is Ultrasoft + core correction, Zval = 11.0
     Generated by new atomic code, or converted to UPF format
     Using radial grid of  867 points,  6 beta functions with: 
                l(1) =   0
                l(2) =   0
                l(3) =   1
                l(4) =   1
                l(5) =   2
                l(6) =   2
     Q(r) pseudized with  8 coefficients,  rinner =    1.400   1.400   1.400
                                                       1.400   1.400

     PseudoPot. # 2 for C  read from file:
     /home/549/hxw549/Short/pseudopotentials/C.pbe-mt_gipaw.UPF
     MD5 check sum: 5ac2f21f2c440b14befe521540822c15
     Pseudo is Norm-conserving, Zval =  4.0
     Generated by new atomic code, or converted to UPF format
     Using radial grid of 1073 points,  1 beta functions with: 
                l(1) =   0

     atomic species   valence    mass     pseudopotential
        Cu            11.00    63.54600     Cu( 1.00)
        C              4.00    12.01070     C ( 1.00)

     No symmetry found



   Cartesian axes

     site n.     atom                  positions (alat units)
         1           Cu  tau(   1) = (  -0.0000058  -0.0002270   0.8569185  )
         2           Cu  tau(   2) = (   0.2499991   0.2307064   0.8572658  )
         3           Cu  tau(   3) = (   0.5000059  -0.0002258   0.8569198  )
         4           Cu  tau(   4) = (   0.7500008   0.2306867   0.8572321  )
         5           Cu  tau(   5) = (   0.0000068   0.4619977   0.8575399  )
         6           Cu  tau(   6) = (   0.2499979   0.6929826   0.8576682  )
         7           Cu  tau(   7) = (   0.4999931   0.4619903   0.8575357  )
         8           Cu  tau(   8) = (   0.7500020   0.6929847   0.8576493  )
         9           Cu  tau(   9) = (   0.0000043   0.9237759   0.8574863  )
        10           Cu  tau(  10) = (   0.2499967   1.1546838   0.8574953  )
        11           Cu  tau(  11) = (   0.4999956   0.9237737   0.8574828  )
        12           Cu  tau(  12) = (   0.7500034   1.1546808   0.8574757  )
        13           Cu  tau(  13) = (   0.0000066   1.3854796   0.8576487  )
        14           Cu  tau(  14) = (   0.2499974   1.6164799   0.8575353  )
        15           Cu  tau(  15) = (   0.4999933   1.3854818   0.8576437  )
        16           Cu  tau(  16) = (   0.7500026   1.6165001   0.8574987  )
        17           Cu  tau(  17) = (  -0.0000064   1.8477717   0.8572408  )
        18           Cu  tau(  18) = (   0.2499985   2.0786561   0.8568891  )
        19           Cu  tau(  19) = (   0.5000064   1.8477774   0.8572353  )
        20           Cu  tau(  20) = (   0.7500014   2.0786556   0.8569540  )
        21           Cu  tau(  21) = (  -0.0000175   0.2301997   1.1059874  )
        22           Cu  tau(  22) = (   0.2499939  -0.0004459   1.1064087  )
        23           Cu  tau(  23) = (   0.5000175   0.2301992   1.1059940  )
        24           Cu  tau(  24) = (   0.7500061  -0.0003419   1.1065242  )
        25           Cu  tau(  25) = (  -0.0000005   0.6937266   1.1070054  )
        26           Cu  tau(  26) = (   0.2499938   0.4617194   1.1061480  )
        27           Cu  tau(  27) = (   0.5000005   0.6937195   1.1070052  )
        28           Cu  tau(  28) = (   0.7500061   0.4616838   1.1060833  )
        29           Cu  tau(  29) = (   0.0000031   1.1539368   1.1075587  )
        30           Cu  tau(  30) = (   0.2499903   0.9245313   1.1075617  )
        31           Cu  tau(  31) = (   0.4999969   1.1539360   1.1075643  )
        32           Cu  tau(  32) = (   0.7500097   0.9245209   1.1075746  )
        33           Cu  tau(  33) = (  -0.0000192   1.6168319   1.1060560  )
        34           Cu  tau(  34) = (   0.2499893   1.3847530   1.1070134  )
        35           Cu  tau(  35) = (   0.5000192   1.6168386   1.1060571  )
        36           Cu  tau(  36) = (   0.7500106   1.3848005   1.1069333  )
        37           Cu  tau(  37) = (  -0.0000264   2.0787438   1.1065375  )
        38           Cu  tau(  38) = (   0.2499922   1.8483203   1.1059574  )
        39           Cu  tau(  39) = (   0.5000264   2.0787421   1.1065306  )
        40           Cu  tau(  40) = (   0.7500078   1.8482090   1.1060729  )
        41           Cu  tau(  41) = (  -0.0000449  -0.0004049   1.3570980  )
        42           Cu  tau(  42) = (   0.2499876   0.2308424   1.3565416  )
        43           Cu  tau(  43) = (   0.5000449  -0.0004309   1.3570716  )
        44           Cu  tau(  44) = (   0.7500125   0.2309723   1.3567277  )
        45           Cu  tau(  45) = (   0.0000067   0.4623647   1.3562452  )
        46           Cu  tau(  46) = (   0.2499887   0.6934266   1.3579915  )
        47           Cu  tau(  47) = (   0.4999933   0.4623675   1.3562524  )
        48           Cu  tau(  48) = (   0.7500114   0.6934324   1.3580361  )
        49           Cu  tau(  49) = (  -0.0000214   0.9242113   1.3642252  )
        50           Cu  tau(  50) = (   0.2499800   1.1542865   1.3641839  )
        51           Cu  tau(  51) = (   0.5000214   0.9241909   1.3642095  )
        52           Cu  tau(  52) = (   0.7500199   1.1543340   1.3641351  )
        53           Cu  tau(  53) = (   0.0000113   1.3851521   1.3578973  )
        54           Cu  tau(  54) = (   0.2499855   1.6162415   1.3561085  )
        55           Cu  tau(  55) = (   0.4999888   1.3851710   1.3578698  )
        56           Cu  tau(  56) = (   0.7500147   1.6161023   1.3563020  )
        57           Cu  tau(  57) = (  -0.0000495   1.8474469   1.3568024  )
        58           Cu  tau(  58) = (   0.2499904   2.0787356   1.3571569  )
        59           Cu  tau(  59) = (   0.5000495   1.8474612   1.3567916  )
        60           Cu  tau(  60) = (   0.7500096   2.0787215   1.3571283  )
        61           Cu  tau(  61) = (  -0.0000629   0.2308470   1.6059120  )
        62           Cu  tau(  62) = (   0.2499834  -0.0003932   1.6068671  )
        63           Cu  tau(  63) = (   0.5000631   0.2307790   1.6058230  )
        64           Cu  tau(  64) = (   0.7500167  -0.0005938   1.6068052  )
        65           Cu  tau(  65) = (   0.0001696   0.6848962   1.6154085  )
        66           Cu  tau(  66) = (   0.2499865   0.4605620   1.6102129  )
        67           Cu  tau(  67) = (   0.4998311   0.6849106   1.6154268  )
        68           Cu  tau(  68) = (   0.7500138   0.4600774   1.6096774  )
        69           Cu  tau(  69) = (   0.0003021   1.1619788   1.6151240  )
        70           Cu  tau(  70) = (   0.2499659   0.9165789   1.6141866  )
        71           Cu  tau(  71) = (   0.4996989   1.1619496   1.6149522  )
        72           Cu  tau(  72) = (   0.7500339   0.9165982   1.6151500  )
        73           Cu  tau(  73) = (  -0.0000624   1.6183931   1.6096959  )
        74           Cu  tau(  74) = (   0.2499535   1.3929036   1.6156392  )
        75           Cu  tau(  75) = (   0.5000628   1.6184361   1.6096230  )
        76           Cu  tau(  76) = (   0.7500477   1.3937276   1.6150574  )
        77           Cu  tau(  77) = (   0.0000368   2.0788303   1.6068998  )
        78           Cu  tau(  78) = (   0.2499906   1.8474718   1.6059797  )
        79           Cu  tau(  79) = (   0.4999632   2.0788380   1.6069011  )
        80           Cu  tau(  80) = (   0.7500093   1.8476299   1.6059936  )
        81           Cu  tau(  81) = (   0.0001323  -0.0013959   1.8566224  )
        82           Cu  tau(  82) = (   0.2499719   0.2241961   1.8578106  )
        83           Cu  tau(  83) = (   0.4998679  -0.0013660   1.8566154  )
        84           Cu  tau(  84) = (   0.7500282   0.2236075   1.8579666  )
        85           Cu  tau(  85) = (   0.0003411   0.4487339   1.8676236  )
        86           Cu  tau(  86) = (   0.2498664   0.6797793   1.8735844  )
        87           Cu  tau(  87) = (   0.4996620   0.4487232   1.8673559  )
        88           Cu  tau(  88) = (   0.7501278   0.6784333   1.8720732  )
        89           Cu  tau(  89) = (   0.0009419   0.9207379   1.8558057  )
        90           Cu  tau(  90) = (   0.2500051   1.1561468   1.8570873  )
        91           Cu  tau(  91) = (   0.4990555   0.9208301   1.8556752  )
        92           Cu  tau(  92) = (   0.7499985   1.1573903   1.8551719  )
        93           Cu  tau(  93) = (   0.0002014   1.4007361   1.8724550  )
        94           Cu  tau(  94) = (   0.2500602   1.6298578   1.8675519  )
        95           Cu  tau(  95) = (   0.4997974   1.4003300   1.8718670  )
        96           Cu  tau(  96) = (   0.7499394   1.6301408   1.8678410  )
        97           Cu  tau(  97) = (   0.0000835   1.8544597   1.8579570  )
        98           Cu  tau(  98) = (   0.2499992   2.0797248   1.8565676  )
        99           Cu  tau(  99) = (   0.4999160   1.8544940   1.8579732  )
       100           Cu  tau( 100) = (   0.7500007   2.0797517   1.8566221  )
       101           Cu  tau( 101) = (   0.2506527   1.3800567   2.1060384  )
       102           Cu  tau( 102) = (   0.7493457   1.3799546   2.1064043  )
       103           Cu  tau( 103) = (  -0.0000701   1.1517478   2.1035707  )
       104           Cu  tau( 104) = (   0.2497705   0.9277604   2.1057692  )
       105           Cu  tau( 105) = (   0.5000675   1.1509076   2.1041432  )
       106           Cu  tau( 106) = (   0.7502248   0.9274342   2.1040235  )
       107           Cu  tau( 107) = (   0.0003599   0.6983588   2.1064326  )
       108           Cu  tau( 108) = (   0.4996420   0.6983268   2.1058164  )
       109           C   tau( 109) = (  -0.0000006   0.0961797   2.5726463  )
       110           C   tau( 110) = (  -0.0000014   0.2886340   2.5698088  )
       111           C   tau( 111) = (   0.1665958   0.0000195   2.5733562  )
       112           C   tau( 112) = (   0.1666683   0.3849055   2.5680913  )
       113           C   tau( 113) = (   0.3333955   0.0960678   2.5723726  )
       114           C   tau( 114) = (   0.3333595   0.2886420   2.5698341  )
       115           C   tau( 115) = (   0.4999985   0.0000261   2.5731711  )
       116           C   tau( 116) = (   0.4999986   0.3847440   2.5679462  )
       117           C   tau( 117) = (   0.6666061   0.0960677   2.5723861  )
       118           C   tau( 118) = (   0.6666364   0.2886453   2.5698233  )
       119           C   tau( 119) = (   0.8334062   0.0000200   2.5733589  )
       120           C   tau( 120) = (   0.8333337   0.3849009   2.5680258  )
       121           C   tau( 121) = (   0.0000013   0.6736591   2.5619250  )
       122           C   tau( 122) = (   0.0000006   0.8661567   2.5611162  )
       123           C   tau( 123) = (   0.1667836   0.5771560   2.5642967  )
       124           C   tau( 124) = (   0.1666572   0.9621600   2.5601726  )
       125           C   tau( 125) = (   0.3332486   0.6736541   2.5624325  )
       126           C   tau( 126) = (   0.3333160   0.8660109   2.5600971  )
       127           C   tau( 127) = (   0.4999990   0.5771330   2.5635145  )
       128           C   tau( 128) = (   0.5000008   0.9621124   2.5600244  )
       129           C   tau( 129) = (   0.6667472   0.6736543   2.5624550  )
       130           C   tau( 130) = (   0.6666906   0.8660114   2.5602143  )
       131           C   tau( 131) = (   0.8332130   0.5771552   2.5642306  )
       132           C   tau( 132) = (   0.8333360   0.9621606   2.5602861  )
       133           C   tau( 133) = (   0.0000012   1.2508907   2.5611066  )
       134           C   tau( 134) = (   0.0000013   1.4432906   2.5638642  )
       135           C   tau( 135) = (   0.1666294   1.1547905   2.5607267  )
       136           C   tau( 136) = (   0.1665544   1.5397455   2.5648309  )
       137           C   tau( 137) = (   0.3333319   1.2507453   2.5608909  )
       138           C   tau( 138) = (   0.3333816   1.4433154   2.5625361  )
       139           C   tau( 139) = (   0.4999984   1.1547109   2.5598870  )
       140           C   tau( 140) = (   0.5000002   1.5396983   2.5647134  )
       141           C   tau( 141) = (   0.6666728   1.2507443   2.5608022  )
       142           C   tau( 142) = (   0.6666174   1.4433192   2.5624506  )
       143           C   tau( 143) = (   0.8333766   1.1547895   2.5607336  )
       144           C   tau( 144) = (   0.8334514   1.5397436   2.5648101  )
       145           C   tau( 145) = (   0.0000017   1.8282665   2.5705740  )
       146           C   tau( 146) = (   0.0000009   2.0208485   2.5726758  )
       147           C   tau( 147) = (   0.1666740   1.7320801   2.5688178  )
       148           C   tau( 148) = (   0.1667223   2.1168754   2.5734015  )
       149           C   tau( 149) = (   0.3332918   1.8282755   2.5702307  )
       150           C   tau( 150) = (   0.3332785   2.0207372   2.5727383  )
       151           C   tau( 151) = (   0.5000007   1.7319598   2.5684583  )
       152           C   tau( 152) = (   0.4999998   2.1169006   2.5734601  )
       153           C   tau( 153) = (   0.6667062   1.8282760   2.5702333  )
       154           C   tau( 154) = (   0.6667218   2.0207345   2.5727370  )
       155           C   tau( 155) = (   0.8333247   1.7320788   2.5688334  )
       156           C   tau( 156) = (   0.8332771   2.1168778   2.5734009  )

     number of k points=     6  gaussian smearing, width (Ry)=  0.1000
                       cart. coord. in units 2pi/alat
        k(    1) = (   0.0000000   0.0000000   0.0000000), wk =   0.2500000
        k(    2) = (   0.0000000  -0.2165064   0.0000000), wk =   0.2500000
        k(    3) = (   0.2500000   0.0000000   0.0000000), wk =   0.5000000
        k(    4) = (   0.2500000  -0.2165064   0.0000000), wk =   0.5000000
        k(    5) = (  -0.5000000   0.0000000   0.0000000), wk =   0.2500000
        k(    6) = (  -0.5000000  -0.2165064   0.0000000), wk =   0.2500000

     Dense  grid:   864803 G-vectors     FFT dimensions: (  60, 144, 216)

     Largest allocated arrays     est. size (Mb)     dimensions
        Kohn-Sham Wavefunctions        58.29 Mb     (    4614,  828)
        NL pseudopotentials           140.24 Mb     (    4614, 1992)
        Each V/rho on FFT grid          0.53 Mb     (   34560)
        Each G-vector array             0.12 Mb     (   15451)
        G-vector shells                 0.06 Mb     (    7683)
     Largest temporary arrays     est. size (Mb)     dimensions
        Auxiliary wavefunctions       233.18 Mb     (    4614, 3312)
        Each subspace H/S matrix        6.69 Mb     (     662,  662)
        Each <psi_i|beta_j> matrix     25.17 Mb     (    1992,  828)
        Arrays for rho mixing           4.22 Mb     (   34560,    8)

     Initial potential from superposition of free atoms
     Check: negative starting charge=   -0.003668

     starting charge 1354.72292, renormalised to 1380.00000

     negative rho (up, down):  3.737E-03 0.000E+00
     Starting wfc are 1356 randomized atomic wfcs

     total cpu time spent up to now is       94.8 secs

     Self-consistent Calculation

     iteration #  1     ecut=    80.00 Ry     beta=0.70
     Davidson diagonalization with overlap
     c_bands:  1 eigenvalues not converged
     c_bands:  4 eigenvalues not converged
     c_bands:  1 eigenvalues not converged
     c_bands:  5 eigenvalues not converged
     c_bands:  5 eigenvalues not converged
     ethr =  1.00E-04,  avg # of iterations = 39.8

     negative rho (up, down):  2.884E+01 0.000E+00

     total cpu time spent up to now is     2334.8 secs

     total energy              =  -10830.03245281 Ry
     Harris-Foulkes estimate   =  -19729.52163750 Ry
     estimated scf accuracy    <  251198.32546061 Ry

     iteration #  2     ecut=    80.00 Ry     beta=0.70
     Davidson diagonalization with overlap
     ethr =  1.00E-02,  avg # of iterations = 14.5

     negative rho (up, down):  3.771E+01 0.000E+00

     total cpu time spent up to now is     3287.8 secs

     total energy              =  -12452.70595276 Ry
     Harris-Foulkes estimate   =  -14738.02471829 Ry
     estimated scf accuracy    <   39197.89205825 Ry

     iteration #  3     ecut=    80.00 Ry     beta=0.70
     Davidson diagonalization with overlap
     ethr =  1.00E-02,  avg # of iterations = 17.8

     negative rho (up, down):  2.988E+01 0.000E+00

     total cpu time spent up to now is     4626.7 secs

     total energy              =  -12569.29961579 Ry
     Harris-Foulkes estimate   =  -14910.30887943 Ry
     estimated scf accuracy    <    9041.48817187 Ry

     iteration #  4     ecut=    80.00 Ry     beta=0.70
     Davidson diagonalization with overlap
     ethr =  1.00E-02,  avg # of iterations =  5.2

     negative rho (up, down):  2.332E+01 0.000E+00

     total cpu time spent up to now is     5192.8 secs

     total energy              =  -13581.39694007 Ry
     Harris-Foulkes estimate   =  -14032.12117465 Ry
     estimated scf accuracy    <    5720.89936781 Ry

     iteration #  5     ecut=    80.00 Ry     beta=0.70
     Davidson diagonalization with overlap
     ethr =  1.00E-02,  avg # of iterations =  4.5

     negative rho (up, down):  1.923E+01 0.000E+00

     total cpu time spent up to now is     5674.0 secs

     total energy              =  -13684.53634049 Ry
     Harris-Foulkes estimate   =  -13948.46853178 Ry
     estimated scf accuracy    <    2078.98391329 Ry

     iteration #  6     ecut=    80.00 Ry     beta=0.70
     Davidson diagonalization with overlap
     ethr =  1.00E-02,  avg # of iterations =  3.7

     negative rho (up, down):  1.543E+01 0.000E+00

     total cpu time spent up to now is     5995.5 secs

     total energy              =  -13775.55012577 Ry
     Harris-Foulkes estimate   =  -13829.82321765 Ry
     estimated scf accuracy    <     938.74076504 Ry

     iteration #  7     ecut=    80.00 Ry     beta=0.70
     Davidson diagonalization with overlap
     ethr =  1.00E-02,  avg # of iterations =  1.0

     negative rho (up, down):  9.450E+00 0.000E+00

     total cpu time spent up to now is     6147.5 secs

     total energy              =  -13745.82145788 Ry
     Harris-Foulkes estimate   =  -13792.71902042 Ry
     estimated scf accuracy    <     373.83738111 Ry

     iteration #  8     ecut=    80.00 Ry     beta=0.70
     Davidson diagonalization with overlap
     ethr =  1.00E-02,  avg # of iterations =  1.0

     negative rho (up, down):  6.337E+00 0.000E+00

     total cpu time spent up to now is     6299.8 secs

     total energy              =  -13733.20549576 Ry
     Harris-Foulkes estimate   =  -13755.35040665 Ry
     estimated scf accuracy    <     150.02086246 Ry

     iteration #  9     ecut=    80.00 Ry     beta=0.70
     Davidson diagonalization with overlap
     ethr =  1.00E-02,  avg # of iterations =  1.0

     negative rho (up, down):  5.694E+00 0.000E+00

     total cpu time spent up to now is     6451.7 secs

     total energy              =  -13724.41007391 Ry
     Harris-Foulkes estimate   =  -13736.14181884 Ry
     estimated scf accuracy    <     162.93586597 Ry

     iteration # 10     ecut=    80.00 Ry     beta=0.70
     Davidson diagonalization with overlap
     ethr =  1.00E-02,  avg # of iterations =  1.0

     negative rho (up, down):  2.214E+00 0.000E+00

     total cpu time spent up to now is     6604.3 secs

     total energy              =  -13693.74126105 Ry
     Harris-Foulkes estimate   =  -13729.56529103 Ry
     estimated scf accuracy    <     117.53806081 Ry

     iteration # 11     ecut=    80.00 Ry     beta=0.70
     Davidson diagonalization with overlap
     ethr =  8.52E-03,  avg # of iterations =  1.8

     negative rho (up, down):  2.180E+00 0.000E+00

     total cpu time spent up to now is     6766.3 secs

     total energy              =  -13686.66116271 Ry
     Harris-Foulkes estimate   =  -13700.78605764 Ry
     estimated scf accuracy    <     176.78634616 Ry

     iteration # 12     ecut=    80.00 Ry     beta=0.70
     Davidson diagonalization with overlap
     ethr =  8.52E-03,  avg # of iterations =  1.2

     negative rho (up, down):  6.095E+00 0.000E+00

     total cpu time spent up to now is     6920.5 secs

     total energy              =  -13675.07140946 Ry
     Harris-Foulkes estimate   =  -13689.61093988 Ry
     estimated scf accuracy    <      68.17413506 Ry

     iteration # 13     ecut=    80.00 Ry     beta=0.70
     Davidson diagonalization with overlap
     ethr =  4.94E-03,  avg # of iterations =  3.5

     negative rho (up, down):  6.831E+00 0.000E+00

     total cpu time spent up to now is     7109.0 secs

     total energy              =  -13677.40337187 Ry
     Harris-Foulkes estimate   =  -13683.85537176 Ry
     estimated scf accuracy    <     218.92732401 Ry

     iteration # 14     ecut=    80.00 Ry     beta=0.70
     Davidson diagonalization with overlap
     ethr =  4.94E-03,  avg # of iterations =  2.7

     negative rho (up, down):  5.797E+00 0.000E+00

     total cpu time spent up to now is     7281.8 secs

     total energy              =  -13677.29191836 Ry
     Harris-Foulkes estimate   =  -13680.24274869 Ry
     estimated scf accuracy    <      38.34307319 Ry

     iteration # 15     ecut=    80.00 Ry     beta=0.70
     Davidson diagonalization with overlap
     ethr =  2.78E-03,  avg # of iterations =  3.5

     negative rho (up, down):  1.773E+00 0.000E+00

     total cpu time spent up to now is     7467.3 secs

     total energy              =  -13672.51091959 Ry
     Harris-Foulkes estimate   =  -13680.57157335 Ry
     estimated scf accuracy    <     184.57788986 Ry

     iteration # 16     ecut=    80.00 Ry     beta=0.70
     Davidson diagonalization with overlap
     ethr =  2.78E-03,  avg # of iterations =  2.5

     negative rho (up, down):  1.186E+00 0.000E+00

     total cpu time spent up to now is     7639.0 secs

     total energy              =  -13674.92739948 Ry
     Harris-Foulkes estimate   =  -13675.85147199 Ry
     estimated scf accuracy    <      15.64852446 Ry

     iteration # 17     ecut=    80.00 Ry     beta=0.70
     Davidson diagonalization with overlap
     ethr =  1.13E-03,  avg # of iterations =  3.0

     negative rho (up, down):  9.262E-01 0.000E+00

     total cpu time spent up to now is     7818.1 secs

     total energy              =  -13673.95073281 Ry
     Harris-Foulkes estimate   =  -13675.19218083 Ry
     estimated scf accuracy    <      12.35013371 Ry

     iteration # 18     ecut=    80.00 Ry     beta=0.70
     Davidson diagonalization with overlap
     ethr =  8.95E-04,  avg # of iterations =  3.8

     negative rho (up, down):  7.317E-01 0.000E+00

     total cpu time spent up to now is     8007.4 secs

     total energy              =  -13672.88038692 Ry
     Harris-Foulkes estimate   =  -13674.16966906 Ry
     estimated scf accuracy    <      21.11282000 Ry

     iteration # 19     ecut=    80.00 Ry     beta=0.70
     Davidson diagonalization with overlap
     ethr =  8.95E-04,  avg # of iterations =  6.3

     negative rho (up, down):  8.163E-01 0.000E+00

     total cpu time spent up to now is     8236.8 secs

     total energy              =  -13672.28520465 Ry
     Harris-Foulkes estimate   =  -13673.15073242 Ry
     estimated scf accuracy    <      39.92986421 Ry

     iteration # 20     ecut=    80.00 Ry     beta=0.70
     Davidson diagonalization with overlap
     ethr =  8.95E-04,  avg # of iterations =  1.5

     negative rho (up, down):  8.443E-01 0.000E+00

     total cpu time spent up to now is     8394.9 secs

     total energy              =  -13671.73422279 Ry
     Harris-Foulkes estimate   =  -13672.59216843 Ry
     estimated scf accuracy    <      39.37836319 Ry

     iteration # 21     ecut=    80.00 Ry     beta=0.70
     Davidson diagonalization with overlap
     ethr =  8.95E-04,  avg # of iterations =  1.0

     negative rho (up, down):  8.906E-01 0.000E+00

     total cpu time spent up to now is     8547.0 secs

     total energy              =  -13670.99614735 Ry
     Harris-Foulkes estimate   =  -13671.98107132 Ry
     estimated scf accuracy    <      17.60638062 Ry

     iteration # 22     ecut=    80.00 Ry     beta=0.70
     Davidson diagonalization with overlap
     ethr =  8.95E-04,  avg # of iterations =  6.7

     negative rho (up, down):  1.118E+00 0.000E+00

     total cpu time spent up to now is     8774.5 secs

     total energy              =  -13670.81580797 Ry
     Harris-Foulkes estimate   =  -13671.28395660 Ry
     estimated scf accuracy    <       6.96821522 Ry

     iteration # 23     ecut=    80.00 Ry     beta=0.70
     Davidson diagonalization with overlap
     ethr =  5.05E-04,  avg # of iterations =  5.7

     negative rho (up, down):  9.378E-01 0.000E+00

     total cpu time spent up to now is     8994.8 secs

     total energy              =  -13670.79744622 Ry
     Harris-Foulkes estimate   =  -13671.00855129 Ry
     estimated scf accuracy    <       1.82581411 Ry

     iteration # 24     ecut=    80.00 Ry     beta=0.70
     Davidson diagonalization with overlap
     ethr =  1.32E-04,  avg # of iterations =  7.0

     negative rho (up, down):  7.597E-01 0.000E+00

     total cpu time spent up to now is     9236.7 secs

     total energy              =  -13670.83509165 Ry
     Harris-Foulkes estimate   =  -13670.93010694 Ry
     estimated scf accuracy    <       0.67116493 Ry

     iteration # 25     ecut=    80.00 Ry     beta=0.70
     Davidson diagonalization with overlap
     ethr =  4.86E-05,  avg # of iterations =  3.7

     negative rho (up, down):  3.032E-01 0.000E+00

     total cpu time spent up to now is     9424.2 secs

     total energy              =  -13670.84403456 Ry
     Harris-Foulkes estimate   =  -13670.88741580 Ry
     estimated scf accuracy    <       0.41046990 Ry

     iteration # 26     ecut=    80.00 Ry     beta=0.70
     Davidson diagonalization with overlap
     ethr =  2.97E-05,  avg # of iterations =  8.7

     negative rho (up, down):  2.161E-01 0.000E+00

     total cpu time spent up to now is     9687.9 secs

     total energy              =  -13670.85330504 Ry
     Harris-Foulkes estimate   =  -13670.86276888 Ry
     estimated scf accuracy    <       0.08674279 Ry

     iteration # 27     ecut=    80.00 Ry     beta=0.70
     Davidson diagonalization with overlap
     ethr =  6.29E-06,  avg # of iterations =  8.2

     negative rho (up, down):  1.739E-02 0.000E+00

     total cpu time spent up to now is     9947.1 secs

     total energy              =  -13670.84727191 Ry
     Harris-Foulkes estimate   =  -13670.85888769 Ry
     estimated scf accuracy    <       0.04214222 Ry

     iteration # 28     ecut=    80.00 Ry     beta=0.70
     Davidson diagonalization with overlap
     c_bands:  2 eigenvalues not converged
     ethr =  3.05E-06,  avg # of iterations = 12.8

     negative rho (up, down):  1.447E-05 0.000E+00

     total cpu time spent up to now is    10302.8 secs

     total energy              =  -13670.84827481 Ry
     Harris-Foulkes estimate   =  -13670.84968442 Ry
     estimated scf accuracy    <       0.01521592 Ry

     iteration # 29     ecut=    80.00 Ry     beta=0.70
     Davidson diagonalization with overlap
     ethr =  1.10E-06,  avg # of iterations =  6.7

     negative rho (up, down):  4.971E-08 0.000E+00

     total cpu time spent up to now is    10540.6 secs

     total energy              =  -13670.84840800 Ry
     Harris-Foulkes estimate   =  -13670.84902620 Ry
     estimated scf accuracy    <       0.01037897 Ry

     iteration # 30     ecut=    80.00 Ry     beta=0.70
     Davidson diagonalization with overlap
     ethr =  7.52E-07,  avg # of iterations =  6.8

     negative rho (up, down):  3.908E-04 0.000E+00

     total cpu time spent up to now is    10784.9 secs

     total energy              =  -13670.84876807 Ry
     Harris-Foulkes estimate   =  -13670.84888925 Ry
     estimated scf accuracy    <       0.00326514 Ry

     iteration # 31     ecut=    80.00 Ry     beta=0.70
     Davidson diagonalization with overlap
     c_bands:  2 eigenvalues not converged
     ethr =  2.37E-07,  avg # of iterations =  9.2

     negative rho (up, down):  9.645E-03 0.000E+00

     total cpu time spent up to now is    11061.5 secs

     total energy              =  -13670.84905936 Ry
     Harris-Foulkes estimate   =  -13670.84898927 Ry
     estimated scf accuracy    <       0.00122393 Ry

     iteration # 32     ecut=    80.00 Ry     beta=0.70
     Davidson diagonalization with overlap
     ethr =  8.87E-08,  avg # of iterations =  6.8

     negative rho (up, down):  7.334E-03 0.000E+00

     total cpu time spent up to now is    11302.9 secs

     total energy              =  -13670.84904524 Ry
     Harris-Foulkes estimate   =  -13670.84915808 Ry
     estimated scf accuracy    <       0.00041525 Ry

     iteration # 33     ecut=    80.00 Ry     beta=0.70
     Davidson diagonalization with overlap
     c_bands:  1 eigenvalues not converged
     ethr =  3.01E-08,  avg # of iterations =  9.3

     negative rho (up, down):  5.608E-03 0.000E+00

     total cpu time spent up to now is    11576.0 secs

     total energy              =  -13670.84904424 Ry
     Harris-Foulkes estimate   =  -13670.84909635 Ry
     estimated scf accuracy    <       0.00015608 Ry

     iteration # 34     ecut=    80.00 Ry     beta=0.70
     Davidson diagonalization with overlap
     ethr =  1.13E-08,  avg # of iterations =  5.3

     negative rho (up, down):  3.937E-03 0.000E+00

     total cpu time spent up to now is    11788.9 secs

     total energy              =  -13670.84902040 Ry
     Harris-Foulkes estimate   =  -13670.84905498 Ry
     estimated scf accuracy    <       0.00004522 Ry

     iteration # 35     ecut=    80.00 Ry     beta=0.70
     Davidson diagonalization with overlap
     ethr =  3.28E-09,  avg # of iterations =  4.0

     negative rho (up, down):  1.176E-03 0.000E+00

     total cpu time spent up to now is    11983.3 secs

     total energy              =  -13670.84899995 Ry
     Harris-Foulkes estimate   =  -13670.84902384 Ry
     estimated scf accuracy    <       0.00001410 Ry

     iteration # 36     ecut=    80.00 Ry     beta=0.70
     Davidson diagonalization with overlap
     ethr =  1.02E-09,  avg # of iterations =  4.7

     negative rho (up, down):  3.709E-04 0.000E+00

     total cpu time spent up to now is    12195.5 secs

     total energy              =  -13670.84899927 Ry
     Harris-Foulkes estimate   =  -13670.84900053 Ry
     estimated scf accuracy    <       0.00000737 Ry

     iteration # 37     ecut=    80.00 Ry     beta=0.70
     Davidson diagonalization with overlap
     ethr =  5.34E-10,  avg # of iterations =  2.0

     negative rho (up, down):  1.811E-04 0.000E+00

     total cpu time spent up to now is    12363.3 secs

     total energy              =  -13670.84899916 Ry
     Harris-Foulkes estimate   =  -13670.84899900 Ry
     estimated scf accuracy    <       0.00000159 Ry

     iteration # 38     ecut=    80.00 Ry     beta=0.70
     Davidson diagonalization with overlap
     ethr =  1.15E-10,  avg # of iterations =  2.3

     negative rho (up, down):  1.811E-04 0.000E+00

     total cpu time spent up to now is    12541.6 secs

     total energy              =  -13670.84899933 Ry
     Harris-Foulkes estimate   =  -13670.84899907 Ry
     estimated scf accuracy    <       0.00000059 Ry

     iteration # 39     ecut=    80.00 Ry     beta=0.70
     Davidson diagonalization with overlap
     ethr =  4.24E-11,  avg # of iterations =  3.0

     negative rho (up, down):  2.409E-04 0.000E+00

     total cpu time spent up to now is    12740.6 secs

     total energy              =  -13670.84899932 Ry
     Harris-Foulkes estimate   =  -13670.84899941 Ry
     estimated scf accuracy    <       0.00000030 Ry

     iteration # 40     ecut=    80.00 Ry     beta=0.70
     Davidson diagonalization with overlap
     ethr =  2.18E-11,  avg # of iterations =  2.2

     negative rho (up, down):  2.755E-04 0.000E+00

     total cpu time spent up to now is    12915.5 secs

     total energy              =  -13670.84899937 Ry
     Harris-Foulkes estimate   =  -13670.84899944 Ry
     estimated scf accuracy    <       0.00000008 Ry

     iteration # 41     ecut=    80.00 Ry     beta=0.70
     Davidson diagonalization with overlap
     ethr =  6.15E-12,  avg # of iterations =  2.3

     negative rho (up, down):  2.539E-04 0.000E+00

     total cpu time spent up to now is    13091.7 secs

     total energy              =  -13670.84899946 Ry
     Harris-Foulkes estimate   =  -13670.84899942 Ry
     estimated scf accuracy    <       0.00000002 Ry

     iteration # 42     ecut=    80.00 Ry     beta=0.70
     Davidson diagonalization with overlap
     ethr =  1.57E-12,  avg # of iterations =  2.7

     negative rho (up, down):  2.524E-04 0.000E+00

     total cpu time spent up to now is    13279.8 secs

     End of self-consistent calculation

          k = 0.0000 0.0000 0.0000 (256287 PWs)   bands (ev):

   -15.3754 -14.9998 -14.9977 -13.8957 -13.8947 -13.4144 -13.4141 -13.0492
   -13.0487 -13.0454 -13.0454 -12.1014 -12.0940 -11.9816 -11.9814 -11.9799
   -11.9796 -10.2935 -10.2933 -10.2847 -10.2845 -10.0824  -9.0861  -8.4063
    -8.4061  -8.4045  -8.4044  -7.5289  -7.5284  -7.5259  -7.5259  -6.5387
    -6.5361  -6.4646  -6.4645  -6.4633  -6.4632  -6.4472  -6.4467  -5.2017
    -4.9139  -4.9138  -4.9018  -4.9011  -4.7476  -4.7470  -4.7461  -4.7453
    -4.6889  -4.6557  -4.2511  -3.7654  -3.6596  -3.6024  -3.6010  -3.5555
    -3.2697  -3.2689  -3.1732  -3.1722  -3.1095  -3.0948  -2.8764  -2.5878
    -2.5873  -2.4611  -2.4609  -2.4597  -2.4592  -2.4462  -2.3457  -2.3151
    -2.2954  -2.2953  -2.2009  -2.2009  -2.1902  -2.1810  -2.1800  -2.1287
    -1.9519  -1.9429  -1.8353  -1.8344  -1.8151  -1.8047  -1.6471  -1.6460
    -1.6350  -1.6339  -1.5690  -1.5671  -1.5663  -1.5191  -1.5184  -1.4037
    -1.3867  -1.3380  -1.3376  -1.3143  -1.3142  -1.2975  -1.2746  -1.2740
    -1.2418  -1.2415  -1.1900  -1.1855  -1.1854  -1.0705  -1.0597  -1.0597
    -0.9903  -0.9884  -0.9757  -0.9615  -0.9383  -0.9374  -0.9279  -0.9214
    -0.9211  -0.8767  -0.8714  -0.8709  -0.8617  -0.8363  -0.8279  -0.8276
    -0.8229  -0.8225  -0.7827  -0.7746  -0.7694  -0.7525  -0.7443  -0.7442
    -0.7420  -0.7149  -0.7012  -0.6548  -0.6544  -0.6139  -0.5800  -0.5798
    -0.5461  -0.5086  -0.4907  -0.4672  -0.4628  -0.4551  -0.4550  -0.4385
    -0.4099  -0.4040  -0.4011  -0.3910  -0.3829  -0.3759  -0.3747  -0.3736
    -0.3393  -0.3218  -0.2929  -0.2755  -0.2720  -0.2716  -0.2515  -0.2460
    -0.2420  -0.2386  -0.2381  -0.2270  -0.2260  -0.2239  -0.2217  -0.2126
    -0.1912  -0.1882  -0.1774  -0.1567  -0.1555  -0.1551  -0.1508  -0.1393
    -0.1374  -0.1373  -0.1361  -0.1219  -0.0965  -0.0936  -0.0735  -0.0719
    -0.0692  -0.0556  -0.0553  -0.0370  -0.0364  -0.0357  -0.0332  -0.0270
    -0.0245  -0.0220  -0.0170   0.0138   0.0156   0.0610   0.0666   0.0727
     0.0989   0.1263   0.1332   0.1332   0.1420   0.1470   0.1567   0.1583
     0.1705   0.1743   0.1752   0.1793   0.1883   0.1890   0.1953   0.2006
     0.2157   0.2158   0.2173   0.2373   0.2387   0.2389   0.2472   0.2575
     0.2582   0.2911   0.2998   0.3142   0.3143   0.3233   0.3243   0.3289
     0.3296   0.3334   0.3509   0.3516   0.3604   0.3611   0.3644   0.3658
     0.3743   0.3842   0.3858   0.3906   0.3914   0.3963   0.3967   0.3989
     0.4034   0.4037   0.4060   0.4212   0.4378   0.4500   0.4508   0.4509
     0.4554   0.4557   0.4566   0.4806   0.4859   0.4859   0.4902   0.5026
     0.5145   0.5149   0.5150   0.5155   0.5232   0.5303   0.5304   0.5321
     0.5324   0.5553   0.5554   0.5617   0.5625   0.5643   0.5645   0.5763
     0.5764   0.5881   0.5958   0.5960   0.6034   0.6052   0.6052   0.6173
     0.6196   0.6205   0.6213   0.6302   0.6491   0.6612   0.6619   0.6621
     0.6844   0.6845   0.6936   0.6972   0.7212   0.7270   0.7277   0.7392
     0.7397   0.7459   0.7461   0.7463   0.7592   0.7595   0.7809   0.7813
     0.7836   0.7915   0.7963   0.7970   0.7983   0.8018   0.8020   0.8128
     0.8134   0.8213   0.8344   0.8377   0.8387   0.8395   0.8398   0.8410
     0.8490   0.8528   0.8532   0.8700   0.8701   0.8868   0.8913   0.8915
     0.9128   0.9225   0.9230   0.9231   0.9311   0.9318   0.9465   0.9468
     0.9523   0.9566   0.9708   0.9875   0.9881   1.0067   1.0073   1.0198
     1.0199   1.0259   1.0267   1.0348   1.0386   1.0394   1.0528   1.0540
     1.0642   1.0736   1.0737   1.0741   1.0811   1.0832   1.1066   1.1084
     1.1282   1.1283   1.1330   1.1396   1.1489   1.1489   1.1693   1.1693
     1.1747   1.1811   1.1908   1.1961   1.2137   1.2172   1.2173   1.2184
     1.2197   1.2199   1.2229   1.2232   1.2332   1.2340   1.2633   1.2636
     1.2681   1.2706   1.2803   1.2805   1.2863   1.2957   1.2959   1.3018
     1.3019   1.3374   1.3378   1.3380   1.3409   1.3448   1.3484   1.3495
     1.3497   1.3559   1.3733   1.3737   1.3777   1.3778   1.3803   1.3933
     1.4075   1.4098   1.4101   1.4108   1.4109   1.4207   1.4330   1.4345
     1.4349   1.4358   1.4537   1.4538   1.4604   1.4618   1.4620   1.4630
     1.4651   1.4704   1.4750   1.4757   1.4762   1.4960   1.4972   1.4980
     1.5183   1.5191   1.5193   1.5213   1.5217   1.5227   1.5269   1.5270
     1.5341   1.5346   1.5374   1.5445   1.5508   1.5515   1.5593   1.5600
     1.5612   1.5652   1.5653   1.5690   1.5709   1.5739   1.5785   1.5814
     1.6271   1.6272   1.6360   1.6414   1.6444   1.6477   1.6480   1.6583
     1.6658   1.6671   1.6673   1.6756   1.6781   1.6783   1.6858   1.6878
     1.6885   1.6948   1.7047   1.7072   1.7108   1.7140   1.7178   1.7199
     1.7202   1.7256   1.7398   1.7423   1.7523   1.7534   1.7611   1.7657
     1.7716   1.7744   1.7748   1.7784   1.7847   1.7878   1.7918   1.7924
     1.7943   1.7978   1.7994   1.8094   1.8135   1.8217   1.8222   1.8280
     1.8282   1.8431   1.8445   1.8460   1.8551   1.8589   1.8670   1.8697
     1.8698   1.8714   1.8716   1.8732   1.8766   1.8849   1.8849   1.8875
     1.8961   1.8980   1.9037   1.9039   1.9068   1.9091   1.9135   1.9321
     1.9323   1.9347   1.9362   1.9429   1.9442   1.9528   1.9557   1.9560
     1.9666   1.9763   1.9769   1.9840   1.9852   1.9865   2.0056   2.0062
     2.0122   2.0150   2.0159   2.0170   2.0204   2.0209   2.0251   2.0282
     2.0312   2.0393   2.0402   2.0443   2.0462   2.0468   2.0539   2.0549
     2.0590   2.0629   2.0709   2.0721   2.0766   2.0808   2.0833   2.0870
     2.0871   2.0899   2.0901   2.0984   2.0994   2.1066   2.1110   2.1126
     2.1218   2.1255   2.1306   2.1422   2.1441   2.1475   2.1486   2.1506
     2.1523   2.1527   2.1571   2.1574   2.1624   2.1658   2.1663   2.1690
     2.1749   2.1790   2.1825   2.1846   2.1847   2.1873   2.1888   2.1890
     2.1904   2.1910   2.1925   2.1977   2.2014   2.2039   2.2046   2.2126
     2.2244   2.2269   2.2319   2.2322   2.2377   2.2417   2.2425   2.2431
     2.2488   2.2489   2.2540   2.2604   2.2615   2.2616   2.2739   2.2740
     2.2744   2.2924   2.2936   2.2939   2.3131   2.3379   2.3382   2.3430
     2.3549   2.3698   2.3702   2.3790   2.4011   2.4017   2.4041   2.4044
     2.4108   2.4132   2.4136   2.4379   2.5263   2.5266   2.6612   2.7302
     2.7422   2.7846   2.7863   2.8174   2.9285   2.9291   2.9467   2.9468
     2.9794   2.9904   2.9906   2.9977   2.9983   3.0471   3.0475   3.1372
     3.1373   3.1378   3.1510   3.3555   3.3559   3.4065   3.4082   3.4457
     3.6165   3.8314   3.8349   4.0225   4.1000   4.1014   4.1406   4.1416
     4.1444   4.1450   4.1787   4.3608   4.3843   4.4389   4.4411   4.5430
     4.6711   4.6713   4.7297   4.7305   4.7310   4.7769   4.7910   4.7914
     4.7950   4.7958   4.9479   5.0299   5.1638   5.1643   5.3863   5.5276
     5.5629   5.5639   5.6399   5.8127   5.8838   5.9418   6.0531   6.0547
     6.0558   6.0615   6.0646   6.2645   6.2691   6.2716   6.2981   6.6092
     6.6466   6.7018   6.9953   6.9960   7.0171   7.0581   7.2246   7.2378
     7.2395   7.4543   7.4546   7.4577   7.5265   7.5267   7.5382   7.5450
     7.5457   7.7807   7.7929   7.7937   7.8093   7.8611   7.8797   7.9037
     7.9308   7.9362   7.9404   7.9457   8.0324   8.1730   8.2075   8.2879
     8.3859   8.3886   8.4280   8.4364   8.4374   8.4906   8.6395   8.6397
     8.7542   8.8003   8.8257   8.8286   8.8306   8.9406   8.9414   9.0019
     9.0119   9.0851   9.1234   9.1862   9.1901   9.2264   9.2969   9.2973
     9.3118   9.3422   9.3422   9.3691   9.3696   9.4096   9.5752   9.6259
     9.6321   9.6399   9.6427   9.6676   9.6692   9.7070   9.7133   9.7138
     9.7477   9.8662   9.9206  10.0446  10.2645  10.2746  10.3088  10.3984
    10.3997  10.4153  10.5188  10.5221  10.5268  10.5268  10.5529  10.5996
    10.6036  10.6392  10.6408  10.6798

          k = 0.0000-0.2165 0.0000 (256176 PWs)   bands (ev):

   -15.3060 -15.2530 -14.5411 -14.5336 -13.3470 -13.3466 -13.2946 -13.2945
   -13.0798 -13.0772 -12.6034 -12.6027 -12.5961 -12.5958 -11.2048 -11.2042
   -11.2010 -11.2009 -10.9907 -10.9724  -9.3011  -9.3007  -9.2920  -9.2920
    -8.0609  -8.0428  -7.9071  -7.9066  -7.8807  -7.8805  -7.0665  -7.0662
    -7.0627  -7.0624  -5.9055  -5.9054  -5.8726  -5.8725  -5.7345  -5.7343
    -5.7299  -5.7294  -5.0704  -5.0648  -4.9185  -4.9181  -4.2414  -4.0939
    -4.0932  -4.0644  -4.0643  -4.0287  -3.9898  -3.9814  -3.5253  -3.5222
    -3.5214  -3.5210  -3.5210  -3.3739  -3.1678  -3.1082  -2.7890  -2.5780
    -2.5348  -2.4920  -2.4916  -2.4764  -2.4758  -2.4525  -2.2448  -2.2140
    -2.2095  -2.1969  -1.9826  -1.9825  -1.9545  -1.9545  -1.8614  -1.8553
    -1.8512  -1.8492  -1.7816  -1.7815  -1.7772  -1.7770  -1.7588  -1.7585
    -1.7280  -1.7273  -1.6852  -1.6719  -1.6590  -1.6585  -1.5113  -1.5107
    -1.4658  -1.4218  -1.4152  -1.3699  -1.3692  -1.3414  -1.3414  -1.2304
    -1.2295  -1.1958  -1.1630  -1.1630  -1.1405  -1.1403  -1.0847  -1.0846
    -1.0426  -1.0424  -0.9983  -0.9891  -0.9716  -0.9705  -0.9610  -0.9543
    -0.9215  -0.9132  -0.9126  -0.9035  -0.8993  -0.8830  -0.8524  -0.8474
    -0.8474  -0.8433  -0.8366  -0.7880  -0.7569  -0.7569  -0.6692  -0.6690
    -0.6350  -0.5793  -0.5696  -0.5622  -0.5616  -0.5581  -0.5207  -0.5105
    -0.4961  -0.4947  -0.4820  -0.4816  -0.4739  -0.4685  -0.4586  -0.4511
    -0.4504  -0.4488  -0.4271  -0.4247  -0.4093  -0.4002  -0.3786  -0.3773
    -0.3643  -0.3643  -0.3371  -0.3368  -0.3079  -0.3076  -0.2875  -0.2819
    -0.2752  -0.2732  -0.2681  -0.2606  -0.2453  -0.2450  -0.2445  -0.2408
    -0.2337  -0.2118  -0.1936  -0.1822  -0.1760  -0.1751  -0.1642  -0.1613
    -0.1559  -0.1553  -0.1333  -0.1331  -0.1276  -0.1202  -0.1201  -0.1077
    -0.1024  -0.0863  -0.0860  -0.0779  -0.0715  -0.0418  -0.0304  -0.0218
    -0.0194  -0.0131  -0.0123  -0.0004   0.0181   0.0213   0.0249   0.0599
     0.0738   0.0759   0.0874   0.1446   0.1450   0.1494   0.1547   0.1556
     0.1644   0.1701   0.1702   0.1735   0.1837   0.1851   0.1960   0.1965
     0.2057   0.2125   0.2202   0.2213   0.2251   0.2404   0.2429   0.2457
     0.2459   0.2543   0.2612   0.2716   0.2817   0.2941   0.3047   0.3049
     0.3137   0.3144   0.3196   0.3415   0.3420   0.3428   0.3601   0.3602
     0.3840   0.4036   0.4043   0.4246   0.4248   0.4316   0.4323   0.4506
     0.4517   0.4642   0.4674   0.4718   0.4748   0.4754   0.4868   0.4872
     0.4924   0.4965   0.4976   0.5044   0.5044   0.5205   0.5208   0.5232
     0.5310   0.5313   0.5346   0.5398   0.5486   0.5490   0.5619   0.5621
     0.5635   0.5722   0.5771   0.5775   0.5956   0.5962   0.6051   0.6055
     0.6089   0.6162   0.6227   0.6230   0.6340   0.6517   0.6534   0.6576
     0.6641   0.6666   0.6754   0.6757   0.6886   0.6922   0.6928   0.6996
     0.7001   0.7006   0.7157   0.7161   0.7166   0.7369   0.7375   0.7398
     0.7407   0.7598   0.7751   0.7833   0.7838   0.7928   0.7931   0.8020
     0.8028   0.8059   0.8069   0.8085   0.8091   0.8177   0.8210   0.8220
     0.8459   0.8463   0.8482   0.8485   0.8577   0.8584   0.8617   0.8673
     0.8676   0.8880   0.8885   0.8939   0.8947   0.8992   0.9018   0.9025
     0.9029   0.9053   0.9147   0.9218   0.9267   0.9271   0.9287   0.9403
     0.9477   0.9523   0.9694   0.9712   0.9760   0.9974   0.9994   1.0060
     1.0061   1.0212   1.0214   1.0404   1.0408   1.0593   1.0733   1.0736
     1.0850   1.0852   1.0964   1.0972   1.0992   1.1059   1.1067   1.1068
     1.1313   1.1443   1.1464   1.1542   1.1547   1.1601   1.1609   1.1621
     1.1646   1.1696   1.1859   1.1864   1.2059   1.2090   1.2223   1.2224
     1.2280   1.2282   1.2322   1.2325   1.2338   1.2612   1.2618   1.2652
     1.2660   1.2750   1.2754   1.2796   1.2914   1.2919   1.3028   1.3092
     1.3094   1.3097   1.3198   1.3199   1.3247   1.3247   1.3302   1.3308
     1.3341   1.3360   1.3445   1.3455   1.3489   1.3598   1.3620   1.3645
     1.3654   1.3834   1.3902   1.3925   1.3928   1.3946   1.3990   1.4001
     1.4006   1.4066   1.4161   1.4165   1.4173   1.4324   1.4407   1.4477
     1.4616   1.4620   1.4649   1.4653   1.4682   1.4716   1.4718   1.4797
     1.4799   1.4832   1.4834   1.4872   1.5046   1.5049   1.5083   1.5095
     1.5112   1.5114   1.5150   1.5161   1.5228   1.5305   1.5524   1.5539
     1.5541   1.5546   1.5611   1.5717   1.5717   1.5883   1.5917   1.5919
     1.5946   1.5998   1.6014   1.6309   1.6477   1.6635   1.6663   1.6671
     1.6677   1.6741   1.6812   1.6857   1.6891   1.6896   1.6966   1.6977
     1.7013   1.7037   1.7047   1.7052   1.7100   1.7103   1.7147   1.7280
     1.7301   1.7372   1.7400   1.7408   1.7438   1.7484   1.7490   1.7528
     1.7580   1.7584   1.7588   1.7605   1.7640   1.7679   1.7694   1.7729
     1.7737   1.7739   1.7781   1.7842   1.7845   1.7957   1.7977   1.7981
     1.8073   1.8175   1.8181   1.8199   1.8208   1.8311   1.8314   1.8463
     1.8554   1.8555   1.8558   1.8586   1.8646   1.8674   1.8681   1.8691
     1.8942   1.8969   1.9046   1.9124   1.9135   1.9142   1.9154   1.9183
     1.9204   1.9264   1.9275   1.9405   1.9549   1.9555   1.9610   1.9618
     1.9619   1.9664   1.9728   1.9763   1.9766   1.9786   1.9791   1.9828
     1.9829   1.9960   2.0012   2.0024   2.0028   2.0032   2.0089   2.0139
     2.0167   2.0175   2.0205   2.0357   2.0377   2.0404   2.0408   2.0466
     2.0468   2.0561   2.0617   2.0644   2.0645   2.0719   2.0722   2.0786
     2.0832   2.0935   2.0939   2.0942   2.1001   2.1061   2.1062   2.1070
     2.1091   2.1170   2.1247   2.1269   2.1269   2.1321   2.1379   2.1382
     2.1441   2.1533   2.1567   2.1570   2.1578   2.1639   2.1650   2.1756
     2.1757   2.1782   2.1853   2.1873   2.1906   2.1948   2.1967   2.1970
     2.2102   2.2105   2.2113   2.2173   2.2203   2.2276   2.2304   2.2305
     2.2325   2.2366   2.2369   2.2374   2.2438   2.2442   2.2512   2.2575
     2.2653   2.2747   2.2753   2.2884   2.2935   2.2962   2.3027   2.3033
     2.3035   2.3140   2.3146   2.3148   2.3301   2.3301   2.3324   2.3373
     2.3400   2.3984   2.4206   2.4209   2.4914   2.5178   2.5361   2.5379
     2.5382   2.5470   2.5470   2.5730   2.5732   2.6067   2.6068   2.6155
     2.6266   2.6321   2.7631   2.7996   2.8014   2.8955   2.9897   2.9898
     3.1149   3.1161   3.1275   3.1279   3.1345   3.1732   3.1734   3.2202
     3.2212   3.2689   3.3118   3.3531   3.3540   3.4400   3.4489   3.4502
     3.4622   3.6602   3.6950   3.6953   3.7664   3.7685   3.8425   3.8460
     3.9399   3.9399   4.1498   4.1621   4.2240   4.2244   4.3297   4.3971
     4.5737   4.7178   4.7185   4.8287   4.8297   4.9248   5.1188   5.1217
     5.1287   5.1296   5.1556   5.1568   5.3053   5.3055   5.4251   5.5560
     5.5579   5.6710   5.7222   5.8466   5.8734   5.9429   5.9978   5.9979
     6.1408   6.1412   6.2350   6.3483   6.4141   6.4416   6.4417   6.4821
     6.5349   6.7828   6.8900   6.9586   6.9644   6.9654   6.9750   7.1289
     7.1519   7.1536   7.1633   7.3263   7.3270   7.4028   7.4447   7.4570
     7.4575   7.6426   7.7982   7.8093   7.8274   7.8456   7.8467   7.8705
     7.8708   7.8844   7.9350   7.9392   7.9900   7.9905   8.1408   8.2300
     8.2314   8.5894   8.6153   8.6673   8.6680   8.6755   8.6770   8.7680
     8.7716   8.7772   8.7821   8.7977   8.8708   8.9261   8.9358   8.9499
     9.0556   9.0560   9.1326   9.1727   9.2204   9.2244   9.3058   9.3093
     9.3336   9.3426   9.3459   9.4378   9.4460   9.5459   9.6499   9.6573
     9.6608   9.6688   9.8517   9.8632   9.8641   9.8648   9.8931   9.8931
    10.0783  10.1310  10.1327  10.1980  10.2001  10.2498  10.2504  10.2739
    10.3065  10.3075  10.3538  10.3815  10.3817  10.4230  10.4291  10.4461
    10.5765  10.6527  10.6728  10.6735

          k = 0.2500 0.0000 0.0000 (256240 PWs)   bands (ev):

   -15.2513 -14.8763 -14.8742 -14.2655 -13.8949 -13.8931 -13.7742 -13.7732
   -12.8101 -12.8091 -12.3388 -11.9849 -11.9802 -11.9787 -11.9774 -11.0649
   -11.0568 -10.9532 -10.9522  -9.9771  -9.6837  -9.6618  -9.6241  -9.1370
    -8.9814  -8.6852  -8.6840  -8.2818  -8.0284  -8.0279  -7.4735  -6.4697
    -6.4651  -6.4615  -6.4576  -6.3483  -6.3464  -5.8838  -5.6134  -5.0474
    -5.0217  -4.8522  -4.8515  -4.8304  -4.8253  -4.5151  -4.4824  -4.1085
    -4.1046  -4.0789  -3.6468  -3.6031  -3.6009  -3.4990  -3.4079  -3.2897
    -3.2891  -3.2759  -3.2621  -3.1983  -3.1709  -3.0254  -3.0241  -2.9628
    -2.9489  -2.8332  -2.7860  -2.7254  -2.5432  -2.5431  -2.4698  -2.4622
    -2.4590  -2.4535  -2.4044  -2.3508  -2.3486  -2.3273  -2.3214  -2.2455
    -2.2168  -2.0735  -2.0714  -2.0151  -1.9781  -1.9758  -1.8242  -1.8050
    -1.6748  -1.6717  -1.6640  -1.5893  -1.5609  -1.5020  -1.4534  -1.4057
    -1.4054  -1.3207  -1.3164  -1.2931  -1.2632  -1.2619  -1.2335  -1.2332
    -1.1264  -1.0588  -1.0482  -1.0332  -0.9986  -0.9866  -0.9791  -0.9781
    -0.9735  -0.9694  -0.9603  -0.9435  -0.9223  -0.9162  -0.8891  -0.8592
    -0.8464  -0.8261  -0.7937  -0.7931  -0.7883  -0.7749  -0.7657  -0.7589
    -0.7469  -0.7345  -0.7095  -0.7022  -0.6974  -0.6905  -0.6734  -0.6295
    -0.6128  -0.5927  -0.5764  -0.5763  -0.5613  -0.5603  -0.5301  -0.5112
    -0.5048  -0.4940  -0.4738  -0.4688  -0.4419  -0.4405  -0.4319  -0.4303
    -0.4262  -0.4203  -0.4045  -0.3916  -0.3809  -0.3791  -0.3657  -0.3494
    -0.3374  -0.3275  -0.3272  -0.3257  -0.3243  -0.3188  -0.3104  -0.2995
    -0.2890  -0.2841  -0.2575  -0.2565  -0.2354  -0.2226  -0.2209  -0.2205
    -0.2189  -0.2142  -0.2096  -0.2065  -0.1981  -0.1968  -0.1865  -0.1854
    -0.1785  -0.1740  -0.1732  -0.1654  -0.1637  -0.1563  -0.1504  -0.1178
    -0.1172  -0.1050  -0.0958  -0.0851  -0.0788  -0.0560  -0.0450  -0.0347
    -0.0039   0.0009   0.0051   0.0086   0.0215   0.0298   0.0367   0.0414
     0.0502   0.0525   0.0535   0.0580   0.0634   0.0641   0.0717   0.0949
     0.1295   0.1583   0.1795   0.1910   0.2085   0.2109   0.2175   0.2230
     0.2335   0.2366   0.2501   0.2508   0.2531   0.2536   0.2664   0.2806
     0.2807   0.2882   0.2932   0.2958   0.2985   0.3038   0.3085   0.3099
     0.3179   0.3191   0.3211   0.3386   0.3412   0.3521   0.3534   0.3607
     0.3821   0.3850   0.3878   0.3985   0.4023   0.4084   0.4098   0.4105
     0.4166   0.4260   0.4308   0.4316   0.4420   0.4429   0.4478   0.4686
     0.4747   0.4750   0.4879   0.4960   0.4995   0.5010   0.5021   0.5094
     0.5164   0.5170   0.5230   0.5257   0.5323   0.5391   0.5457   0.5550
     0.5671   0.5702   0.5772   0.5814   0.5952   0.5968   0.6023   0.6088
     0.6138   0.6171   0.6196   0.6211   0.6238   0.6308   0.6383   0.6440
     0.6480   0.6486   0.6887   0.6924   0.6942   0.6968   0.7010   0.7061
     0.7086   0.7099   0.7220   0.7232   0.7266   0.7502   0.7506   0.7595
     0.7654   0.7664   0.7790   0.7793   0.7808   0.7867   0.7882   0.7891
     0.7907   0.8002   0.8094   0.8125   0.8141   0.8143   0.8154   0.8199
     0.8287   0.8310   0.8377   0.8469   0.8520   0.8537   0.8551   0.8633
     0.8636   0.8739   0.8764   0.8798   0.8825   0.8844   0.9113   0.9180
     0.9264   0.9280   0.9329   0.9408   0.9549   0.9622   0.9625   0.9642
     0.9722   0.9883   0.9923   1.0041   1.0108   1.0161   1.0386   1.0426
     1.0446   1.0451   1.0615   1.0627   1.0692   1.0704   1.0722   1.0758
     1.0815   1.0830   1.0921   1.0954   1.0982   1.1004   1.1008   1.1035
     1.1087   1.1184   1.1219   1.1229   1.1277   1.1311   1.1321   1.1424
     1.1517   1.1530   1.1618   1.1715   1.1779   1.1812   1.1981   1.2067
     1.2180   1.2195   1.2239   1.2283   1.2295   1.2360   1.2449   1.2515
     1.2563   1.2588   1.2610   1.2658   1.2673   1.2676   1.2773   1.2871
     1.2898   1.2913   1.3006   1.3093   1.3115   1.3150   1.3261   1.3314
     1.3396   1.3454   1.3472   1.3513   1.3521   1.3534   1.3593   1.3632
     1.3635   1.3657   1.3673   1.3758   1.3762   1.3832   1.3868   1.3942
     1.4028   1.4093   1.4122   1.4145   1.4229   1.4251   1.4272   1.4354
     1.4371   1.4382   1.4442   1.4482   1.4493   1.4526   1.4572   1.4741
     1.4796   1.4856   1.4893   1.4911   1.5024   1.5137   1.5147   1.5246
     1.5399   1.5403   1.5414   1.5466   1.5473   1.5492   1.5504   1.5522
     1.5549   1.5552   1.5746   1.5757   1.5820   1.5971   1.5986   1.6008
     1.6164   1.6176   1.6191   1.6325   1.6341   1.6356   1.6439   1.6458
     1.6476   1.6505   1.6529   1.6561   1.6627   1.6687   1.6688   1.6702
     1.6725   1.6765   1.6933   1.6945   1.7043   1.7081   1.7110   1.7148
     1.7160   1.7218   1.7346   1.7366   1.7493   1.7573   1.7621   1.7642
     1.7720   1.7724   1.7815   1.7853   1.7883   1.7887   1.7918   1.7959
     1.7974   1.8020   1.8027   1.8044   1.8072   1.8083   1.8207   1.8217
     1.8285   1.8319   1.8340   1.8362   1.8420   1.8424   1.8441   1.8476
     1.8509   1.8534   1.8548   1.8591   1.8603   1.8718   1.8728   1.8751
     1.8796   1.8837   1.8875   1.8890   1.8895   1.8929   1.8962   1.8980
     1.9161   1.9168   1.9254   1.9306   1.9360   1.9370   1.9396   1.9434
     1.9530   1.9616   1.9720   1.9723   1.9760   1.9847   1.9872   1.9906
     1.9911   1.9939   1.9953   1.9964   1.9973   2.0006   2.0133   2.0222
     2.0234   2.0240   2.0327   2.0365   2.0370   2.0385   2.0490   2.0522
     2.0571   2.0576   2.0588   2.0614   2.0623   2.0626   2.0746   2.0750
     2.0766   2.0769   2.0844   2.0849   2.0871   2.0918   2.0960   2.0973
     2.1155   2.1165   2.1218   2.1322   2.1392   2.1413   2.1436   2.1439
     2.1478   2.1525   2.1538   2.1559   2.1571   2.1608   2.1728   2.1746
     2.1781   2.1786   2.1819   2.1831   2.1840   2.1921   2.1971   2.1994
     2.2007   2.2040   2.2046   2.2127   2.2129   2.2156   2.2205   2.2252
     2.2287   2.2328   2.2369   2.2373   2.2459   2.2483   2.2491   2.2513
     2.2526   2.2552   2.2621   2.2626   2.2646   2.2754   2.2775   2.2791
     2.2855   2.2893   2.2965   2.3071   2.3086   2.3102   2.3144   2.3283
     2.3339   2.3447   2.3647   2.3799   2.3824   2.3914   2.3945   2.4000
     2.4085   2.4143   2.4222   2.4846   2.5070   2.5074   2.5435   2.5701
     2.5783   2.6103   2.6230   2.6867   2.7566   2.7934   2.8138   2.8365
     2.8447   2.8632   3.0436   3.1169   3.1702   3.2221   3.2330   3.2356
     3.2862   3.3918   3.5284   3.6893   3.7197   3.7587   3.7612   3.8106
     3.9230   3.9524   3.9998   4.0025   4.0346   4.1688   4.2132   4.2428
     4.2723   4.3000   4.3939   4.4010   4.4280   4.4354   4.4518   4.4544
     4.5321   4.6011   4.8091   5.0156   5.0343   5.0661   5.0841   5.1567
     5.1733   5.1911   5.2219   5.4251   5.5188   5.5543   5.5842   5.5886
     5.6112   5.7110   5.7756   5.7907   5.8186   5.8560   5.9211   5.9712
     6.1079   6.1137   6.1420   6.1973   6.2470   6.3588   6.3600   6.4116
     6.4585   6.4668   6.5790   6.6896   6.7044   6.7620   6.7669   6.7956
     6.9283   6.9599   6.9820   7.0712   7.1346   7.3587   7.4407   7.4757
     7.5042   7.5111   7.5291   7.5363   7.5975   7.7251   7.7758   7.7776
     7.8456   7.8647   7.8715   7.8793   7.8812   7.9059   7.9399   7.9987
     8.0467   8.0821   8.1298   8.1960   8.2521   8.2974   8.4059   8.5018
     8.5063   8.5974   8.6047   8.6263   8.6611   8.7046   8.7663   8.7825
     8.7930   8.9314   8.9586   9.0523   9.0805   9.1415   9.1574   9.1705
     9.1811   9.2048   9.2991   9.3631   9.3703   9.3720   9.3835   9.4012
     9.5213   9.5550   9.6643   9.6738   9.6829   9.7207   9.7437   9.7780
     9.7990   9.8105   9.8970   9.9145   9.9818  10.0036  10.0188  10.0836
    10.1379  10.2070  10.2564  10.2644  10.2757  10.3840  10.4105  10.5010
    10.5213  10.5252  10.5498  10.5520

          k = 0.2500-0.2165 0.0000 (256316 PWs)   bands (ev):

   -15.1820 -15.1291 -14.4183 -14.4109 -14.1972 -14.1446 -13.4434 -13.4363
   -12.9603 -12.9576 -12.2729 -12.2211 -12.0132 -12.0103 -11.5478 -11.5411
   -10.8789 -10.8606 -10.2505 -10.2459 -10.0006  -9.9829  -9.6312  -9.5822
    -8.5631  -8.5594  -8.0530  -8.0265  -7.9672  -7.9490  -7.4077  -7.3873
    -7.3100  -7.3064  -5.5972  -5.5684  -5.5600  -5.5592  -5.4609  -5.4166
    -5.2275  -5.1988  -4.8921  -4.8862  -4.8782  -4.8780  -4.0855  -4.0795
    -4.0707  -3.8636  -3.8258  -3.8137  -3.7579  -3.7577  -3.5333  -3.5236
    -3.3755  -3.2265  -3.1355  -3.1055  -3.0759  -3.0734  -3.0196  -2.9640
    -2.7907  -2.7615  -2.7133  -2.6443  -2.6398  -2.6077  -2.5620  -2.5067
    -2.4786  -2.4334  -2.3902  -2.3067  -2.2088  -2.1415  -2.1364  -2.0915
    -2.0877  -2.0673  -2.0088  -2.0082  -1.9826  -1.9632  -1.8135  -1.8008
    -1.7640  -1.7436  -1.6420  -1.5263  -1.5172  -1.5095  -1.4914  -1.3992
    -1.3839  -1.3726  -1.3421  -1.3382  -1.3335  -1.2808  -1.2673  -1.2090
    -1.2081  -1.1619  -1.1303  -1.0969  -1.0129  -0.9959  -0.9684  -0.9404
    -0.9293  -0.9097  -0.9092  -0.8988  -0.8894  -0.8875  -0.8823  -0.8817
    -0.8688  -0.8657  -0.8634  -0.8573  -0.8277  -0.8165  -0.7746  -0.7721
    -0.7712  -0.7474  -0.7233  -0.7175  -0.6908  -0.6855  -0.6838  -0.6681
    -0.6659  -0.5922  -0.5839  -0.5650  -0.5432  -0.5293  -0.5100  -0.5055
    -0.4889  -0.4840  -0.4724  -0.4641  -0.4512  -0.4445  -0.4441  -0.4377
    -0.4329  -0.4326  -0.4131  -0.4003  -0.3968  -0.3923  -0.3873  -0.3804
    -0.3718  -0.3713  -0.3381  -0.3272  -0.3187  -0.3149  -0.3037  -0.3013
    -0.3003  -0.2892  -0.2746  -0.2622  -0.2601  -0.2547  -0.2390  -0.2379
    -0.2283  -0.2277  -0.2089  -0.2059  -0.1935  -0.1918  -0.1915  -0.1796
    -0.1664  -0.1611  -0.1590  -0.1579  -0.1520  -0.1459  -0.1292  -0.1004
    -0.0995  -0.0978  -0.0772  -0.0648  -0.0642  -0.0554  -0.0370  -0.0342
    -0.0223  -0.0033   0.0028   0.0090   0.0203   0.0350   0.0405   0.0523
     0.0662   0.0726   0.0855   0.1058   0.1077   0.1091   0.1184   0.1275
     0.1400   0.1545   0.1766   0.1846   0.1901   0.1945   0.2143   0.2336
     0.2347   0.2350   0.2380   0.2396   0.2440   0.2529   0.2571   0.2586
     0.2702   0.2729   0.2829   0.2929   0.3060   0.3203   0.3266   0.3284
     0.3310   0.3321   0.3431   0.3435   0.3531   0.3550   0.3575   0.3598
     0.3763   0.3824   0.3956   0.4040   0.4106   0.4131   0.4162   0.4210
     0.4221   0.4223   0.4258   0.4327   0.4356   0.4366   0.4411   0.4502
     0.4524   0.4666   0.4740   0.4825   0.4840   0.4891   0.4969   0.5120
     0.5169   0.5285   0.5446   0.5491   0.5532   0.5546   0.5609   0.5650
     0.5764   0.5805   0.5822   0.5914   0.5953   0.6056   0.6072   0.6306
     0.6337   0.6339   0.6385   0.6425   0.6440   0.6492   0.6552   0.6662
     0.6724   0.6779   0.6794   0.6890   0.6939   0.6986   0.6998   0.7138
     0.7220   0.7253   0.7282   0.7289   0.7350   0.7398   0.7407   0.7490
     0.7501   0.7534   0.7623   0.7649   0.7687   0.7730   0.7831   0.7871
     0.7873   0.7898   0.7910   0.7981   0.8050   0.8069   0.8137   0.8164
     0.8198   0.8207   0.8247   0.8326   0.8545   0.8616   0.8690   0.8745
     0.8765   0.8827   0.8838   0.8885   0.8956   0.9116   0.9186   0.9258
     0.9269   0.9290   0.9339   0.9370   0.9417   0.9459   0.9496   0.9583
     0.9599   0.9672   0.9706   0.9768   0.9894   1.0027   1.0045   1.0067
     1.0081   1.0161   1.0184   1.0195   1.0406   1.0570   1.0603   1.0732
     1.0753   1.0824   1.0845   1.0849   1.0899   1.1041   1.1042   1.1090
     1.1097   1.1175   1.1177   1.1197   1.1329   1.1348   1.1402   1.1520
     1.1535   1.1561   1.1686   1.1691   1.1705   1.1865   1.1913   1.1926
     1.1946   1.2022   1.2097   1.2130   1.2144   1.2229   1.2389   1.2410
     1.2432   1.2486   1.2517   1.2704   1.2710   1.2746   1.2862   1.2863
     1.2905   1.2944   1.3015   1.3029   1.3124   1.3185   1.3286   1.3335
     1.3498   1.3525   1.3594   1.3669   1.3711   1.3722   1.3729   1.3755
     1.3791   1.3855   1.3875   1.3910   1.3973   1.4011   1.4022   1.4026
     1.4180   1.4197   1.4227   1.4311   1.4316   1.4436   1.4443   1.4497
     1.4599   1.4620   1.4657   1.4717   1.4753   1.4786   1.4825   1.4836
     1.4840   1.4861   1.4924   1.4935   1.5003   1.5044   1.5261   1.5309
     1.5315   1.5339   1.5350   1.5401   1.5403   1.5445   1.5457   1.5523
     1.5589   1.5593   1.5626   1.5735   1.5795   1.5816   1.5870   1.5884
     1.5986   1.6034   1.6151   1.6171   1.6210   1.6254   1.6275   1.6351
     1.6371   1.6395   1.6445   1.6498   1.6600   1.6645   1.6648   1.6673
     1.6686   1.6762   1.6798   1.6829   1.6932   1.6942   1.6980   1.7065
     1.7173   1.7184   1.7205   1.7288   1.7330   1.7415   1.7430   1.7534
     1.7537   1.7565   1.7684   1.7715   1.7740   1.7755   1.7778   1.7785
     1.7982   1.7996   1.8132   1.8252   1.8291   1.8299   1.8310   1.8343
     1.8377   1.8449   1.8459   1.8502   1.8512   1.8570   1.8627   1.8636
     1.8700   1.8768   1.8810   1.8821   1.8862   1.8874   1.8879   1.8952
     1.8961   1.9006   1.9062   1.9117   1.9126   1.9188   1.9210   1.9253
     1.9265   1.9322   1.9435   1.9450   1.9486   1.9528   1.9534   1.9554
     1.9591   1.9609   1.9644   1.9683   1.9701   1.9777   1.9797   1.9814
     1.9834   1.9890   1.9904   1.9941   1.9987   2.0088   2.0095   2.0147
     2.0190   2.0235   2.0283   2.0327   2.0334   2.0351   2.0405   2.0433
     2.0462   2.0486   2.0492   2.0503   2.0567   2.0601   2.0741   2.0792
     2.0866   2.0907   2.0941   2.0988   2.1000   2.1025   2.1035   2.1078
     2.1098   2.1127   2.1165   2.1239   2.1327   2.1368   2.1377   2.1393
     2.1413   2.1484   2.1507   2.1527   2.1558   2.1589   2.1605   2.1611
     2.1690   2.1726   2.1749   2.1827   2.1854   2.1858   2.1960   2.1988
     2.2007   2.2068   2.2113   2.2116   2.2128   2.2185   2.2233   2.2267
     2.2275   2.2285   2.2306   2.2317   2.2416   2.2456   2.2487   2.2490
     2.2527   2.2555   2.2601   2.2623   2.2650   2.2753   2.2755   2.2784
     2.2793   2.2803   2.2843   2.2851   2.2961   2.2985   2.3106   2.3226
     2.3233   2.3324   2.3343   2.3546   2.3719   2.3760   2.4020   2.4470
     2.4690   2.4701   2.4753   2.4933   2.4991   2.5071   2.5104   2.5220
     2.5298   2.5396   2.7001   2.7534   2.8755   2.8923   2.8966   2.8970
     2.9163   2.9300   2.9403   3.0132   3.0200   3.1762   3.2429   3.3418
     3.3582   3.3922   3.4471   3.5190   3.5682   3.5758   3.6190   3.6549
     3.6965   3.8366   3.8523   3.8881   3.9017   4.1627   4.2796   4.3161
     4.4249   4.4936   4.5424   4.5511   4.5732   4.5759   4.5814   4.7417
     4.8316   4.8593   4.9078   4.9173   4.9770   5.0412   5.0571   5.0664
     5.2251   5.2265   5.2962   5.3693   5.4126   5.4297   5.4540   5.4786
     5.6734   5.6963   5.7556   5.7670   5.8083   5.8502   5.9003   5.9043
     5.9604   5.9695   6.0883   6.1590   6.1710   6.2574   6.3065   6.4628
     6.4713   6.4926   6.5072   6.5179   6.6826   6.7351   6.8266   6.8879
     6.9321   6.9985   7.0578   7.1583   7.1857   7.1908   7.2666   7.3528
     7.4753   7.5223   7.5435   7.6104   7.6288   7.7202   7.8046   7.8697
     7.8753   7.8757   7.9135   7.9338   7.9993   8.0732   8.1429   8.1619
     8.1807   8.1868   8.2003   8.2030   8.2960   8.3405   8.4359   8.4878
     8.5093   8.5793   8.6076   8.7354   8.7831   8.7875   8.7972   8.8302
     8.8384   8.8937   8.9799   8.9998   9.0051   9.0073   9.0316   9.0330
     9.2150   9.2942   9.3442   9.3831   9.3980   9.4276   9.4360   9.4826
     9.4914   9.5223   9.5382   9.5594   9.5643   9.5848   9.6903   9.7097
     9.7882   9.8003   9.8184   9.8482   9.8559   9.9841  10.0019  10.0263
    10.1210  10.1515  10.1626  10.1832  10.2454  10.2562  10.2726  10.3116
    10.4068  10.4431  10.4471  10.4562

          k =-0.5000 0.0000 0.0000 (256496 PWs)   bands (ev):

   -14.8804 -14.8800 -14.5070 -14.5067 -14.5049 -14.5046 -13.4111 -13.4108
   -13.4101 -13.4098 -11.6373 -11.6371 -11.6296 -11.6291 -11.0653 -11.0633
   -10.7300 -10.7294 -10.7279 -10.7269 -10.0797 -10.0790  -9.6616  -9.6614
    -9.0882  -9.0880  -8.6825  -8.6820  -7.8511  -7.8482  -7.8423  -7.8389
    -6.3488  -6.3484  -6.2814  -6.2811  -6.2781  -6.2773  -4.8340  -4.8330
    -4.4916  -4.4908  -4.1096  -4.1086  -4.0063  -4.0031  -3.9742  -3.9732
    -3.6925  -3.6914  -3.6850  -3.6843  -3.5989  -3.5985  -3.5984  -3.5983
    -3.5772  -3.5725  -3.3136  -3.3117  -3.3070  -3.3049  -3.1325  -3.1294
    -3.0349  -3.0331  -2.9662  -2.9648  -2.6026  -2.6019  -2.5999  -2.5997
    -2.5289  -2.5276  -2.5155  -2.5144  -2.3117  -2.3110  -2.2985  -2.2970
    -2.2965  -2.2962  -2.2957  -2.2914  -1.9879  -1.9845  -1.8869  -1.8846
    -1.7360  -1.7351  -1.7143  -1.7136  -1.7089  -1.7077  -1.6966  -1.6964
    -1.2714  -1.2702  -1.2613  -1.2595  -1.1669  -1.1644  -1.1585  -1.1564
    -1.0674  -1.0669  -1.0666  -1.0664  -1.0494  -1.0490  -1.0210  -1.0201
    -0.8531  -0.8523  -0.8501  -0.8495  -0.8083  -0.8070  -0.7894  -0.7886
    -0.7873  -0.7867  -0.7310  -0.7294  -0.6936  -0.6934  -0.6396  -0.6381
    -0.6379  -0.6366  -0.6035  -0.6029  -0.5878  -0.5872  -0.5871  -0.5868
    -0.5515  -0.5507  -0.5478  -0.5472  -0.5191  -0.5186  -0.5149  -0.5145
    -0.5003  -0.4993  -0.4851  -0.4849  -0.4764  -0.4761  -0.4654  -0.4652
    -0.4152  -0.4134  -0.4128  -0.4087  -0.3988  -0.3979  -0.3841  -0.3833
    -0.3724  -0.3713  -0.3697  -0.3692  -0.3577  -0.3574  -0.3549  -0.3540
    -0.3125  -0.3123  -0.3030  -0.3027  -0.2975  -0.2949  -0.2730  -0.2713
    -0.2584  -0.2581  -0.2372  -0.2371  -0.2276  -0.2267  -0.2133  -0.2118
    -0.1719  -0.1701  -0.1657  -0.1646  -0.1639  -0.1633  -0.1557  -0.1552
    -0.1358  -0.1348  -0.1128  -0.1126  -0.1094  -0.1090  -0.1087  -0.1085
    -0.0976  -0.0967  -0.0741  -0.0722  -0.0488  -0.0486   0.0184   0.0191
     0.0662   0.0668   0.0812   0.0816   0.0893   0.0903   0.1010   0.1015
     0.1252   0.1255   0.1366   0.1370   0.1400   0.1413   0.1584   0.1589
     0.1790   0.1793   0.1818   0.1823   0.2134   0.2137   0.2231   0.2239
     0.2394   0.2396   0.2791   0.2798   0.3213   0.3222   0.3309   0.3311
     0.3400   0.3408   0.3412   0.3427   0.3636   0.3658   0.3706   0.3716
     0.3807   0.3812   0.3984   0.3989   0.4198   0.4202   0.4204   0.4206
     0.4460   0.4467   0.4479   0.4484   0.4624   0.4631   0.4908   0.4909
     0.5001   0.5003   0.5104   0.5113   0.5317   0.5323   0.5364   0.5375
     0.5528   0.5528   0.5534   0.5544   0.5699   0.5712   0.5980   0.5985
     0.5991   0.6005   0.6273   0.6285   0.6298   0.6301   0.6478   0.6483
     0.6577   0.6580   0.6679   0.6688   0.6777   0.6780   0.7158   0.7167
     0.7217   0.7222   0.7272   0.7286   0.7296   0.7302   0.7370   0.7375
     0.7490   0.7511   0.7570   0.7575   0.7596   0.7599   0.7738   0.7750
     0.7787   0.7790   0.7887   0.7891   0.8007   0.8014   0.8024   0.8031
     0.8357   0.8360   0.8507   0.8513   0.8675   0.8689   0.8707   0.8716
     0.8769   0.8771   0.8841   0.8846   0.8888   0.8888   0.8910   0.8911
     0.8913   0.8913   0.8981   0.8990   0.9134   0.9137   0.9175   0.9178
     0.9221   0.9223   0.9305   0.9317   0.9366   0.9372   0.9428   0.9434
     0.9609   0.9630   0.9638   0.9642   0.9996   1.0005   1.0018   1.0026
     1.0557   1.0583   1.0704   1.0707   1.0831   1.0853   1.0994   1.1001
     1.1067   1.1086   1.1095   1.1098   1.1115   1.1120   1.1295   1.1300
     1.1390   1.1396   1.1416   1.1419   1.1534   1.1539   1.1594   1.1605
     1.1640   1.1642   1.1653   1.1662   1.1771   1.1773   1.1804   1.1810
     1.1917   1.1922   1.2112   1.2125   1.2185   1.2199   1.2205   1.2240
     1.2634   1.2642   1.2652   1.2663   1.2797   1.2799   1.2910   1.2912
     1.2929   1.2930   1.3007   1.3101   1.3123   1.3129   1.3225   1.3236
     1.3296   1.3345   1.3366   1.3389   1.3432   1.3493   1.3508   1.3517
     1.3566   1.3571   1.3609   1.3611   1.3667   1.3681   1.3851   1.3867
     1.3992   1.3996   1.4061   1.4068   1.4123   1.4125   1.4150   1.4156
     1.4307   1.4322   1.4329   1.4338   1.4417   1.4426   1.4484   1.4486
     1.4668   1.4672   1.4706   1.4709   1.4780   1.4792   1.4938   1.4986
     1.5014   1.5233   1.5297   1.5326   1.5332   1.5335   1.5339   1.5388
     1.5484   1.5522   1.5536   1.5549   1.5670   1.5679   1.5726   1.5733
     1.5846   1.5870   1.6006   1.6013   1.6107   1.6115   1.6134   1.6135
     1.6156   1.6205   1.6215   1.6232   1.6343   1.6345   1.6456   1.6471
     1.6497   1.6508   1.6546   1.6593   1.6604   1.6609   1.6811   1.6818
     1.6828   1.6832   1.7024   1.7029   1.7145   1.7151   1.7251   1.7316
     1.7555   1.7559   1.7565   1.7630   1.7712   1.7721   1.7747   1.7783
     1.7803   1.7820   1.7946   1.7973   1.8051   1.8056   1.8109   1.8199
     1.8382   1.8399   1.8429   1.8454   1.8473   1.8507   1.8553   1.8557
     1.8632   1.8638   1.8707   1.8726   1.8840   1.8913   1.8982   1.8986
     1.9035   1.9037   1.9056   1.9063   1.9177   1.9188   1.9201   1.9209
     1.9231   1.9237   1.9243   1.9262   1.9412   1.9420   1.9527   1.9528
     1.9566   1.9577   1.9695   1.9710   1.9847   1.9857   1.9869   1.9906
     1.9916   1.9921   1.9926   1.9932   2.0043   2.0057   2.0079   2.0080
     2.0098   2.0106   2.0222   2.0249   2.0254   2.0259   2.0346   2.0350
     2.0427   2.0433   2.0618   2.0631   2.0652   2.0669   2.0771   2.0776
     2.0874   2.0877   2.0897   2.0900   2.0909   2.0944   2.1007   2.1017
     2.1034   2.1037   2.1049   2.1059   2.1064   2.1082   2.1109   2.1114
     2.1134   2.1157   2.1167   2.1176   2.1327   2.1334   2.1442   2.1448
     2.1523   2.1544   2.1645   2.1646   2.1693   2.1699   2.1864   2.1872
     2.1894   2.1897   2.1897   2.1905   2.1919   2.1922   2.2010   2.2020
     2.2065   2.2068   2.2119   2.2139   2.2141   2.2143   2.2272   2.2277
     2.2362   2.2366   2.2438   2.2445   2.2544   2.2573   2.2726   2.2733
     2.2772   2.2778   2.2780   2.2786   2.2859   2.2864   2.2865   2.2868
     2.2925   2.2928   2.3310   2.3323   2.3387   2.3390   2.3607   2.3619
     2.3797   2.3801   2.3818   2.3822   2.4010   2.4011   2.4538   2.4559
     2.5091   2.5093   2.6777   2.6784   2.9706   2.9712   2.9891   2.9902
     3.0267   3.0272   3.0681   3.0683   3.0760   3.0763   3.4888   3.4901
     3.5282   3.5300   3.6724   3.6759   3.7659   3.7664   3.9211   3.9232
     3.9421   3.9431   3.9754   3.9761   4.1065   4.1077   4.5563   4.5584
     4.5728   4.5731   4.6486   4.6508   4.7079   4.7107   4.7809   4.7825
     4.8367   4.8372   5.3707   5.3710   5.3810   5.3853   5.4402   5.4414
     5.4813   5.4822   5.5731   5.5764   5.6200   5.6203   5.6388   5.6415
     5.7444   5.7773   5.7829   5.7912   5.8004   5.8081   5.8236   5.8329
     5.8401   5.8491   6.0087   6.0121   6.0472   6.0518   6.3130   6.3218
     6.3559   6.3654   6.3785   6.3952   6.4487   6.4690   6.6339   6.6350
     6.6580   6.6606   6.7065   6.7072   6.7715   6.7805   6.9424   6.9465
     6.9916   6.9936   7.1515   7.1554   7.4636   7.4652   7.5524   7.5611
     7.6031   7.6080   7.6136   7.6194   7.9105   7.9108   7.9610   7.9628
     8.1445   8.1468   8.3255   8.3280   8.3548   8.3554   8.3638   8.3641
     8.4559   8.4561   8.5005   8.5010   8.5188   8.5201   8.6387   8.6400
     8.6851   8.6869   8.8139   8.8189   8.8773   8.8783   8.9550   8.9561
     9.0508   9.0522   9.1699   9.1702   9.2915   9.2927   9.4089   9.4110
     9.4296   9.4316   9.5300   9.5318   9.5635   9.5660   9.6824   9.6826
     9.6866   9.6869   9.8024   9.8044   9.8569   9.8593   9.9431   9.9458
    10.0616  10.0626  10.3252  10.3271  10.3288  10.3292  10.3649  10.3653
    10.4245  10.4255  10.5517  10.5523

          k =-0.5000-0.2165 0.0000 (256328 PWs)   bands (ev):

   -14.8115 -14.8109 -14.7585 -14.7584 -14.0514 -14.0510 -14.0440 -14.0437
   -12.6032 -12.6029 -12.6006 -12.6001 -11.0050 -11.0005 -10.9525 -10.9504
   -10.5460 -10.5457 -10.5275 -10.5272 -10.3745 -10.3671 -10.3427 -10.3370
    -8.6767  -8.6744  -8.6469  -8.6442  -7.7044  -7.7036  -7.6854  -7.6852
    -6.9465  -6.9457  -6.9182  -6.9175  -4.8579  -4.8575  -4.8569  -4.8563
    -4.3677  -4.3666  -4.3615  -4.3587  -4.2510  -4.2445  -4.2216  -4.2161
    -4.0286  -4.0272  -3.9797  -3.9793  -3.5752  -3.5677  -3.3832  -3.3829
    -3.3480  -3.3479  -3.3239  -3.3234  -3.1363  -3.1360  -3.1359  -3.1347
    -2.9329  -2.9306  -2.7877  -2.7874  -2.6127  -2.6093  -2.5993  -2.5949
    -2.5887  -2.5886  -2.5797  -2.5796  -2.5657  -2.5616  -2.5558  -2.5535
    -2.2366  -2.2309  -2.0089  -2.0078  -1.9619  -1.9608  -1.8974  -1.8966
    -1.7576  -1.7568  -1.7565  -1.7562  -1.5138  -1.5106  -1.4653  -1.4622
    -1.2808  -1.2801  -1.2684  -1.2679  -1.2677  -1.2672  -1.2596  -1.2590
    -1.0877  -1.0852  -1.0026  -1.0017  -0.9804  -0.9801  -0.9698  -0.9689
    -0.9446  -0.9444  -0.9295  -0.9269  -0.8582  -0.8565  -0.7763  -0.7759
    -0.6754  -0.6753  -0.6709  -0.6705  -0.6551  -0.6550  -0.6507  -0.6481
    -0.6324  -0.6318  -0.6294  -0.6291  -0.6065  -0.6031  -0.5851  -0.5849
    -0.5776  -0.5774  -0.5651  -0.5643  -0.5498  -0.5496  -0.5480  -0.5476
    -0.5401  -0.5400  -0.5063  -0.5063  -0.4346  -0.4325  -0.4293  -0.4290
    -0.4255  -0.4205  -0.3989  -0.3980  -0.3891  -0.3888  -0.3669  -0.3662
    -0.3593  -0.3583  -0.3415  -0.3411  -0.3338  -0.3333  -0.3320  -0.3317
    -0.3275  -0.3260  -0.3193  -0.3192  -0.3157  -0.3156  -0.2759  -0.2721
    -0.2525  -0.2518  -0.2478  -0.2460  -0.2429  -0.2427  -0.2361  -0.2356
    -0.2345  -0.2343  -0.2326  -0.2308  -0.1713  -0.1705  -0.1630  -0.1625
    -0.1258  -0.1229  -0.1193  -0.1176  -0.0458  -0.0451  -0.0287  -0.0286
    -0.0249  -0.0240  -0.0172  -0.0163   0.0169   0.0172   0.0268   0.0272
     0.0457   0.0459   0.0470   0.0478   0.0509   0.0516   0.0620   0.0629
     0.0633   0.0649   0.0989   0.0997   0.1083   0.1086   0.1160   0.1161
     0.1175   0.1187   0.1335   0.1339   0.2247   0.2254   0.2315   0.2319
     0.2575   0.2589   0.2595   0.2598   0.2788   0.2793   0.3087   0.3090
     0.3143   0.3158   0.3202   0.3211   0.3369   0.3369   0.3508   0.3510
     0.3674   0.3679   0.3705   0.3715   0.3776   0.3800   0.4069   0.4083
     0.4211   0.4228   0.4352   0.4366   0.4531   0.4547   0.4954   0.4962
     0.5161   0.5170   0.5312   0.5318   0.5341   0.5346   0.5396   0.5398
     0.5452   0.5464   0.5478   0.5479   0.5641   0.5657   0.5920   0.5921
     0.5987   0.6001   0.6122   0.6125   0.6251   0.6264   0.6357   0.6358
     0.6531   0.6533   0.6642   0.6644   0.6650   0.6651   0.6755   0.6763
     0.6792   0.6799   0.6820   0.6832   0.7056   0.7066   0.7350   0.7355
     0.7433   0.7441   0.7703   0.7718   0.7901   0.7907   0.7965   0.7975
     0.8099   0.8111   0.8147   0.8150   0.8169   0.8191   0.8249   0.8255
     0.8439   0.8450   0.8528   0.8536   0.8542   0.8547   0.8615   0.8628
     0.8745   0.8746   0.8827   0.8828   0.8909   0.8912   0.8952   0.8958
     0.9028   0.9034   0.9115   0.9117   0.9160   0.9160   0.9262   0.9264
     0.9282   0.9287   0.9425   0.9427   0.9548   0.9557   0.9745   0.9751
     0.9810   0.9821   1.0114   1.0128   1.0130   1.0134   1.0241   1.0247
     1.0461   1.0470   1.0474   1.0483   1.0760   1.0784   1.1003   1.1006
     1.1010   1.1037   1.1254   1.1261   1.1338   1.1346   1.1359   1.1368
     1.1462   1.1464   1.1470   1.1473   1.1601   1.1602   1.1740   1.1745
     1.1763   1.1772   1.1800   1.1807   1.1863   1.1873   1.2107   1.2151
     1.2277   1.2278   1.2367   1.2375   1.2399   1.2409   1.2412   1.2424
     1.2463   1.2472   1.2517   1.2547   1.2641   1.2644   1.2771   1.2800
     1.2893   1.2897   1.2958   1.2959   1.3072   1.3086   1.3245   1.3317
     1.3434   1.3436   1.3472   1.3481   1.3546   1.3562   1.3606   1.3637
     1.3737   1.3739   1.3746   1.3783   1.3855   1.3860   1.4029   1.4033
     1.4104   1.4120   1.4164   1.4180   1.4203   1.4209   1.4239   1.4270
     1.4435   1.4449   1.4456   1.4565   1.4566   1.4588   1.4605   1.4618
     1.4622   1.4624   1.4795   1.4798   1.4868   1.4877   1.4995   1.5011
     1.5076   1.5078   1.5106   1.5116   1.5204   1.5208   1.5469   1.5487
     1.5496   1.5499   1.5610   1.5620   1.5630   1.5641   1.5693   1.5697
     1.5727   1.5773   1.5933   1.5936   1.5966   1.5972   1.6147   1.6211
     1.6355   1.6430   1.6555   1.6563   1.6577   1.6662   1.6747   1.6802
     1.6829   1.6905   1.7032   1.7035   1.7252   1.7273   1.7288   1.7340
[...]
     atom   59 type  1   force =     0.00028375    0.00168099    0.00068760
     atom   60 type  1   force =     0.00000335    0.00074933    0.00093022
     atom   61 type  1   force =     0.00049475    0.00023645   -0.00291718
     atom   62 type  1   force =    -0.00001519   -0.00040517    0.00126319
     atom   63 type  1   force =    -0.00049561    0.00025884   -0.00288562
     atom   64 type  1   force =     0.00001573   -0.00138123    0.00062315
     atom   65 type  1   force =    -0.00035159   -0.00365039    0.00311285
     atom   66 type  1   force =     0.00000460   -0.00257599    0.00288085
     atom   67 type  1   force =     0.00035213   -0.00363891    0.00313047
     atom   68 type  1   force =    -0.00000356   -0.00273031    0.00172084
     atom   69 type  1   force =     0.00042278    0.00037059   -0.00067326
     atom   70 type  1   force =     0.00003955    0.00024857   -0.00277753
     atom   71 type  1   force =    -0.00041061    0.00022828   -0.00081925
     atom   72 type  1   force =    -0.00004136   -0.00079613   -0.00085571
     atom   73 type  1   force =     0.00109241    0.00241746    0.00104739
     atom   74 type  1   force =    -0.00009706    0.00287972    0.00419853
     atom   75 type  1   force =    -0.00108880    0.00255329    0.00084822
     atom   76 type  1   force =     0.00008710    0.00242699    0.00283269
     atom   77 type  1   force =     0.00027073    0.00076361    0.00105848
     atom   78 type  1   force =    -0.00004530   -0.00034858   -0.00243770
     atom   79 type  1   force =    -0.00027004    0.00078029    0.00106582
     atom   80 type  1   force =     0.00004401    0.00122952   -0.00285166
     atom   81 type  1   force =     0.00070744   -0.00093990    0.00145146
     atom   82 type  1   force =     0.00001209   -0.00144321   -0.00110504
     atom   83 type  1   force =    -0.00071103   -0.00090263    0.00146070
     atom   84 type  1   force =    -0.00000483   -0.00153848   -0.00033439
     atom   85 type  1   force =     0.00099896    0.00025111    0.00024324
     atom   86 type  1   force =     0.00004131   -0.00031800    0.00141669
     atom   87 type  1   force =    -0.00099864    0.00027202    0.00018975
     atom   88 type  1   force =    -0.00004587    0.00365796    0.00266943
     atom   89 type  1   force =    -0.00178421    0.00033836    0.00064904
     atom   90 type  1   force =     0.00010803    0.00196493    0.00055172
     atom   91 type  1   force =     0.00172264    0.00023676    0.00085081
     atom   92 type  1   force =    -0.00008945    0.00001463    0.00275647
     atom   93 type  1   force =    -0.00024591   -0.00249679    0.00266521
     atom   94 type  1   force =    -0.00009204    0.00070529   -0.00015543
     atom   95 type  1   force =     0.00026629   -0.00285707    0.00301824
     atom   96 type  1   force =     0.00008882   -0.00028777    0.00134738
     atom   97 type  1   force =     0.00051235    0.00180318   -0.00043675
     atom   98 type  1   force =    -0.00002847    0.00072211    0.00118159
     atom   99 type  1   force =    -0.00051645    0.00177374   -0.00038008
     atom  100 type  1   force =     0.00002900    0.00038074    0.00124683
     atom  101 type  1   force =     0.00021604   -0.00066518    0.00139975
     atom  102 type  1   force =    -0.00024748   -0.00266836    0.00058519
     atom  103 type  1   force =    -0.00130741    0.00105513   -0.00105801
     atom  104 type  1   force =    -0.00000821   -0.00046048    0.00251499
     atom  105 type  1   force =     0.00132775    0.00125489   -0.00108798
     atom  106 type  1   force =     0.00005147   -0.00017902   -0.00166599
     atom  107 type  1   force =    -0.00027980    0.00066236    0.00168370
     atom  108 type  1   force =     0.00027248    0.00069870    0.00140354
     atom  109 type  2   force =     0.00004759   -0.00103555   -0.00072659
     atom  110 type  2   force =     0.00006636   -0.00022814    0.00169206
     atom  111 type  2   force =     0.00154440    0.00293441   -0.00287997
     atom  112 type  2   force =     0.00184621    0.00144071   -0.00140822
     atom  113 type  2   force =    -0.00136279    0.00218755    0.00235796
     atom  114 type  2   force =    -0.00205349   -0.00241065   -0.00004585
     atom  115 type  2   force =     0.00005077    0.00184064   -0.00278549
     atom  116 type  2   force =    -0.00000008    0.00431698   -0.00348934
     atom  117 type  2   force =     0.00131977    0.00222858    0.00239899
     atom  118 type  2   force =     0.00217962   -0.00256775   -0.00043697
     atom  119 type  2   force =    -0.00165795    0.00292838   -0.00274631
     atom  120 type  2   force =    -0.00204076    0.00160495   -0.00135498
     atom  121 type  2   force =    -0.00013279   -0.00117901    0.00468311
     atom  122 type  2   force =    -0.00015390   -0.00165951   -0.00737933
     atom  123 type  2   force =    -0.00236804   -0.00081715   -0.00492308
     atom  124 type  2   force =    -0.00192126    0.00050376    0.00023944
     atom  125 type  2   force =     0.00231075   -0.00362245   -0.00510073
     atom  126 type  2   force =     0.00214176    0.00150199   -0.00005258
     atom  127 type  2   force =    -0.00002317    0.00085920    0.00300803
     atom  128 type  2   force =     0.00008991   -0.00176645   -0.00487113
     atom  129 type  2   force =    -0.00223740   -0.00350927   -0.00554720
     atom  130 type  2   force =    -0.00234100    0.00153595    0.00004026
     atom  131 type  2   force =     0.00252452   -0.00084933   -0.00449351
     atom  132 type  2   force =     0.00218553    0.00044077    0.00045107
     atom  133 type  2   force =     0.00001872   -0.00259461    0.00178973
     atom  134 type  2   force =     0.00003706    0.00529509   -0.00752234
     atom  135 type  2   force =     0.00248017    0.00095439   -0.00337414
     atom  136 type  2   force =     0.00203469   -0.00169994    0.00029438
     atom  137 type  2   force =    -0.00250763   -0.00003511   -0.00457345
     atom  138 type  2   force =    -0.00163166    0.00243302    0.00169551
     atom  139 type  2   force =     0.00014781   -0.00007337    0.00117180
     atom  140 type  2   force =    -0.00001729    0.00124153   -0.00727102
     atom  141 type  2   force =     0.00235401   -0.00000442   -0.00426258
     atom  142 type  2   force =     0.00179771    0.00232187    0.00166694
     atom  143 type  2   force =    -0.00257207    0.00084345   -0.00375346
     atom  144 type  2   force =    -0.00221331   -0.00160246   -0.00005673
     atom  145 type  2   force =    -0.00006546    0.00311745    0.00076939
     atom  146 type  2   force =    -0.00006248   -0.00405534    0.00228419
     atom  147 type  2   force =    -0.00230942   -0.00291209   -0.00295924
     atom  148 type  2   force =    -0.00089151   -0.00141934   -0.00295615
     atom  149 type  2   force =     0.00264626    0.00143943    0.00177229
     atom  150 type  2   force =     0.00087997   -0.00054731    0.00037114
     atom  151 type  2   force =    -0.00005883   -0.00129803   -0.00146076
     atom  152 type  2   force =     0.00004716   -0.00335546   -0.00350963
     atom  153 type  2   force =    -0.00251506    0.00139014    0.00195804
     atom  154 type  2   force =    -0.00094593   -0.00042525    0.00036978
     atom  155 type  2   force =     0.00235886   -0.00287155   -0.00295520
     atom  156 type  2   force =     0.00097272   -0.00152386   -0.00299788

     Total force =     0.039494     Total SCF correction =     0.000304

     number of scf cycles    =  11
     number of bfgs steps    =  10

     energy   old            =  -13670.8593282854 Ry
     energy   new            =  -13670.8616717070 Ry

     CASE: energy  _new < energy  _old

     new trust radius        =       0.0722291463 bohr
     new conv_thr            =       0.0000000100 Ry


ATOMIC_POSITIONS (angstrom)
Cu       0.000306873   0.010255933   6.362145079
Cu       1.844562010   1.728380138   6.366473877
Cu       3.688728916   0.010314173   6.362200828
Cu       5.533520540   1.729807738   6.368327487
Cu      -0.000428187   3.448435208   6.387035134
Cu       1.844504594   5.157084685   6.408578515
Cu       3.689457792   3.448260050   6.386926919
Cu       5.533567693   5.156791001   6.409032556
Cu       0.000025951   6.837398332   6.419871003
Cu       1.844487199   8.497450583   6.419432494
Cu       3.689009290   6.837441850   6.419856332
Cu       5.533584160   8.497959330   6.419623276
Cu      -0.000417627  10.178399792   6.408000868
Cu       1.844492532  11.887141030   6.385380410
Cu       3.689454095  10.178380426   6.408003046
Cu       5.533575012  11.885624947   6.387121560
Cu       0.000411030  13.605109136   6.367113681
Cu       1.844594313  15.325892209   6.363499745
Cu       3.688631148  13.605190444   6.366984974
Cu       5.533463280  15.326054594   6.360475710
Cu      -0.000171660   1.727785437   8.180821545
Cu       1.844603924   0.009431411   8.184012007
Cu       3.689204461   1.727722862   8.180678776
Cu       5.533466404   0.007514495   8.182154005
Cu       0.000179267   5.121977866   8.236867024
Cu       1.844456220   3.435336232   8.204021906
Cu       3.688854098   5.121799416   8.236638606
Cu       5.533615498   3.434933711   8.204692549
Cu       0.000107077   8.521042327   8.263510019
Cu       1.844393620   6.814855948   8.263541584
Cu       3.688928431   8.521052938   8.263544124
Cu       5.533683058   6.815030724   8.264141811
Cu      -0.000203850  11.897797511   8.205957433
Cu       1.844455209  10.212706180   8.235945512
Cu       3.689239708  11.897888651   8.205966915
Cu       5.533613923  10.212434142   8.238138415
Cu       0.001119472  15.328923905   8.181244599
Cu       1.844469261  13.606018469   8.181301392
Cu       3.687921330  15.329056958   8.181114130
Cu       5.533602849  13.608012917   8.179138870
Cu       0.000077382   0.013100486  10.021712642
Cu       1.844615748   1.713419495  10.029890767
Cu       3.688956891   0.013245666  10.021675147
Cu       5.533454658   1.715942874  10.033778865
Cu      -0.002340038   3.389836002  10.061268821
Cu       1.844280836   5.108900260  10.095879468
Cu       3.691373282   3.389893758  10.061039773
Cu       5.533781924   5.102854902  10.089174242
Cu       0.004056757   6.814893162  10.068864381
Cu       1.844409254   8.518088551  10.075538889
Cu       3.684987962   6.814705333  10.068116887
Cu       5.533668141   8.521139848  10.067990572
Cu      -0.002827422  10.230631101  10.092363078
Cu       1.844545450  11.947973886  10.058520094
Cu       3.691851321  10.230468587  10.092435371
Cu       5.533523766  11.943930701  10.063993353
Cu       0.000453855  13.618731142  10.032138169
Cu       1.844508309  15.324588824  10.018871924
Cu       3.688585563  13.618663374  10.032153115
Cu       5.533567904  15.324686958  10.021720557
Cu      -0.001347807   1.705126343  11.905944903
Cu       1.844504391   0.003713911  11.861056976
Cu       3.690378068   1.704996305  11.905980802
Cu       5.533571549   0.008683404  11.861897866
Cu       0.001428815   5.114364213  11.915535595
Cu       1.844505811   3.413729243  11.896895715
Cu       3.687603997   5.114245382  11.914786001
Cu       5.533564576   3.416696284  11.901375303
Cu      -0.001804730   8.532881838  11.953907002
Cu       1.844010452   6.799050044  11.966772704
Cu       3.690775995   8.532596262  11.953585174
Cu       5.534074728   6.802648973  11.954630925
Cu      -0.004083926  11.922518454  11.905661742
Cu       1.844521602  10.224683853  11.905813060
Cu       3.693092825  11.923090056  11.905444403
Cu       5.533574739  10.224821661  11.915732222
Cu      -0.002788085  15.329886732  11.860124213
Cu       1.844614273  13.631562620  11.904469508
Cu       3.691829488  15.330140279  11.859467731
Cu       5.533469087  13.628058586  11.902431017
Cu      -0.004851299  -0.007385294  13.701878397
Cu       1.844734610   1.680966294  13.747388481
Cu       3.693903682  -0.008396876  13.701753047
Cu       5.533302271   1.680801783  13.744901179
Cu      -0.002338103   3.335854573  13.776660748
Cu       1.844017260   5.011936416  13.821922824
Cu       3.691400288   3.336363959  13.776744631
Cu       5.534103815   5.002912042  13.822223723
Cu       0.003474857   6.794677577  13.762843807
Cu       1.843257984   8.537281603  13.757727043
Cu       3.685712971   6.794696142  13.760052879
Cu       5.534720204   8.539867652  13.757745809
Cu       0.002102381  10.329482098  13.821673027
Cu       1.845986764  11.995501529  13.776585128
Cu       3.686812923  10.326618964  13.814560369
Cu       5.532083290  11.997801139  13.767458428
Cu      -0.002253308  13.653615692  13.743623427
Cu       1.843957490  15.345548095  13.703067577
Cu       3.691309198  13.655982719  13.743131888
Cu       5.534129721  15.344926627  13.701183642
Cu       1.849806508  10.223561358  15.546416829
Cu       5.528367157  10.236453518  15.549651988
Cu       0.007484510   8.514503420  15.593288087
Cu       1.842406337   6.821438023  15.553798019
Cu       3.681535592   8.505997680  15.592684749
Cu       5.535520078   6.825979888  15.598716230
Cu       0.002141927   5.109487634  15.548358193
Cu       3.686817704   5.111282078  15.547239046
C        0.000038836   0.710206366  18.938094142
C        0.000038754   2.128616303  18.889211413
C        1.228950396  -0.001419016  18.954770319
C        1.230116694   2.838792862  18.868726688
C        2.459981777   0.708455008  18.931150090
C        2.459367432   2.127853774  18.892784014
C        3.689053323  -0.002254491  18.950520460
C        3.689002850   2.836850175  18.869498204
C        4.918129129   0.708507995  18.931567537
C        4.918685150   2.127953800  18.893988071
C        6.149179856  -0.001382553  18.954486272
C        6.148023003   2.838757073  18.868804438
C        0.000053760   4.969237235  18.779032579
C        0.000156496   6.390853515  18.772003465
C        1.230740415   4.258294040  18.818775627
C        1.229265958   7.098765317  18.759560910
C        2.458684170   4.968682811  18.796702255
C        2.459342303   6.389439800  18.763072450
C        3.689008453   4.257674402  18.807604782
C        3.688893108   7.097391914  18.762580381
C        4.919365491   4.968494912  18.797366324
C        4.918660242   6.389324230  18.762577454
C        6.147363982   4.258230876  18.818070629
C        6.148870153   7.098853249  18.758822281
C        0.000040183   9.229018201  18.772989814
C        0.000057700  10.649631580  18.819166080
C        1.229690608   8.519985044  18.767129374
C        1.228629962  11.360026189  18.826307622
C        2.458907314   9.227413555  18.771274042
C        2.459622636  10.649352666  18.793485736
C        3.688996120   8.518486984  18.756997037
C        3.688977593  11.359259172  18.831201619
C        4.919147006   9.227440765  18.771285710
C        4.918395487  10.649350012  18.794069155
C        6.148412505   8.520181985  18.767901187
C        6.149506085  11.359938743  18.827849152
C        0.000009853  13.490159481  18.900663515
C        0.000004993  14.909673485  18.934959332
C        1.229291523  12.780267774  18.879456442
C        1.230261091  15.619644160  18.955185452
C        2.459241128  13.489561248  18.897538109
C        2.458695792  14.908193026  18.939873465
C        3.689009288  12.778634684  18.878784998
C        3.689055895  15.618927255  18.958759802
C        4.918803643  13.489534674  18.897277613
C        4.919384650  14.908168292  18.939500869
C        6.148780890  12.780221367  18.880063280
C        6.147839164  15.619674761  18.954866921



     Writing output data file gc.save
     Check: negative starting charge=   -0.003734
     NEW-OLD atomic charge density approx. for the potential
     Check: negative starting charge=   -0.003768

     negative rho (up, down):  1.100E-03 0.000E+00

     total cpu time spent up to now is    43022.0 secs

     Self-consistent Calculation

     iteration #  1     ecut=    80.00 Ry     beta=0.70
     Davidson diagonalization with overlap
     c_bands:  1 eigenvalues not converged
     c_bands:  1 eigenvalues not converged
     c_bands:  1 eigenvalues not converged
     ethr =  1.00E-06,  avg # of iterations = 18.0

     negative rho (up, down):  6.757E-08 0.000E+00

     total cpu time spent up to now is    43958.9 secs

     total energy              =  -13670.82856818 Ry
     Harris-Foulkes estimate   =  -13670.93686457 Ry
     estimated scf accuracy    <       1.85033588 Ry

     iteration #  2     ecut=    80.00 Ry     beta=0.70
     Davidson diagonalization with overlap
     ethr =  1.34E-04,  avg # of iterations =  1.0

     total cpu time spent up to now is    44111.6 secs

     total energy              =  -13670.83150158 Ry
     Harris-Foulkes estimate   =  -13670.89730177 Ry
     estimated scf accuracy    <       0.28542047 Ry

     iteration #  3     ecut=    80.00 Ry     beta=0.70
     Davidson diagonalization with overlap
     ethr =  2.07E-05,  avg # of iterations =  6.8

     total cpu time spent up to now is    44349.4 secs

     total energy              =  -13670.84998265 Ry
     Harris-Foulkes estimate   =  -13670.88099872 Ry
     estimated scf accuracy    <       0.52468064 Ry

     iteration #  4     ecut=    80.00 Ry     beta=0.70
     Davidson diagonalization with overlap
     ethr =  2.07E-05,  avg # of iterations =  5.0

     total cpu time spent up to now is    44553.9 secs

     total energy              =  -13670.86396169 Ry
     Harris-Foulkes estimate   =  -13670.86507499 Ry
     estimated scf accuracy    <       0.01609721 Ry

     iteration #  5     ecut=    80.00 Ry     beta=0.70
     Davidson diagonalization with overlap
     ethr =  1.17E-06,  avg # of iterations =  9.5

     total cpu time spent up to now is    44846.7 secs

     total energy              =  -13670.86323598 Ry
     Harris-Foulkes estimate   =  -13670.86467110 Ry
     estimated scf accuracy    <       0.01699723 Ry

     iteration #  6     ecut=    80.00 Ry     beta=0.70
     Davidson diagonalization with overlap
     ethr =  1.17E-06,  avg # of iterations =  9.2

     total cpu time spent up to now is    45113.5 secs

     total energy              =  -13670.86340101 Ry
     Harris-Foulkes estimate   =  -13670.86371545 Ry
     estimated scf accuracy    <       0.00457780 Ry

     iteration #  7     ecut=    80.00 Ry     beta=0.70
     Davidson diagonalization with overlap
     ethr =  3.32E-07,  avg # of iterations =  1.3

     total cpu time spent up to now is    45268.8 secs

     total energy              =  -13670.86367419 Ry
     Harris-Foulkes estimate   =  -13670.86366232 Ry
     estimated scf accuracy    <       0.00119582 Ry

     iteration #  8     ecut=    80.00 Ry     beta=0.70
     Davidson diagonalization with overlap
     ethr =  8.67E-08,  avg # of iterations =  3.7

     total cpu time spent up to now is    45457.0 secs

     total energy              =  -13670.86382734 Ry
     Harris-Foulkes estimate   =  -13670.86373171 Ry
     estimated scf accuracy    <       0.00036631 Ry

     iteration #  9     ecut=    80.00 Ry     beta=0.70
     Davidson diagonalization with overlap
     ethr =  2.65E-08,  avg # of iterations =  6.7

     negative rho (up, down):  1.503E-07 0.000E+00

     total cpu time spent up to now is    45692.9 secs

     total energy              =  -13670.86390531 Ry
     Harris-Foulkes estimate   =  -13670.86385418 Ry
     estimated scf accuracy    <       0.00006002 Ry

     iteration # 10     ecut=    80.00 Ry     beta=0.70
     Davidson diagonalization with overlap
     c_bands:  2 eigenvalues not converged
     ethr =  4.35E-09,  avg # of iterations =  8.0

     negative rho (up, down):  3.887E-05 0.000E+00

     total cpu time spent up to now is    45948.9 secs

     total energy              =  -13670.86393480 Ry
     Harris-Foulkes estimate   =  -13670.86390944 Ry
     estimated scf accuracy    <       0.00002527 Ry

     iteration # 11     ecut=    80.00 Ry     beta=0.70
     Davidson diagonalization with overlap
