
     Program PWSCF v.5.4.0 starts on  1Apr2017 at  7: 5:39 

     This program is part of the open-source Quantum ESPRESSO suite
     for quantum simulation of materials; please cite
         "P. Giannozzi et al., J. Phys.:Condens. Matter 21 395502 (2009);
          URL http://www.quantum-espresso.org", 
     in publications or presentations arising from this work. More details at
     http://www.quantum-espresso.org/quote

     Parallel version (MPI & OpenMP), running on      56 processor cores
     Number of MPI processes:                56
     Threads/MPI process:                     1
     R & G space division:  proc/nbgrp/npool/nimage =      56
     Waiting for input...
     Reading input from standard input

     Current dimensions of program PWSCF are:
     Max number of different atomic species (ntypx) = 10
     Max number of k-points (npk) =  40000
     Max angular momentum in pseudopotentials (lmaxx) =  3

     -------------------------------------
     Parameters for Dispersion Correction:
     -------------------------------------
       atom      VdW radius       C_6     

        Cu         2.952        374.666
        C          2.744         60.710

     Subspace diagonalization in iterative solution of the eigenvalue problem:
     one sub-group per band group will be used
     scalapack distributed-memory algorithm (size of sub-group:  5*  5 procs)

 
     Parallelization info
     --------------------
     sticks:   dense  smooth     PW     G-vecs:    dense   smooth      PW
     Min         114     114     54                15434    15434    4962
     Max         115     115     55                15451    15451    4968
     Sum        6411    6411   3039               864803   864803  278033
 


     bravais-lattice index     =            0
     lattice parameter (alat)  =      13.9425  a.u.
     unit-cell volume          =   21209.0878 (a.u.)^3
     number of atoms/cell      =          156
     number of atomic types    =            2
     number of electrons       =      1380.00
     number of Kohn-Sham states=          828
     kinetic-energy cutoff     =      80.0000  Ry
     charge density cutoff     =     180.0000  Ry
     convergence threshold     =      1.0E-08
     mixing beta               =       0.7000
     number of iterations used =            8  local-TF  mixing
     Exchange-correlation      =  SLA  PW   PBX  PBC ( 1  4  3  4 0 0)
     nstep                     =           50


     celldm(1)=  13.942539  celldm(2)=   0.000000  celldm(3)=   0.000000
     celldm(4)=   0.000000  celldm(5)=   0.000000  celldm(6)=   0.000000

     crystal axes: (cart. coord. in units of alat)
               a(1) = (   1.000000   0.000000   0.000000 )  
               a(2) = (   0.000000   2.309401   0.000000 )  
               a(3) = (   0.000000   0.000000   3.388418 )  

     reciprocal axes: (cart. coord. in units 2 pi/alat)
               b(1) = (  1.000000  0.000000  0.000000 )  
               b(2) = (  0.000000  0.433013  0.000000 )  
               b(3) = (  0.000000  0.000000  0.295123 )  


     PseudoPot. # 1 for Cu read from file:
     /home/549/hxw549/Short/pseudopotentials/Cu.pbe-n-van_ak.UPF
     MD5 check sum: 601f7c30f7467666bec936e0661ce3e1
     Pseudo is Ultrasoft + core correction, Zval = 11.0
     Generated by new atomic code, or converted to UPF format
     Using radial grid of  867 points,  6 beta functions with: 
                l(1) =   0
                l(2) =   0
                l(3) =   1
                l(4) =   1
                l(5) =   2
                l(6) =   2
     Q(r) pseudized with  8 coefficients,  rinner =    1.400   1.400   1.400
                                                       1.400   1.400

     PseudoPot. # 2 for C  read from file:
     /home/549/hxw549/Short/pseudopotentials/C.pbe-mt_gipaw.UPF
     MD5 check sum: 5ac2f21f2c440b14befe521540822c15
     Pseudo is Norm-conserving, Zval =  4.0
     Generated by new atomic code, or converted to UPF format
     Using radial grid of 1073 points,  1 beta functions with: 
                l(1) =   0

     atomic species   valence    mass     pseudopotential
        Cu            11.00    63.54600     Cu( 1.00)
        C              4.00    12.01070     C ( 1.00)

     No symmetry found



   Cartesian axes

     site n.     atom                  positions (alat units)
         1           Cu  tau(   1) = (   0.0000096   0.0015941   0.8733606  )
         2           Cu  tau(   2) = (   0.2499963   0.2332353   0.8751411  )
         3           Cu  tau(   3) = (   0.4999840   0.0016169   0.8733795  )
         4           Cu  tau(   4) = (   0.7499979   0.2335766   0.8750447  )
         5           Cu  tau(   5) = (  -0.0000883   0.4646600   0.8781339  )
         6           Cu  tau(   6) = (   0.2499986   0.6951291   0.8795758  )
         7           Cu  tau(   7) = (   0.5000818   0.4646407   0.8781119  )
         8           Cu  tau(   8) = (   0.7499956   0.6950764   0.8793415  )
         9           Cu  tau(   9) = (   0.0001199   0.9248576   0.8786014  )
        10           Cu  tau(  10) = (   0.2500015   1.1542774   0.8790231  )
        11           Cu  tau(  11) = (   0.4998738   0.9248630   0.8786178  )
        12           Cu  tau(  12) = (   0.7499924   1.1543119   0.8786645  )
        13           Cu  tau(  13) = (  -0.0001036   1.3841251   0.8798238  )
        14           Cu  tau(  14) = (   0.2499979   1.6149327   0.8782526  )
        15           Cu  tau(  15) = (   0.5000978   1.3841058   0.8798335  )
        16           Cu  tau(  16) = (   0.7499958   1.6146960   0.8780562  )
        17           Cu  tau(  17) = (   0.0000625   1.8460062   0.8748542  )
        18           Cu  tau(  18) = (   0.2499964   2.0776477   0.8730351  )
        19           Cu  tau(  19) = (   0.4999315   1.8460095   0.8748718  )
        20           Cu  tau(  20) = (   0.7499963   2.0777093   0.8734491  )
        21           Cu  tau(  21) = (   0.0000284   0.2322225   1.1232782  )
        22           Cu  tau(  22) = (   0.2499964   0.0007401   1.1202387  )
        23           Cu  tau(  23) = (   0.4999668   0.2322327   1.1232948  )
        24           Cu  tau(  24) = (   0.7499993   0.0009334   1.1203402  )
        25           Cu  tau(  25) = (  -0.0000909   0.6961646   1.1279840  )
        26           Cu  tau(  26) = (   0.2499961   0.4645643   1.1254206  )
        27           Cu  tau(  27) = (   0.5000847   0.6961116   1.1279756  )
        28           Cu  tau(  28) = (   0.7499983   0.4643813   1.1253552  )
        29           Cu  tau(  29) = (  -0.0000460   1.1533086   1.1317019  )
        30           Cu  tau(  30) = (   0.2499933   0.9256373   1.1319623  )
        31           Cu  tau(  31) = (   0.5000393   1.1533308   1.1317775  )
        32           Cu  tau(  32) = (   0.7499983   0.9255409   1.1320289  )
        33           Cu  tau(  33) = (   0.0000548   1.6148345   1.1257117  )
        34           Cu  tau(  34) = (   0.2499803   1.3831287   1.1277348  )
        35           Cu  tau(  35) = (   0.4999388   1.6148645   1.1256900  )
        36           Cu  tau(  36) = (   0.7500121   1.3832601   1.1278977  )
        37           Cu  tau(  37) = (  -0.0000604   2.0785586   1.1202277  )
        38           Cu  tau(  38) = (   0.2499992   1.8472700   1.1233743  )
        39           Cu  tau(  39) = (   0.5000550   2.0785578   1.1202046  )
        40           Cu  tau(  40) = (   0.7499946   1.8469786   1.1233629  )
        41           Cu  tau(  41) = (  -0.0001354  -0.0003675   1.3704458  )
        42           Cu  tau(  42) = (   0.2499835   0.2304303   1.3721954  )
        43           Cu  tau(  43) = (   0.5001316  -0.0004410   1.3704103  )
        44           Cu  tau(  44) = (   0.7500103   0.2301475   1.3725836  )
        45           Cu  tau(  45) = (  -0.0000996   0.4612440   1.3747988  )
        46           Cu  tau(  46) = (   0.2499797   0.6925124   1.3799251  )
        47           Cu  tau(  47) = (   0.5000924   0.4612776   1.3748887  )
        48           Cu  tau(  48) = (   0.7500094   0.6921134   1.3802468  )
        49           Cu  tau(  49) = (  -0.0000271   0.9238249   1.3858466  )
        50           Cu  tau(  50) = (   0.2499577   1.1555185   1.3856900  )
        51           Cu  tau(  51) = (   0.5000158   0.9237448   1.3857583  )
        52           Cu  tau(  52) = (   0.7500295   1.1556118   1.3857698  )
        53           Cu  tau(  53) = (  -0.0000099   1.3866365   1.3797500  )
        54           Cu  tau(  54) = (   0.2499818   1.6178249   1.3746958  )
        55           Cu  tau(  55) = (   0.5000000   1.3867407   1.3796754  )
        56           Cu  tau(  56) = (   0.7500076   1.6178302   1.3746727  )
        57           Cu  tau(  57) = (  -0.0001244   1.8489918   1.3725090  )
        58           Cu  tau(  58) = (   0.2500043   2.0797654   1.3704400  )
        59           Cu  tau(  59) = (   0.5001175   1.8489664   1.3725212  )
        60           Cu  tau(  60) = (   0.7499927   2.0795713   1.3707451  )
        61           Cu  tau(  61) = (  -0.0002458   0.2281941   1.6229842  )
        62           Cu  tau(  62) = (   0.2499744  -0.0013226   1.6219589  )
        63           Cu  tau(  63) = (   0.5002382   0.2280029   1.6228090  )
        64           Cu  tau(  64) = (   0.7500164  -0.0016108   1.6220933  )
        65           Cu  tau(  65) = (   0.0001252   0.6846171   1.6330059  )
        66           Cu  tau(  66) = (   0.2499996   0.4583850   1.6257862  )
        67           Cu  tau(  67) = (   0.4998616   0.6847412   1.6331766  )
        68           Cu  tau(  68) = (   0.7499906   0.4578201   1.6255501  )
        69           Cu  tau(  69) = (   0.0003510   1.1621370   1.6359804  )
        70           Cu  tau(  70) = (   0.2499164   0.9173054   1.6351927  )
        71           Cu  tau(  71) = (   0.4996416   1.1620769   1.6353994  )
        72           Cu  tau(  72) = (   0.7500866   0.9171377   1.6360561  )
        73           Cu  tau(  73) = (  -0.0003053   1.6214446   1.6251426  )
        74           Cu  tau(  74) = (   0.2498792   1.3941241   1.6330190  )
        75           Cu  tau(  75) = (   0.5002970   1.6214835   1.6251073  )
        76           Cu  tau(  76) = (   0.7501118   1.3954210   1.6327052  )
        77           Cu  tau(  77) = (  -0.0002324   2.0805502   1.6220932  )
        78           Cu  tau(  78) = (   0.2500176   1.8507644   1.6226117  )
        79           Cu  tau(  79) = (   0.5002237   2.0805677   1.6220579  )
        80           Cu  tau(  80) = (   0.7499731   1.8511196   1.6229616  )
        81           Cu  tau(  81) = (   0.0000528  -0.0014823   1.8745390  )
        82           Cu  tau(  82) = (   0.2499934   0.2234456   1.8739386  )
        83           Cu  tau(  83) = (   0.4999371  -0.0015792   1.8745270  )
        84           Cu  tau(  84) = (   0.7499944   0.2222624   1.8738671  )
        85           Cu  tau(  85) = (   0.0001419   0.4439793   1.8850652  )
        86           Cu  tau(  86) = (   0.2496225   0.6731234   1.8896126  )
        87           Cu  tau(  87) = (   0.4998560   0.4440214   1.8843464  )
        88           Cu  tau(  88) = (   0.7503772   0.6712889   1.8886167  )
        89           Cu  tau(  89) = (   0.0014155   0.9183221   1.8744190  )
        90           Cu  tau(  90) = (   0.2501705   1.1593234   1.8749471  )
        91           Cu  tau(  91) = (   0.4986012   0.9189187   1.8740003  )
        92           Cu  tau(  92) = (   0.7498398   1.1603554   1.8728292  )
        93           Cu  tau(  93) = (   0.0000216   1.4090456   1.8890563  )
        94           Cu  tau(  94) = (   0.2502870   1.6354688   1.8844162  )
        95           Cu  tau(  95) = (   0.4999762   1.4078169   1.8878011  )
        96           Cu  tau(  96) = (   0.7496996   1.6359454   1.8851428  )
        97           Cu  tau(  97) = (  -0.0000370   1.8560612   1.8736166  )
        98           Cu  tau(  98) = (   0.2499323   2.0804802   1.8744451  )
        99           Cu  tau(  99) = (   0.5000220   1.8563642   1.8736522  )
       100           Cu  tau( 100) = (   0.7500507   2.0809196   1.8746140  )
       101           Cu  tau( 101) = (   0.2513530   1.3863961   2.1178184  )
       102           Cu  tau( 102) = (   0.7486940   1.3860993   2.1185700  )
       103           Cu  tau( 103) = (  -0.0001225   1.1552982   2.1129360  )
       104           Cu  tau( 104) = (   0.2494350   0.9263714   2.1167729  )
       105           Cu  tau( 105) = (   0.5000900   1.1534770   2.1148903  )
       106           Cu  tau( 106) = (   0.7505095   0.9254754   2.1133958  )
       107           Cu  tau( 107) = (   0.0002152   0.6931331   2.1201243  )
       108           Cu  tau( 108) = (   0.4997835   0.6936516   2.1178923  )
       109           C   tau( 109) = (   0.0000068   0.0954008   2.5058437  )
       110           C   tau( 110) = (   0.0000040   0.2876002   2.4947161  )
       111           C   tau( 111) = (   0.1666640  -0.0009412   2.5088797  )
       112           C   tau( 112) = (   0.1667061   0.3835117   2.4882103  )
       113           C   tau( 113) = (   0.3333297   0.0953361   2.5060876  )
       114           C   tau( 114) = (   0.3333406   0.2874536   2.4946483  )
       115           C   tau( 115) = (   0.5000037  -0.0010178   2.5079309  )
       116           C   tau( 116) = (   0.5000057   0.3832091   2.4874242  )
       117           C   tau( 117) = (   0.6666857   0.0953398   2.5061961  )
       118           C   tau( 118) = (   0.6666715   0.2874536   2.4946754  )
       119           C   tau( 119) = (   0.8333438  -0.0009405   2.5088932  )
       120           C   tau( 120) = (   0.8332997   0.3835113   2.4881426  )
       121           C   tau( 121) = (   0.0000039   0.6720091   2.4709430  )
       122           C   tau( 122) = (  -0.0000022   0.8649040   2.4672970  )
       123           C   tau( 123) = (   0.1668755   0.5755127   2.4758901  )
       124           C   tau( 124) = (   0.1666184   0.9612557   2.4686117  )
       125           C   tau( 125) = (   0.3332434   0.6718087   2.4717426  )
       126           C   tau( 126) = (   0.3333859   0.8646675   2.4679747  )
       127           C   tau( 127) = (   0.5000089   0.5754669   2.4766084  )
       128           C   tau( 128) = (   0.5000240   0.9610271   2.4674461  )
       129           C   tau( 129) = (   0.6667685   0.6718253   2.4716884  )
       130           C   tau( 130) = (   0.6666581   0.8646802   2.4681238  )
       131           C   tau( 131) = (   0.8331343   0.5755166   2.4758765  )
       132           C   tau( 132) = (   0.8333849   0.9612419   2.4687744  )
       133           C   tau( 133) = (   0.0000110   1.2505040   2.4700213  )
       134           C   tau( 134) = (   0.0000122   1.4431608   2.4742772  )
       135           C   tau( 135) = (   0.1666608   1.1540425   2.4687879  )
       136           C   tau( 136) = (   0.1664737   1.5394304   2.4787499  )
       137           C   tau( 137) = (   0.3332450   1.2503142   2.4677985  )
       138           C   tau( 138) = (   0.3334060   1.4430675   2.4733284  )
       139           C   tau( 139) = (   0.5000127   1.1537509   2.4678392  )
       140           C   tau( 140) = (   0.5000073   1.5394099   2.4776385  )
       141           C   tau( 141) = (   0.6667788   1.2503039   2.4677307  )
       142           C   tau( 142) = (   0.6666182   1.4430697   2.4732471  )
       143           C   tau( 143) = (   0.8333699   1.1540142   2.4686659  )
       144           C   tau( 144) = (   0.8335455   1.5394319   2.4788041  )
       145           C   tau( 145) = (   0.0000076   1.8274231   2.4978470  )
       146           C   tau( 146) = (   0.0000031   2.0196332   2.5084324  )
       147           C   tau( 147) = (   0.1666300   1.7315020   2.4904603  )
       148           C   tau( 148) = (   0.1666788   2.1159337   2.5095845  )
       149           C   tau( 149) = (   0.3333373   1.8272860   2.4976030  )
       150           C   tau( 150) = (   0.3333441   2.0195679   2.5078361  )
       151           C   tau( 151) = (   0.5000050   1.7312736   2.4908940  )
       152           C   tau( 152) = (   0.5000076   2.1158834   2.5097471  )
       153           C   tau( 153) = (   0.6666760   1.8272901   2.4975624  )
       154           C   tau( 154) = (   0.6666615   2.0195724   2.5077954  )
       155           C   tau( 155) = (   0.8333789   1.7315011   2.4905416  )
       156           C   tau( 156) = (   0.8333376   2.1159344   2.5095574  )

     number of k points=     6  gaussian smearing, width (Ry)=  0.1000
                       cart. coord. in units 2pi/alat
        k(    1) = (   0.0000000   0.0000000   0.0000000), wk =   0.2500000
        k(    2) = (   0.0000000  -0.2165064   0.0000000), wk =   0.2500000
        k(    3) = (   0.2500000   0.0000000   0.0000000), wk =   0.5000000
        k(    4) = (   0.2500000  -0.2165064   0.0000000), wk =   0.5000000
        k(    5) = (  -0.5000000   0.0000000   0.0000000), wk =   0.2500000
        k(    6) = (  -0.5000000  -0.2165064   0.0000000), wk =   0.2500000

     Dense  grid:   864803 G-vectors     FFT dimensions: (  60, 144, 216)

     Largest allocated arrays     est. size (Mb)     dimensions
        Kohn-Sham Wavefunctions        58.29 Mb     (    4614,  828)
        NL pseudopotentials           140.24 Mb     (    4614, 1992)
        Each V/rho on FFT grid          0.53 Mb     (   34560)
        Each G-vector array             0.12 Mb     (   15451)
        G-vector shells                 0.06 Mb     (    7683)
     Largest temporary arrays     est. size (Mb)     dimensions
        Auxiliary wavefunctions       233.18 Mb     (    4614, 3312)
        Each subspace H/S matrix        6.69 Mb     (     662,  662)
        Each <psi_i|beta_j> matrix     25.17 Mb     (    1992,  828)
        Arrays for rho mixing           4.22 Mb     (   34560,    8)

     Initial potential from superposition of free atoms
     Check: negative starting charge=   -0.004351

     starting charge 1354.72292, renormalised to 1380.00000

     negative rho (up, down):  4.432E-03 0.000E+00
     Starting wfc are 1356 randomized atomic wfcs

     total cpu time spent up to now is       96.1 secs

     Self-consistent Calculation

     iteration #  1     ecut=    80.00 Ry     beta=0.70
     Davidson diagonalization with overlap
     c_bands:  2 eigenvalues not converged
     c_bands:  1 eigenvalues not converged
     c_bands:  2 eigenvalues not converged
     c_bands:  3 eigenvalues not converged
     c_bands:  1 eigenvalues not converged
     c_bands:  2 eigenvalues not converged
     ethr =  1.00E-04,  avg # of iterations = 40.0

     negative rho (up, down):  2.669E+01 0.000E+00

     total cpu time spent up to now is     2261.6 secs

     total energy              =  -10965.88763102 Ry
     Harris-Foulkes estimate   =  -19185.39543055 Ry
     estimated scf accuracy    <  225153.00199389 Ry

     iteration #  2     ecut=    80.00 Ry     beta=0.70
     Davidson diagonalization with overlap
     ethr =  1.00E-02,  avg # of iterations = 15.0

     negative rho (up, down):  3.311E+01 0.000E+00

     total cpu time spent up to now is     3393.0 secs

     total energy              =  -13126.24656484 Ry
     Harris-Foulkes estimate   =  -14596.19451082 Ry
     estimated scf accuracy    <   21630.88883535 Ry

     iteration #  3     ecut=    80.00 Ry     beta=0.70
     Davidson diagonalization with overlap
     ethr =  1.00E-02,  avg # of iterations =  6.7

     negative rho (up, down):  3.267E+01 0.000E+00

     total cpu time spent up to now is     3892.3 secs

     total energy              =  -13560.14686411 Ry
     Harris-Foulkes estimate   =  -14388.21194867 Ry
     estimated scf accuracy    <   12853.44001049 Ry

     iteration #  4     ecut=    80.00 Ry     beta=0.70
     Davidson diagonalization with overlap
     ethr =  1.00E-02,  avg # of iterations =  6.0

     negative rho (up, down):  2.528E+01 0.000E+00

     total cpu time spent up to now is     4436.6 secs

     total energy              =  -13661.74076342 Ry
     Harris-Foulkes estimate   =  -14059.33336406 Ry
     estimated scf accuracy    <    1837.40490119 Ry

     iteration #  5     ecut=    80.00 Ry     beta=0.70
     Davidson diagonalization with overlap
     ethr =  1.00E-02,  avg # of iterations =  4.5

     negative rho (up, down):  1.666E+01 0.000E+00

     total cpu time spent up to now is     4766.9 secs

     total energy              =  -13782.85661579 Ry
     Harris-Foulkes estimate   =  -13888.74386835 Ry
     estimated scf accuracy    <     641.76251601 Ry

     iteration #  6     ecut=    80.00 Ry     beta=0.70
     Davidson diagonalization with overlap
     ethr =  1.00E-02,  avg # of iterations =  2.0

     negative rho (up, down):  9.261E+00 0.000E+00

     total cpu time spent up to now is     4939.1 secs

     total energy              =  -13750.79361522 Ry
     Harris-Foulkes estimate   =  -13799.41060378 Ry
     estimated scf accuracy    <     270.69905708 Ry

     iteration #  7     ecut=    80.00 Ry     beta=0.70
     Davidson diagonalization with overlap
     ethr =  1.00E-02,  avg # of iterations =  1.8

     negative rho (up, down):  8.832E+00 0.000E+00

     total cpu time spent up to now is     5102.4 secs

     total energy              =  -13755.47440992 Ry
     Harris-Foulkes estimate   =  -13763.43728664 Ry
     estimated scf accuracy    <     244.73973365 Ry

     iteration #  8     ecut=    80.00 Ry     beta=0.70
     Davidson diagonalization with overlap
     ethr =  1.00E-02,  avg # of iterations =  1.0

     negative rho (up, down):  5.683E+00 0.000E+00

     total cpu time spent up to now is     5254.4 secs

     total energy              =  -13733.35708219 Ry
     Harris-Foulkes estimate   =  -13758.22958371 Ry
     estimated scf accuracy    <     168.53385461 Ry

     iteration #  9     ecut=    80.00 Ry     beta=0.70
     Davidson diagonalization with overlap
     ethr =  1.00E-02,  avg # of iterations =  1.0

     negative rho (up, down):  3.646E+00 0.000E+00

     total cpu time spent up to now is     5406.0 secs

     total energy              =  -13718.59818140 Ry
     Harris-Foulkes estimate   =  -13735.81580053 Ry
     estimated scf accuracy    <     193.40987551 Ry

     iteration # 10     ecut=    80.00 Ry     beta=0.70
     Davidson diagonalization with overlap
     ethr =  1.00E-02,  avg # of iterations =  1.0

     negative rho (up, down):  3.744E+00 0.000E+00

     total cpu time spent up to now is     5558.1 secs

     total energy              =  -13683.66355443 Ry
     Harris-Foulkes estimate   =  -13721.33088078 Ry
     estimated scf accuracy    <     170.34719725 Ry

     iteration # 11     ecut=    80.00 Ry     beta=0.70
     Davidson diagonalization with overlap
     ethr =  1.00E-02,  avg # of iterations =  2.0

     negative rho (up, down):  6.138E+00 0.000E+00

     total cpu time spent up to now is     5724.4 secs

     total energy              =  -13681.19170827 Ry
     Harris-Foulkes estimate   =  -13691.99477289 Ry
     estimated scf accuracy    <      62.83935298 Ry

     iteration # 12     ecut=    80.00 Ry     beta=0.70
     Davidson diagonalization with overlap
     ethr =  4.55E-03,  avg # of iterations =  2.0

     negative rho (up, down):  7.667E+00 0.000E+00

     total cpu time spent up to now is     5890.0 secs

     total energy              =  -13679.05587313 Ry
     Harris-Foulkes estimate   =  -13685.21379358 Ry
     estimated scf accuracy    <      35.30067263 Ry

     iteration # 13     ecut=    80.00 Ry     beta=0.70
     Davidson diagonalization with overlap
     ethr =  2.56E-03,  avg # of iterations =  2.3

     negative rho (up, down):  6.256E+00 0.000E+00

     total cpu time spent up to now is     6062.1 secs

     total energy              =  -13676.15933452 Ry
     Harris-Foulkes estimate   =  -13681.35257227 Ry
     estimated scf accuracy    <      38.80104817 Ry

     iteration # 14     ecut=    80.00 Ry     beta=0.70
     Davidson diagonalization with overlap
     ethr =  2.56E-03,  avg # of iterations =  2.0

     negative rho (up, down):  5.643E+00 0.000E+00

     total cpu time spent up to now is     6227.1 secs

     total energy              =  -13677.83303234 Ry
     Harris-Foulkes estimate   =  -13678.95519624 Ry
     estimated scf accuracy    <      20.85002467 Ry

     iteration # 15     ecut=    80.00 Ry     beta=0.70
     Davidson diagonalization with overlap
     ethr =  1.51E-03,  avg # of iterations =  3.2

     negative rho (up, down):  4.288E+00 0.000E+00

     total cpu time spent up to now is     6407.5 secs

     total energy              =  -13676.85175005 Ry
     Harris-Foulkes estimate   =  -13678.32094413 Ry
     estimated scf accuracy    <      18.43616445 Ry

     iteration # 16     ecut=    80.00 Ry     beta=0.70
     Davidson diagonalization with overlap
     ethr =  1.34E-03,  avg # of iterations =  1.3

     negative rho (up, down):  1.763E+00 0.000E+00

     total cpu time spent up to now is     6563.9 secs

     total energy              =  -13675.28284212 Ry
     Harris-Foulkes estimate   =  -13677.15155784 Ry
     estimated scf accuracy    <      16.16053117 Ry

     iteration # 17     ecut=    80.00 Ry     beta=0.70
     Davidson diagonalization with overlap
     ethr =  1.17E-03,  avg # of iterations =  2.0

     negative rho (up, down):  4.750E-01 0.000E+00

     total cpu time spent up to now is     6728.6 secs

     total energy              =  -13672.83112931 Ry
     Harris-Foulkes estimate   =  -13675.46946299 Ry
     estimated scf accuracy    <      11.81665254 Ry

     iteration # 18     ecut=    80.00 Ry     beta=0.70
     Davidson diagonalization with overlap
     ethr =  8.56E-04,  avg # of iterations =  4.7

     negative rho (up, down):  7.687E-01 0.000E+00

     total cpu time spent up to now is     6933.2 secs

     total energy              =  -13672.38189341 Ry
     Harris-Foulkes estimate   =  -13673.37516768 Ry
     estimated scf accuracy    <      16.58377470 Ry

     iteration # 19     ecut=    80.00 Ry     beta=0.70
     Davidson diagonalization with overlap
     ethr =  8.56E-04,  avg # of iterations =  6.5

     negative rho (up, down):  5.338E-01 0.000E+00

     total cpu time spent up to now is     7162.6 secs

     total energy              =  -13672.38562401 Ry
     Harris-Foulkes estimate   =  -13672.70633303 Ry
     estimated scf accuracy    <       8.55754777 Ry

     iteration # 20     ecut=    80.00 Ry     beta=0.70
     Davidson diagonalization with overlap
     ethr =  6.20E-04,  avg # of iterations =  2.2

     negative rho (up, down):  3.114E-01 0.000E+00

     total cpu time spent up to now is     7329.9 secs

     total energy              =  -13671.42091229 Ry
     Harris-Foulkes estimate   =  -13672.50102203 Ry
     estimated scf accuracy    <       7.84061245 Ry

     iteration # 21     ecut=    80.00 Ry     beta=0.70
     Davidson diagonalization with overlap
     ethr =  5.68E-04,  avg # of iterations =  2.0

     negative rho (up, down):  5.643E-01 0.000E+00

     total cpu time spent up to now is     7495.3 secs

     total energy              =  -13671.28624663 Ry
     Harris-Foulkes estimate   =  -13671.73945433 Ry
     estimated scf accuracy    <       5.27651262 Ry

     iteration # 22     ecut=    80.00 Ry     beta=0.70
     Davidson diagonalization with overlap
     ethr =  3.82E-04,  avg # of iterations =  5.8

     negative rho (up, down):  8.677E-01 0.000E+00

     total cpu time spent up to now is     7716.8 secs

     total energy              =  -13671.01849831 Ry
     Harris-Foulkes estimate   =  -13671.40367680 Ry
     estimated scf accuracy    <       2.77788360 Ry

     iteration # 23     ecut=    80.00 Ry     beta=0.70
     Davidson diagonalization with overlap
     ethr =  2.01E-04,  avg # of iterations =  6.7

     negative rho (up, down):  9.036E-01 0.000E+00

     total cpu time spent up to now is     7967.6 secs

     total energy              =  -13670.95844771 Ry
     Harris-Foulkes estimate   =  -13671.07111448 Ry
     estimated scf accuracy    <       1.13680330 Ry

     iteration # 24     ecut=    80.00 Ry     beta=0.70
     Davidson diagonalization with overlap
     ethr =  8.24E-05,  avg # of iterations =  5.8

     negative rho (up, down):  4.488E-01 0.000E+00

     total cpu time spent up to now is     8190.3 secs

     total energy              =  -13670.89780064 Ry
     Harris-Foulkes estimate   =  -13670.99733045 Ry
     estimated scf accuracy    <       0.60082365 Ry

     iteration # 25     ecut=    80.00 Ry     beta=0.70
     Davidson diagonalization with overlap
     ethr =  4.35E-05,  avg # of iterations =  4.3

     negative rho (up, down):  2.697E-01 0.000E+00

     total cpu time spent up to now is     8402.8 secs

     total energy              =  -13670.91126286 Ry
     Harris-Foulkes estimate   =  -13670.92637281 Ry
     estimated scf accuracy    <       0.08725626 Ry

     iteration # 26     ecut=    80.00 Ry     beta=0.70
     Davidson diagonalization with overlap
     ethr =  6.32E-06,  avg # of iterations = 12.8

     negative rho (up, down):  6.668E-02 0.000E+00

     total cpu time spent up to now is     8749.0 secs

     total energy              =  -13670.91284989 Ry
     Harris-Foulkes estimate   =  -13670.92256133 Ry
     estimated scf accuracy    <       0.02810052 Ry

     iteration # 27     ecut=    80.00 Ry     beta=0.70
     Davidson diagonalization with overlap
     c_bands:  1 eigenvalues not converged
     c_bands:  1 eigenvalues not converged
     c_bands:  1 eigenvalues not converged
     c_bands:  1 eigenvalues not converged
     c_bands:  1 eigenvalues not converged
     ethr =  2.04E-06,  avg # of iterations = 19.7

     negative rho (up, down):  4.354E-02 0.000E+00

     total cpu time spent up to now is     9224.2 secs

     total energy              =  -13670.91527197 Ry
     Harris-Foulkes estimate   =  -13670.91604359 Ry
     estimated scf accuracy    <       0.00639039 Ry

     iteration # 28     ecut=    80.00 Ry     beta=0.70
     Davidson diagonalization with overlap
     c_bands:  1 eigenvalues not converged
     ethr =  4.63E-07,  avg # of iterations =  8.2

     negative rho (up, down):  2.050E-02 0.000E+00

     total cpu time spent up to now is     9485.5 secs

     total energy              =  -13670.91522956 Ry
     Harris-Foulkes estimate   =  -13670.91568232 Ry
     estimated scf accuracy    <       0.00234418 Ry

     iteration # 29     ecut=    80.00 Ry     beta=0.70
     Davidson diagonalization with overlap
     ethr =  1.70E-07,  avg # of iterations =  7.7

     negative rho (up, down):  8.955E-03 0.000E+00

     total cpu time spent up to now is     9742.3 secs

     total energy              =  -13670.91503208 Ry
     Harris-Foulkes estimate   =  -13670.91546723 Ry
     estimated scf accuracy    <       0.00110773 Ry

     iteration # 30     ecut=    80.00 Ry     beta=0.70
     Davidson diagonalization with overlap
     ethr =  8.03E-08,  avg # of iterations =  7.0

     negative rho (up, down):  5.136E-03 0.000E+00

     total cpu time spent up to now is     9985.9 secs

     total energy              =  -13670.91510136 Ry
     Harris-Foulkes estimate   =  -13670.91516892 Ry
     estimated scf accuracy    <       0.00039599 Ry

     iteration # 31     ecut=    80.00 Ry     beta=0.70
     Davidson diagonalization with overlap
     c_bands:  2 eigenvalues not converged
     ethr =  2.87E-08,  avg # of iterations =  9.5

     negative rho (up, down):  9.322E-04 0.000E+00

     total cpu time spent up to now is    10269.1 secs

     total energy              =  -13670.91508157 Ry
     Harris-Foulkes estimate   =  -13670.91514339 Ry
     estimated scf accuracy    <       0.00007397 Ry

     iteration # 32     ecut=    80.00 Ry     beta=0.70
     Davidson diagonalization with overlap
     c_bands:  1 eigenvalues not converged
     ethr =  5.36E-09,  avg # of iterations =  8.3

     negative rho (up, down):  2.265E-04 0.000E+00

     total cpu time spent up to now is    10536.6 secs

     total energy              =  -13670.91509964 Ry
     Harris-Foulkes estimate   =  -13670.91508916 Ry
     estimated scf accuracy    <       0.00002814 Ry

     iteration # 33     ecut=    80.00 Ry     beta=0.70
     Davidson diagonalization with overlap
     ethr =  2.04E-09,  avg # of iterations =  5.5

     negative rho (up, down):  4.660E-04 0.000E+00

     total cpu time spent up to now is    10765.1 secs

     total energy              =  -13670.91510213 Ry
     Harris-Foulkes estimate   =  -13670.91510278 Ry
     estimated scf accuracy    <       0.00000925 Ry

     iteration # 34     ecut=    80.00 Ry     beta=0.70
     Davidson diagonalization with overlap
     ethr =  6.70E-10,  avg # of iterations =  2.3

     negative rho (up, down):  3.199E-04 0.000E+00

     total cpu time spent up to now is    10941.9 secs

     total energy              =  -13670.91510348 Ry
     Harris-Foulkes estimate   =  -13670.91510360 Ry
     estimated scf accuracy    <       0.00000424 Ry

     iteration # 35     ecut=    80.00 Ry     beta=0.70
     Davidson diagonalization with overlap
     ethr =  3.07E-10,  avg # of iterations =  2.0

     negative rho (up, down):  2.968E-04 0.000E+00

     total cpu time spent up to now is    11110.0 secs

     total energy              =  -13670.91510393 Ry
     Harris-Foulkes estimate   =  -13670.91510379 Ry
     estimated scf accuracy    <       0.00000170 Ry

     iteration # 36     ecut=    80.00 Ry     beta=0.70
     Davidson diagonalization with overlap
     ethr =  1.24E-10,  avg # of iterations =  2.5

     negative rho (up, down):  3.362E-04 0.000E+00

     total cpu time spent up to now is    11287.1 secs

     total energy              =  -13670.91510409 Ry
     Harris-Foulkes estimate   =  -13670.91510412 Ry
     estimated scf accuracy    <       0.00000085 Ry

     iteration # 37     ecut=    80.00 Ry     beta=0.70
     Davidson diagonalization with overlap
     ethr =  6.14E-11,  avg # of iterations =  3.0

     negative rho (up, down):  3.687E-04 0.000E+00

     total cpu time spent up to now is    11474.9 secs

     total energy              =  -13670.91510422 Ry
     Harris-Foulkes estimate   =  -13670.91510428 Ry
     estimated scf accuracy    <       0.00000055 Ry

     iteration # 38     ecut=    80.00 Ry     beta=0.70
     Davidson diagonalization with overlap
     ethr =  4.02E-11,  avg # of iterations =  2.3

     negative rho (up, down):  3.190E-04 0.000E+00

     total cpu time spent up to now is    11649.0 secs

     total energy              =  -13670.91510439 Ry
     Harris-Foulkes estimate   =  -13670.91510430 Ry
     estimated scf accuracy    <       0.00000013 Ry

     iteration # 39     ecut=    80.00 Ry     beta=0.70
     Davidson diagonalization with overlap
     ethr =  9.73E-12,  avg # of iterations =  3.0

     negative rho (up, down):  3.075E-04 0.000E+00

     total cpu time spent up to now is    11851.8 secs

     total energy              =  -13670.91510437 Ry
     Harris-Foulkes estimate   =  -13670.91510433 Ry
     estimated scf accuracy    <       0.00000008 Ry

     iteration # 40     ecut=    80.00 Ry     beta=0.70
     Davidson diagonalization with overlap
     ethr =  5.57E-12,  avg # of iterations =  2.2

     negative rho (up, down):  3.067E-04 0.000E+00

     total cpu time spent up to now is    12020.8 secs

     End of self-consistent calculation

          k = 0.0000 0.0000 0.0000 (256287 PWs)   bands (ev):

   -15.6239 -15.1659 -15.1006 -14.0530 -14.0467 -13.6597 -13.6583 -13.2128
   -13.2113 -13.1466 -13.1465 -12.2656 -12.2504 -12.1409 -12.1404 -12.1258
   -12.1239 -10.4557 -10.4513 -10.4419 -10.4386 -10.2442  -9.2456  -8.5800
    -8.5767  -8.5672  -8.5666  -7.6841  -7.6832  -7.6807  -7.6800  -6.7022
    -6.6967  -6.6134  -6.6109  -6.6095  -6.6070  -6.6041  -6.6027  -5.1792
    -5.0749  -5.0716  -5.0505  -5.0459  -4.9062  -4.9050  -4.9000  -4.8991
    -4.6889  -4.6333  -4.3985  -4.0390  -3.7445  -3.7419  -3.6870  -3.6573
    -3.4557  -3.4374  -3.4147  -3.2428  -3.1349  -3.1315  -2.7813  -2.6350
    -2.6324  -2.6283  -2.6266  -2.5650  -2.5649  -2.5201  -2.4660  -2.4640
    -2.4319  -2.3299  -2.1999  -2.1994  -2.1573  -2.1568  -2.1387  -2.1123
    -2.0931  -2.0819  -2.0738  -2.0377  -2.0071  -2.0062  -1.7701  -1.7685
    -1.7551  -1.7548  -1.6978  -1.6968  -1.5166  -1.5153  -1.5016  -1.5014
    -1.4767  -1.3590  -1.3555  -1.3031  -1.3028  -1.2891  -1.2891  -1.2642
    -1.2607  -1.2400  -1.2082  -1.2078  -1.1537  -1.1530  -1.1523  -1.0752
    -1.0723  -1.0290  -1.0270  -1.0264  -0.9910  -0.9907  -0.9360  -0.9276
    -0.9071  -0.9066  -0.9000  -0.8831  -0.8828  -0.8514  -0.8279  -0.8144
    -0.8133  -0.8060  -0.7456  -0.7342  -0.7295  -0.7170  -0.7061  -0.7059
    -0.6822  -0.6808  -0.6736  -0.6245  -0.6242  -0.5781  -0.5516  -0.5506
    -0.5110  -0.4967  -0.4738  -0.4552  -0.4381  -0.4379  -0.4289  -0.4196
    -0.4193  -0.4039  -0.3862  -0.3703  -0.3688  -0.3506  -0.3478  -0.3441
    -0.3403  -0.3398  -0.3098  -0.2962  -0.2414  -0.2404  -0.2346  -0.2159
    -0.2136  -0.2128  -0.2123  -0.2102  -0.1992  -0.1949  -0.1936  -0.1881
    -0.1871  -0.1681  -0.1613  -0.1611  -0.1463  -0.1354  -0.1267  -0.1137
    -0.1026  -0.1024  -0.1022  -0.1002  -0.0853  -0.0842  -0.0607  -0.0537
    -0.0431  -0.0373  -0.0304  -0.0266  -0.0265  -0.0082  -0.0078  -0.0043
    -0.0033  -0.0015   0.0022   0.0084   0.0098   0.0171   0.0214   0.0645
     0.0656   0.0892   0.0995   0.1067   0.1093   0.1153   0.1299   0.1640
     0.1683   0.1684   0.1707   0.1809   0.1850   0.1919   0.1926   0.2184
     0.2194   0.2201   0.2218   0.2264   0.2287   0.2503   0.2522   0.2566
     0.2575   0.2608   0.2712   0.2714   0.2723   0.3087   0.3089   0.3212
     0.3397   0.3560   0.3572   0.3584   0.3809   0.3817   0.3976   0.3979
     0.4009   0.4049   0.4241   0.4278   0.4282   0.4363   0.4370   0.4383
     0.4454   0.4455   0.4468   0.4544   0.4707   0.4720   0.4826   0.4829
     0.4869   0.4944   0.4960   0.5076   0.5126   0.5133   0.5282   0.5371
     0.5530   0.5530   0.5568   0.5600   0.5612   0.5677   0.5678   0.5749
     0.5755   0.5825   0.5835   0.5954   0.5999   0.6033   0.6042   0.6081
     0.6144   0.6145   0.6407   0.6420   0.6425   0.6467   0.6468   0.6528
     0.6540   0.6552   0.6562   0.6583   0.6882   0.6954   0.6965   0.6974
     0.7159   0.7178   0.7342   0.7377   0.7473   0.7577   0.7589   0.7725
     0.7728   0.7787   0.7796   0.7806   0.7937   0.7946   0.8153   0.8161
     0.8172   0.8275   0.8298   0.8308   0.8337   0.8371   0.8380   0.8537
     0.8543   0.8579   0.8649   0.8657   0.8728   0.8736   0.8750   0.8778
     0.8792   0.8814   0.8822   0.9006   0.9010   0.9164   0.9170   0.9190
     0.9204   0.9380   0.9447   0.9592   0.9596   0.9677   0.9713   0.9745
     0.9768   0.9849   0.9857   0.9975   1.0110   1.0121   1.0138   1.0257
     1.0268   1.0551   1.0552   1.0617   1.0626   1.0724   1.0733   1.0765
     1.0850   1.0883   1.1010   1.1060   1.1107   1.1115   1.1527   1.1544
     1.1553   1.1581   1.1605   1.1623   1.1808   1.1812   1.2021   1.2024
     1.2114   1.2210   1.2277   1.2281   1.2319   1.2486   1.2491   1.2503
     1.2540   1.2550   1.2589   1.2617   1.2622   1.2704   1.2848   1.2942
     1.2984   1.3016   1.3017   1.3101   1.3160   1.3312   1.3319   1.3444
     1.3497   1.3500   1.3749   1.3803   1.3810   1.3846   1.3857   1.3875
     1.3888   1.3992   1.4065   1.4076   1.4180   1.4243   1.4243   1.4263
     1.4280   1.4336   1.4394   1.4417   1.4420   1.4533   1.4537   1.4584
     1.4638   1.4676   1.4759   1.4764   1.4854   1.4907   1.4951   1.4967
     1.5049   1.5091   1.5121   1.5124   1.5146   1.5168   1.5190   1.5207
     1.5375   1.5385   1.5494   1.5510   1.5612   1.5620   1.5633   1.5644
     1.5647   1.5657   1.5691   1.5698   1.5773   1.5880   1.5892   1.5901
     1.5907   1.5993   1.6075   1.6077   1.6130   1.6171   1.6184   1.6312
     1.6342   1.6461   1.6508   1.6672   1.6747   1.6871   1.6900   1.6911
     1.6968   1.6977   1.7056   1.7069   1.7126   1.7160   1.7163   1.7167
     1.7207   1.7265   1.7346   1.7357   1.7419   1.7427   1.7490   1.7560
     1.7616   1.7639   1.7686   1.7735   1.7772   1.7790   1.7840   1.7919
     1.7926   1.7986   1.8096   1.8123   1.8145   1.8151   1.8168   1.8197
     1.8234   1.8275   1.8319   1.8417   1.8428   1.8516   1.8590   1.8624
     1.8658   1.8787   1.8833   1.8860   1.8948   1.8964   1.9026   1.9027
     1.9066   1.9085   1.9109   1.9126   1.9153   1.9202   1.9209   1.9283
     1.9326   1.9365   1.9420   1.9433   1.9478   1.9487   1.9490   1.9561
     1.9573   1.9593   1.9736   1.9745   1.9770   1.9790   1.9803   1.9850
     1.9886   1.9909   1.9955   2.0051   2.0068   2.0197   2.0211   2.0258
     2.0292   2.0305   2.0422   2.0424   2.0530   2.0553   2.0640   2.0652
     2.0723   2.0735   2.0748   2.0844   2.0862   2.0913   2.0918   2.0937
     2.1024   2.1077   2.1097   2.1129   2.1181   2.1204   2.1213   2.1241
     2.1256   2.1344   2.1345   2.1373   2.1390   2.1455   2.1462   2.1507
     2.1695   2.1702   2.1737   2.1762   2.1794   2.1797   2.1811   2.1842
     2.1888   2.1918   2.1980   2.2064   2.2080   2.2138   2.2162   2.2182
     2.2197   2.2212   2.2214   2.2289   2.2317   2.2319   2.2341   2.2344
     2.2390   2.2404   2.2422   2.2432   2.2458   2.2590   2.2594   2.2623
     2.2641   2.2655   2.2741   2.2743   2.2800   2.2823   2.2826   2.2851
     2.2912   2.2946   2.3055   2.3072   2.3141   2.3244   2.3246   2.3396
     2.3402   2.3414   2.3554   2.3571   2.3589   2.3827   2.3834   2.3999
     2.4017   2.4212   2.4215   2.4217   2.4485   2.4521   2.4523   2.4595
     2.4604   2.4620   2.4813   2.4897   2.5337   2.6150   2.7105   2.7776
     2.8019   2.8699   2.8829   2.8839   2.9746   2.9752   2.9884   2.9889
     3.0343   3.0344   3.0433   3.0439   3.0875   3.1038   3.1048   3.1822
     3.1823   3.2106   3.2194   3.3898   3.3899   3.4502   3.4508   3.5953
     3.7287   3.9188   3.9205   3.9593   3.9674   3.9969   3.9986   4.1522
     4.2202   4.2210   4.2439   4.4227   4.4303   4.5054   4.5062   4.6152
     4.7228   4.7228   4.7525   4.7868   4.7873   4.8138   4.8309   4.8313
     4.8414   4.8414   5.2149   5.2259   5.2324   5.2406   5.3588   5.5447
     5.7100   5.7417   5.7532   5.7690   5.8341   5.8369   5.8893   5.9001
     5.9882   6.1120   6.3294   6.3402   6.4208   6.4764   6.4884   6.6988
     6.7314   7.0164   7.0392   7.0398   7.0684   7.1891   7.2882   7.2895
     7.3284   7.5334   7.5611   7.5623   7.5894   7.5980   7.5982   7.6344
     7.6589   7.6711   7.6828   7.7653   7.7834   7.8149   7.8304   7.8538
     7.9562   7.9725   8.0728   8.1014   8.1063   8.2601   8.2837   8.3849
     8.4713   8.4758   8.4796   8.4979   8.4992   8.6440   8.7454   8.7476
     8.8494   8.8633   8.8669   8.8967   8.9782   8.9989   9.0229   9.0240
     9.1237   9.1545   9.1892   9.3207   9.3291   9.3546   9.3557   9.4022
     9.4237   9.4244   9.4378   9.4529   9.4878   9.4928   9.5034   9.5490
     9.5512   9.5552   9.6879   9.7594   9.7897   9.8375   9.8392   9.8867
     9.8932   9.8963   9.9873  10.0216  10.3025  10.3075  10.3215  10.3879
    10.3883  10.4913  10.5172  10.5200  10.5201  10.5215  10.6431  10.6490
    10.6506  10.7153  10.7601  10.7725

          k = 0.0000-0.2165 0.0000 (256176 PWs)   bands (ev):

   -15.6059 -15.3260 -14.7009 -14.6711 -13.6424 -13.6409 -13.3670 -13.3663
   -13.2391 -13.2335 -12.7612 -12.7601 -12.7308 -12.7304 -11.3650 -11.3646
   -11.3520 -11.3509 -11.1945 -11.0902  -9.4851  -9.4839  -9.4295  -9.4285
    -8.2561  -8.1735  -8.1267  -8.1246  -7.9932  -7.9929  -7.2228  -7.2188
    -7.2007  -7.1984  -6.1290  -6.1289  -5.9628  -5.9625  -5.8853  -5.8811
    -5.8808  -5.8781  -5.0828  -5.0811  -5.0543  -5.0378  -4.4475  -4.3068
    -4.3055  -4.1503  -4.1472  -4.0130  -3.9761  -3.9479  -3.9454  -3.6845
    -3.6819  -3.6808  -3.6782  -3.5841  -3.1162  -3.1011  -2.8557  -2.7887
    -2.6774  -2.4989  -2.4666  -2.4666  -2.4586  -2.4572  -2.4135  -2.2578
    -2.2384  -2.2365  -2.1825  -2.1816  -2.1109  -2.1089  -2.0442  -2.0427
    -1.8774  -1.8757  -1.8634  -1.8632  -1.8514  -1.8379  -1.8098  -1.7803
    -1.7335  -1.7322  -1.7255  -1.7244  -1.6601  -1.6592  -1.6457  -1.6349
    -1.6288  -1.6275  -1.4454  -1.3916  -1.3607  -1.3593  -1.3571  -1.3300
    -1.3291  -1.2800  -1.2791  -1.2124  -1.2075  -1.1422  -1.1296  -1.1294
    -1.1109  -1.1108  -1.0000  -0.9991  -0.9508  -0.9505  -0.9499  -0.9485
    -0.9176  -0.9024  -0.8794  -0.8793  -0.8776  -0.8596  -0.8247  -0.8194
    -0.8115  -0.8104  -0.7970  -0.7551  -0.7533  -0.7378  -0.6990  -0.6988
    -0.6449  -0.6447  -0.5972  -0.5879  -0.5859  -0.5564  -0.5283  -0.5266
    -0.4834  -0.4793  -0.4646  -0.4628  -0.4623  -0.4576  -0.4400  -0.4372
    -0.4369  -0.4339  -0.4223  -0.4197  -0.4191  -0.4188  -0.4129  -0.4121
    -0.3875  -0.3842  -0.3789  -0.3670  -0.3067  -0.3062  -0.2836  -0.2823
    -0.2544  -0.2421  -0.2407  -0.2297  -0.2151  -0.2055  -0.2040  -0.2031
    -0.2010  -0.1793  -0.1642  -0.1419  -0.1408  -0.1394  -0.1379  -0.1349
    -0.1273  -0.1271  -0.1011  -0.0970  -0.0964  -0.0828  -0.0825  -0.0718
    -0.0705  -0.0427  -0.0426  -0.0396  -0.0259  -0.0116   0.0058   0.0075
     0.0086   0.0113   0.0175   0.0296   0.0495   0.0579   0.0591   0.0932
     0.1157   0.1331   0.1343   0.1522   0.1764   0.1768   0.1863   0.1866
     0.1972   0.1980   0.2011   0.2016   0.2158   0.2177   0.2289   0.2345
     0.2349   0.2474   0.2514   0.2533   0.2579   0.2666   0.2740   0.2797
     0.2799   0.2926   0.3003   0.3050   0.3198   0.3303   0.3389   0.3432
     0.3468   0.3483   0.3488   0.3619   0.3748   0.3749   0.3947   0.3949
     0.4173   0.4387   0.4451   0.4453   0.4541   0.4556   0.4646   0.4658
     0.4825   0.4865   0.4868   0.4928   0.4947   0.5020   0.5068   0.5101
     0.5106   0.5270   0.5276   0.5348   0.5377   0.5385   0.5521   0.5549
     0.5565   0.5573   0.5629   0.5641   0.5668   0.5815   0.5858   0.5861
     0.5982   0.5985   0.5989   0.6144   0.6146   0.6350   0.6358   0.6380
     0.6383   0.6393   0.6416   0.6454   0.6464   0.6465   0.6480   0.6710
     0.6754   0.6775   0.6804   0.6953   0.6958   0.7112   0.7135   0.7159
     0.7222   0.7282   0.7286   0.7342   0.7471   0.7488   0.7520   0.7535
     0.7537   0.7591   0.7595   0.7798   0.7853   0.7876   0.7932   0.7948
     0.8182   0.8195   0.8221   0.8256   0.8293   0.8302   0.8343   0.8393
     0.8423   0.8428   0.8456   0.8620   0.8645   0.8701   0.8721   0.8734
     0.8784   0.8803   0.8850   0.9003   0.9009   0.9137   0.9251   0.9263
     0.9314   0.9318   0.9398   0.9479   0.9527   0.9544   0.9548   0.9585
     0.9590   0.9657   0.9746   0.9800   0.9839   0.9911   0.9931   1.0074
     1.0126   1.0159   1.0382   1.0417   1.0514   1.0517   1.0667   1.0681
     1.0771   1.0778   1.0892   1.1000   1.1040   1.1049   1.1143   1.1193
     1.1429   1.1491   1.1510   1.1520   1.1530   1.1664   1.1723   1.1852
     1.1915   1.1920   1.2199   1.2207   1.2241   1.2350   1.2552   1.2563
     1.2579   1.2602   1.2653   1.2659   1.2720   1.2776   1.2779   1.3008
     1.3015   1.3118   1.3121   1.3147   1.3269   1.3273   1.3393   1.3491
     1.3544   1.3546   1.3553   1.3576   1.3600   1.3604   1.3723   1.3724
     1.3807   1.3834   1.3844   1.3912   1.3941   1.3976   1.4034   1.4048
     1.4104   1.4158   1.4314   1.4341   1.4362   1.4387   1.4395   1.4471
     1.4480   1.4504   1.4594   1.4617   1.4622   1.4774   1.4843   1.4903
     1.4971   1.4974   1.4985   1.4988   1.5061   1.5119   1.5134   1.5226
     1.5226   1.5235   1.5288   1.5303   1.5307   1.5326   1.5443   1.5445
     1.5498   1.5504   1.5543   1.5560   1.5668   1.5707   1.5741   1.5837
     1.5892   1.5894   1.5908   1.6088   1.6188   1.6205   1.6262   1.6359
     1.6362   1.6471   1.6477   1.6516   1.6554   1.6967   1.6974   1.7068
     1.7109   1.7192   1.7245   1.7286   1.7326   1.7327   1.7376   1.7386
     1.7407   1.7464   1.7488   1.7505   1.7526   1.7528   1.7576   1.7592
     1.7715   1.7836   1.7852   1.7857   1.7865   1.7880   1.7940   1.8009
     1.8010   1.8027   1.8034   1.8095   1.8102   1.8106   1.8122   1.8127
     1.8133   1.8191   1.8204   1.8333   1.8340   1.8358   1.8400   1.8409
     1.8453   1.8480   1.8501   1.8520   1.8714   1.8714   1.8740   1.8761
     1.8819   1.8949   1.8964   1.9003   1.9003   1.9080   1.9084   1.9128
     1.9237   1.9282   1.9433   1.9448   1.9454   1.9458   1.9525   1.9600
     1.9606   1.9649   1.9723   1.9812   1.9923   2.0033   2.0041   2.0069
     2.0071   2.0081   2.0119   2.0189   2.0247   2.0255   2.0278   2.0299
     2.0301   2.0375   2.0466   2.0471   2.0481   2.0514   2.0546   2.0558
     2.0575   2.0600   2.0629   2.0778   2.0846   2.0871   2.0899   2.0909
     2.0982   2.0984   2.1084   2.1105   2.1119   2.1124   2.1140   2.1165
     2.1183   2.1328   2.1333   2.1354   2.1415   2.1458   2.1465   2.1515
     2.1534   2.1535   2.1575   2.1593   2.1644   2.1650   2.1772   2.1798
     2.1886   2.1886   2.1955   2.2004   2.2007   2.2022   2.2040   2.2165
     2.2173   2.2210   2.2250   2.2318   2.2344   2.2378   2.2388   2.2416
     2.2528   2.2546   2.2550   2.2582   2.2620   2.2745   2.2779   2.2780
     2.2803   2.2811   2.2818   2.2837   2.2844   2.2993   2.3020   2.3032
     2.3077   2.3224   2.3240   2.3361   2.3391   2.3410   2.3548   2.3551
     2.3559   2.3573   2.3576   2.3612   2.3690   2.3733   2.3738   2.3834
     2.3863   2.4497   2.4545   2.4688   2.5029   2.5447   2.5754   2.5775
     2.5778   2.5957   2.5960   2.6177   2.6178   2.6430   2.6454   2.6608
     2.6795   2.6804   2.8984   2.8990   2.9404   2.9473   2.9495   2.9561
     2.9617   3.0231   3.0923   3.0925   3.1986   3.2194   3.2196   3.2675
     3.2680   3.3163   3.3681   3.3942   3.3950   3.4908   3.4913   3.4920
     3.5242   3.7329   3.7391   3.7393   3.8024   3.8037   3.9834   3.9838
     3.9980   3.9998   4.2702   4.2989   4.3536   4.3560   4.4786   4.4919
     4.6774   4.7641   4.7700   4.8716   4.8775   4.8960   4.9097   4.9412
     4.9458   4.9935   5.2029   5.2057   5.3774   5.3792   5.6053   5.7749
     5.7761   5.7844   5.8837   5.9075   6.0022   6.0755   6.0785   6.1311
     6.1603   6.1938   6.1941   6.3876   6.4425   6.4685   6.5540   6.5622
     6.5892   6.7326   6.7813   6.7835   6.8092   6.8688   7.0144   7.2044
     7.2656   7.2660   7.3984   7.3990   7.4430   7.5175   7.5861   7.7018
     7.7099   7.7235   7.8356   7.8453   7.9208   7.9222   7.9227   7.9419
     7.9424   7.9786   8.0209   8.0309   8.1197   8.1261   8.3744   8.3922
     8.4242   8.5517   8.5624   8.5807   8.5871   8.6028   8.6165   8.7487
     8.7562   8.7589   8.7954   8.8514   8.9991   9.0453   9.0731   9.0742
     9.1616   9.2136   9.2214   9.2227   9.3322   9.3356   9.4322   9.4736
     9.4762   9.4768   9.5098   9.5558   9.5649   9.5798   9.6088   9.6196
     9.6930   9.7172   9.9161   9.9303   9.9355   9.9396   9.9507   9.9569
    10.0001  10.0049  10.0385  10.1687  10.1698  10.2256  10.2311  10.2596
    10.2614  10.3114  10.4823  10.4879  10.4882  10.4948  10.5692  10.6158
    10.6411  10.6880  10.7248  10.7315

          k = 0.2500 0.0000 0.0000 (256240 PWs)   bands (ev):

   -15.4996 -15.0422 -14.9769 -14.5118 -14.0600 -13.9945 -13.9313 -13.9250
   -12.9659 -12.9600 -12.5816 -12.1489 -12.1439 -12.1334 -12.0773 -11.2275
   -11.2128 -11.1061 -11.1015 -10.1391  -9.9680  -9.8070  -9.6635  -9.2963
    -9.1409  -8.8683  -8.8448  -8.4416  -8.1730  -8.1699  -7.6230  -6.6320
    -6.6284  -6.6212  -6.6044  -6.5153  -6.5047  -6.0447  -5.7823  -5.1931
    -5.0564  -5.0298  -4.9991  -4.9302  -4.9276  -4.5161  -4.4600  -4.2673
    -4.2613  -4.2343  -3.8758  -3.7681  -3.6247  -3.5304  -3.5002  -3.4570
    -3.4525  -3.4328  -3.4117  -3.2807  -3.2049  -3.1482  -3.0998  -3.0404
    -2.9895  -2.9878  -2.9844  -2.7049  -2.7040  -2.6875  -2.6731  -2.6358
    -2.6310  -2.6024  -2.5500  -2.4255  -2.4196  -2.3457  -2.3294  -2.3043
    -2.2132  -2.2004  -2.1548  -2.0198  -1.9984  -1.9602  -1.9475  -1.9457
    -1.9393  -1.9380  -1.6073  -1.5637  -1.5470  -1.5436  -1.5258  -1.4607
    -1.3629  -1.2876  -1.2768  -1.2708  -1.2620  -1.2399  -1.2373  -1.1979
    -1.1867  -1.0987  -1.0716  -1.0334  -1.0268  -1.0203  -0.9949  -0.9550
    -0.9486  -0.9430  -0.9424  -0.9312  -0.9280  -0.9173  -0.9095  -0.8739
    -0.8513  -0.8265  -0.8131  -0.8039  -0.7630  -0.7576  -0.7546  -0.7430
    -0.7366  -0.7314  -0.7290  -0.7245  -0.7007  -0.6866  -0.6751  -0.6736
    -0.6666  -0.6611  -0.6581  -0.6142  -0.5993  -0.5421  -0.5366  -0.5033
    -0.4896  -0.4739  -0.4580  -0.4485  -0.4382  -0.4096  -0.4022  -0.3974
    -0.3935  -0.3871  -0.3708  -0.3698  -0.3574  -0.3431  -0.3422  -0.3261
    -0.3244  -0.3184  -0.2960  -0.2941  -0.2932  -0.2911  -0.2836  -0.2777
    -0.2729  -0.2528  -0.2495  -0.2221  -0.2192  -0.2087  -0.2014  -0.1932
    -0.1903  -0.1872  -0.1813  -0.1803  -0.1751  -0.1699  -0.1665  -0.1594
    -0.1480  -0.1466  -0.1461  -0.1444  -0.1369  -0.1347  -0.1268  -0.1230
    -0.1200  -0.1147  -0.1039  -0.0853  -0.0767  -0.0576  -0.0502  -0.0488
    -0.0445  -0.0214   0.0010   0.0100   0.0206   0.0307   0.0319   0.0418
     0.0570   0.0591   0.0608   0.0697   0.0801   0.0876   0.0911   0.0989
     0.1156   0.1202   0.1251   0.1558   0.1752   0.1948   0.2143   0.2258
     0.2313   0.2457   0.2532   0.2577   0.2598   0.2734   0.2845   0.2854
     0.2905   0.2923   0.3092   0.3105   0.3176   0.3239   0.3339   0.3368
     0.3403   0.3419   0.3432   0.3686   0.3759   0.3770   0.3787   0.3914
     0.4124   0.4164   0.4213   0.4322   0.4393   0.4432   0.4455   0.4459
     0.4561   0.4595   0.4633   0.4712   0.4722   0.4760   0.4785   0.4988
     0.5031   0.5091   0.5114   0.5198   0.5217   0.5308   0.5318   0.5384
     0.5426   0.5524   0.5539   0.5569   0.5572   0.5614   0.5630   0.5801
     0.5852   0.5940   0.6062   0.6070   0.6090   0.6294   0.6374   0.6382
     0.6426   0.6457   0.6535   0.6550   0.6609   0.6703   0.6705   0.6786
     0.6797   0.6865   0.6943   0.7202   0.7245   0.7256   0.7269   0.7310
     0.7379   0.7405   0.7456   0.7470   0.7547   0.7576   0.7803   0.7834
     0.7858   0.7873   0.8056   0.8086   0.8150   0.8180   0.8218   0.8238
     0.8257   0.8327   0.8350   0.8408   0.8425   0.8441   0.8546   0.8561
     0.8564   0.8637   0.8703   0.8745   0.8813   0.8856   0.8868   0.8895
     0.8966   0.9001   0.9041   0.9049   0.9155   0.9182   0.9267   0.9314
     0.9342   0.9500   0.9575   0.9638   0.9683   0.9776   0.9811   0.9823
     0.9874   0.9938   1.0029   1.0079   1.0185   1.0236   1.0291   1.0404
     1.0557   1.0559   1.0720   1.0851   1.0908   1.1001   1.1024   1.1070
     1.1085   1.1123   1.1163   1.1193   1.1253   1.1313   1.1337   1.1355
     1.1372   1.1383   1.1471   1.1478   1.1552   1.1595   1.1634   1.1672
     1.1702   1.1818   1.1852   1.1907   1.1931   1.1988   1.2007   1.2115
     1.2160   1.2259   1.2317   1.2455   1.2594   1.2666   1.2696   1.2745
     1.2789   1.2793   1.2835   1.2850   1.2917   1.2934   1.2962   1.3050
     1.3158   1.3282   1.3299   1.3306   1.3383   1.3457   1.3479   1.3578
     1.3635   1.3667   1.3713   1.3743   1.3775   1.3876   1.3887   1.3918
     1.3991   1.4043   1.4087   1.4104   1.4208   1.4257   1.4291   1.4306
     1.4397   1.4415   1.4441   1.4530   1.4548   1.4607   1.4662   1.4685
     1.4703   1.4735   1.4810   1.4859   1.4885   1.4888   1.5011   1.5018
     1.5106   1.5185   1.5244   1.5264   1.5321   1.5395   1.5447   1.5632
     1.5659   1.5733   1.5743   1.5792   1.5818   1.5857   1.5897   1.5898
     1.5943   1.5959   1.5991   1.6141   1.6167   1.6273   1.6346   1.6413
     1.6427   1.6461   1.6529   1.6546   1.6627   1.6638   1.6798   1.6805
     1.6885   1.6894   1.6909   1.6913   1.6953   1.7060   1.7095   1.7120
     1.7159   1.7161   1.7255   1.7313   1.7364   1.7436   1.7454   1.7489
     1.7545   1.7587   1.7613   1.7682   1.7818   1.7891   1.7962   1.7979
     1.8035   1.8060   1.8104   1.8163   1.8197   1.8225   1.8293   1.8352
     1.8366   1.8382   1.8396   1.8440   1.8522   1.8544   1.8561   1.8579
     1.8592   1.8669   1.8747   1.8766   1.8784   1.8815   1.8865   1.8880
     1.8884   1.8901   1.8923   1.8958   1.8996   1.9039   1.9119   1.9181
     1.9208   1.9271   1.9288   1.9324   1.9358   1.9381   1.9406   1.9448
     1.9461   1.9483   1.9521   1.9567   1.9604   1.9801   1.9814   1.9834
     1.9890   1.9917   1.9974   2.0016   2.0140   2.0200   2.0274   2.0288
     2.0303   2.0338   2.0355   2.0430   2.0439   2.0468   2.0496   2.0568
     2.0673   2.0713   2.0768   2.0788   2.0803   2.0842   2.0880   2.0933
     2.0975   2.1016   2.1026   2.1050   2.1084   2.1114   2.1128   2.1209
     2.1218   2.1250   2.1260   2.1279   2.1324   2.1373   2.1378   2.1400
     2.1471   2.1542   2.1560   2.1625   2.1664   2.1843   2.1859   2.1884
     2.1929   2.1939   2.1978   2.2010   2.2027   2.2041   2.2109   2.2157
     2.2180   2.2199   2.2245   2.2295   2.2350   2.2406   2.2418   2.2447
     2.2463   2.2495   2.2522   2.2531   2.2577   2.2605   2.2647   2.2657
     2.2691   2.2721   2.2748   2.2770   2.2788   2.2893   2.2918   2.2955
     2.2979   2.2996   2.3009   2.3064   2.3081   2.3183   2.3208   2.3246
     2.3277   2.3327   2.3366   2.3399   2.3542   2.3602   2.3679   2.3734
     2.3889   2.3970   2.4025   2.4101   2.4279   2.4335   2.4365   2.4403
     2.4475   2.4609   2.4627   2.5558   2.5636   2.5696   2.6049   2.6365
     2.6367   2.6578   2.6735   2.7355   2.7657   2.8164   2.8376   2.8556
     2.8934   2.9224   2.9920   3.1840   3.2517   3.2912   3.3011   3.3301
     3.3673   3.5204   3.6768   3.7515   3.8002   3.8030   3.8101   3.9052
     3.9607   3.9960   4.0426   4.0448   4.0704   4.2242   4.2735   4.3148
     4.3676   4.3773   4.4569   4.4594   4.4903   4.4948   4.5001   4.5099
     4.5581   4.7285   4.8788   4.9240   5.0438   5.0817   5.1134   5.1381
     5.2401   5.3119   5.3305   5.3412   5.3789   5.4998   5.5140   5.6041
     5.6308   5.8054   5.8532   5.8790   5.8981   5.9185   5.9861   6.0171
     6.1540   6.1606   6.1837   6.2538   6.2727   6.3087   6.4107   6.4156
     6.6204   6.6443   6.6853   6.7110   6.7657   6.7776   6.7975   6.8143
     6.9927   7.1314   7.1380   7.2654   7.3292   7.4385   7.5149   7.5352
     7.5647   7.5869   7.6075   7.6196   7.6496   7.7072   7.7157   7.7364
     7.7506   7.7544   7.8282   7.8344   7.9575   8.0058   8.0234   8.1359
     8.1383   8.2236   8.3039   8.3146   8.4479   8.4667   8.5368   8.5668
     8.6065   8.6411   8.6424   8.6929   8.7037   8.8178   8.8218   8.8567
     8.9380   9.0633   9.1487   9.1557   9.1667   9.1761   9.1916   9.2166
     9.2543   9.2797   9.3055   9.3434   9.3723   9.5118   9.5325   9.6040
     9.6679   9.6952   9.7247   9.7375   9.7426   9.7944   9.8139   9.8492
     9.8703   9.8757  10.0079  10.0109  10.0329  10.0383  10.0846  10.0866
    10.1610  10.1843  10.3293  10.3419  10.4266  10.4694  10.5263  10.5381
    10.5394  10.5454  10.5813  10.6310

          k = 0.2500-0.2165 0.0000 (256316 PWs)   bands (ev):

   -15.4816 -15.2020 -14.5779 -14.5483 -14.4940 -14.2172 -13.6015 -13.5727
   -13.1194 -13.1138 -12.5647 -12.2942 -12.1702 -12.1656 -11.7026 -11.6759
   -11.0828 -10.9780 -10.4110 -10.4046 -10.2019 -10.0998  -9.8862  -9.6364
    -8.7406  -8.7159  -8.2568  -8.1622  -8.1159  -8.0756  -7.6066  -7.5085
    -7.4607  -7.4563  -5.8131  -5.7928  -5.7387  -5.6549  -5.6285  -5.4555
    -5.4420  -5.3005  -5.0417  -5.0406  -4.8758  -4.8595  -4.2802  -4.2364
    -4.2341  -3.9133  -3.9077  -3.8479  -3.8170  -3.7843  -3.7800  -3.5147
    -3.5007  -3.4374  -3.3600  -3.2605  -3.2327  -3.1903  -3.0350  -3.0180
    -2.9698  -2.9551  -2.7742  -2.7205  -2.7144  -2.6467  -2.6193  -2.6150
    -2.5622  -2.5602  -2.5328  -2.5311  -2.2852  -2.2685  -2.2674  -2.2608
    -2.1508  -2.1362  -2.0604  -2.0597  -1.9729  -1.9590  -1.9466  -1.9305
    -1.7136  -1.6932  -1.6908  -1.6776  -1.6349  -1.5999  -1.4831  -1.4723
    -1.4695  -1.3748  -1.3389  -1.3225  -1.3119  -1.2929  -1.2697  -1.1791
    -1.1775  -1.1213  -1.1054  -1.0991  -1.0968  -1.0710  -1.0288  -1.0242
    -0.9655  -0.9513  -0.9305  -0.9110  -0.9032  -0.8713  -0.8570  -0.8558
    -0.8546  -0.8474  -0.8359  -0.8352  -0.8339  -0.8332  -0.8310  -0.8227
    -0.7636  -0.7548  -0.7431  -0.7334  -0.7296  -0.7152  -0.6965  -0.6527
    -0.6258  -0.6188  -0.5643  -0.5479  -0.5193  -0.5162  -0.4899  -0.4789
    -0.4752  -0.4700  -0.4440  -0.4395  -0.4345  -0.4301  -0.4117  -0.4067
    -0.4016  -0.3950  -0.3936  -0.3734  -0.3664  -0.3569  -0.3562  -0.3541
    -0.3529  -0.3513  -0.3450  -0.3349  -0.2981  -0.2876  -0.2764  -0.2749
    -0.2738  -0.2676  -0.2620  -0.2410  -0.2275  -0.2224  -0.2205  -0.2071
    -0.2015  -0.1998  -0.1987  -0.1828  -0.1712  -0.1650  -0.1598  -0.1586
    -0.1551  -0.1447  -0.1365  -0.1295  -0.1274  -0.1247  -0.1219  -0.1091
    -0.0884  -0.0665  -0.0578  -0.0459  -0.0336  -0.0267  -0.0250  -0.0243
    -0.0160   0.0023   0.0184   0.0254   0.0417   0.0491   0.0585   0.0629
     0.0719   0.0752   0.0779   0.0903   0.0992   0.1029   0.1046   0.1245
     0.1369   0.1409   0.1438   0.1584   0.1628   0.1762   0.1893   0.2294
     0.2311   0.2335   0.2451   0.2665   0.2695   0.2717   0.2757   0.2771
     0.2799   0.2870   0.3016   0.3092   0.3117   0.3351   0.3405   0.3443
     0.3517   0.3554   0.3601   0.3723   0.3776   0.3822   0.3893   0.3932
     0.3983   0.4058   0.4110   0.4174   0.4366   0.4391   0.4473   0.4529
     0.4563   0.4585   0.4633   0.4646   0.4663   0.4754   0.4787   0.4838
     0.4889   0.4947   0.4995   0.5047   0.5076   0.5104   0.5156   0.5167
     0.5310   0.5354   0.5407   0.5522   0.5607   0.5715   0.5740   0.5806
     0.5913   0.5990   0.6029   0.6041   0.6095   0.6185   0.6224   0.6241
     0.6351   0.6417   0.6433   0.6618   0.6653   0.6705   0.6738   0.6834
     0.6963   0.7091   0.7124   0.7142   0.7197   0.7209   0.7308   0.7315
     0.7360   0.7483   0.7539   0.7626   0.7655   0.7715   0.7768   0.7780
     0.7813   0.7838   0.7865   0.7987   0.8000   0.8046   0.8079   0.8104
     0.8258   0.8276   0.8292   0.8302   0.8357   0.8406   0.8451   0.8481
     0.8514   0.8535   0.8545   0.8703   0.8708   0.8870   0.8926   0.9069
     0.9110   0.9157   0.9181   0.9210   0.9225   0.9407   0.9497   0.9559
     0.9612   0.9623   0.9653   0.9688   0.9710   0.9834   0.9876   0.9896
     0.9982   1.0029   1.0039   1.0049   1.0113   1.0158   1.0177   1.0290
     1.0304   1.0374   1.0443   1.0497   1.0534   1.0789   1.0886   1.0948
     1.1074   1.1184   1.1221   1.1232   1.1294   1.1334   1.1354   1.1387
     1.1429   1.1443   1.1486   1.1509   1.1538   1.1559   1.1632   1.1711
     1.1732   1.1867   1.1884   1.1947   1.1959   1.2074   1.2084   1.2222
     1.2257   1.2289   1.2314   1.2339   1.2519   1.2550   1.2596   1.2602
     1.2669   1.2770   1.2779   1.2804   1.2875   1.2960   1.3104   1.3155
     1.3166   1.3249   1.3337   1.3343   1.3403   1.3489   1.3511   1.3618
     1.3660   1.3751   1.3794   1.3802   1.3976   1.4031   1.4111   1.4116
     1.4170   1.4212   1.4234   1.4277   1.4310   1.4328   1.4341   1.4412
     1.4515   1.4567   1.4581   1.4619   1.4663   1.4676   1.4818   1.4835
     1.4849   1.4970   1.5002   1.5060   1.5067   1.5114   1.5178   1.5239
     1.5251   1.5285   1.5309   1.5317   1.5333   1.5356   1.5398   1.5469
     1.5611   1.5677   1.5687   1.5696   1.5698   1.5755   1.5785   1.5820
     1.5845   1.5854   1.5934   1.5965   1.5986   1.6064   1.6131   1.6305
     1.6311   1.6338   1.6343   1.6463   1.6534   1.6598   1.6627   1.6697
     1.6712   1.6763   1.6805   1.6823   1.6843   1.6983   1.7063   1.7094
     1.7103   1.7132   1.7159   1.7200   1.7217   1.7263   1.7271   1.7345
     1.7443   1.7530   1.7546   1.7570   1.7631   1.7638   1.7763   1.7787
     1.7907   1.7935   1.7960   1.7980   1.8017   1.8098   1.8108   1.8111
     1.8213   1.8272   1.8351   1.8372   1.8440   1.8555   1.8584   1.8726
     1.8751   1.8804   1.8859   1.8925   1.8955   1.8968   1.9054   1.9102
     1.9114   1.9126   1.9230   1.9242   1.9253   1.9297   1.9321   1.9322
     1.9344   1.9372   1.9430   1.9435   1.9549   1.9585   1.9624   1.9679
     1.9718   1.9727   1.9853   1.9905   1.9915   1.9933   1.9962   1.9966
     1.9989   2.0022   2.0066   2.0081   2.0106   2.0169   2.0178   2.0247
     2.0260   2.0284   2.0327   2.0366   2.0378   2.0387   2.0426   2.0460
     2.0490   2.0532   2.0653   2.0721   2.0755   2.0794   2.0837   2.0856
     2.0908   2.0922   2.0944   2.0951   2.0973   2.1024   2.1131   2.1209
     2.1236   2.1274   2.1335   2.1358   2.1365   2.1436   2.1452   2.1489
     2.1557   2.1581   2.1685   2.1702   2.1728   2.1792   2.1832   2.1843
     2.1884   2.1958   2.1989   2.2012   2.2020   2.2066   2.2088   2.2114
     2.2142   2.2159   2.2245   2.2294   2.2296   2.2316   2.2394   2.2411
     2.2437   2.2470   2.2505   2.2515   2.2580   2.2596   2.2655   2.2664
     2.2695   2.2705   2.2760   2.2785   2.2821   2.2836   2.2898   2.2930
     2.2980   2.2980   2.3021   2.3040   2.3126   2.3155   2.3224   2.3243
     2.3251   2.3267   2.3377   2.3432   2.3472   2.3514   2.3558   2.3684
     2.3739   2.3747   2.3773   2.3892   2.4025   2.4083   2.4386   2.4579
     2.4795   2.4822   2.5203   2.5303   2.5366   2.5518   2.5572   2.5736
     2.5805   2.5816   2.6297   2.7142   2.9314   2.9348   2.9523   2.9601
     2.9819   3.0592   3.0632   3.0661   3.1661   3.2713   3.3392   3.3740
     3.4017   3.4382   3.5015   3.5942   3.6172   3.6176   3.6823   3.7145
     3.7409   3.9106   3.9538   3.9727   3.9879   4.2073   4.3923   4.4331
     4.4698   4.5414   4.6009   4.6337   4.6572   4.6589   4.7449   4.8482
     4.8948   4.9076   4.9615   4.9618   5.0523   5.0670   5.1342   5.1377
     5.1640   5.2409   5.2841   5.3166   5.3496   5.3988   5.4569   5.5054
     5.5298   5.6645   5.6996   5.7093   5.7280   5.8133   5.8644   6.0324
     6.0346   6.1149   6.2158   6.2499   6.2547   6.2760   6.3639   6.4324
     6.5416   6.5495   6.7099   6.7241   6.7303   6.7866   6.8611   6.8860
     6.9811   7.0878   7.1701   7.2114   7.2486   7.2529   7.3239   7.5347
     7.5784   7.6151   7.7004   7.7450   7.7601   7.8947   7.9031   7.9225
     7.9516   7.9654   7.9810   7.9896   8.0132   8.0987   8.1486   8.1546
     8.2129   8.2294   8.2521   8.2696   8.2810   8.4421   8.4633   8.5885
     8.6710   8.7322   8.7563   8.7715   8.7825   8.8458   8.8573   8.9184
     8.9577   9.0201   9.0269   9.0588   9.0601   9.0764   9.1946   9.1953
     9.2879   9.3301   9.3409   9.3490   9.4403   9.4830   9.5251   9.5358
     9.5763   9.5917   9.6035   9.6720   9.7272   9.7753   9.7929   9.8048
     9.8071   9.8786   9.8902   9.9201   9.9337  10.0376  10.0480  10.1041
    10.1245  10.1538  10.1761  10.1969  10.2134  10.2363  10.3028  10.3578
    10.3736  10.4787  10.5078  10.5156

          k =-0.5000 0.0000 0.0000 (256496 PWs)   bands (ev):

   -15.1303 -15.1251 -14.6745 -14.6703 -14.6077 -14.6062 -13.5687 -13.5663
   -13.5633 -13.5595 -11.8028 -11.7989 -11.7866 -11.7840 -11.3125 -11.3027
   -10.9224 -10.8693 -10.8389 -10.8099 -10.2056 -10.2047  -9.8231  -9.8207
    -9.2564  -9.2536  -8.8440  -8.8390  -8.0139  -8.0092  -7.9901  -7.9845
    -6.4994  -6.4947  -6.4474  -6.4412  -6.4369  -6.4348  -5.0005  -4.9915
    -4.4694  -4.4685  -4.3195  -4.3135  -4.0117  -4.0065  -3.9527  -3.9496
    -3.8693  -3.8662  -3.8163  -3.8154  -3.7580  -3.7496  -3.7279  -3.7252
    -3.7222  -3.7216  -3.5010  -3.4923  -3.4446  -3.4401  -3.3970  -3.3928
    -3.0662  -3.0631  -3.0387  -3.0369  -2.8521  -2.8459  -2.6700  -2.6677
    -2.5675  -2.5665  -2.5649  -2.5632  -2.4511  -2.4487  -2.4479  -2.4459
    -2.4381  -2.4365  -2.2089  -2.2027  -1.9593  -1.9566  -1.8648  -1.8646
    -1.8619  -1.8613  -1.8469  -1.8461  -1.6903  -1.6896  -1.6874  -1.6860
    -1.5523  -1.5506  -1.5493  -1.5413  -1.1172  -1.1156  -1.1128  -1.1111
    -1.0344  -1.0333  -1.0284  -1.0283  -1.0236  -1.0230  -0.9806  -0.9795
    -0.8176  -0.8171  -0.8147  -0.8146  -0.7700  -0.7671  -0.7651  -0.7647
    -0.7613  -0.7595  -0.7493  -0.7488  -0.6913  -0.6898  -0.6542  -0.6540
    -0.6108  -0.6096  -0.6086  -0.6074  -0.5805  -0.5792  -0.5760  -0.5742
    -0.5540  -0.5512  -0.5217  -0.5205  -0.5154  -0.5149  -0.4899  -0.4884
    -0.4855  -0.4843  -0.4786  -0.4778  -0.4625  -0.4620  -0.4547  -0.4534
    -0.4433  -0.4420  -0.4337  -0.4332  -0.3781  -0.3760  -0.3643  -0.3569
    -0.3413  -0.3401  -0.3386  -0.3364  -0.3230  -0.3228  -0.3186  -0.3181
    -0.2855  -0.2828  -0.2726  -0.2725  -0.2673  -0.2663  -0.2443  -0.2413
    -0.2317  -0.2307  -0.2047  -0.2012  -0.1995  -0.1982  -0.1755  -0.1751
    -0.1401  -0.1375  -0.1337  -0.1332  -0.1324  -0.1304  -0.1238  -0.1232
    -0.1063  -0.1053  -0.0957  -0.0924  -0.0772  -0.0756  -0.0727  -0.0721
    -0.0652  -0.0638  -0.0510  -0.0506  -0.0451  -0.0445  -0.0163  -0.0152
     0.0605   0.0612   0.1079   0.1102   0.1108   0.1119   0.1324   0.1370
     0.1375   0.1544   0.1641   0.1642   0.1679   0.1717   0.1829   0.1873
     0.1914   0.1952   0.2136   0.2162   0.2185   0.2190   0.2476   0.2493
     0.2515   0.2562   0.2628   0.2630   0.3114   0.3145   0.3163   0.3233
     0.3449   0.3505   0.3647   0.3677   0.3787   0.3795   0.3867   0.3995
     0.4030   0.4098   0.4124   0.4127   0.4212   0.4221   0.4424   0.4437
     0.4540   0.4545   0.4605   0.4638   0.4800   0.4834   0.4876   0.4911
     0.5080   0.5083   0.5173   0.5246   0.5343   0.5349   0.5459   0.5484
     0.5528   0.5550   0.5680   0.5704   0.5797   0.5828   0.5854   0.5870
     0.5925   0.5944   0.6124   0.6268   0.6291   0.6320   0.6526   0.6608
     0.6701   0.6711   0.6822   0.6897   0.6938   0.6961   0.7049   0.7085
     0.7112   0.7202   0.7278   0.7321   0.7400   0.7626   0.7653   0.7666
     0.7760   0.7806   0.7834   0.7859   0.7919   0.7930   0.7963   0.8031
     0.8065   0.8077   0.8174   0.8183   0.8240   0.8255   0.8276   0.8300
     0.8388   0.8398   0.8659   0.8713   0.8837   0.8842   0.8898   0.9071
     0.9094   0.9138   0.9160   0.9183   0.9212   0.9214   0.9215   0.9261
     0.9274   0.9317   0.9331   0.9362   0.9377   0.9384   0.9492   0.9584
     0.9602   0.9633   0.9648   0.9663   0.9680   0.9681   0.9788   0.9800
     0.9806   0.9835   0.9878   0.9903   0.9916   0.9945   1.0021   1.0290
     1.0349   1.0377   1.0420   1.0688   1.0713   1.1080   1.1122   1.1183
     1.1219   1.1349   1.1361   1.1377   1.1386   1.1497   1.1519   1.1522
     1.1566   1.1662   1.1695   1.1715   1.1817   1.1822   1.1868   1.1923
     1.1938   1.1944   1.1983   1.2035   1.2088   1.2098   1.2113   1.2119
     1.2162   1.2169   1.2206   1.2277   1.2320   1.2344   1.2463   1.2489
     1.2557   1.2597   1.2754   1.2808   1.2970   1.2976   1.2995   1.3161
     1.3199   1.3231   1.3279   1.3292   1.3300   1.3310   1.3419   1.3453
     1.3484   1.3503   1.3617   1.3661   1.3754   1.3764   1.3775   1.3799
     1.3821   1.3867   1.3932   1.3941   1.3969   1.3973   1.4038   1.4049
     1.4134   1.4340   1.4352   1.4365   1.4368   1.4437   1.4492   1.4557
     1.4564   1.4611   1.4613   1.4731   1.4758   1.4778   1.4782   1.4836
     1.4855   1.4857   1.4872   1.5077   1.5088   1.5107   1.5119   1.5199
     1.5205   1.5251   1.5355   1.5420   1.5603   1.5680   1.5716   1.5726
     1.5809   1.5820   1.5886   1.5895   1.5921   1.5941   1.5998   1.6077
     1.6114   1.6171   1.6337   1.6342   1.6349   1.6483   1.6545   1.6569
     1.6597   1.6603   1.6608   1.6619   1.6761   1.6785   1.6792   1.6826
     1.6833   1.6882   1.6946   1.6969   1.6982   1.6993   1.7094   1.7126
     1.7255   1.7262   1.7283   1.7314   1.7397   1.7401   1.7461   1.7586
     1.7657   1.7817   1.7840   1.7871   1.7932   1.7966   1.8182   1.8185
     1.8194   1.8212   1.8311   1.8317   1.8368   1.8487   1.8570   1.8578
     1.8726   1.8781   1.8826   1.8888   1.8906   1.8921   1.9048   1.9054
     1.9107   1.9120   1.9146   1.9177   1.9229   1.9250   1.9362   1.9379
     1.9430   1.9470   1.9473   1.9485   1.9545   1.9550   1.9554   1.9562
     1.9653   1.9693   1.9788   1.9800   1.9821   1.9828   1.9961   1.9977
     2.0008   2.0040   2.0066   2.0071   2.0071   2.0134   2.0248   2.0328
     2.0357   2.0379   2.0394   2.0405   2.0430   2.0492   2.0496   2.0508
     2.0539   2.0561   2.0579   2.0584   2.0670   2.0684   2.0702   2.0730
     2.0945   2.0953   2.1066   2.1094   2.1116   2.1189   2.1222   2.1223
     2.1230   2.1234   2.1312   2.1314   2.1366   2.1402   2.1404   2.1421
     2.1428   2.1476   2.1491   2.1495   2.1501   2.1503   2.1513   2.1553
     2.1563   2.1694   2.1703   2.1780   2.1799   2.1866   2.1905   2.1939
     2.1943   2.2016   2.2025   2.2107   2.2164   2.2170   2.2210   2.2217
     2.2275   2.2281   2.2326   2.2411   2.2420   2.2434   2.2440   2.2456
     2.2467   2.2528   2.2556   2.2568   2.2597   2.2663   2.2672   2.2686
     2.2720   2.2723   2.2898   2.2909   2.2916   2.2990   2.3089   2.3099
     2.3133   2.3181   2.3185   2.3213   2.3329   2.3334   2.3342   2.3349
     2.3381   2.3413   2.3690   2.3794   2.3875   2.3879   2.3983   2.4000
     2.4160   2.4200   2.4306   2.4307   2.4537   2.4589   2.5763   2.5782
     2.5931   2.5942   2.7366   2.7386   3.0252   3.0308   3.0630   3.0648
     3.0925   3.0932   3.1130   3.1139   3.1203   3.1231   3.5373   3.5381
     3.5816   3.5845   3.8612   3.8656   3.8879   3.8896   3.9678   3.9704
     3.9934   3.9940   4.0527   4.0558   4.1576   4.1606   4.6038   4.6076
     4.6276   4.6285   4.7444   4.7461   4.7748   4.7989   4.8012   4.8219
     4.9410   4.9421   5.2333   5.2437   5.3189   5.3379   5.4517   5.4928
     5.5096   5.5212   5.5380   5.5931   5.6771   5.6804   5.6843   5.6925
     5.6931   5.7029   5.8284   5.8397   5.8501   5.8534   5.9134   5.9183
     5.9249   5.9521   6.0597   6.0614   6.0754   6.1041   6.1195   6.1757
     6.2007   6.2565   6.5371   6.5441   6.5478   6.5807   6.6646   6.6676
     6.7189   6.7248   6.7993   6.8104   6.8152   6.8376   6.8494   6.8872
     7.2991   7.3017   7.3562   7.3584   7.3816   7.3927   7.4229   7.4388
     7.8004   7.8145   7.8280   7.8448   7.9871   7.9877   8.0275   8.0355
     8.2968   8.3017   8.4077   8.4080   8.4113   8.4119   8.4234   8.4273
     8.5386   8.5404   8.6011   8.6036   8.6520   8.6565   8.7047   8.7065
     8.7098   8.7100   8.9478   8.9492   9.0493   9.0585   9.0617   9.0697
     9.1545   9.1549   9.1780   9.1958   9.4173   9.4186   9.5144   9.5158
     9.5163   9.5187   9.6334   9.6355   9.6639   9.6646   9.6748   9.6756
     9.8545   9.8567   9.8625   9.8711   9.9645   9.9680  10.1312  10.1356
    10.2685  10.2719  10.3138  10.3273  10.3413  10.3482  10.3884  10.3896
    10.4169  10.4192  10.4337  10.4360

          k =-0.5000-0.2165 0.0000 (256328 PWs)   bands (ev):

   -15.1126 -15.1070 -14.8324 -14.8300 -14.2118 -14.2086 -14.1822 -14.1794
   -12.7640 -12.7600 -12.7571 -12.7547 -11.2978 -11.2882 -11.0363 -11.0180
   -10.7507 -10.7474 -10.6456 -10.6444 -10.5730 -10.5513 -10.4254 -10.4073
    -8.8997  -8.8970  -8.7416  -8.7367  -7.9024  -7.8961  -7.8118  -7.8095
    -7.1641  -7.1604  -7.0109  -7.0039  -5.0235  -5.0192  -5.0187  -5.0149
    -4.4720  -4.4550  -4.3532  -4.3493  -4.3367  -4.3324  -4.3246  -4.3177
    -4.2896  -4.2828  -4.0389  -4.0365  -3.8067  -3.7943  -3.3666  -3.3655
    -3.3529  -3.3476  -3.3079  -3.3062  -3.2941  -3.2903  -3.2870  -3.2838
    -3.2746  -3.2704  -3.0015  -2.9971  -2.8546  -2.8490  -2.7371  -2.7343
    -2.7263  -2.7252  -2.6160  -2.6107  -2.5541  -2.5512  -2.5377  -2.5367
    -2.3009  -2.2974  -2.2344  -2.2294  -2.1151  -2.1099  -1.8602  -1.8583
    -1.7288  -1.7274  -1.7269  -1.7267  -1.4672  -1.4654  -1.4393  -1.4382
    -1.4259  -1.4231  -1.4174  -1.4153  -1.2473  -1.2464  -1.2319  -1.2315
    -1.1611  -1.1579  -1.0401  -1.0397  -1.0118  -1.0087  -0.9684  -0.9662
    -0.9559  -0.9550  -0.9034  -0.9015  -0.8529  -0.8499  -0.7477  -0.7467
    -0.7185  -0.7157  -0.6882  -0.6823  -0.6460  -0.6449  -0.6356  -0.6347
    -0.6025  -0.6017  -0.5988  -0.5983  -0.5813  -0.5800  -0.5672  -0.5661
    -0.5647  -0.5625  -0.5467  -0.5465  -0.5462  -0.5445  -0.5386  -0.5369
    -0.5222  -0.5212  -0.5168  -0.5165  -0.5099  -0.5095  -0.4704  -0.4685
    -0.4010  -0.4001  -0.3960  -0.3945  -0.3696  -0.3627  -0.3617  -0.3588
    -0.3477  -0.3473  -0.3250  -0.3239  -0.3203  -0.3192  -0.3012  -0.3001
    -0.2957  -0.2942  -0.2808  -0.2805  -0.2784  -0.2781  -0.2536  -0.2498
    -0.2207  -0.2185  -0.2168  -0.2162  -0.2094  -0.2078  -0.2074  -0.2065
    -0.1987  -0.1975  -0.1951  -0.1950  -0.1703  -0.1665  -0.1408  -0.1368
    -0.1312  -0.1302  -0.0903  -0.0870  -0.0865  -0.0862  -0.0375  -0.0374
    -0.0192  -0.0180   0.0039   0.0043   0.0078   0.0081   0.0179   0.0182
     0.0632   0.0649   0.0811   0.0819   0.0872   0.0883   0.0939   0.0974
     0.0989   0.1006   0.1376   0.1391   0.1441   0.1449   0.1509   0.1519
     0.1522   0.1528   0.1738   0.1748   0.2001   0.2358   0.2581   0.2615
     0.2616   0.2624   0.2920   0.2924   0.2940   0.2968   0.3071   0.3086
     0.3236   0.3439   0.3477   0.3488   0.3503   0.3516   0.3886   0.3918
     0.3920   0.3936   0.3995   0.4012   0.4079   0.4086   0.4376   0.4393
     0.4404   0.4408   0.4557   0.4598   0.4607   0.4633   0.5218   0.5224
     0.5446   0.5485   0.5651   0.5683   0.5702   0.5711   0.5719   0.5738
     0.5778   0.5790   0.5808   0.5840   0.5880   0.5882   0.6037   0.6135
     0.6136   0.6292   0.6455   0.6526   0.6552   0.6570   0.6609   0.6621
     0.6742   0.6749   0.7045   0.7058   0.7062   0.7070   0.7095   0.7128
     0.7136   0.7147   0.7167   0.7256   0.7264   0.7303   0.7349   0.7464
     0.7523   0.7589   0.7757   0.7776   0.7822   0.7957   0.7999   0.8097
     0.8211   0.8219   0.8413   0.8444   0.8507   0.8521   0.8574   0.8604
     0.8658   0.8678   0.8797   0.8826   0.8902   0.8952   0.8967   0.8978
     0.9000   0.9018   0.9191   0.9211   0.9232   0.9242   0.9248   0.9282
     0.9291   0.9293   0.9298   0.9408   0.9499   0.9510   0.9560   0.9587
     0.9628   0.9677   0.9679   0.9728   0.9735   0.9752   0.9767   0.9793
     0.9802   0.9985   1.0042   1.0221   1.0255   1.0447   1.0480   1.0488
     1.0493   1.0503   1.0567   1.0814   1.0858   1.0860   1.0897   1.1067
     1.1081   1.1229   1.1242   1.1282   1.1375   1.1491   1.1529   1.1577
     1.1581   1.1675   1.1732   1.1784   1.1831   1.1858   1.1948   1.1956
     1.2006   1.2041   1.2046   1.2098   1.2106   1.2119   1.2198   1.2251
     1.2257   1.2321   1.2336   1.2497   1.2545   1.2584   1.2597   1.2667
     1.2741   1.2754   1.2788   1.2816   1.2863   1.2873   1.2933   1.2975
     1.3004   1.3028   1.3082   1.3171   1.3223   1.3288   1.3307   1.3317
     1.3347   1.3353   1.3635   1.3654   1.3699   1.3716   1.3732   1.3775
     1.3898   1.3965   1.3995   1.3997   1.4066   1.4117   1.4126   1.4195
     1.4253   1.4270   1.4330   1.4404   1.4415   1.4511   1.4524   1.4534
     1.4541   1.4549   1.4591   1.4598   1.4605   1.4795   1.4865   1.4962
     1.4994   1.5042   1.5046   1.5074   1.5084   1.5250   1.5304   1.5304
     1.5401   1.5450   1.5481   1.5496   1.5507   1.5525   1.5535   1.5554
     1.5593   1.5672   1.5762   1.5771   1.5924   1.5938   1.5975   1.5994
     1.6043   1.6098   1.6131   1.6148   1.6173   1.6181   1.6278   1.6326
     1.6337   1.6392   1.6471   1.6481   1.6612   1.6678   1.6884   1.6895
     1.6907   1.6939   1.6960   1.7087   1.7149   1.7214   1.7258   1.7437
     1.7506   1.7536   1.7605   1.7665   1.7803   1.7811   1.7944   1.7966
     1.8004   1.8017   1.8055   1.8075   1.8291   1.8307   1.8320   1.8377
     1.8432   1.8447   1.8475   1.8501   1.8544   1.8549   1.8588   1.8605
     1.8615   1.8632   1.8656   1.8661   1.8689   1.8703   1.8726   1.8730
     1.8736   1.8778   1.8795   1.8944   1.8999   1.9007   1.9161   1.9168
     1.9238   1.9259   1.9309   1.9317   1.9389   1.9418   1.9448   1.9472
     1.9496   1.9517   1.9573   1.9592   1.9631   1.9640   1.9685   1.9706
     1.9785   1.9803   1.9815   1.9842   2.0012   2.0037   2.0075   2.0083
[...]
     atom   46 type  1   force =    -0.00015965    0.00023257    0.00030354
     atom   47 type  1   force =     0.00002309   -0.00006461    0.00002394
     atom   48 type  1   force =     0.00015373    0.00010424    0.00035303
     atom   49 type  1   force =    -0.00008977   -0.00054078    0.00085858
     atom   50 type  1   force =     0.00006593    0.00078278    0.00061644
     atom   51 type  1   force =     0.00008036   -0.00038710    0.00071466
     atom   52 type  1   force =    -0.00006990    0.00077780    0.00086998
     atom   53 type  1   force =    -0.00009231    0.00008716    0.00021565
     atom   54 type  1   force =    -0.00002788    0.00040916    0.00020737
     atom   55 type  1   force =     0.00007485   -0.00006875    0.00035812
     atom   56 type  1   force =     0.00001908    0.00006859    0.00043734
     atom   57 type  1   force =     0.00014212    0.00085719    0.00002386
     atom   58 type  1   force =    -0.00006591    0.00089074   -0.00077988
     atom   59 type  1   force =    -0.00014404    0.00090679    0.00000006
     atom   60 type  1   force =     0.00006235    0.00074974   -0.00091855
     atom   61 type  1   force =    -0.00001074    0.00036184    0.00064967
     atom   62 type  1   force =     0.00004953    0.00005245   -0.00033311
     atom   63 type  1   force =    -0.00000695    0.00151541    0.00188174
     atom   64 type  1   force =    -0.00005758   -0.00019362    0.00004666
     atom   65 type  1   force =    -0.00006686    0.00026626    0.00266299
     atom   66 type  1   force =     0.00008841    0.00029111    0.00155600
     atom   67 type  1   force =     0.00004497    0.00051556    0.00127721
     atom   68 type  1   force =    -0.00007629    0.00028672    0.00196714
     atom   69 type  1   force =    -0.00012695    0.00073792    0.00061368
     atom   70 type  1   force =     0.00003170   -0.00009414    0.00157931
     atom   71 type  1   force =     0.00013711    0.00076079    0.00210089
     atom   72 type  1   force =    -0.00004534   -0.00010544    0.00156999
     atom   73 type  1   force =    -0.00009829   -0.00087841    0.00262150
     atom   74 type  1   force =     0.00026014    0.00031682    0.00213470
     atom   75 type  1   force =     0.00007825   -0.00075574    0.00233070
     atom   76 type  1   force =    -0.00023089    0.00014270    0.00197761
     atom   77 type  1   force =     0.00010996    0.00046578   -0.00014067
     atom   78 type  1   force =     0.00005049   -0.00070760    0.00094846
     atom   79 type  1   force =    -0.00011399    0.00069961   -0.00021529
     atom   80 type  1   force =    -0.00006016   -0.00114576    0.00131993
     atom   81 type  1   force =     0.00009050    0.00040506    0.00121927
     atom   82 type  1   force =     0.00077324    0.00120993   -0.00121181
     atom   83 type  1   force =    -0.00011599    0.00020161    0.00106587
     atom   84 type  1   force =    -0.00075089    0.00128841   -0.00129644
     atom   85 type  1   force =    -0.00029068    0.00059974    0.00084348
     atom   86 type  1   force =    -0.00039657    0.00075290    0.00074277
     atom   87 type  1   force =     0.00023120   -0.00117887    0.00166984
     atom   88 type  1   force =     0.00042901   -0.00025915    0.00049737
     atom   89 type  1   force =     0.00057914    0.00057157   -0.00216422
     atom   90 type  1   force =    -0.00004474   -0.00105213   -0.00154427
     atom   91 type  1   force =    -0.00048090    0.00133600   -0.00189862
     atom   92 type  1   force =     0.00006829   -0.00050711   -0.00251784
     atom   93 type  1   force =    -0.00003126    0.00058127   -0.00008014
     atom   94 type  1   force =    -0.00023644   -0.00008818    0.00091496
     atom   95 type  1   force =    -0.00003914    0.00106740    0.00032143
     atom   96 type  1   force =     0.00025261    0.00045228    0.00110514
     atom   97 type  1   force =    -0.00001828   -0.00126711   -0.00119726
     atom   98 type  1   force =    -0.00000826   -0.00015524    0.00116606
     atom   99 type  1   force =     0.00002509   -0.00086656   -0.00128585
     atom  100 type  1   force =     0.00000040    0.00019575    0.00127790
     atom  101 type  1   force =    -0.00056983   -0.00096153    0.00078272
     atom  102 type  1   force =     0.00066212   -0.00116830    0.00095075
     atom  103 type  1   force =     0.00001331   -0.00050858    0.00201871
     atom  104 type  1   force =    -0.00010310    0.00062035    0.00216519
     atom  105 type  1   force =    -0.00007054   -0.00018987    0.00170388
     atom  106 type  1   force =     0.00009896    0.00016226    0.00158676
     atom  107 type  1   force =     0.00013818    0.00192237   -0.00047569
     atom  108 type  1   force =    -0.00016074    0.00129452    0.00123453
     atom  109 type  2   force =    -0.00009401   -0.00220357   -0.00124074
     atom  110 type  2   force =    -0.00001246   -0.00042606    0.00320421
     atom  111 type  2   force =    -0.00242553    0.00045556   -0.00271428
     atom  112 type  2   force =     0.00111676   -0.00188162   -0.00222946
     atom  113 type  2   force =     0.00204807   -0.00187964    0.00044698
     atom  114 type  2   force =    -0.00146796    0.00091719   -0.00112647
     atom  115 type  2   force =     0.00011749    0.00227207   -0.00265359
     atom  116 type  2   force =     0.00003980   -0.00182764   -0.00282627
     atom  117 type  2   force =    -0.00222226   -0.00183393    0.00063704
     atom  118 type  2   force =     0.00147387    0.00090265   -0.00110366
     atom  119 type  2   force =     0.00266126    0.00047087   -0.00287076
     atom  120 type  2   force =    -0.00105791   -0.00186830   -0.00245093
     atom  121 type  2   force =     0.00015278   -0.00190325    0.00360144
     atom  122 type  2   force =    -0.00010665   -0.00032192   -0.00621745
     atom  123 type  2   force =    -0.00040969   -0.00006284   -0.00094507
     atom  124 type  2   force =    -0.00107019    0.00079234    0.00349078
     atom  125 type  2   force =    -0.00001370   -0.00117102   -0.00109901
     atom  126 type  2   force =     0.00069077   -0.00122638    0.00093327
     atom  127 type  2   force =    -0.00009701    0.00025929    0.00212218
     atom  128 type  2   force =     0.00010449    0.00077108   -0.00346108
     atom  129 type  2   force =     0.00032527   -0.00123002   -0.00132398
     atom  130 type  2   force =    -0.00083471   -0.00114102    0.00133650
     atom  131 type  2   force =     0.00005483   -0.00003516   -0.00113712
     atom  132 type  2   force =     0.00126342    0.00067615    0.00369314
     atom  133 type  2   force =     0.00012262    0.00145291    0.00256264
     atom  134 type  2   force =    -0.00006312   -0.00200044   -0.00136653
     atom  135 type  2   force =     0.00063282   -0.00237376   -0.00164266
     atom  136 type  2   force =     0.00027572    0.00096677   -0.00111248
     atom  137 type  2   force =    -0.00057474    0.00167866   -0.00358527
     atom  138 type  2   force =     0.00016688   -0.00053972    0.00270344
     atom  139 type  2   force =    -0.00012497   -0.00203134    0.00486029
     atom  140 type  2   force =     0.00002498    0.00226336    0.00093060
     atom  141 type  2   force =     0.00092780    0.00167868   -0.00375860
     atom  142 type  2   force =    -0.00026813   -0.00053570    0.00248902
     atom  143 type  2   force =    -0.00093222   -0.00227041   -0.00201207
     atom  144 type  2   force =    -0.00024160    0.00100248   -0.00100343
     atom  145 type  2   force =    -0.00009595   -0.00059034   -0.00085509
     atom  146 type  2   force =     0.00013117   -0.00025210   -0.00023362
     atom  147 type  2   force =    -0.00141715   -0.00075610   -0.00289753
     atom  148 type  2   force =     0.00225192   -0.00226764   -0.00310933
     atom  149 type  2   force =     0.00132246    0.00098299    0.00297858
     atom  150 type  2   force =    -0.00230097    0.00064813    0.00010423
     atom  151 type  2   force =     0.00006643    0.00036291   -0.00493405
     atom  152 type  2   force =    -0.00011176   -0.00050653   -0.00436089
     atom  153 type  2   force =    -0.00153101    0.00097274    0.00284778
     atom  154 type  2   force =     0.00256224    0.00066334    0.00022902
     atom  155 type  2   force =     0.00156319   -0.00075117   -0.00275734
     atom  156 type  2   force =    -0.00249453   -0.00227356   -0.00304659

     Total force =     0.025834     Total SCF correction =     0.000438

     number of scf cycles    =  15
     number of bfgs steps    =  14

     energy   old            =  -13670.9278794965 Ry
     energy   new            =  -13670.9289524663 Ry

     CASE: energy  _new < energy  _old

     new trust radius        =       0.0623105096 bohr
     new conv_thr            =       0.0000000100 Ry


ATOMIC_POSITIONS (angstrom)
Cu       0.000194915   0.018523828   6.478101781
Cu       1.844420074   1.740281597   6.487273268
Cu       3.688675592   0.018905604   6.478616918
Cu       5.533487621   1.739968854   6.487677999
Cu       0.000124997   3.453838346   6.507277578
Cu       1.844478784   5.153158285   6.534364277
Cu       3.688743549   3.453519560   6.506821200
Cu       5.533431111   5.154376557   6.534294542
Cu      -0.000622566   6.837047328   6.556785595
Cu       1.844544362   8.514440418   6.555916568
Cu       3.689489228   6.837469582   6.557142276
Cu       5.533367586   8.515077801   6.556311550
Cu       0.000003817  10.195605671   6.532837564
Cu       1.844441927  11.895806933   6.506566559
Cu       3.688865279  10.195387000   6.533371357
Cu       5.533471287  11.896164394   6.507061455
Cu      -0.000092708  13.611709196   6.488605309
Cu       1.844425021  15.335270790   6.479006661
Cu       3.688968637  13.611354721   6.488278256
Cu       5.533477577  15.335252880   6.478877106
Cu      -0.000790596   1.720216820   8.306770394
Cu       1.844150731   0.012723422   8.298839555
Cu       3.689650428   1.721252916   8.308316905
Cu       5.533746140   0.011024323   8.298625216
Cu       0.000444712   5.125269608   8.376315602
Cu       1.844447133   3.426787530   8.336241066
Cu       3.688440903   5.124498690   8.375199435
Cu       5.533471805   3.425227476   8.336577784
Cu       0.000572243   8.528167648   8.398853724
Cu       1.844349217   6.823912395   8.399222069
Cu       3.688306743   8.527978674   8.400806424
Cu       5.533573132   6.822585417   8.399260655
Cu      -0.000303808  11.924493824   8.335903661
Cu       1.844351093  10.224916224   8.376388433
Cu       3.689177743  11.925039776   8.335540825
Cu       5.533585730  10.224773693   8.376101193
Cu      -0.000372873  15.343301110   8.299069430
Cu       1.844143729  13.631476769   8.305419358
Cu       3.689237306  15.341923004   8.297215850
Cu       5.533764924  13.632872358   8.306412513
Cu      -0.000549278   0.001179276  10.147677836
Cu       1.843616793   1.686671460  10.145461588
Cu       3.689423109  -0.004269865  10.140617636
Cu       5.534314202   1.686269889  10.145135464
Cu       0.000033709   3.381283460  10.166051443
Cu       1.844523878   5.094319418  10.204397082
Cu       3.688845342   3.384063170  10.168276240
Cu       5.533388862   5.095564770  10.203417598
Cu       0.000339460   6.820422387  10.238519478
Cu       1.842493414   8.529701341  10.240053085
Cu       3.688516907   6.815270518  10.236648602
Cu       5.535315454   8.530369806  10.237635506
Cu       0.000597900  10.253555874  10.206178930
Cu       1.843657690  11.970925792  10.164377781
Cu       3.688236725  10.256557894  10.204287582
Cu       5.534253862  11.971059370  10.162935813
Cu      -0.000468365  13.670299636  10.139626338
Cu       1.843583692  15.355491723  10.142530652
Cu       3.689343498  13.671420049  10.138428716
Cu       5.534338499  15.356971829  10.142201306
Cu       0.000180354   1.666392899  12.003434522
Cu       1.841565674  -0.005030858  12.011227877
Cu       3.688703252   1.654490971  11.986311602
Cu       5.536420250  -0.004209612  12.009123378
Cu      -0.000073324   5.045105351  12.019737210
Cu       1.843671248   3.340388867  12.001947777
Cu       3.688906815   5.047473679  12.021562959
Cu       5.534163096   3.342702362  12.001614753
Cu      -0.000408549   8.561640564  12.065514475
Cu       1.839634622   6.784717604  12.056306901
Cu       3.688988102   8.554633712  12.042465862
Cu       5.538133263   6.786546245  12.052327840
Cu       0.000397210  12.017150855  11.994898927
Cu       1.838372653  10.307011144  12.016762441
Cu       3.688346866  12.018633323  11.988800754
Cu       5.539229092  10.303363286  12.017668485
Cu       0.000595741  15.358288372  12.010089424
Cu       1.844159029  13.697772309  11.993152917
Cu       3.688314025  15.360575883  12.008907768
Cu       5.533734985  13.698573731  11.989428205
Cu      -0.001163805  -0.014667122  13.877782789
Cu       1.841688474   1.641047368  13.900463209
Cu       3.690132280  -0.008872501  13.874738636
Cu       5.536108403   1.642815392  13.900855623
Cu      -0.000106501   3.277948448  13.889563007
Cu       1.835802389   4.938753131  13.901552523
Cu       3.689029424   3.283843914  13.852475915
Cu       5.541780329   4.947046973  13.904912899
Cu      -0.007004154   6.756374292  13.833095084
Cu       1.840585742   8.594848721  13.811592003
Cu       3.695251678   6.760435611  13.811451115
Cu       5.537359207   8.590016822  13.820142261
Cu      -0.000272596  10.428478874  13.919769125
Cu       1.857321000  12.078423200  13.865311940
Cu       3.689265136  10.388427370  13.864001045
Cu       5.520455699  12.075511118  13.861372073
Cu       0.000237282  13.708688256  13.898105530
Cu       1.843430096  15.368774088  13.876964735
Cu       3.688497451  13.719486215  13.898608647
Cu       5.534508637  15.364374273  13.874492010
Cu       1.891189158  10.300075240  15.582512280
Cu       5.485797304  10.299721424  15.580728971
Cu       0.001924299   8.566481484  15.528526723
Cu       1.842876574   6.814862360  15.527225201
Cu       3.687452406   8.528806580  15.528879453
Cu       5.535129435   6.819658743  15.542096560
Cu      -0.000032849   5.055766256  15.630679211
Cu       3.688957955   5.054013174  15.567833652
C        0.000309786   0.689838102  18.370934941
C        0.000291315   2.108779574  18.292012615
C        1.230125793  -0.019416166  18.403310495
C        1.231253901   2.815657612  18.270010300
C        2.460410524   0.688621019  18.377198733
C        2.459893586   2.107463034  18.311364012
C        3.689331706  -0.022170296  18.401019263
C        3.689337065   2.813387716  18.276202312
C        4.918249053   0.688604961  18.377133130
C        4.918734300   2.107488126  18.312382724
C        6.148558998  -0.019403266  18.403430541
C        6.147477958   2.815712744  18.272070453
C        0.000252135   4.949169967  18.195681339
C        0.000331716   6.372111841  18.278903697
C        1.232996392   4.234079125  18.228013927
C        1.228471351   7.080378476  18.299237304
C        2.458072338   4.946548575  18.239783154
C        2.459686445   6.368140696  18.272014600
C        3.689285908   4.234712900  18.226984241
C        3.689003500   7.075909831  18.294022930
C        4.920454963   4.946386568  18.239015553
C        4.918647495   6.368220274  18.267140225
C        6.145618720   4.234083690  18.229256649
C        6.149937699   7.080524279  18.295026198
C        0.000120911   9.212779325  18.305934568
C        0.000175692  10.633679546  18.286133155
C        1.230101459   8.500433605  18.321753683
C        1.227006511  11.344883415  18.263638866
C        2.457428076   9.206614282  18.283209066
C        2.458847524  10.629195155  18.225487570
C        3.689122434   8.495849363  18.276432362
C        3.689272836  11.342090206  18.222738496
C        4.920788339   9.206645865  18.284991492
C        4.919503578  10.629166978  18.227552735
C        6.148183118   8.500661840  18.322150526
C        6.151495221  11.344812961  18.264392533
C        0.000280735  13.472793647  18.333899862
C        0.000299935  14.891318376  18.391303581
C        1.228767744  12.763508295  18.297172014
C        1.230893194  15.599728017  18.407645425
C        2.460321753  13.469217401  18.305750319
C        2.459514994  14.888585176  18.373669210
C        3.689321534  12.757943521  18.273967406
C        3.689322292  15.596733798  18.401041445
C        4.918335442  13.469208543  18.305723585
C        4.919142383  14.888597809  18.373204052
C        6.149872566  12.763467084  18.297000739
C        6.147742296  15.599731284  18.407301057



     Writing output data file gc.save
     Check: negative starting charge=   -0.004367
     NEW-OLD atomic charge density approx. for the potential
     Check: negative starting charge=   -0.004375

     negative rho (up, down):  7.942E-04 0.000E+00

     total cpu time spent up to now is    49788.2 secs

     Self-consistent Calculation

     iteration #  1     ecut=    80.00 Ry     beta=0.70
     Davidson diagonalization with overlap
     c_bands:  2 eigenvalues not converged
     ethr =  1.00E-06,  avg # of iterations = 14.5

     negative rho (up, down):  1.861E-05 0.000E+00

     total cpu time spent up to now is    50483.3 secs

     total energy              =  -13670.92355928 Ry
     Harris-Foulkes estimate   =  -13670.95617539 Ry
     estimated scf accuracy    <       0.37026067 Ry

     iteration #  2     ecut=    80.00 Ry     beta=0.70
     Davidson diagonalization with overlap
     ethr =  2.68E-05,  avg # of iterations =  2.2

     negative rho (up, down):  7.858E-06 0.000E+00

     total cpu time spent up to now is    50653.7 secs

     total energy              =  -13670.92341992 Ry
     Harris-Foulkes estimate   =  -13670.93944325 Ry
     estimated scf accuracy    <       0.05946957 Ry

     iteration #  3     ecut=    80.00 Ry     beta=0.70
     Davidson diagonalization with overlap
     ethr =  4.31E-06,  avg # of iterations =  6.5

     negative rho (up, down):  2.130E-06 0.000E+00

     total cpu time spent up to now is    50903.5 secs

     total energy              =  -13670.92647106 Ry
     Harris-Foulkes estimate   =  -13670.93519745 Ry
     estimated scf accuracy    <       0.10954850 Ry

     iteration #  4     ecut=    80.00 Ry     beta=0.70
     Davidson diagonalization with overlap
     ethr =  4.31E-06,  avg # of iterations =  5.2

     negative rho (up, down):  1.739E-06 0.000E+00

     total cpu time spent up to now is    51115.3 secs

     total energy              =  -13670.93019279 Ry
     Harris-Foulkes estimate   =  -13670.93044437 Ry
     estimated scf accuracy    <       0.00284518 Ry

     iteration #  5     ecut=    80.00 Ry     beta=0.70
     Davidson diagonalization with overlap
     ethr =  2.06E-07,  avg # of iterations =  3.5

     negative rho (up, down):  1.119E-06 0.000E+00

     total cpu time spent up to now is    51307.2 secs

     total energy              =  -13670.93007862 Ry
     Harris-Foulkes estimate   =  -13670.93035045 Ry
     estimated scf accuracy    <       0.00199717 Ry

     iteration #  6     ecut=    80.00 Ry     beta=0.70
     Davidson diagonalization with overlap
     ethr =  1.45E-07,  avg # of iterations =  6.3

     negative rho (up, down):  2.166E-06 0.000E+00

     total cpu time spent up to now is    51537.9 secs

     total energy              =  -13670.93017085 Ry
     Harris-Foulkes estimate   =  -13670.93016864 Ry
     estimated scf accuracy    <       0.00050354 Ry

     iteration #  7     ecut=    80.00 Ry     beta=0.70
     Davidson diagonalization with overlap
     ethr =  3.65E-08,  avg # of iterations =  2.3

     negative rho (up, down):  3.818E-06 0.000E+00

     total cpu time spent up to now is    51708.0 secs

     total energy              =  -13670.93024070 Ry
     Harris-Foulkes estimate   =  -13670.93020352 Ry
     estimated scf accuracy    <       0.00021121 Ry

     iteration #  8     ecut=    80.00 Ry     beta=0.70
     Davidson diagonalization with overlap
