
     Program PWSCF v.5.4.0 starts on 12Apr2017 at  8:12:34 

     This program is part of the open-source Quantum ESPRESSO suite
     for quantum simulation of materials; please cite
         "P. Giannozzi et al., J. Phys.:Condens. Matter 21 395502 (2009);
          URL http://www.quantum-espresso.org", 
     in publications or presentations arising from this work. More details at
     http://www.quantum-espresso.org/quote

     Parallel version (MPI & OpenMP), running on      56 processor cores
     Number of MPI processes:                56
     Threads/MPI process:                     1
     R & G space division:  proc/nbgrp/npool/nimage =      56
     Waiting for input...
     Reading input from standard input

     Current dimensions of program PWSCF are:
     Max number of different atomic species (ntypx) = 10
     Max number of k-points (npk) =  40000
     Max angular momentum in pseudopotentials (lmaxx) =  3

     -------------------------------------
     Parameters for Dispersion Correction:
     -------------------------------------
       atom      VdW radius       C_6     

        Cu         2.952        374.666
        C          2.744         60.710

     Subspace diagonalization in iterative solution of the eigenvalue problem:
     one sub-group per band group will be used
     scalapack distributed-memory algorithm (size of sub-group:  5*  5 procs)

 
     Parallelization info
     --------------------
     sticks:   dense  smooth     PW     G-vecs:    dense   smooth      PW
     Min         204     204     54                36612    36612    4962
     Max         205     205     55                36617    36617    4968
     Sum       11433   11433   3039              2050409  2050409  278033
 


     bravais-lattice index     =            0
     lattice parameter (alat)  =      13.9425  a.u.
     unit-cell volume          =   21209.0878 (a.u.)^3
     number of atoms/cell      =          156
     number of atomic types    =            2
     number of electrons       =      1380.00
     number of Kohn-Sham states=          828
     kinetic-energy cutoff     =      80.0000  Ry
     charge density cutoff     =     320.0000  Ry
     convergence threshold     =      1.0E-08
     mixing beta               =       0.7000
     number of iterations used =            8  local-TF  mixing
     Exchange-correlation      =  SLA  PW   PBX  PBC ( 1  4  3  4 0 0)
     nstep                     =           50


     celldm(1)=  13.942539  celldm(2)=   0.000000  celldm(3)=   0.000000
     celldm(4)=   0.000000  celldm(5)=   0.000000  celldm(6)=   0.000000

     crystal axes: (cart. coord. in units of alat)
               a(1) = (   1.000000   0.000000   0.000000 )  
               a(2) = (   0.000000   2.309401   0.000000 )  
               a(3) = (   0.000000   0.000000   3.388418 )  

     reciprocal axes: (cart. coord. in units 2 pi/alat)
               b(1) = (  1.000000  0.000000  0.000000 )  
               b(2) = (  0.000000  0.433013  0.000000 )  
               b(3) = (  0.000000  0.000000  0.295123 )  


     PseudoPot. # 1 for Cu read from file:
     /home/549/hxw549/Short/pseudopotentials/Cu.pbe-n-van_ak.UPF
     MD5 check sum: 601f7c30f7467666bec936e0661ce3e1
     Pseudo is Ultrasoft + core correction, Zval = 11.0
     Generated by new atomic code, or converted to UPF format
     Using radial grid of  867 points,  6 beta functions with: 
                l(1) =   0
                l(2) =   0
                l(3) =   1
                l(4) =   1
                l(5) =   2
                l(6) =   2
     Q(r) pseudized with  8 coefficients,  rinner =    1.400   1.400   1.400
                                                       1.400   1.400

     PseudoPot. # 2 for C  read from file:
     /home/549/hxw549/Short/pseudopotentials/C.pbe-mt_gipaw.UPF
     MD5 check sum: 5ac2f21f2c440b14befe521540822c15
     Pseudo is Norm-conserving, Zval =  4.0
     Generated by new atomic code, or converted to UPF format
     Using radial grid of 1073 points,  1 beta functions with: 
                l(1) =   0

     atomic species   valence    mass     pseudopotential
        Cu            11.00    63.54600     Cu( 1.00)
        C              4.00    12.01070     C ( 1.00)

     No symmetry found



   Cartesian axes

     site n.     atom                  positions (alat units)
         1           Cu  tau(   1) = (  -0.0000899   0.0041186   0.8788488  )
         2           Cu  tau(   2) = (   0.2498331   0.2367233   0.8841381  )
         3           Cu  tau(   3) = (   0.5000278   0.0040838   0.8783724  )
         4           Cu  tau(   4) = (   0.7500976   0.2368695   0.8840229  )
         5           Cu  tau(   5) = (   0.0000082   0.4674372   0.8909825  )
         6           Cu  tau(   6) = (   0.2499876   0.6975995   0.8946439  )
         7           Cu  tau(   7) = (   0.4999172   0.4673702   0.8908781  )
         8           Cu  tau(   8) = (   0.7499343   0.6977603   0.8946006  )
         9           Cu  tau(   9) = (   0.0000079   0.9274708   0.8944834  )
        10           Cu  tau(  10) = (   0.2499027   1.1564743   0.8948513  )
        11           Cu  tau(  11) = (   0.4999027   0.9272865   0.8944339  )
        12           Cu  tau(  12) = (   0.7500090   1.1564352   0.8946709  )
        13           Cu  tau(  13) = (  -0.0000942   1.3864978   0.8951617  )
        14           Cu  tau(  14) = (   0.2499618   1.6170365   0.8912794  )
        15           Cu  tau(  15) = (   0.5000048   1.3866418   0.8950417  )
        16           Cu  tau(  16) = (   0.7499543   1.6170083   0.8910631  )
        17           Cu  tau(  17) = (  -0.0000540   1.8477995   0.8838981  )
        18           Cu  tau(  18) = (   0.2500753   2.0801536   0.8784493  )
        19           Cu  tau(  19) = (   0.4999799   1.8475016   0.8841446  )
        20           Cu  tau(  20) = (   0.7498602   2.0801227   0.8786507  )
        21           Cu  tau(  21) = (   0.0000333   0.2323400   1.1334413  )
        22           Cu  tau(  22) = (   0.2499238   0.0020428   1.1300976  )
        23           Cu  tau(  23) = (   0.4998911   0.2322937   1.1330334  )
        24           Cu  tau(  24) = (   0.7499955   0.0021787   1.1300682  )
        25           Cu  tau(  25) = (  -0.0001599   0.6959664   1.1435238  )
        26           Cu  tau(  26) = (   0.2500148   0.4638502   1.1387753  )
        27           Cu  tau(  27) = (   0.5000772   0.6962708   1.1436970  )
        28           Cu  tau(  28) = (   0.7499170   0.4636635   1.1387951  )
        29           Cu  tau(  29) = (  -0.0002038   1.1566337   1.1458696  )
        30           Cu  tau(  30) = (   0.2500114   0.9269161   1.1458124  )
        31           Cu  tau(  31) = (   0.5001204   1.1567619   1.1455182  )
        32           Cu  tau(  32) = (   0.7499000   0.9268887   1.1459153  )
        33           Cu  tau(  33) = (  -0.0000524   1.6211639   1.1384430  )
        34           Cu  tau(  34) = (   0.2499898   1.3882301   1.1431059  )
        35           Cu  tau(  35) = (   0.4999589   1.6207511   1.1386958  )
        36           Cu  tau(  36) = (   0.7499243   1.3881004   1.1433375  )
        37           Cu  tau(  37) = (  -0.0001554   2.0815449   1.1302046  )
        38           Cu  tau(  38) = (   0.2500120   1.8522307   1.1334041  )
        39           Cu  tau(  39) = (   0.5000754   2.0822314   1.1302440  )
        40           Cu  tau(  40) = (   0.7499021   1.8519513   1.1331894  )
        41           Cu  tau(  41) = (  -0.0000959   0.0014836   1.3834572  )
        42           Cu  tau(  42) = (   0.2498347   0.2296474   1.3857682  )
        43           Cu  tau(  43) = (   0.5000087   0.0020496   1.3836991  )
        44           Cu  tau(  44) = (   0.7500981   0.2297256   1.3857995  )
        45           Cu  tau(  45) = (   0.0000072   0.4596648   1.3881169  )
        46           Cu  tau(  46) = (   0.2501663   0.6915377   1.3919731  )
        47           Cu  tau(  47) = (   0.4999132   0.4593673   1.3879170  )
        48           Cu  tau(  48) = (   0.7497474   0.6915423   1.3921364  )
        49           Cu  tau(  49) = (  -0.0002631   0.9249769   1.3972433  )
        50           Cu  tau(  50) = (   0.2500056   1.1591617   1.3966127  )
        51           Cu  tau(  51) = (   0.5002142   0.9252621   1.3975069  )
        52           Cu  tau(  52) = (   0.7499221   1.1590981   1.3972331  )
        53           Cu  tau(  53) = (  -0.0001744   1.3928551   1.3910606  )
        54           Cu  tau(  54) = (   0.2500898   1.6245608   1.3877230  )
        55           Cu  tau(  55) = (   0.5001090   1.3924056   1.3915895  )
        56           Cu  tau(  56) = (   0.7498334   1.6248983   1.3876876  )
        57           Cu  tau(  57) = (  -0.0000308   1.8545023   1.3862711  )
        58           Cu  tau(  58) = (   0.2499174   2.0826005   1.3835970  )
        59           Cu  tau(  59) = (   0.4999337   1.8546419   1.3854562  )
        60           Cu  tau(  60) = (   0.7499665   2.0823353   1.3838230  )
        61           Cu  tau(  61) = (   0.0000413   0.2288074   1.6380833  )
        62           Cu  tau(  62) = (   0.2501490   0.0003747   1.6371906  )
        63           Cu  tau(  63) = (   0.4998525   0.2284700   1.6386625  )
        64           Cu  tau(  64) = (   0.7497513   0.0003845   1.6371214  )
        65           Cu  tau(  65) = (   0.0000655   0.6849683   1.6416842  )
        66           Cu  tau(  66) = (   0.2499175   0.4567526   1.6387346  )
        67           Cu  tau(  67) = (   0.4999062   0.6841156   1.6420639  )
        68           Cu  tau(  68) = (   0.7499965   0.4565569   1.6385884  )
        69           Cu  tau(  69) = (  -0.0000343   1.1644707   1.6425237  )
        70           Cu  tau(  70) = (   0.2503900   0.9210469   1.6422040  )
        71           Cu  tau(  71) = (   0.4999731   1.1637166   1.6431589  )
        72           Cu  tau(  72) = (   0.7495644   0.9205850   1.6431720  )
        73           Cu  tau(  73) = (   0.0000471   1.6272786   1.6381262  )
        74           Cu  tau(  74) = (   0.2502214   1.3995992   1.6414250  )
        75           Cu  tau(  75) = (   0.4998848   1.6278921   1.6380670  )
        76           Cu  tau(  76) = (   0.7497296   1.4002633   1.6415779  )
        77           Cu  tau(  77) = (  -0.0000364   2.0840991   1.6375803  )
        78           Cu  tau(  78) = (   0.2496597   1.8553297   1.6379265  )
        79           Cu  tau(  79) = (   0.4999294   2.0833983   1.6366923  )
        80           Cu  tau(  80) = (   0.7502400   1.8552823   1.6386734  )
        81           Cu  tau(  81) = (   0.0003765   0.0012204   1.8920762  )
        82           Cu  tau(  82) = (   0.2502288   0.2247058   1.8908649  )
        83           Cu  tau(  83) = (   0.4995064  -0.0012196   1.8920417  )
        84           Cu  tau(  84) = (   0.7496817   0.2242658   1.8910437  )
        85           Cu  tau(  85) = (   0.0001835   0.4465095   1.8987244  )
        86           Cu  tau(  86) = (   0.2498683   0.6741077   1.8971254  )
        87           Cu  tau(  87) = (   0.4997809   0.4466119   1.8986550  )
        88           Cu  tau(  88) = (   0.7500053   0.6731440   1.8969809  )
        89           Cu  tau(  89) = (   0.0006732   0.9202006   1.8804740  )
        90           Cu  tau(  90) = (   0.2500942   1.1660750   1.8814754  )
        91           Cu  tau(  91) = (   0.4991582   0.9178455   1.8815775  )
        92           Cu  tau(  92) = (   0.7498777   1.1662962   1.8807351  )
        93           Cu  tau(  93) = (  -0.0000722   1.4117862   1.8979977  )
        94           Cu  tau(  94) = (   0.2502347   1.6379803   1.8982544  )
        95           Cu  tau(  95) = (   0.5001123   1.4114991   1.8968350  )
        96           Cu  tau(  96) = (   0.7496829   1.6381273   1.8995212  )
        97           Cu  tau(  97) = (  -0.0001093   1.8589801   1.8909965  )
        98           Cu  tau(  98) = (   0.2487996   2.0835663   1.8914032  )
        99           Cu  tau(  99) = (   0.4999566   1.8600961   1.8901442  )
       100           Cu  tau( 100) = (   0.7510890   2.0841775   1.8922481  )
       101           Cu  tau( 101) = (   0.2528307   1.3909764   2.1291091  )
       102           Cu  tau( 102) = (   0.7471404   1.3908495   2.1293914  )
       103           Cu  tau( 103) = (  -0.0006309   1.1573506   2.1159813  )
       104           Cu  tau( 104) = (   0.2503380   0.9296717   2.1181795  )
       105           Cu  tau( 105) = (   0.5005550   1.1555458   2.1159801  )
       106           Cu  tau( 106) = (   0.7495967   0.9288165   2.1150621  )
       107           Cu  tau( 107) = (   0.0001138   0.6964546   2.1283827  )
       108           Cu  tau( 108) = (   0.4997835   0.6925980   2.1285141  )
       109           C   tau( 109) = (   0.0000667   0.0901650   2.4409949  )
       110           C   tau( 110) = (   0.0000776   0.2827973   2.4461572  )
       111           C   tau( 111) = (   0.1667449  -0.0063990   2.4390763  )
       112           C   tau( 112) = (   0.1668471   0.3789082   2.4494379  )
       113           C   tau( 113) = (   0.3334341   0.0900579   2.4394956  )
       114           C   tau( 114) = (   0.3334831   0.2827187   2.4437493  )
       115           C   tau( 115) = (   0.5000647  -0.0064765   2.4381026  )
       116           C   tau( 116) = (   0.5000819   0.3785770   2.4467051  )
       117           C   tau( 117) = (   0.6667014   0.0900602   2.4392123  )
       118           C   tau( 118) = (   0.6666763   0.2827220   2.4435428  )
       119           C   tau( 119) = (   0.8333847  -0.0063962   2.4388441  )
       120           C   tau( 120) = (   0.8333046   0.3789112   2.4493904  )
       121           C   tau( 121) = (   0.0000826   0.6676619   2.4663107  )
       122           C   tau( 122) = (   0.0000755   0.8599744   2.4846477  )
       123           C   tau( 123) = (   0.1671848   0.5708439   2.4622612  )
       124           C   tau( 124) = (   0.1665731   0.9557202   2.4908920  )
       125           C   tau( 125) = (   0.3330693   0.6673475   2.4693566  )
       126           C   tau( 126) = (   0.3334645   0.8595094   2.4852933  )
       127           C   tau( 127) = (   0.5001002   0.5715285   2.4572114  )
       128           C   tau( 128) = (   0.5001256   0.9552080   2.4915738  )
       129           C   tau( 129) = (   0.6671195   0.6673760   2.4693929  )
       130           C   tau( 130) = (   0.6667600   0.8595053   2.4854893  )
       131           C   tau( 131) = (   0.8329926   0.5708396   2.4623799  )
       132           C   tau( 132) = (   0.8336134   0.9556991   2.4911513  )
       133           C   tau( 133) = (   0.0000977   1.2441045   2.4835314  )
       134           C   tau( 134) = (   0.0001034   1.4363682   2.4693551  )
       135           C   tau( 135) = (   0.1668507   1.1479744   2.4907973  )
       136           C   tau( 136) = (   0.1663079   1.5323996   2.4585664  )
       137           C   tau( 137) = (   0.3332677   1.2435365   2.4843994  )
       138           C   tau( 138) = (   0.3335596   1.4357750   2.4655322  )
       139           C   tau( 139) = (   0.5001115   1.1474607   2.4904645  )
       140           C   tau( 140) = (   0.5001027   1.5326049   2.4612950  )
       141           C   tau( 141) = (   0.6669444   1.2435257   2.4845081  )
       142           C   tau( 142) = (   0.6666564   1.4357596   2.4654375  )
       143           C   tau( 143) = (   0.8333619   1.1479361   2.4908598  )
       144           C   tau( 144) = (   0.8338958   1.5323847   2.4583437  )
       145           C   tau( 145) = (   0.0000922   1.8210953   2.4430161  )
       146           C   tau( 146) = (   0.0000700   2.0138302   2.4392209  )
       147           C   tau( 147) = (   0.1666609   1.7249712   2.4475685  )
       148           C   tau( 148) = (   0.1668014   2.1102215   2.4388790  )
       149           C   tau( 149) = (   0.3333713   1.8208631   2.4458982  )
       150           C   tau( 150) = (   0.3334020   2.0135691   2.4410554  )
       151           C   tau( 151) = (   0.5000976   1.7244085   2.4501040  )
       152           C   tau( 152) = (   0.5000752   2.1101024   2.4391280  )
       153           C   tau( 153) = (   0.6668157   1.8208603   2.4457874  )
       154           C   tau( 154) = (   0.6667406   2.0135689   2.4411152  )
       155           C   tau( 155) = (   0.8335276   1.7249607   2.4473359  )
       156           C   tau( 156) = (   0.8333482   2.1102224   2.4388641  )

     number of k points=     6  gaussian smearing, width (Ry)=  0.1000
                       cart. coord. in units 2pi/alat
        k(    1) = (   0.0000000   0.0000000   0.0000000), wk =   0.2500000
        k(    2) = (   0.0000000  -0.2165064   0.0000000), wk =   0.2500000
        k(    3) = (   0.2500000   0.0000000   0.0000000), wk =   0.5000000
        k(    4) = (   0.2500000  -0.2165064   0.0000000), wk =   0.5000000
        k(    5) = (  -0.5000000   0.0000000   0.0000000), wk =   0.2500000
        k(    6) = (  -0.5000000  -0.2165064   0.0000000), wk =   0.2500000

     Dense  grid:  2050409 G-vectors     FFT dimensions: (  80, 192, 270)

     Largest allocated arrays     est. size (Mb)     dimensions
        Kohn-Sham Wavefunctions        58.17 Mb     (    4604,  828)
        NL pseudopotentials           139.94 Mb     (    4604, 1992)
        Each V/rho on FFT grid          1.17 Mb     (   76800)
        Each G-vector array             0.28 Mb     (   36616)
        G-vector shells                 0.14 Mb     (   17932)
     Largest temporary arrays     est. size (Mb)     dimensions
        Auxiliary wavefunctions       232.67 Mb     (    4604, 3312)
        Each subspace H/S matrix        6.69 Mb     (     662,  662)
        Each <psi_i|beta_j> matrix     25.17 Mb     (    1992,  828)
        Arrays for rho mixing           9.38 Mb     (   76800,    8)

     Initial potential from superposition of free atoms
     Check: negative starting charge=   -0.001497

     starting charge 1354.72292, renormalised to 1380.00000

     negative rho (up, down):  1.525E-03 0.000E+00
     Starting wfc are 1356 randomized atomic wfcs

     total cpu time spent up to now is      115.6 secs

     Self-consistent Calculation

     iteration #  1     ecut=    80.00 Ry     beta=0.70
     Davidson diagonalization with overlap
     c_bands:  3 eigenvalues not converged
     c_bands:  2 eigenvalues not converged
     c_bands:  4 eigenvalues not converged
     ethr =  1.00E-04,  avg # of iterations = 33.7

     negative rho (up, down):  2.666E+01 0.000E+00

     total cpu time spent up to now is     2342.4 secs

     total energy              =  -10634.16557774 Ry
     Harris-Foulkes estimate   =  -18953.30257479 Ry
     estimated scf accuracy    <  218391.58259607 Ry

     iteration #  2     ecut=    80.00 Ry     beta=0.70
     Davidson diagonalization with overlap
     ethr =  1.00E-02,  avg # of iterations = 15.8

     negative rho (up, down):  3.123E+01 0.000E+00

     total cpu time spent up to now is     3540.6 secs

     total energy              =  -13084.53953031 Ry
     Harris-Foulkes estimate   =  -14617.11567334 Ry
     estimated scf accuracy    <   20080.27764069 Ry

     iteration #  3     ecut=    80.00 Ry     beta=0.70
     Davidson diagonalization with overlap
     ethr =  1.00E-02,  avg # of iterations =  6.0

     negative rho (up, down):  3.447E+01 0.000E+00

     total cpu time spent up to now is     4098.0 secs

     total energy              =  -13559.21437279 Ry
     Harris-Foulkes estimate   =  -14427.42154440 Ry
     estimated scf accuracy    <   16458.00214199 Ry

     iteration #  4     ecut=    80.00 Ry     beta=0.70
     Davidson diagonalization with overlap
     ethr =  1.00E-02,  avg # of iterations =  6.0

     negative rho (up, down):  2.670E+01 0.000E+00

     total cpu time spent up to now is     4700.7 secs

     total energy              =  -13695.94127009 Ry
     Harris-Foulkes estimate   =  -14132.69874121 Ry
     estimated scf accuracy    <    1952.32754938 Ry

     iteration #  5     ecut=    80.00 Ry     beta=0.70
     Davidson diagonalization with overlap
     ethr =  1.00E-02,  avg # of iterations =  4.0

     negative rho (up, down):  1.700E+01 0.000E+00

     total cpu time spent up to now is     5064.3 secs

     total energy              =  -13813.03468475 Ry
     Harris-Foulkes estimate   =  -13930.50259010 Ry
     estimated scf accuracy    <     666.96437422 Ry

     iteration #  6     ecut=    80.00 Ry     beta=0.70
     Davidson diagonalization with overlap
     ethr =  1.00E-02,  avg # of iterations =  2.0

     negative rho (up, down):  1.010E+01 0.000E+00

     total cpu time spent up to now is     5292.1 secs

     total energy              =  -13790.56720505 Ry
     Harris-Foulkes estimate   =  -13832.44549793 Ry
     estimated scf accuracy    <     342.07929191 Ry

     iteration #  7     ecut=    80.00 Ry     beta=0.70
     Davidson diagonalization with overlap
     ethr =  1.00E-02,  avg # of iterations =  1.8

     negative rho (up, down):  9.562E+00 0.000E+00

     total cpu time spent up to now is     5487.0 secs

     total energy              =  -13787.51460701 Ry
     Harris-Foulkes estimate   =  -13797.40887292 Ry
     estimated scf accuracy    <     373.29448934 Ry

     iteration #  8     ecut=    80.00 Ry     beta=0.70
     Davidson diagonalization with overlap
     ethr =  1.00E-02,  avg # of iterations =  1.0

     negative rho (up, down):  6.029E+00 0.000E+00

     total cpu time spent up to now is     5670.8 secs

     total energy              =  -13755.43582844 Ry
     Harris-Foulkes estimate   =  -13790.62322793 Ry
     estimated scf accuracy    <     250.27142988 Ry

     iteration #  9     ecut=    80.00 Ry     beta=0.70
     Davidson diagonalization with overlap
     ethr =  1.00E-02,  avg # of iterations =  1.0

     negative rho (up, down):  2.992E+00 0.000E+00

     total cpu time spent up to now is     5854.3 secs

     total energy              =  -13729.55560604 Ry
     Harris-Foulkes estimate   =  -13758.27054670 Ry
     estimated scf accuracy    <     181.30211787 Ry

     iteration # 10     ecut=    80.00 Ry     beta=0.70
     Davidson diagonalization with overlap
     ethr =  1.00E-02,  avg # of iterations =  1.0

     negative rho (up, down):  4.681E+00 0.000E+00

     total cpu time spent up to now is     6037.1 secs

     total energy              =  -13689.50043305 Ry
     Harris-Foulkes estimate   =  -13731.25330729 Ry
     estimated scf accuracy    <     124.37979859 Ry

     iteration # 11     ecut=    80.00 Ry     beta=0.70
     Davidson diagonalization with overlap
     ethr =  9.01E-03,  avg # of iterations =  2.0

     negative rho (up, down):  9.730E+00 0.000E+00

     total cpu time spent up to now is     6234.3 secs

     total energy              =  -13684.15252714 Ry
     Harris-Foulkes estimate   =  -13699.07973139 Ry
     estimated scf accuracy    <     333.47882245 Ry

     iteration # 12     ecut=    80.00 Ry     beta=0.70
     Davidson diagonalization with overlap
     ethr =  9.01E-03,  avg # of iterations =  1.0

     negative rho (up, down):  9.637E+00 0.000E+00

     total cpu time spent up to now is     6417.4 secs

     total energy              =  -13677.14754546 Ry
     Harris-Foulkes estimate   =  -13692.69595575 Ry
     estimated scf accuracy    <     263.38943542 Ry

     iteration # 13     ecut=    80.00 Ry     beta=0.70
     Davidson diagonalization with overlap
     ethr =  9.01E-03,  avg # of iterations =  1.3

     negative rho (up, down):  7.798E+00 0.000E+00

     total cpu time spent up to now is     6605.2 secs

     total energy              =  -13679.47132993 Ry
     Harris-Foulkes estimate   =  -13686.71063122 Ry
     estimated scf accuracy    <      49.55028510 Ry

     iteration # 14     ecut=    80.00 Ry     beta=0.70
     Davidson diagonalization with overlap
     ethr =  3.59E-03,  avg # of iterations =  2.0

     negative rho (up, down):  6.220E+00 0.000E+00

     total cpu time spent up to now is     6804.1 secs

     total energy              =  -13678.87517786 Ry
     Harris-Foulkes estimate   =  -13683.01690978 Ry
     estimated scf accuracy    <      22.16257128 Ry

     iteration # 15     ecut=    80.00 Ry     beta=0.70
     Davidson diagonalization with overlap
     ethr =  1.61E-03,  avg # of iterations =  3.3

     negative rho (up, down):  6.772E+00 0.000E+00

     total cpu time spent up to now is     7019.4 secs

     total energy              =  -13679.13946653 Ry
     Harris-Foulkes estimate   =  -13680.15119295 Ry
     estimated scf accuracy    <      16.59394942 Ry

     iteration # 16     ecut=    80.00 Ry     beta=0.70
     Davidson diagonalization with overlap
     ethr =  1.20E-03,  avg # of iterations =  7.7

     negative rho (up, down):  4.203E+00 0.000E+00

     total cpu time spent up to now is     7296.0 secs

     total energy              =  -13677.62403874 Ry
     Harris-Foulkes estimate   =  -13679.41257797 Ry
     estimated scf accuracy    <      11.71618177 Ry

     iteration # 17     ecut=    80.00 Ry     beta=0.70
     Davidson diagonalization with overlap
     ethr =  8.49E-04,  avg # of iterations =  1.8

     negative rho (up, down):  2.963E+00 0.000E+00

     total cpu time spent up to now is     7490.9 secs

     total energy              =  -13676.17483956 Ry
     Harris-Foulkes estimate   =  -13677.81960047 Ry
     estimated scf accuracy    <      12.85996326 Ry

     iteration # 18     ecut=    80.00 Ry     beta=0.70
     Davidson diagonalization with overlap
     ethr =  8.49E-04,  avg # of iterations =  1.5

     negative rho (up, down):  1.760E+00 0.000E+00

     total cpu time spent up to now is     7680.5 secs

     total energy              =  -13673.97209614 Ry
     Harris-Foulkes estimate   =  -13676.28026592 Ry
     estimated scf accuracy    <       9.50069724 Ry

     iteration # 19     ecut=    80.00 Ry     beta=0.70
     Davidson diagonalization with overlap
     ethr =  6.88E-04,  avg # of iterations =  1.0

     negative rho (up, down):  9.191E-01 0.000E+00

     total cpu time spent up to now is     7863.8 secs

     total energy              =  -13672.47343328 Ry
     Harris-Foulkes estimate   =  -13674.16632688 Ry
     estimated scf accuracy    <       8.34817725 Ry

     iteration # 20     ecut=    80.00 Ry     beta=0.70
     Davidson diagonalization with overlap
     ethr =  6.05E-04,  avg # of iterations =  4.2

     negative rho (up, down):  3.119E-01 0.000E+00

     total cpu time spent up to now is     8090.4 secs

     total energy              =  -13671.62861287 Ry
     Harris-Foulkes estimate   =  -13672.76313793 Ry
     estimated scf accuracy    <       5.05508291 Ry

     iteration # 21     ecut=    80.00 Ry     beta=0.70
     Davidson diagonalization with overlap
     ethr =  3.66E-04,  avg # of iterations =  2.7

     negative rho (up, down):  1.053E+00 0.000E+00

     total cpu time spent up to now is     8296.9 secs

     total energy              =  -13671.14725618 Ry
     Harris-Foulkes estimate   =  -13671.78797034 Ry
     estimated scf accuracy    <       2.62071601 Ry

     iteration # 22     ecut=    80.00 Ry     beta=0.70
     Davidson diagonalization with overlap
     ethr =  1.90E-04,  avg # of iterations =  8.5

     negative rho (up, down):  7.994E-01 0.000E+00

     total cpu time spent up to now is     8608.4 secs

     total energy              =  -13670.99653263 Ry
     Harris-Foulkes estimate   =  -13671.28429418 Ry
     estimated scf accuracy    <       1.58534309 Ry

     iteration # 23     ecut=    80.00 Ry     beta=0.70
     Davidson diagonalization with overlap
     ethr =  1.15E-04,  avg # of iterations =  7.3

     negative rho (up, down):  8.962E-01 0.000E+00

     total cpu time spent up to now is     8894.9 secs

     total energy              =  -13670.98276108 Ry
     Harris-Foulkes estimate   =  -13671.08563142 Ry
     estimated scf accuracy    <       0.71487716 Ry

     iteration # 24     ecut=    80.00 Ry     beta=0.70
     Davidson diagonalization with overlap
     ethr =  5.18E-05,  avg # of iterations =  7.2

     negative rho (up, down):  6.184E-01 0.000E+00

     total cpu time spent up to now is     9177.4 secs

     total energy              =  -13670.96429032 Ry
     Harris-Foulkes estimate   =  -13671.04117048 Ry
     estimated scf accuracy    <       0.45260534 Ry

     iteration # 25     ecut=    80.00 Ry     beta=0.70
     Davidson diagonalization with overlap
     ethr =  3.28E-05,  avg # of iterations =  5.0

     negative rho (up, down):  2.813E-01 0.000E+00

     total cpu time spent up to now is     9427.2 secs

     total energy              =  -13670.95588269 Ry
     Harris-Foulkes estimate   =  -13670.98191676 Ry
     estimated scf accuracy    <       0.12998188 Ry

     iteration # 26     ecut=    80.00 Ry     beta=0.70
     Davidson diagonalization with overlap
     ethr =  9.42E-06,  avg # of iterations = 11.0

     negative rho (up, down):  1.800E-01 0.000E+00

     total cpu time spent up to now is     9785.3 secs

     total energy              =  -13670.95896996 Ry
     Harris-Foulkes estimate   =  -13670.96550074 Ry
     estimated scf accuracy    <       0.02779701 Ry

     iteration # 27     ecut=    80.00 Ry     beta=0.70
     Davidson diagonalization with overlap
     c_bands:  2 eigenvalues not converged
     c_bands:  2 eigenvalues not converged
     ethr =  2.01E-06,  avg # of iterations = 14.2

     negative rho (up, down):  9.625E-02 0.000E+00

     total cpu time spent up to now is    10180.5 secs

     total energy              =  -13670.96017102 Ry
     Harris-Foulkes estimate   =  -13670.96157395 Ry
     estimated scf accuracy    <       0.01110062 Ry

     iteration # 28     ecut=    80.00 Ry     beta=0.70
     Davidson diagonalization with overlap
     c_bands:  1 eigenvalues not converged
     ethr =  8.04E-07,  avg # of iterations = 13.0

     negative rho (up, down):  4.496E-02 0.000E+00

     total cpu time spent up to now is    10570.5 secs

     total energy              =  -13670.96017110 Ry
     Harris-Foulkes estimate   =  -13670.96113910 Ry
     estimated scf accuracy    <       0.00300898 Ry

     iteration # 29     ecut=    80.00 Ry     beta=0.70
     Davidson diagonalization with overlap
     c_bands:  1 eigenvalues not converged
     c_bands:  1 eigenvalues not converged
     ethr =  2.18E-07,  avg # of iterations = 13.2

     negative rho (up, down):  3.366E-02 0.000E+00

     total cpu time spent up to now is    10957.8 secs

     total energy              =  -13670.96003428 Ry
     Harris-Foulkes estimate   =  -13670.96040134 Ry
     estimated scf accuracy    <       0.00113317 Ry

     iteration # 30     ecut=    80.00 Ry     beta=0.70
     Davidson diagonalization with overlap
     ethr =  8.21E-08,  avg # of iterations =  7.7

     negative rho (up, down):  2.455E-02 0.000E+00

     total cpu time spent up to now is    11251.3 secs

     total energy              =  -13670.95994776 Ry
     Harris-Foulkes estimate   =  -13670.96011278 Ry
     estimated scf accuracy    <       0.00035230 Ry

     iteration # 31     ecut=    80.00 Ry     beta=0.70
     Davidson diagonalization with overlap
     ethr =  2.55E-08,  avg # of iterations =  5.8

     negative rho (up, down):  1.329E-02 0.000E+00

     total cpu time spent up to now is    11513.4 secs

     total energy              =  -13670.95973977 Ry
     Harris-Foulkes estimate   =  -13670.95997243 Ry
     estimated scf accuracy    <       0.00020054 Ry

     iteration # 32     ecut=    80.00 Ry     beta=0.70
     Davidson diagonalization with overlap
     c_bands:  1 eigenvalues not converged
     ethr =  1.45E-08,  avg # of iterations =  8.3

     negative rho (up, down):  7.027E-03 0.000E+00

     total cpu time spent up to now is    11812.8 secs

     total energy              =  -13670.95962345 Ry
     Harris-Foulkes estimate   =  -13670.95975483 Ry
     estimated scf accuracy    <       0.00007339 Ry

     iteration # 33     ecut=    80.00 Ry     beta=0.70
     Davidson diagonalization with overlap
     c_bands:  2 eigenvalues not converged
     ethr =  5.32E-09,  avg # of iterations = 10.2

     negative rho (up, down):  3.387E-03 0.000E+00

     total cpu time spent up to now is    12130.6 secs

     total energy              =  -13670.95956437 Ry
     Harris-Foulkes estimate   =  -13670.95962932 Ry
     estimated scf accuracy    <       0.00003080 Ry

     iteration # 34     ecut=    80.00 Ry     beta=0.70
     Davidson diagonalization with overlap
     ethr =  2.23E-09,  avg # of iterations = 10.0

     negative rho (up, down):  1.454E-03 0.000E+00

     total cpu time spent up to now is    12453.5 secs

     total energy              =  -13670.95955030 Ry
     Harris-Foulkes estimate   =  -13670.95956683 Ry
     estimated scf accuracy    <       0.00001305 Ry

     iteration # 35     ecut=    80.00 Ry     beta=0.70
     Davidson diagonalization with overlap
     ethr =  9.46E-10,  avg # of iterations =  4.8

     negative rho (up, down):  1.291E-03 0.000E+00

     total cpu time spent up to now is    12703.5 secs

     total energy              =  -13670.95955191 Ry
     Harris-Foulkes estimate   =  -13670.95955131 Ry
     estimated scf accuracy    <       0.00000354 Ry

     iteration # 36     ecut=    80.00 Ry     beta=0.70
     Davidson diagonalization with overlap
     ethr =  2.56E-10,  avg # of iterations =  3.0

     negative rho (up, down):  1.298E-03 0.000E+00

     total cpu time spent up to now is    12928.4 secs

     total energy              =  -13670.95955272 Ry
     Harris-Foulkes estimate   =  -13670.95955230 Ry
     estimated scf accuracy    <       0.00000144 Ry

     iteration # 37     ecut=    80.00 Ry     beta=0.70
     Davidson diagonalization with overlap
     ethr =  1.04E-10,  avg # of iterations =  2.2

     negative rho (up, down):  1.453E-03 0.000E+00

     total cpu time spent up to now is    13135.2 secs

     total energy              =  -13670.95955323 Ry
     Harris-Foulkes estimate   =  -13670.95955284 Ry
     estimated scf accuracy    <       0.00000052 Ry

     iteration # 38     ecut=    80.00 Ry     beta=0.70
     Davidson diagonalization with overlap
     ethr =  3.77E-11,  avg # of iterations =  3.0

     negative rho (up, down):  1.532E-03 0.000E+00

     total cpu time spent up to now is    13362.5 secs

     total energy              =  -13670.95955346 Ry
     Harris-Foulkes estimate   =  -13670.95955329 Ry
     estimated scf accuracy    <       0.00000018 Ry

     iteration # 39     ecut=    80.00 Ry     beta=0.70
     Davidson diagonalization with overlap
     ethr =  1.32E-11,  avg # of iterations =  3.2

     negative rho (up, down):  1.522E-03 0.000E+00

     total cpu time spent up to now is    13592.5 secs

     total energy              =  -13670.95955351 Ry
     Harris-Foulkes estimate   =  -13670.95955349 Ry
     estimated scf accuracy    <       0.00000007 Ry

     iteration # 40     ecut=    80.00 Ry     beta=0.70
     Davidson diagonalization with overlap
     ethr =  4.73E-12,  avg # of iterations =  2.5

     negative rho (up, down):  1.507E-03 0.000E+00

     total cpu time spent up to now is    13806.8 secs

     total energy              =  -13670.95955350 Ry
     Harris-Foulkes estimate   =  -13670.95955352 Ry
     estimated scf accuracy    <       0.00000002 Ry

     iteration # 41     ecut=    80.00 Ry     beta=0.70
     Davidson diagonalization with overlap
     ethr =  1.44E-12,  avg # of iterations =  3.5

     negative rho (up, down):  1.505E-03 0.000E+00

     total cpu time spent up to now is    14064.6 secs

     End of self-consistent calculation

          k = 0.0000 0.0000 0.0000 (256287 PWs)   bands (ev):

   -15.6074 -15.1860 -15.0881 -14.0521 -14.0458 -13.6456 -13.6402 -13.2334
   -13.2281 -13.1351 -13.1337 -12.2626 -12.2522 -12.1388 -12.1368 -12.1281
   -12.1230 -10.4528 -10.4492 -10.4432 -10.4397 -10.2513  -9.2380  -8.5755
    -8.5739  -8.5697  -8.5696  -7.6974  -7.6911  -7.6682  -7.6650  -6.7021
    -6.6984  -6.6219  -6.6168  -6.6085  -6.6038  -6.5916  -6.5908  -5.1796
    -5.0672  -5.0638  -5.0603  -5.0557  -4.9095  -4.9088  -4.8978  -4.8948
    -4.6751  -4.6361  -4.3712  -4.0111  -3.7499  -3.7481  -3.7241  -3.6579
    -3.4649  -3.4358  -3.4288  -3.2417  -3.1355  -3.1334  -2.7896  -2.6323
    -2.6306  -2.6287  -2.6257  -2.5649  -2.5649  -2.5110  -2.4722  -2.4643
    -2.4141  -2.3255  -2.1887  -2.1876  -2.1697  -2.1584  -2.1575  -2.1133
    -2.0984  -2.0899  -2.0720  -2.0264  -1.9741  -1.9663  -1.7844  -1.7839
    -1.7612  -1.7605  -1.6720  -1.6712  -1.5163  -1.5162  -1.5026  -1.5023
    -1.4754  -1.3587  -1.3548  -1.3312  -1.3179  -1.3000  -1.3000  -1.2919
    -1.2914  -1.2330  -1.1943  -1.1941  -1.1588  -1.1586  -1.1537  -1.0763
    -1.0639  -1.0350  -1.0294  -1.0237  -0.9917  -0.9864  -0.9365  -0.9248
    -0.9121  -0.9113  -0.9060  -0.8784  -0.8780  -0.8586  -0.8078  -0.8061
    -0.8057  -0.8043  -0.7453  -0.7333  -0.7215  -0.7187  -0.7004  -0.7004
    -0.6868  -0.6803  -0.6748  -0.6274  -0.6266  -0.5738  -0.5539  -0.5533
    -0.5090  -0.4953  -0.4611  -0.4543  -0.4513  -0.4332  -0.4327  -0.4072
    -0.4069  -0.4060  -0.3781  -0.3704  -0.3649  -0.3475  -0.3443  -0.3372
    -0.3366  -0.3351  -0.2973  -0.2915  -0.2447  -0.2441  -0.2289  -0.2196
    -0.2181  -0.2144  -0.2122  -0.2097  -0.2067  -0.1967  -0.1953  -0.1906
    -0.1841  -0.1725  -0.1471  -0.1466  -0.1406  -0.1297  -0.1195  -0.1087
    -0.1015  -0.1004  -0.0999  -0.0955  -0.0937  -0.0835  -0.0553  -0.0441
    -0.0416  -0.0352  -0.0273  -0.0231  -0.0217  -0.0083  -0.0056  -0.0044
    -0.0031  -0.0014   0.0015   0.0083   0.0085   0.0193   0.0389   0.0550
     0.0557   0.0879   0.1003   0.1018   0.1152   0.1168   0.1306   0.1658
     0.1685   0.1687   0.1792   0.1851   0.1912   0.1980   0.2102   0.2114
     0.2158   0.2249   0.2266   0.2290   0.2306   0.2416   0.2441   0.2563
     0.2588   0.2597   0.2674   0.2716   0.2732   0.3124   0.3154   0.3169
     0.3480   0.3601   0.3697   0.3705   0.3786   0.3789   0.4005   0.4009
     0.4075   0.4078   0.4264   0.4276   0.4281   0.4349   0.4356   0.4426
     0.4427   0.4439   0.4460   0.4596   0.4742   0.4800   0.4842   0.4848
     0.4854   0.4926   0.4933   0.5074   0.5221   0.5247   0.5252   0.5383
     0.5476   0.5488   0.5598   0.5623   0.5623   0.5652   0.5662   0.5740
     0.5742   0.5847   0.5861   0.5961   0.5998   0.6034   0.6043   0.6059
     0.6159   0.6161   0.6477   0.6479   0.6493   0.6503   0.6511   0.6529
     0.6542   0.6546   0.6591   0.6595   0.6854   0.6917   0.6919   0.6971
     0.7173   0.7187   0.7403   0.7491   0.7529   0.7539   0.7565   0.7723
     0.7732   0.7742   0.7811   0.7817   0.7852   0.7860   0.8102   0.8146
     0.8150   0.8221   0.8280   0.8286   0.8292   0.8443   0.8453   0.8502
     0.8506   0.8516   0.8651   0.8727   0.8749   0.8761   0.8794   0.8807
     0.8810   0.8939   0.8961   0.9090   0.9093   0.9103   0.9111   0.9133
     0.9173   0.9242   0.9411   0.9550   0.9556   0.9650   0.9699   0.9780
     0.9807   0.9972   0.9978   1.0081   1.0125   1.0140   1.0177   1.0339
     1.0349   1.0584   1.0599   1.0700   1.0703   1.0752   1.0807   1.0834
     1.0846   1.0931   1.1167   1.1216   1.1281   1.1285   1.1403   1.1425
     1.1470   1.1593   1.1600   1.1763   1.1766   1.1821   1.1895   1.1920
     1.1921   1.2207   1.2327   1.2330   1.2390   1.2476   1.2498   1.2503
     1.2528   1.2537   1.2656   1.2682   1.2690   1.2710   1.2724   1.3035
     1.3039   1.3062   1.3076   1.3131   1.3206   1.3213   1.3330   1.3335
     1.3696   1.3697   1.3801   1.3845   1.3851   1.3876   1.3928   1.3930
     1.3993   1.4049   1.4102   1.4112   1.4192   1.4251   1.4267   1.4297
     1.4298   1.4361   1.4432   1.4466   1.4540   1.4551   1.4585   1.4587
     1.4615   1.4685   1.4733   1.4789   1.4839   1.4846   1.4954   1.4955
     1.5016   1.5084   1.5108   1.5130   1.5131   1.5156   1.5197   1.5201
     1.5438   1.5460   1.5491   1.5550   1.5559   1.5591   1.5597   1.5603
     1.5616   1.5644   1.5707   1.5735   1.5744   1.5876   1.5891   1.5925
     1.5927   1.6059   1.6062   1.6078   1.6084   1.6196   1.6239   1.6334
     1.6422   1.6463   1.6576   1.6656   1.6703   1.6834   1.6860   1.6878
     1.6966   1.6983   1.7061   1.7089   1.7122   1.7134   1.7170   1.7191
     1.7208   1.7227   1.7292   1.7391   1.7469   1.7500   1.7507   1.7613
     1.7647   1.7695   1.7723   1.7770   1.7816   1.7838   1.7854   1.7924
     1.7966   1.7988   1.8078   1.8111   1.8126   1.8141   1.8172   1.8248
     1.8272   1.8292   1.8406   1.8436   1.8451   1.8480   1.8613   1.8643
     1.8696   1.8827   1.8835   1.8863   1.8875   1.8880   1.9031   1.9045
     1.9090   1.9118   1.9125   1.9177   1.9181   1.9193   1.9195   1.9300
     1.9332   1.9388   1.9435   1.9461   1.9469   1.9481   1.9534   1.9538
     1.9583   1.9597   1.9631   1.9732   1.9758   1.9773   1.9776   1.9851
     1.9857   1.9928   1.9945   2.0103   2.0118   2.0210   2.0232   2.0287
     2.0321   2.0341   2.0420   2.0430   2.0528   2.0545   2.0655   2.0666
     2.0687   2.0730   2.0753   2.0809   2.0845   2.0900   2.0902   2.0985
     2.1047   2.1081   2.1105   2.1129   2.1138   2.1186   2.1194   2.1276
     2.1278   2.1326   2.1327   2.1368   2.1433   2.1476   2.1480   2.1559
     2.1686   2.1733   2.1742   2.1771   2.1784   2.1845   2.1862   2.1879
     2.1895   2.1907   2.1943   2.2063   2.2122   2.2129   2.2177   2.2195
     2.2217   2.2254   2.2265   2.2272   2.2320   2.2328   2.2361   2.2362
     2.2371   2.2375   2.2398   2.2428   2.2452   2.2584   2.2588   2.2592
     2.2644   2.2675   2.2710   2.2717   2.2750   2.2863   2.2867   2.2956
     2.2971   2.3002   2.3009   2.3035   2.3165   2.3203   2.3211   2.3393
     2.3406   2.3442   2.3625   2.3634   2.3638   2.3872   2.3873   2.3976
     2.3997   2.4201   2.4201   2.4228   2.4525   2.4592   2.4603   2.4615
     2.4626   2.4633   2.4833   2.4839   2.5163   2.6194   2.7145   2.7818
     2.8047   2.8692   2.8799   2.8815   2.9744   2.9744   2.9982   2.9990
     3.0336   3.0336   3.0453   3.0458   3.1091   3.1094   3.1169   3.1640
     3.1641   3.2130   3.2170   3.3905   3.3909   3.4519   3.4527   3.5930
     3.7182   3.9006   3.9018   3.9535   3.9615   4.0291   4.0331   4.1500
     4.2347   4.2359   4.2652   4.4263   4.4303   4.5020   4.5035   4.6341
     4.7206   4.7214   4.7340   4.7584   4.7594   4.8123   4.8307   4.8309
     4.8340   4.8342   5.1902   5.2217   5.2222   5.2430   5.3937   5.5506
     5.6679   5.7282   5.7725   5.7863   5.8303   5.8365   5.8761   5.8828
     6.0206   6.1164   6.3141   6.3240   6.4285   6.5212   6.5236   6.7025
     6.7321   6.9991   7.0000   7.0087   7.0687   7.2469   7.2781   7.2800
     7.3554   7.5285   7.5425   7.5564   7.5823   7.6044   7.6045   7.6325
     7.6608   7.6830   7.7033   7.7593   7.7698   7.8652   7.8692   7.9035
     7.9461   8.0298   8.0787   8.1172   8.1281   8.2857   8.3075   8.3856
     8.4864   8.4871   8.4891   8.5021   8.5033   8.7499   8.7529   8.7551
     8.8726   8.8758   8.8889   8.9014   8.9901   9.0102   9.0208   9.0240
     9.1291   9.1535   9.2845   9.3297   9.3301   9.3651   9.3662   9.4115
     9.4121   9.4217   9.4284   9.4322   9.4984   9.5093   9.5297   9.5417
     9.5561   9.5978   9.7090   9.7396   9.7765   9.8650   9.8677   9.9054
     9.9092   9.9725  10.0612  10.0946  10.3084  10.3182  10.3380  10.3739
    10.3743  10.5213  10.5292  10.5588  10.5593  10.6442  10.6560  10.6821
    10.6874  10.7952  10.7984  10.8647

          k = 0.0000-0.2165 0.0000 (256176 PWs)   bands (ev):

   -15.5860 -15.3380 -14.7018 -14.6683 -13.6253 -13.6196 -13.3792 -13.3760
   -13.2488 -13.2220 -12.7624 -12.7571 -12.7298 -12.7285 -11.3712 -11.3688
   -11.3466 -11.3420 -11.1866 -11.1007  -9.4810  -9.4773  -9.4358  -9.4332
    -8.2529  -8.1706  -8.1232  -8.1194  -7.9948  -7.9936  -7.2245  -7.2185
    -7.1993  -7.1953  -6.1213  -6.1206  -5.9654  -5.9648  -5.8961  -5.8869
    -5.8718  -5.8692  -5.0945  -5.0775  -5.0627  -5.0256  -4.4151  -4.2979
    -4.2932  -4.1658  -4.1602  -4.0118  -3.9740  -3.9500  -3.9203  -3.6872
    -3.6836  -3.6798  -3.6792  -3.6334  -3.1207  -3.1029  -2.8508  -2.7774
    -2.7030  -2.4890  -2.4769  -2.4752  -2.4460  -2.4452  -2.4194  -2.2673
    -2.2242  -2.2185  -2.1823  -2.1815  -2.1134  -2.1129  -2.0013  -2.0005
    -1.8923  -1.8917  -1.8771  -1.8770  -1.8718  -1.8278  -1.7932  -1.7793
    -1.7283  -1.7279  -1.7245  -1.7228  -1.6672  -1.6421  -1.6406  -1.6257
    -1.6248  -1.6136  -1.4578  -1.3984  -1.3969  -1.3928  -1.3570  -1.3314
    -1.3310  -1.2818  -1.2816  -1.2377  -1.1740  -1.1325  -1.1292  -1.1291
    -1.1147  -1.1147  -1.0045  -1.0041  -0.9501  -0.9500  -0.9490  -0.9401
    -0.9221  -0.9058  -0.8781  -0.8781  -0.8673  -0.8655  -0.8274  -0.8247
    -0.8058  -0.8056  -0.7981  -0.7524  -0.7512  -0.7330  -0.7087  -0.7073
    -0.6457  -0.6449  -0.5990  -0.5970  -0.5876  -0.5593  -0.5288  -0.5208
    -0.4781  -0.4766  -0.4687  -0.4644  -0.4604  -0.4588  -0.4409  -0.4343
    -0.4285  -0.4220  -0.4207  -0.4197  -0.4099  -0.4090  -0.4087  -0.4062
    -0.3923  -0.3769  -0.3759  -0.3557  -0.3064  -0.3054  -0.2850  -0.2844
    -0.2537  -0.2418  -0.2399  -0.2208  -0.2165  -0.2016  -0.2007  -0.1991
    -0.1986  -0.1820  -0.1718  -0.1531  -0.1408  -0.1401  -0.1312  -0.1258
    -0.1236  -0.1235  -0.1069  -0.0867  -0.0839  -0.0834  -0.0826  -0.0698
    -0.0693  -0.0399  -0.0357  -0.0353  -0.0171  -0.0086   0.0022   0.0025
     0.0130   0.0201   0.0216   0.0461   0.0578   0.0590   0.0649   0.0953
     0.1126   0.1440   0.1446   0.1523   0.1738   0.1758   0.1825   0.1828
     0.1981   0.2044   0.2047   0.2070   0.2127   0.2182   0.2259   0.2368
     0.2373   0.2477   0.2488   0.2491   0.2510   0.2647   0.2734   0.2863
     0.2866   0.2964   0.2983   0.3151   0.3195   0.3321   0.3339   0.3555
     0.3557   0.3567   0.3591   0.3623   0.3756   0.3761   0.3880   0.3889
     0.4278   0.4407   0.4408   0.4499   0.4651   0.4654   0.4710   0.4750
     0.4755   0.4868   0.4879   0.4888   0.4969   0.5070   0.5073   0.5184
     0.5186   0.5227   0.5229   0.5383   0.5419   0.5478   0.5483   0.5522
     0.5548   0.5579   0.5593   0.5635   0.5678   0.5819   0.5911   0.5916
     0.5975   0.5978   0.6018   0.6169   0.6172   0.6233   0.6309   0.6322
     0.6377   0.6382   0.6389   0.6441   0.6450   0.6522   0.6549   0.6685
     0.6706   0.6738   0.6794   0.6971   0.7018   0.7104   0.7147   0.7154
     0.7180   0.7305   0.7308   0.7455   0.7504   0.7529   0.7565   0.7575
     0.7582   0.7616   0.7639   0.7727   0.7839   0.7857   0.7940   0.7970
     0.8104   0.8156   0.8178   0.8211   0.8263   0.8291   0.8325   0.8373
     0.8451   0.8455   0.8547   0.8609   0.8684   0.8690   0.8714   0.8817
     0.8880   0.8888   0.8952   0.9080   0.9165   0.9168   0.9215   0.9228
     0.9298   0.9307   0.9398   0.9450   0.9459   0.9486   0.9538   0.9542
     0.9597   0.9672   0.9705   0.9773   0.9879   0.9935   0.9942   1.0067
     1.0132   1.0181   1.0319   1.0438   1.0555   1.0568   1.0709   1.0752
     1.0766   1.0853   1.0854   1.0994   1.1170   1.1196   1.1209   1.1213
     1.1410   1.1421   1.1534   1.1573   1.1593   1.1663   1.1791   1.1839
     1.1850   1.2010   1.2114   1.2218   1.2220   1.2313   1.2510   1.2520
     1.2564   1.2569   1.2661   1.2663   1.2714   1.2807   1.2812   1.2995
     1.2999   1.3157   1.3171   1.3204   1.3299   1.3328   1.3330   1.3551
     1.3594   1.3604   1.3610   1.3627   1.3683   1.3687   1.3792   1.3795
     1.3801   1.3835   1.3921   1.3983   1.4039   1.4041   1.4058   1.4059
     1.4157   1.4194   1.4204   1.4405   1.4412   1.4471   1.4515   1.4538
     1.4544   1.4585   1.4643   1.4645   1.4653   1.4740   1.4752   1.4927
     1.4939   1.4997   1.5000   1.5003   1.5075   1.5082   1.5189   1.5196
     1.5200   1.5224   1.5235   1.5288   1.5291   1.5303   1.5448   1.5456
     1.5520   1.5559   1.5566   1.5582   1.5588   1.5680   1.5784   1.5794
     1.5902   1.5906   1.5914   1.6070   1.6205   1.6266   1.6279   1.6383
     1.6406   1.6418   1.6470   1.6475   1.6610   1.6953   1.6957   1.7133
     1.7166   1.7181   1.7247   1.7281   1.7307   1.7308   1.7372   1.7383
     1.7392   1.7435   1.7489   1.7491   1.7566   1.7582   1.7584   1.7632
     1.7745   1.7761   1.7774   1.7910   1.7913   1.7925   1.7931   1.8026
     1.8046   1.8048   1.8093   1.8112   1.8144   1.8156   1.8174   1.8179
     1.8187   1.8207   1.8338   1.8352   1.8360   1.8363   1.8440   1.8457
     1.8461   1.8483   1.8509   1.8513   1.8676   1.8718   1.8720   1.8803
     1.8832   1.8932   1.9030   1.9034   1.9060   1.9129   1.9131   1.9143
     1.9283   1.9294   1.9359   1.9452   1.9456   1.9482   1.9574   1.9616
     1.9640   1.9652   1.9697   1.9883   1.9945   1.9972   2.0044   2.0048
     2.0058   2.0078   2.0145   2.0201   2.0236   2.0240   2.0280   2.0309
     2.0317   2.0370   2.0399   2.0445   2.0455   2.0483   2.0525   2.0556
     2.0557   2.0611   2.0627   2.0797   2.0857   2.0863   2.0865   2.0915
     2.0970   2.0978   2.1069   2.1078   2.1083   2.1118   2.1131   2.1165
     2.1186   2.1329   2.1336   2.1358   2.1420   2.1462   2.1468   2.1536
     2.1544   2.1588   2.1590   2.1617   2.1669   2.1674   2.1781   2.1787
     2.1876   2.1878   2.1976   2.2029   2.2050   2.2052   2.2081   2.2230
     2.2250   2.2258   2.2281   2.2294   2.2300   2.2328   2.2363   2.2388
     2.2499   2.2501   2.2524   2.2584   2.2665   2.2715   2.2770   2.2772
     2.2797   2.2813   2.2817   2.2829   2.2978   2.3029   2.3036   2.3058
     2.3119   2.3259   2.3319   2.3320   2.3403   2.3518   2.3524   2.3527
     2.3568   2.3582   2.3588   2.3596   2.3715   2.3717   2.3722   2.3772
     2.4010   2.4436   2.4537   2.4673   2.4949   2.5456   2.5725   2.5760
     2.5761   2.5983   2.5984   2.6195   2.6199   2.6522   2.6524   2.6675
     2.6800   2.6864   2.8825   2.8841   2.9294   2.9351   2.9427   2.9630
     2.9741   3.0309   3.1052   3.1096   3.2074   3.2077   3.2225   3.2585
     3.2597   3.3149   3.3728   3.4001   3.4008   3.4876   3.4927   3.4927
     3.5243   3.7385   3.7392   3.7392   3.8081   3.8095   3.9903   3.9904
     4.0116   4.0125   4.2807   4.2955   4.3629   4.3633   4.4600   4.4900
     4.7101   4.7346   4.7401   4.8498   4.8558   4.8916   4.8945   4.9374
     4.9510   4.9844   5.1850   5.2127   5.3703   5.3742   5.6621   5.7574
     5.7980   5.7986   5.8790   5.9164   5.9264   6.0883   6.0890   6.1543
     6.1711   6.1950   6.1965   6.3493   6.4313   6.5253   6.5383   6.5801
     6.6026   6.7126   6.7959   6.7991   6.8208   6.8802   7.0010   7.1874
     7.2364   7.2412   7.3934   7.3935   7.4434   7.5284   7.6303   7.7299
     7.7309   7.7349   7.8409   7.8438   7.8936   7.9287   7.9302   7.9426
     7.9431   7.9927   8.0525   8.0857   8.1680   8.1694   8.3886   8.3941
     8.4698   8.5206   8.5723   8.5995   8.6095   8.6108   8.6216   8.7512
     8.7612   8.7617   8.8434   8.8905   8.9969   9.0678   9.0707   9.1788
     9.2167   9.2175   9.2184   9.2272   9.3297   9.3309   9.4231   9.4521
     9.4535   9.4783   9.4863   9.6079   9.6139   9.6251   9.6311   9.6692
     9.7384   9.7915   9.9087   9.9172   9.9299   9.9377   9.9416   9.9432
    10.0287  10.0295  10.1437  10.1443  10.1900  10.2064  10.2172  10.3009
    10.3022  10.4918  10.5045  10.5291  10.5299  10.5961  10.6012  10.6145
    10.6807  10.6912  10.7733  10.7741

          k = 0.2500 0.0000 0.0000 (256240 PWs)   bands (ev):

   -15.4831 -15.0623 -14.9645 -14.4954 -14.0796 -13.9823 -13.9303 -13.9241
   -12.9652 -12.9588 -12.5651 -12.1618 -12.1457 -12.1355 -12.0654 -11.2245
   -11.2145 -11.1061 -11.0993 -10.1458  -9.9506  -9.8138  -9.6688  -9.3035
    -9.1332  -8.8615  -8.8441  -8.4343  -8.1753  -8.1682  -7.6313  -6.6295
    -6.6251  -6.6176  -6.6147  -6.5095  -6.5071  -6.0375  -5.7764  -5.2019
    -5.0627  -5.0270  -4.9991  -4.9281  -4.9274  -4.5018  -4.4628  -4.2698
    -4.2585  -4.2054  -3.8485  -3.7593  -3.6249  -3.5766  -3.5064  -3.4585
    -3.4420  -3.4272  -3.4189  -3.3010  -3.1881  -3.1509  -3.0950  -3.0313
    -2.9883  -2.9864  -2.9614  -2.7083  -2.7051  -2.6820  -2.6620  -2.6391
    -2.6322  -2.5875  -2.5387  -2.4449  -2.4377  -2.3886  -2.3246  -2.2914
    -2.2267  -2.1931  -2.1877  -2.0389  -1.9808  -1.9646  -1.9570  -1.9460
    -1.9425  -1.9388  -1.6102  -1.5634  -1.5489  -1.5401  -1.5195  -1.4636
    -1.3626  -1.2808  -1.2698  -1.2616  -1.2612  -1.2395  -1.2352  -1.1967
    -1.1810  -1.0990  -1.0863  -1.0331  -1.0322  -1.0077  -1.0002  -0.9605
    -0.9453  -0.9448  -0.9414  -0.9362  -0.9264  -0.9260  -0.8999  -0.8775
    -0.8526  -0.8142  -0.8124  -0.8115  -0.7589  -0.7463  -0.7412  -0.7376
    -0.7312  -0.7296  -0.7244  -0.7044  -0.6975  -0.6830  -0.6737  -0.6694
    -0.6678  -0.6594  -0.6502  -0.6185  -0.6041  -0.5392  -0.5353  -0.5031
    -0.4861  -0.4681  -0.4569  -0.4488  -0.4285  -0.4049  -0.3975  -0.3925
    -0.3904  -0.3842  -0.3761  -0.3653  -0.3500  -0.3433  -0.3417  -0.3330
    -0.3202  -0.3154  -0.2975  -0.2964  -0.2914  -0.2865  -0.2816  -0.2726
    -0.2688  -0.2574  -0.2515  -0.2247  -0.2198  -0.2065  -0.1987  -0.1925
    -0.1906  -0.1848  -0.1804  -0.1770  -0.1745  -0.1703  -0.1682  -0.1646
    -0.1497  -0.1437  -0.1380  -0.1357  -0.1336  -0.1263  -0.1258  -0.1242
    -0.1206  -0.1131  -0.1044  -0.0863  -0.0700  -0.0499  -0.0459  -0.0449
    -0.0348  -0.0167  -0.0017   0.0053   0.0076   0.0330   0.0362   0.0465
     0.0559   0.0588   0.0656   0.0678   0.0787   0.0937   0.1008   0.1021
     0.1171   0.1185   0.1323   0.1586   0.1666   0.2101   0.2152   0.2255
     0.2320   0.2474   0.2534   0.2548   0.2614   0.2761   0.2862   0.2894
     0.2948   0.2987   0.3102   0.3140   0.3269   0.3292   0.3362   0.3382
     0.3418   0.3445   0.3451   0.3686   0.3727   0.3740   0.3806   0.3906
     0.4078   0.4117   0.4263   0.4393   0.4415   0.4432   0.4464   0.4533
     0.4594   0.4608   0.4687   0.4711   0.4746   0.4753   0.4851   0.4881
     0.5038   0.5121   0.5154   0.5186   0.5219   0.5265   0.5351   0.5371
     0.5391   0.5512   0.5569   0.5579   0.5586   0.5624   0.5653   0.5808
     0.5837   0.5962   0.6080   0.6085   0.6120   0.6278   0.6383   0.6451
     0.6455   0.6491   0.6542   0.6608   0.6626   0.6689   0.6711   0.6741
     0.6821   0.6883   0.7029   0.7129   0.7190   0.7226   0.7265   0.7282
     0.7309   0.7372   0.7451   0.7482   0.7564   0.7593   0.7738   0.7801
     0.7846   0.7864   0.8001   0.8029   0.8082   0.8182   0.8222   0.8261
     0.8284   0.8334   0.8381   0.8387   0.8415   0.8483   0.8537   0.8546
     0.8588   0.8638   0.8683   0.8766   0.8868   0.8920   0.8942   0.8957
     0.9021   0.9054   0.9083   0.9106   0.9147   0.9213   0.9236   0.9296
     0.9340   0.9409   0.9562   0.9668   0.9750   0.9789   0.9821   0.9840
     0.9895   0.9926   1.0084   1.0187   1.0202   1.0260   1.0347   1.0367
     1.0516   1.0555   1.0676   1.0845   1.0870   1.0996   1.1003   1.1053
     1.1158   1.1214   1.1246   1.1311   1.1320   1.1349   1.1373   1.1428
     1.1463   1.1482   1.1530   1.1597   1.1611   1.1656   1.1674   1.1732
     1.1748   1.1849   1.1868   1.1889   1.1902   1.1974   1.2051   1.2102
     1.2161   1.2232   1.2301   1.2437   1.2505   1.2680   1.2735   1.2740
     1.2794   1.2853   1.2875   1.2921   1.2936   1.2960   1.2975   1.3120
     1.3175   1.3232   1.3284   1.3295   1.3338   1.3518   1.3537   1.3588
     1.3598   1.3628   1.3753   1.3798   1.3819   1.3880   1.3956   1.3972
     1.4023   1.4062   1.4130   1.4149   1.4254   1.4299   1.4313   1.4328
     1.4394   1.4461   1.4482   1.4527   1.4543   1.4622   1.4698   1.4701
     1.4734   1.4778   1.4853   1.4886   1.4910   1.4924   1.4955   1.4992
     1.5145   1.5176   1.5192   1.5218   1.5366   1.5399   1.5436   1.5557
     1.5648   1.5696   1.5738   1.5767   1.5887   1.5903   1.5913   1.5927
     1.5969   1.6033   1.6054   1.6131   1.6177   1.6198   1.6348   1.6439
     1.6454   1.6474   1.6516   1.6538   1.6625   1.6644   1.6820   1.6837
     1.6880   1.6899   1.6924   1.6944   1.6987   1.7098   1.7143   1.7162
     1.7172   1.7198   1.7223   1.7304   1.7399   1.7444   1.7471   1.7507
     1.7521   1.7593   1.7619   1.7625   1.7871   1.7904   1.7960   1.7974
     1.8073   1.8090   1.8139   1.8184   1.8213   1.8252   1.8281   1.8345
     1.8366   1.8395   1.8427   1.8457   1.8498   1.8575   1.8590   1.8602
     1.8624   1.8695   1.8736   1.8750   1.8778   1.8810   1.8820   1.8879
     1.8900   1.8912   1.8936   1.8966   1.8996   1.9033   1.9096   1.9157
     1.9195   1.9285   1.9288   1.9340   1.9363   1.9372   1.9386   1.9427
     1.9471   1.9541   1.9567   1.9591   1.9595   1.9797   1.9811   1.9851
     1.9895   1.9913   1.9968   2.0041   2.0142   2.0206   2.0278   2.0288
     2.0308   2.0327   2.0375   2.0457   2.0472   2.0486   2.0518   2.0566
     2.0644   2.0724   2.0759   2.0798   2.0828   2.0839   2.0896   2.0934
     2.0983   2.1015   2.1036   2.1061   2.1063   2.1100   2.1107   2.1164
     2.1198   2.1232   2.1277   2.1295   2.1332   2.1388   2.1405   2.1425
     2.1445   2.1517   2.1600   2.1617   2.1692   2.1864   2.1874   2.1921
     2.1940   2.1996   2.2003   2.2023   2.2038   2.2059   2.2070   2.2175
     2.2192   2.2221   2.2235   2.2267   2.2406   2.2416   2.2426   2.2445
     2.2448   2.2525   2.2538   2.2566   2.2597   2.2623   2.2653   2.2694
     2.2724   2.2738   2.2761   2.2817   2.2844   2.2873   2.2925   2.2966
     2.2997   2.3006   2.3024   2.3093   2.3111   2.3191   2.3231   2.3270
     2.3281   2.3357   2.3367   2.3430   2.3559   2.3606   2.3614   2.3735
     2.3910   2.3957   2.3978   2.4057   2.4267   2.4302   2.4400   2.4406
     2.4491   2.4628   2.4659   2.5494   2.5633   2.5708   2.6054   2.6199
     2.6345   2.6616   2.6713   2.7365   2.7619   2.8177   2.8431   2.8567
     2.8971   2.9241   2.9790   3.1896   3.2671   3.2896   3.2999   3.3341
     3.3794   3.5396   3.6770   3.7300   3.8006   3.8017   3.8120   3.9126
     3.9627   3.9957   4.0424   4.0474   4.0693   4.2144   4.2782   4.2954
     4.3531   4.3979   4.4559   4.4596   4.4879   4.4963   4.5014   4.5074
     4.5595   4.7690   4.9018   4.9509   5.0308   5.1127   5.1365   5.1631
     5.2351   5.2741   5.3506   5.3600   5.3810   5.4606   5.4736   5.6022
     5.6310   5.7936   5.8393   5.8562   5.8939   5.9222   5.9706   6.0161
     6.1117   6.1616   6.1842   6.2509   6.2555   6.3124   6.3983   6.4037
     6.6208   6.6296   6.7025   6.7135   6.7813   6.7870   6.7961   6.8094
     7.0012   7.1137   7.1519   7.3341   7.3760   7.4390   7.5291   7.5457
     7.5754   7.6016   7.6142   7.6367   7.6505   7.6939   7.7107   7.7311
     7.7426   7.7512   7.8284   7.8412   7.9602   8.0321   8.0589   8.1355
     8.1553   8.2608   8.3132   8.3170   8.4815   8.4992   8.5125   8.5548
     8.5960   8.6474   8.6532   8.6883   8.7217   8.8261   8.8444   8.9375
     8.9662   9.0750   9.1543   9.1640   9.1781   9.1944   9.2141   9.2223
     9.2784   9.2827   9.3642   9.4259   9.4437   9.5147   9.5450   9.5951
     9.7119   9.7317   9.7410   9.7510   9.7533   9.8050   9.8613   9.8667
     9.8928   9.9026   9.9973  10.0193  10.0326  10.0398  10.0725  10.1734
    10.2201  10.2415  10.3415  10.3430  10.4267  10.5233  10.5396  10.5525
    10.5569  10.5608  10.5772  10.6366

          k = 0.2500-0.2165 0.0000 (256316 PWs)   bands (ev):

   -15.4617 -15.2140 -14.5788 -14.5455 -14.4744 -14.2287 -13.6020 -13.5701
   -13.1290 -13.1023 -12.5453 -12.3046 -12.1798 -12.1543 -11.7019 -11.6740
   -11.0750 -10.9886 -10.4145 -10.3969 -10.1945 -10.1099  -9.8758  -9.6433
    -8.7353  -8.7119  -8.2519  -8.1588  -8.1311  -8.0747  -7.6030  -7.5078
    -7.4697  -7.4462  -5.8073  -5.7690  -5.7443  -5.6685  -5.6388  -5.4544
    -5.4331  -5.3033  -5.0512  -5.0370  -4.8854  -4.8473  -4.2467  -4.2341
    -4.2267  -3.9137  -3.9123  -3.8470  -3.8133  -3.7831  -3.7652  -3.5242
    -3.4883  -3.4850  -3.3444  -3.2428  -3.2398  -3.2102  -3.0068  -2.9883
    -2.9747  -2.9572  -2.7793  -2.7170  -2.7143  -2.6318  -2.6187  -2.6096
    -2.5702  -2.5571  -2.5504  -2.5381  -2.3385  -2.2768  -2.2735  -2.2706
    -2.1476  -2.1357  -2.0602  -2.0595  -1.9906  -1.9457  -1.9453  -1.9265
    -1.6998  -1.6987  -1.6830  -1.6777  -1.6414  -1.5932  -1.5071  -1.4814
    -1.4631  -1.3803  -1.3392  -1.3224  -1.3132  -1.2988  -1.2656  -1.1727
    -1.1720  -1.1320  -1.1168  -1.1017  -1.0881  -1.0597  -1.0110  -1.0041
    -0.9593  -0.9521  -0.9437  -0.9096  -0.8992  -0.8639  -0.8594  -0.8557
    -0.8499  -0.8466  -0.8433  -0.8408  -0.8308  -0.8293  -0.8235  -0.8208
    -0.7642  -0.7573  -0.7300  -0.7285  -0.7209  -0.7119  -0.6741  -0.6519
    -0.6205  -0.6132  -0.5719  -0.5512  -0.5176  -0.5136  -0.4980  -0.4846
    -0.4826  -0.4699  -0.4406  -0.4391  -0.4327  -0.4174  -0.4148  -0.4035
    -0.3918  -0.3895  -0.3889  -0.3777  -0.3618  -0.3584  -0.3556  -0.3535
    -0.3519  -0.3504  -0.3444  -0.3184  -0.3023  -0.2803  -0.2763  -0.2742
    -0.2730  -0.2664  -0.2574  -0.2369  -0.2252  -0.2250  -0.2164  -0.2069
    -0.2026  -0.1986  -0.1946  -0.1857  -0.1801  -0.1728  -0.1617  -0.1444
    -0.1407  -0.1377  -0.1331  -0.1280  -0.1267  -0.1210  -0.1195  -0.1168
    -0.0775  -0.0632  -0.0460  -0.0449  -0.0413  -0.0364  -0.0234  -0.0223
    -0.0059   0.0035   0.0200   0.0307   0.0360   0.0413   0.0460   0.0571
     0.0712   0.0780   0.0874   0.0954   0.1054   0.1093   0.1134   0.1355
     0.1382   0.1533   0.1540   0.1623   0.1669   0.1745   0.1924   0.2324
     0.2328   0.2340   0.2443   0.2657   0.2678   0.2722   0.2763   0.2779
     0.2810   0.2916   0.3045   0.3116   0.3219   0.3386   0.3391   0.3449
     0.3488   0.3518   0.3617   0.3665   0.3810   0.3835   0.3875   0.3893
     0.3903   0.4095   0.4132   0.4189   0.4340   0.4386   0.4473   0.4532
     0.4590   0.4609   0.4634   0.4643   0.4743   0.4795   0.4856   0.4881
     0.4916   0.4966   0.4990   0.5063   0.5108   0.5116   0.5140   0.5192
     0.5268   0.5300   0.5359   0.5595   0.5633   0.5653   0.5740   0.5846
     0.5919   0.5945   0.6002   0.6097   0.6132   0.6212   0.6246   0.6290
     0.6362   0.6388   0.6512   0.6547   0.6621   0.6663   0.6725   0.6845
     0.7002   0.7120   0.7137   0.7187   0.7200   0.7218   0.7227   0.7347
     0.7396   0.7465   0.7515   0.7612   0.7642   0.7711   0.7740   0.7781
     0.7813   0.7825   0.7863   0.7959   0.7984   0.8019   0.8124   0.8127
     0.8255   0.8278   0.8325   0.8340   0.8365   0.8383   0.8426   0.8556
     0.8594   0.8657   0.8667   0.8697   0.8725   0.8882   0.8910   0.9120
     0.9193   0.9233   0.9256   0.9271   0.9288   0.9314   0.9388   0.9507
     0.9587   0.9627   0.9668   0.9713   0.9830   0.9902   0.9914   0.9924
     0.9958   0.9973   1.0071   1.0095   1.0143   1.0207   1.0230   1.0279
     1.0288   1.0377   1.0397   1.0474   1.0610   1.0794   1.0831   1.0893
     1.1097   1.1126   1.1213   1.1215   1.1239   1.1319   1.1420   1.1463
     1.1501   1.1525   1.1554   1.1563   1.1656   1.1665   1.1679   1.1742
     1.1862   1.1871   1.1922   1.1933   1.1962   1.2124   1.2137   1.2158
     1.2225   1.2267   1.2308   1.2395   1.2437   1.2469   1.2608   1.2615
     1.2689   1.2713   1.2721   1.2756   1.2871   1.2899   1.3139   1.3232
     1.3314   1.3315   1.3383   1.3405   1.3418   1.3506   1.3561   1.3670
     1.3687   1.3712   1.3867   1.3900   1.4008   1.4086   1.4124   1.4190
     1.4197   1.4217   1.4255   1.4285   1.4302   1.4352   1.4358   1.4514
     1.4519   1.4590   1.4600   1.4664   1.4727   1.4736   1.4849   1.4877
     1.4887   1.4955   1.4973   1.5030   1.5052   1.5102   1.5144   1.5191
     1.5266   1.5285   1.5333   1.5348   1.5385   1.5394   1.5450   1.5476
     1.5596   1.5667   1.5704   1.5710   1.5742   1.5766   1.5790   1.5865
     1.5875   1.5887   1.5916   1.5995   1.6023   1.6085   1.6165   1.6267
     1.6324   1.6345   1.6377   1.6459   1.6576   1.6603   1.6636   1.6650
     1.6759   1.6785   1.6801   1.6833   1.6874   1.6950   1.7061   1.7111
     1.7139   1.7173   1.7175   1.7184   1.7209   1.7265   1.7293   1.7301
     1.7492   1.7520   1.7545   1.7595   1.7628   1.7653   1.7745   1.7819
     1.7853   1.7953   1.7965   1.7977   1.8022   1.8075   1.8178   1.8237
     1.8248   1.8261   1.8302   1.8350   1.8405   1.8613   1.8654   1.8698
     1.8780   1.8808   1.8894   1.8921   1.8970   1.9007   1.9051   1.9110
     1.9129   1.9159   1.9206   1.9227   1.9266   1.9313   1.9320   1.9341
     1.9367   1.9381   1.9388   1.9437   1.9533   1.9565   1.9591   1.9630
     1.9761   1.9767   1.9865   1.9916   1.9930   1.9952   1.9971   1.9980
     2.0009   2.0043   2.0067   2.0087   2.0104   2.0126   2.0157   2.0203
     2.0292   2.0334   2.0338   2.0364   2.0376   2.0403   2.0424   2.0458
     2.0470   2.0546   2.0625   2.0731   2.0752   2.0786   2.0829   2.0874
     2.0894   2.0908   2.0930   2.0969   2.1006   2.1013   2.1138   2.1215
     2.1249   2.1277   2.1337   2.1383   2.1396   2.1425   2.1470   2.1487
     2.1578   2.1594   2.1672   2.1725   2.1773   2.1780   2.1837   2.1849
     2.1889   2.1941   2.1989   2.2008   2.2020   2.2059   2.2081   2.2115
     2.2129   2.2153   2.2259   2.2274   2.2289   2.2320   2.2435   2.2452
     2.2473   2.2526   2.2539   2.2562   2.2598   2.2613   2.2625   2.2684
     2.2744   2.2751   2.2784   2.2794   2.2796   2.2836   2.2930   2.2953
     2.2982   2.3035   2.3044   2.3049   2.3115   2.3146   2.3173   2.3243
     2.3251   2.3344   2.3353   2.3357   2.3417   2.3476   2.3501   2.3673
     2.3695   2.3736   2.3760   2.3864   2.4062   2.4136   2.4345   2.4601
     2.4845   2.4968   2.5174   2.5324   2.5417   2.5504   2.5530   2.5739
     2.5792   2.5855   2.6317   2.7109   2.9301   2.9357   2.9531   2.9639
     2.9906   3.0485   3.0552   3.0609   3.1714   3.2829   3.3659   3.3790
     3.4015   3.4392   3.5023   3.5954   3.6113   3.6266   3.6737   3.7163
     3.7465   3.8918   3.9640   3.9757   3.9776   4.1974   4.4025   4.4258
     4.4666   4.5364   4.6077   4.6332   4.6421   4.6539   4.7711   4.8464
     4.9003   4.9390   4.9639   4.9643   5.0738   5.1105   5.1341   5.1395
     5.1679   5.2351   5.2833   5.3240   5.3636   5.4219   5.4277   5.4706
     5.5227   5.6646   5.6874   5.6999   5.7675   5.8012   5.8385   6.0028
     6.0266   6.0779   6.2134   6.2239   6.2409   6.2763   6.3395   6.4314
     6.5440   6.5477   6.6530   6.7565   6.7727   6.8101   6.8689   6.8920
     7.0021   7.0832   7.1779   7.2468   7.2510   7.2914   7.3211   7.5370
     7.5783   7.6131   7.6923   7.7583   7.7989   7.8830   7.8975   7.9194
     7.9471   7.9591   7.9847   7.9916   8.0026   8.1035   8.1451   8.1809
     8.2402   8.2418   8.2727   8.2794   8.2965   8.4354   8.5483   8.6374
     8.6625   8.7286   8.7787   8.7811   8.8155   8.8226   8.8749   8.9385
     8.9717   9.0260   9.0665   9.0683   9.0735   9.0879   9.2329   9.2977
     9.3293   9.3389   9.3556   9.3670   9.4488   9.5064   9.5255   9.5373
     9.5407   9.6195   9.6400   9.7127   9.7853   9.7954   9.8085   9.8245
     9.8469   9.8744   9.9132   9.9409   9.9621  10.0242  10.0541  10.1340
    10.1379  10.1504  10.1785  10.2069  10.2252  10.2619  10.3841  10.3880
    10.4083  10.4968  10.5769  10.5982

          k =-0.5000 0.0000 0.0000 (256496 PWs)   bands (ev):

   -15.1124 -15.1101 -14.6939 -14.6906 -14.5949 -14.5943 -13.5675 -13.5662
   -13.5611 -13.5592 -11.7987 -11.7963 -11.7878 -11.7867 -11.2984 -11.2830
   -10.9286 -10.8963 -10.8260 -10.8018 -10.2118 -10.2013  -9.8299  -9.8285
    -9.2554  -9.2475  -8.8352  -8.8326  -8.0125  -8.0071  -7.9913  -7.9882
    -6.5098  -6.5012  -6.4433  -6.4409  -6.4386  -6.4370  -4.9936  -4.9838
    -4.4704  -4.4680  -4.3088  -4.3027  -3.9970  -3.9937  -3.9550  -3.9530
    -3.8882  -3.8811  -3.8156  -3.8133  -3.7466  -3.7434  -3.7277  -3.7247
    -3.6913  -3.6887  -3.4791  -3.4737  -3.4673  -3.4559  -3.3674  -3.3619
    -3.1144  -3.1039  -3.0373  -3.0364  -2.8794  -2.8729  -2.6602  -2.6587
    -2.5683  -2.5664  -2.5661  -2.5649  -2.4580  -2.4529  -2.4508  -2.4460
    -2.4444  -2.4433  -2.2161  -2.2111  -1.9521  -1.9471  -1.8663  -1.8634
    -1.8584  -1.8555  -1.8505  -1.8488  -1.6891  -1.6874  -1.6750  -1.6737
    -1.5882  -1.5792  -1.5454  -1.5428  -1.1116  -1.1098  -1.1084  -1.1060
    -1.0335  -1.0329  -1.0320  -1.0304  -1.0247  -1.0235  -0.9787  -0.9760
    -0.8151  -0.8142  -0.8127  -0.8120  -0.7721  -0.7671  -0.7619  -0.7615
    -0.7588  -0.7586  -0.7497  -0.7478  -0.6968  -0.6959  -0.6492  -0.6485
    -0.6165  -0.6143  -0.6057  -0.6041  -0.5845  -0.5840  -0.5677  -0.5674
    -0.5451  -0.5440  -0.5205  -0.5192  -0.5093  -0.5075  -0.5071  -0.5055
    -0.4866  -0.4864  -0.4739  -0.4734  -0.4560  -0.4554  -0.4526  -0.4516
    -0.4381  -0.4375  -0.4336  -0.4317  -0.3741  -0.3734  -0.3702  -0.3658
    -0.3444  -0.3436  -0.3382  -0.3377  -0.3135  -0.3124  -0.3061  -0.3051
    -0.2889  -0.2864  -0.2701  -0.2696  -0.2623  -0.2619  -0.2451  -0.2446
    -0.2389  -0.2346  -0.2054  -0.2020  -0.1917  -0.1909  -0.1665  -0.1648
    -0.1448  -0.1430  -0.1305  -0.1294  -0.1290  -0.1283  -0.1203  -0.1186
    -0.1045  -0.1041  -0.0936  -0.0928  -0.0768  -0.0754  -0.0703  -0.0688
    -0.0642  -0.0630  -0.0607  -0.0581  -0.0464  -0.0448  -0.0008   0.0007
     0.0688   0.0702   0.1084   0.1096   0.1214   0.1231   0.1402   0.1413
     0.1649   0.1657   0.1675   0.1696   0.1762   0.1775   0.1949   0.1952
     0.1996   0.2056   0.2181   0.2184   0.2232   0.2242   0.2488   0.2490
     0.2588   0.2606   0.2627   0.2648   0.3130   0.3210   0.3221   0.3256
     0.3590   0.3594   0.3684   0.3694   0.3781   0.3812   0.3928   0.3950
     0.3975   0.4070   0.4092   0.4129   0.4179   0.4195   0.4337   0.4350
     0.4585   0.4595   0.4656   0.4676   0.4888   0.4909   0.5011   0.5027
     0.5100   0.5124   0.5132   0.5327   0.5390   0.5395   0.5416   0.5417
     0.5530   0.5653   0.5660   0.5676   0.5834   0.5853   0.5863   0.5866
     0.5950   0.5953   0.6107   0.6293   0.6318   0.6327   0.6541   0.6586
     0.6685   0.6704   0.6859   0.6919   0.6926   0.6960   0.7048   0.7120
     0.7149   0.7278   0.7302   0.7330   0.7422   0.7616   0.7650   0.7678
     0.7702   0.7713   0.7798   0.7864   0.7926   0.7966   0.8009   0.8047
     0.8054   0.8187   0.8194   0.8199   0.8204   0.8217   0.8250   0.8275
     0.8454   0.8481   0.8616   0.8684   0.8702   0.8719   0.9007   0.9032
     0.9099   0.9113   0.9123   0.9171   0.9224   0.9256   0.9261   0.9317
     0.9343   0.9348   0.9368   0.9381   0.9405   0.9422   0.9509   0.9621
     0.9627   0.9635   0.9652   0.9665   0.9703   0.9754   0.9761   0.9774
     0.9803   0.9808   0.9950   0.9977   0.9990   0.9995   1.0023   1.0330
     1.0359   1.0419   1.0437   1.0614   1.0650   1.1014   1.1092   1.1119
     1.1181   1.1302   1.1314   1.1332   1.1350   1.1378   1.1390   1.1494
     1.1714   1.1722   1.1728   1.1753   1.1813   1.1856   1.1870   1.1905
     1.1928   1.1972   1.1988   1.1998   1.2056   1.2164   1.2222   1.2228
     1.2239   1.2245   1.2259   1.2293   1.2307   1.2402   1.2424   1.2534
     1.2535   1.2555   1.2615   1.2795   1.2942   1.2954   1.3036   1.3056
     1.3085   1.3212   1.3216   1.3280   1.3296   1.3314   1.3361   1.3391
     1.3463   1.3497   1.3521   1.3723   1.3760   1.3783   1.3786   1.3820
     1.3832   1.3905   1.3939   1.3988   1.3997   1.4034   1.4062   1.4084
     1.4109   1.4364   1.4381   1.4398   1.4429   1.4438   1.4443   1.4563
     1.4578   1.4614   1.4628   1.4746   1.4757   1.4777   1.4824   1.4921
     1.4935   1.4946   1.4986   1.5077   1.5141   1.5158   1.5175   1.5190
     1.5211   1.5233   1.5324   1.5378   1.5638   1.5685   1.5706   1.5733
     1.5787   1.5797   1.5935   1.5945   1.5967   1.5970   1.5990   1.6018
     1.6188   1.6199   1.6282   1.6316   1.6330   1.6437   1.6504   1.6526
     1.6591   1.6614   1.6619   1.6658   1.6667   1.6774   1.6824   1.6827
     1.6851   1.6907   1.6909   1.6986   1.6987   1.7001   1.7039   1.7077
     1.7260   1.7275   1.7300   1.7317   1.7372   1.7376   1.7496   1.7568
     1.7639   1.7835   1.7842   1.7911   1.7938   1.7983   1.8166   1.8179
     1.8234   1.8259   1.8274   1.8318   1.8407   1.8507   1.8635   1.8646
     1.8743   1.8771   1.8864   1.8933   1.8958   1.9011   1.9094   1.9095
     1.9129   1.9164   1.9180   1.9186   1.9217   1.9268   1.9335   1.9369
     1.9420   1.9449   1.9491   1.9501   1.9556   1.9574   1.9580   1.9583
     1.9658   1.9694   1.9794   1.9824   1.9831   1.9839   2.0020   2.0033
     2.0060   2.0093   2.0100   2.0106   2.0111   2.0178   2.0192   2.0293
     2.0374   2.0393   2.0403   2.0408   2.0455   2.0504   2.0518   2.0526
     2.0552   2.0556   2.0565   2.0587   2.0680   2.0699   2.0708   2.0768
     2.0942   2.0981   2.1055   2.1097   2.1117   2.1152   2.1190   2.1195
     2.1234   2.1239   2.1303   2.1312   2.1355   2.1387   2.1398   2.1442
     2.1448   2.1501   2.1506   2.1512   2.1518   2.1535   2.1564   2.1580
     2.1591   2.1709   2.1714   2.1783   2.1815   2.1867   2.1914   2.1938
     2.1958   2.2054   2.2056   2.2106   2.2122   2.2200   2.2238   2.2248
     2.2279   2.2287   2.2304   2.2418   2.2425   2.2451   2.2459   2.2463
     2.2472   2.2527   2.2576   2.2596   2.2624   2.2697   2.2722   2.2730
     2.2733   2.2740   2.2886   2.2952   2.2960   2.2982   2.3110   2.3119
     2.3177   2.3216   2.3218   2.3244   2.3331   2.3336   2.3353   2.3364
     2.3424   2.3437   2.3724   2.3850   2.3889   2.3892   2.3953   2.4016
     2.4047   2.4088   2.4305   2.4308   2.4497   2.4526   2.5638   2.5652
     2.5987   2.6000   2.7471   2.7483   3.0259   3.0326   3.0704   3.0713
     3.0773   3.0775   3.1078   3.1087   3.1235   3.1254   3.5433   3.5448
     3.5832   3.5836   3.8582   3.8590   3.8791   3.8848   3.9681   3.9743
     3.9955   3.9957   4.0860   4.0877   4.1597   4.1654   4.6041   4.6078
     4.6231   4.6244   4.7444   4.7545   4.7981   4.8113   4.8233   4.8246
     4.9133   4.9135   5.3010   5.3105   5.3682   5.3823   5.4520   5.4758
     5.4890   5.4962   5.5122   5.5474   5.6658   5.6744   5.6784   5.6838
     5.7078   5.7202   5.8221   5.8403   5.8493   5.8541   5.9079   5.9169
     5.9228   5.9319   6.0236   6.0341   6.0416   6.0826   6.1400   6.1542
     6.2137   6.2503   6.5118   6.5159   6.5498   6.5876   6.6740   6.6786
     6.7250   6.7311   6.7844   6.8001   6.8041   6.8243   6.8540   6.8804
     7.2883   7.2961   7.3565   7.3604   7.3921   7.4047   7.4356   7.4450
     7.8467   7.8675   7.8783   7.8795   8.0046   8.0079   8.0088   8.0159
     8.3108   8.3124   8.4028   8.4036   8.4125   8.4143   8.4296   8.4324
     8.5921   8.5949   8.6188   8.6194   8.6917   8.6944   8.7001   8.7055
     8.7092   8.7128   8.9872   8.9892   9.0565   9.0586   9.0673   9.0709
     9.1653   9.1657   9.2544   9.2687   9.4477   9.4555   9.5200   9.5208
     9.5700   9.5749   9.6424   9.6469   9.6732   9.6735   9.6861   9.6866
     9.8622   9.8648   9.9373   9.9426  10.0106  10.0130  10.1965  10.1974
    10.2776  10.2786  10.3244  10.3365  10.3410  10.3508  10.3779  10.3830
    10.3938  10.3964  10.4476  10.4494

          k =-0.5000-0.2165 0.0000 (256328 PWs)   bands (ev):

   -15.0913 -15.0888 -14.8440 -14.8420 -14.2121 -14.2098 -14.1786 -14.1776
   -12.7723 -12.7703 -12.7455 -12.7441 -11.2816 -11.2643 -11.0408 -11.0337
   -10.7422 -10.7411 -10.6558 -10.6538 -10.5673 -10.5526 -10.4317 -10.4063
    -8.9020  -8.8763  -8.7555  -8.7352  -7.8980  -7.8939  -7.8101  -7.8094
    -7.1584  -7.1517  -7.0277  -7.0147  -5.0262  -5.0230  -5.0172  -5.0152
    -4.4716  -4.4354  -4.3630  -4.3589  -4.3407  -4.3231  -4.3215  -4.3095
    -4.2776  -4.2700  -4.0453  -4.0437  -3.7566  -3.7491  -3.3695  -3.3643
    -3.3481  -3.3459  -3.3060  -3.3046  -3.2979  -3.2962  -3.2759  -3.2729
    -3.2716  -3.2705  -3.0572  -3.0475  -2.8426  -2.8405  -2.7367  -2.7354
    -2.7187  -2.7183  -2.6371  -2.6291  -2.5557  -2.5541  -2.5403  -2.5358
    -2.3001  -2.2966  -2.2226  -2.2174  -2.1435  -2.1369  -1.8646  -1.8635
    -1.7294  -1.7273  -1.7269  -1.7259  -1.4571  -1.4532  -1.4363  -1.4359
    -1.4276  -1.4255  -1.4136  -1.4132  -1.2457  -1.2444  -1.2309  -1.2299
    -1.1680  -1.1666  -1.0436  -1.0433  -1.0111  -1.0058  -0.9651  -0.9649
    -0.9566  -0.9555  -0.8888  -0.8870  -0.8668  -0.8645  -0.7457  -0.7450
    -0.7338  -0.7297  -0.6612  -0.6580  -0.6410  -0.6395  -0.6381  -0.6362
    -0.6008  -0.5996  -0.5913  -0.5911  -0.5883  -0.5841  -0.5831  -0.5821
    -0.5708  -0.5678  -0.5473  -0.5458  -0.5443  -0.5435  -0.5306  -0.5294
    -0.5262  -0.5258  -0.5110  -0.5102  -0.5098  -0.5088  -0.4647  -0.4637
    -0.4006  -0.3992  -0.3897  -0.3883  -0.3755  -0.3711  -0.3578  -0.3572
    -0.3451  -0.3441  -0.3200  -0.3187  -0.3095  -0.3084  -0.2957  -0.2947
    -0.2907  -0.2904  -0.2785  -0.2779  -0.2707  -0.2703  -0.2584  -0.2563
    -0.2299  -0.2285  -0.2258  -0.2232  -0.2039  -0.2033  -0.2024  -0.2014
    -0.1881  -0.1874  -0.1854  -0.1847  -0.1651  -0.1640  -0.1384  -0.1379
    -0.1356  -0.1313  -0.0922  -0.0888  -0.0785  -0.0766  -0.0560  -0.0546
    -0.0251  -0.0245  -0.0029  -0.0017   0.0165   0.0179   0.0278   0.0287
     0.0740   0.0750   0.0856   0.0859   0.0872   0.0877   0.0985   0.1003
     0.1124   0.1131   0.1388   0.1396   0.1457   0.1469   0.1508   0.1515
     0.1630   0.1641   0.1736   0.1746   0.2460   0.2509   0.2577   0.2636
     0.2733   0.2738   0.2944   0.2975   0.2996   0.3013   0.3074   0.3082
     0.3237   0.3417   0.3503   0.3505   0.3522   0.3531   0.3918   0.3932
     0.3969   0.3981   0.4011   0.4027   0.4049   0.4074   0.4364   0.4387
     0.4431   0.4478   0.4660   0.4682   0.4712   0.4747   0.5218   0.5237
     0.5431   0.5453   0.5627   0.5699   0.5737   0.5747   0.5754   0.5760
     0.5774   0.5790   0.5861   0.5869   0.5877   0.5909   0.5965   0.6139
     0.6152   0.6305   0.6544   0.6614   0.6619   0.6624   0.6655   0.6735
     0.6757   0.6763   0.7054   0.7069   0.7082   0.7122   0.7130   0.7132
     0.7141   0.7143   0.7179   0.7211   0.7262   0.7295   0.7376   0.7490
     0.7561   0.7703   0.7714   0.7800   0.7833   0.7868   0.7926   0.8051
     0.8180   0.8284   0.8346   0.8362   0.8506   0.8575   0.8617   0.8625
     0.8653   0.8669   0.8786   0.8820   0.8830   0.8894   0.8970   0.8972
     0.9033   0.9040   0.9178   0.9226   0.9230   0.9264   0.9269   0.9273
     0.9316   0.9397   0.9410   0.9445   0.9485   0.9535   0.9544   0.9567
     0.9666   0.9688   0.9699   0.9703   0.9712   0.9752   0.9768   0.9840
     0.9848   0.9940   1.0029   1.0345   1.0353   1.0389   1.0449   1.0482
     1.0499   1.0512   1.0518   1.0822   1.0848   1.0860   1.0875   1.1002
     1.1018   1.1050   1.1117   1.1135   1.1268   1.1411   1.1466   1.1559
     1.1606   1.1633   1.1779   1.1802   1.1877   1.1929   1.1945   1.1963
     1.2028   1.2050   1.2072   1.2212   1.2241   1.2245   1.2252   1.2358
     1.2360   1.2422   1.2437   1.2474   1.2550   1.2569   1.2574   1.2630
     1.2717   1.2751   1.2756   1.2795   1.2816   1.2829   1.2873   1.2975
     1.3006   1.3081   1.3127   1.3134   1.3211   1.3302   1.3360   1.3375
     1.3388   1.3400   1.3585   1.3687   1.3698   1.3748   1.3779   1.3882
     1.3940   1.3961   1.3976   1.4041   1.4060   1.4070   1.4100   1.4299
     1.4303   1.4307   1.4343   1.4392   1.4433   1.4506   1.4549   1.4573
     1.4577   1.4587   1.4591   1.4633   1.4648   1.4900   1.4954   1.4987
     1.5030   1.5053   1.5055   1.5102   1.5143   1.5158   1.5223   1.5284
     1.5387   1.5407   1.5462   1.5471   1.5544   1.5552   1.5574   1.5589
     1.5627   1.5689   1.5769   1.5780   1.5871   1.5929   1.5951   1.6026
     1.6052   1.6097   1.6120   1.6144   1.6175   1.6185   1.6193   1.6294
     1.6337   1.6398   1.6449   1.6465   1.6522   1.6611   1.6744   1.6850
     1.6877   1.6900   1.6938   1.7066   1.7105   1.7116   1.7249   1.7254
     1.7453   1.7453   1.7608   1.7693   1.7821   1.7837   1.7949   1.7982
     1.7991   1.8009   1.8065   1.8084   1.8338   1.8342   1.8372   1.8439
     1.8489   1.8501   1.8509   1.8530   1.8545   1.8553   1.8581   1.8616
     1.8620   1.8632   1.8661   1.8680   1.8693   1.8702   1.8755   1.8762
     1.8763   1.8770   1.8828   1.8941   1.9083   1.9122   1.9181   1.9197
[...]
     atom   51 type  1   force =    -0.00012996    0.00002250    0.00010030
     atom   52 type  1   force =     0.00001688   -0.00009166    0.00029531
     atom   53 type  1   force =     0.00006142   -0.00007453    0.00094180
     atom   54 type  1   force =    -0.00010675    0.00019821    0.00000492
     atom   55 type  1   force =    -0.00006537    0.00008161    0.00073767
     atom   56 type  1   force =     0.00010118    0.00007385    0.00006800
     atom   57 type  1   force =     0.00001345    0.00014049   -0.00058685
     atom   58 type  1   force =     0.00002571    0.00020602    0.00032964
     atom   59 type  1   force =    -0.00000559    0.00009315   -0.00018697
     atom   60 type  1   force =    -0.00000929    0.00031904    0.00023719
     atom   61 type  1   force =    -0.00003996   -0.00017536    0.00047920
     atom   62 type  1   force =    -0.00011314    0.00040954    0.00042005
     atom   63 type  1   force =     0.00005796   -0.00022658   -0.00009108
     atom   64 type  1   force =     0.00011631    0.00042440    0.00050300
     atom   65 type  1   force =    -0.00005454    0.00008579   -0.00023175
     atom   66 type  1   force =    -0.00007406   -0.00030829    0.00034570
     atom   67 type  1   force =     0.00001725    0.00060554   -0.00061601
     atom   68 type  1   force =     0.00007376   -0.00028777    0.00038328
     atom   69 type  1   force =     0.00001496   -0.00043214    0.00087940
     atom   70 type  1   force =    -0.00029260    0.00019653    0.00099746
     atom   71 type  1   force =    -0.00001449   -0.00030977    0.00036072
     atom   72 type  1   force =     0.00026973    0.00038024    0.00058611
     atom   73 type  1   force =    -0.00002055    0.00037047    0.00056043
     atom   74 type  1   force =    -0.00021031   -0.00023699   -0.00035259
     atom   75 type  1   force =     0.00001886    0.00034259    0.00035434
     atom   76 type  1   force =     0.00019894   -0.00048371   -0.00046721
     atom   77 type  1   force =    -0.00003088   -0.00056218    0.00027317
     atom   78 type  1   force =     0.00010575    0.00028901    0.00024783
     atom   79 type  1   force =     0.00003738   -0.00014297    0.00060039
     atom   80 type  1   force =    -0.00009904    0.00029316   -0.00005562
     atom   81 type  1   force =    -0.00020004   -0.00035912    0.00053305
     atom   82 type  1   force =    -0.00008044    0.00025031    0.00163435
     atom   83 type  1   force =     0.00021391    0.00053269    0.00052203
     atom   84 type  1   force =     0.00006935    0.00050693    0.00156433
     atom   85 type  1   force =    -0.00008564    0.00015753   -0.00092024
     atom   86 type  1   force =    -0.00023380   -0.00071308   -0.00010081
     atom   87 type  1   force =     0.00005589    0.00005810   -0.00188051
     atom   88 type  1   force =     0.00025618   -0.00029777   -0.00010878
     atom   89 type  1   force =    -0.00031604   -0.00076738    0.00073231
     atom   90 type  1   force =    -0.00020269    0.00046759    0.00015323
     atom   91 type  1   force =     0.00037204   -0.00009068   -0.00007004
     atom   92 type  1   force =     0.00018117    0.00043404    0.00054980
     atom   93 type  1   force =     0.00000822    0.00063529    0.00032701
     atom   94 type  1   force =     0.00009029   -0.00011165   -0.00132701
     atom   95 type  1   force =    -0.00007227   -0.00003678   -0.00099764
     atom   96 type  1   force =    -0.00008843   -0.00019592   -0.00189974
     atom   97 type  1   force =     0.00003597   -0.00021962    0.00148074
     atom   98 type  1   force =     0.00042604    0.00017931    0.00081851
     atom   99 type  1   force =     0.00001326   -0.00036400    0.00198423
     atom  100 type  1   force =    -0.00041334   -0.00006964    0.00044350
     atom  101 type  1   force =     0.00075438    0.00209979   -0.00065324
     atom  102 type  1   force =    -0.00076636    0.00225431   -0.00074008
     atom  103 type  1   force =     0.00024333    0.00096804   -0.00104788
     atom  104 type  1   force =    -0.00009137   -0.00097435   -0.00165841
     atom  105 type  1   force =    -0.00023815    0.00040200   -0.00083239
     atom  106 type  1   force =     0.00006818   -0.00060533   -0.00030130
     atom  107 type  1   force =    -0.00009555   -0.00198598    0.00059422
     atom  108 type  1   force =     0.00009386   -0.00229044   -0.00158694
     atom  109 type  2   force =     0.00002373   -0.00008461   -0.00148048
     atom  110 type  2   force =     0.00003033   -0.00034946   -0.00111815
     atom  111 type  2   force =    -0.00025429   -0.00079352   -0.00257986
     atom  112 type  2   force =    -0.00004935   -0.00106657   -0.00230998
     atom  113 type  2   force =     0.00027928   -0.00033778   -0.00100488
     atom  114 type  2   force =     0.00005363   -0.00003815   -0.00150979
     atom  115 type  2   force =    -0.00000995   -0.00051599   -0.00112078
     atom  116 type  2   force =    -0.00001366   -0.00163014   -0.00047325
     atom  117 type  2   force =    -0.00022333   -0.00034470   -0.00078388
     atom  118 type  2   force =    -0.00000931   -0.00004086   -0.00141018
     atom  119 type  2   force =     0.00024423   -0.00079829   -0.00249567
     atom  120 type  2   force =     0.00001289   -0.00105794   -0.00232020
     atom  121 type  2   force =    -0.00003446   -0.00023844   -0.00102784
     atom  122 type  2   force =     0.00005069   -0.00048839   -0.00129417
     atom  123 type  2   force =     0.00036898   -0.00001761   -0.00058017
     atom  124 type  2   force =    -0.00074477    0.00097779    0.00236946
     atom  125 type  2   force =    -0.00039797   -0.00087016   -0.00014001
     atom  126 type  2   force =     0.00068864   -0.00070695    0.00077449
     atom  127 type  2   force =     0.00002694    0.00026770   -0.00007380
     atom  128 type  2   force =    -0.00005066    0.00053394    0.00017093
     atom  129 type  2   force =     0.00032051   -0.00086915   -0.00017764
     atom  130 type  2   force =    -0.00064221   -0.00070964    0.00077995
     atom  131 type  2   force =    -0.00029052   -0.00002209   -0.00059164
     atom  132 type  2   force =     0.00066572    0.00097764    0.00237211
     atom  133 type  2   force =    -0.00004038    0.00111190    0.00179912
     atom  134 type  2   force =     0.00000553    0.00075815    0.00109769
     atom  135 type  2   force =     0.00073969   -0.00079091    0.00145981
     atom  136 type  2   force =    -0.00038883    0.00023308   -0.00057174
     atom  137 type  2   force =    -0.00070409    0.00111609   -0.00070906
     atom  138 type  2   force =     0.00030997    0.00012411   -0.00072913
     atom  139 type  2   force =     0.00002121   -0.00112888    0.00148620
     atom  140 type  2   force =    -0.00003167    0.00068765   -0.00092505
     atom  141 type  2   force =     0.00062052    0.00111480   -0.00074306
     atom  142 type  2   force =    -0.00027365    0.00012661   -0.00074607
     atom  143 type  2   force =    -0.00068062   -0.00077361    0.00137087
     atom  144 type  2   force =     0.00035118    0.00023991   -0.00042648
     atom  145 type  2   force =     0.00002415   -0.00008922   -0.00072131
     atom  146 type  2   force =    -0.00003609    0.00046877   -0.00116847
     atom  147 type  2   force =    -0.00015270    0.00131119   -0.00129171
     atom  148 type  2   force =     0.00039409    0.00043022   -0.00180787
     atom  149 type  2   force =     0.00010081    0.00015493   -0.00172337
     atom  150 type  2   force =    -0.00031942    0.00018068   -0.00138780
     atom  151 type  2   force =    -0.00000556    0.00064160   -0.00356937
     atom  152 type  2   force =     0.00004909    0.00050434   -0.00325307
     atom  153 type  2   force =    -0.00007300    0.00016444   -0.00172564
     atom  154 type  2   force =     0.00025466    0.00017319   -0.00144230
     atom  155 type  2   force =     0.00011900    0.00131759   -0.00114193
     atom  156 type  2   force =    -0.00028853    0.00042824   -0.00186237

     Total force =     0.016010     Total SCF correction =     0.000378

     number of scf cycles    =   4
     number of bfgs steps    =   3

     energy   old            =  -13670.9607433512 Ry
     energy   new            =  -13670.9615049931 Ry

     CASE: energy  _new < energy  _old

     new trust radius        =       0.0140343427 bohr
     new conv_thr            =       0.0000000100 Ry


ATOMIC_POSITIONS (angstrom)
Cu      -0.000536527   0.027818497   6.500573471
Cu       1.843699994   1.743883923   6.530640580
Cu       3.689068673   0.028876430   6.498037728
Cu       5.533853604   1.744544635   6.530174855
Cu      -0.000205919   3.452836536   6.572990802
Cu       1.844247449   5.150285409   6.600669734
Cu       3.688700692   3.452880461   6.572574527
Cu       5.533230264   5.150418599   6.600566023
Cu      -0.000024319   6.841924150   6.606855013
Cu       1.844229063   8.533161802   6.608383481
Cu       3.688434990   6.841763233   6.606211604
Cu       5.533200936   8.532742084   6.607650961
Cu      -0.000557669  10.226319742   6.603400298
Cu       1.843888905  11.926379026   6.573584320
Cu       3.688958206  10.226687060   6.602164093
Cu       5.533569389  11.925636621   6.572736394
Cu      -0.000153534  13.635098194   6.528270610
Cu       1.844857459  15.349394138   6.498368416
Cu       3.688624182  13.634195462   6.530328207
Cu       5.532701667  15.349278217   6.498892277
Cu       0.000034156   1.711013637   8.364021873
Cu       1.843735287   0.014031125   8.338657580
Cu       3.688457659   1.709951148   8.362223127
Cu       5.533766113   0.014825128   8.339167322
Cu      -0.000651187   5.134395465   8.437504215
Cu       1.844615214   3.419108181   8.402452819
Cu       3.689097573   5.134290461   8.437834052
Cu       5.532886006   3.418829945   8.402412620
Cu      -0.000712336   8.535015281   8.458462527
Cu       1.844221153   6.838869065   8.458898671
Cu       3.689126616   8.535344173   8.457414126
Cu       5.533268043   6.839286088   8.459081004
Cu      -0.000253037  11.961383844   8.401222133
Cu       1.844026922  10.242615104   8.435624930
Cu       3.688670033  11.959122780   8.402051701
Cu       5.533421421  10.242813927   8.436296306
Cu      -0.000817815  15.362078156   8.339492489
Cu       1.844828782  13.668681057   8.363542603
Cu       3.689230669  15.364305916   8.339052207
Cu       5.532607768  13.668159350   8.362977424
Cu      -0.000783290   0.009439268  10.208056299
Cu       1.843613305   1.693629385  10.219811531
Cu       3.689150354   0.011309920  10.208046846
Cu       5.533844415   1.693662274  10.219757551
Cu      -0.000062389   3.390788116  10.238984623
Cu       1.845095443   5.103663564  10.272872836
Cu       3.688533533   3.387737346  10.238853630
Cu       5.532492255   5.102891720  10.274067530
Cu      -0.000977357   6.826302614  10.310141346
Cu       1.844103262   8.551920435  10.306119754
Cu       3.689496709   6.826820493  10.309883847
Cu       5.533494352   8.551413292  10.309587618
Cu      -0.000759992  10.274978070  10.268132832
Cu       1.844656204  11.987169408  10.236017731
Cu       3.689266186  10.272948830  10.270594383
Cu       5.532816899  11.989068149  10.236596078
Cu      -0.000168751  13.684157974  10.221212898
Cu       1.844134803  15.367996836  10.208305417
Cu       3.688493829  13.684290056  10.218071386
Cu       5.533252903  15.366615274  10.208987475
Cu      -0.000223938   1.687187009  12.089982504
Cu       1.844757400   0.005202738  12.080354569
Cu       3.688615384   1.686508196  12.092578553
Cu       5.532547414   0.005051090  12.081144892
Cu       0.000054452   5.055653155  12.113662530
Cu       1.843523621   3.368434215  12.095726471
Cu       3.688443647   5.052520562  12.112360648
Cu       5.534021677   3.366772736  12.095307220
Cu      -0.000084715   8.588373506  12.124757229
Cu       1.845420811   6.798031860  12.124608905
Cu       3.688743339   8.583487416  12.128201337
Cu       5.532086656   6.795406136  12.129433615
Cu       0.000174498  12.006414546  12.093505302
Cu       1.844842363  10.323729909  12.110241934
Cu       3.688323007  12.011128658  12.091358690
Cu       5.532849704  10.327263256  12.110713095
Cu      -0.000869539  15.373337198  12.082562070
Cu       1.842535324  13.689793814  12.087753480
Cu       3.689109316  15.371070818  12.077834386
Cu       5.534847977  13.689521870  12.091971560
Cu       0.001375674   0.006295872  13.962821428
Cu       1.847437818   1.661004014  13.959684803
Cu       3.686904265  -0.005720369  13.962392378
Cu       5.530019322   1.659329942  13.960227055
Cu       0.000466644   3.297231131  14.003629092
Cu       1.840788836   4.969963679  13.997228988
Cu       3.687914578   3.293599201  13.997769768
Cu       5.536530365   4.964449631  13.995615798
Cu       0.003704716   6.784400635  13.875043172
Cu       1.844414886   8.605016920  13.879549912
Cu       3.684644046   6.773683869  13.878487687
Cu       5.533299671   8.607283335  13.875374607
Cu      -0.000387634  10.420279787  14.004968541
Cu       1.846469402  12.083423438  13.998103734
Cu       3.689103370  10.415066080  13.988707842
Cu       5.531075297  12.084901919  14.004161107
Cu      -0.000801499  13.712050308  13.959631499
Cu       1.838306297  15.373721025  13.959750208
Cu       3.689097226  13.720763927  13.956709365
Cu       5.538922746  15.377293287  13.963389441
Cu       1.869597222  10.275298990  15.704139506
Cu       5.508365849  10.275567665  15.706060065
Cu      -0.002862520   8.546004153  15.605026894
Cu       1.846096408   6.852544968  15.617104926
Cu       3.691374149   8.528802651  15.605224333
Cu       5.531244043   6.847458902  15.602547594
Cu       0.000295883   5.127495252  15.704697134
Cu       3.688015161   5.095611861  15.695052014
C        0.000591917   0.661030850  17.994503835
C        0.000568857   2.080385533  18.036462976
C        1.230237136  -0.049019795  17.988089315
C        1.231225794   2.788334610  18.070307738
C        2.459892339   0.659979217  17.990277968
C        2.460359139   2.079016748  18.026891061
C        3.689650107  -0.049879688  17.981659121
C        3.689667970   2.786609117  18.043253245
C        4.919364260   0.659992281  17.989499414
C        4.918894072   2.079020387  18.026321996
C        6.149046518  -0.049022861  17.987481862
C        6.148071789   2.788354257  18.069711466
C        0.000633817   4.920993274  18.188297382
C        0.000577607   6.341057388  18.345857238
C        1.233655878   4.205396580  18.156178830
C        1.229668509   7.050064110  18.377099622
C        2.457679273   4.918144996  18.219638616
C        2.460059460   6.337731596  18.343600667
C        3.689708101   4.209340730  18.127735409
C        3.689895780   7.046352012  18.393351836
C        4.921763411   4.918240545  18.220290665
C        4.919527123   6.337637847  18.345637004
C        6.145637471   4.205462642  18.155873636
C        6.149819730   7.049927510  18.379207861
C        0.000745571   9.184315925  18.336594038
C        0.000704934  10.603268617  18.217777991
C        1.230735553   8.473085583  18.386887942
C        1.227210152  11.313090757  18.136417503
C        2.459242959   9.179918944  18.338015084
C        2.460934001  10.599844739  18.186433900
C        3.689808881   8.468757755  18.366620811
C        3.689744233  11.314558039  18.145058491
C        4.920395993   9.179799992  18.337549473
C        4.918543132  10.599796222  18.185728500
C        6.148821055   8.472869928  18.387282412
C        6.152299857  11.313079971  18.135853387
C        0.000636149  13.441456486  18.024490785
C        0.000655552  14.860301340  17.992313680
C        1.229868209  12.732983146  18.054002375
C        1.230157870  15.569920831  17.986383717
C        2.459425982  13.440427726  18.033535674
C        2.459925221  14.859859256  17.996221978
C        3.689688513  12.730757343  18.071146006
C        3.689622603  15.569428430  17.992194846
C        4.919910808  13.440397866  18.032995832
C        4.919447027  14.859845475  17.995382940
C        6.149511438  12.732975147  18.053477115
C        6.149074367  15.569916828  17.985670111



     Writing output data file gc.save
     Check: negative starting charge=   -0.001499
     NEW-OLD atomic charge density approx. for the potential
     Check: negative starting charge=   -0.001500

     negative rho (up, down):  1.529E-03 0.000E+00

     total cpu time spent up to now is    22881.8 secs

     Self-consistent Calculation

     iteration #  1     ecut=    80.00 Ry     beta=0.70
     Davidson diagonalization with overlap
     ethr =  1.00E-06,  avg # of iterations =  6.8

     negative rho (up, down):  1.289E-03 0.000E+00

     total cpu time spent up to now is    23638.4 secs

     total energy              =  -13670.96188455 Ry
     Harris-Foulkes estimate   =  -13670.96323870 Ry
     estimated scf accuracy    <       0.01653726 Ry

     iteration #  2     ecut=    80.00 Ry     beta=0.70
     Davidson diagonalization with overlap
     ethr =  1.20E-06,  avg # of iterations =  1.2

     negative rho (up, down):  1.184E-03 0.000E+00

     total cpu time spent up to now is    23829.5 secs

     total energy              =  -13670.96188127 Ry
     Harris-Foulkes estimate   =  -13670.96268971 Ry
     estimated scf accuracy    <       0.00292458 Ry

     iteration #  3     ecut=    80.00 Ry     beta=0.70
     Davidson diagonalization with overlap
     ethr =  2.12E-07,  avg # of iterations =  2.0

     negative rho (up, down):  1.065E-03 0.000E+00

     total cpu time spent up to now is    24063.6 secs

     total energy              =  -13670.96206018 Ry
     Harris-Foulkes estimate   =  -13670.96253170 Ry
     estimated scf accuracy    <       0.00551830 Ry

     iteration #  4     ecut=    80.00 Ry     beta=0.70
     Davidson diagonalization with overlap
     ethr =  2.12E-07,  avg # of iterations =  1.7

     negative rho (up, down):  1.078E-03 0.000E+00

     total cpu time spent up to now is    24261.6 secs

     total energy              =  -13670.96227727 Ry
     Harris-Foulkes estimate   =  -13670.96228941 Ry
     estimated scf accuracy    <       0.00012036 Ry

     iteration #  5     ecut=    80.00 Ry     beta=0.70
     Davidson diagonalization with overlap
     ethr =  8.72E-09,  avg # of iterations =  3.0

     negative rho (up, down):  1.140E-03 0.000E+00

     total cpu time spent up to now is    24495.8 secs

     total energy              =  -13670.96227894 Ry
     Harris-Foulkes estimate   =  -13670.96228955 Ry
     estimated scf accuracy    <       0.00006430 Ry

     iteration #  6     ecut=    80.00 Ry     beta=0.70
     Davidson diagonalization with overlap
     ethr =  4.66E-09,  avg # of iterations =  2.0

     negative rho (up, down):  1.205E-03 0.000E+00

     total cpu time spent up to now is    24700.5 secs

     total energy              =  -13670.96228280 Ry
     Harris-Foulkes estimate   =  -13670.96228345 Ry
     estimated scf accuracy    <       0.00000635 Ry

     iteration #  7     ecut=    80.00 Ry     beta=0.70
     Davidson diagonalization with overlap
     ethr =  4.60E-10,  avg # of iterations =  2.7

     negative rho (up, down):  1.283E-03 0.000E+00

     total cpu time spent up to now is    24923.5 secs

     total energy              =  -13670.96228327 Ry
     Harris-Foulkes estimate   =  -13670.96228363 Ry
     estimated scf accuracy    <       0.00000422 Ry

     iteration #  8     ecut=    80.00 Ry     beta=0.70
     Davidson diagonalization with overlap
     ethr =  3.06E-10,  avg # of iterations =  2.0

     negative rho (up, down):  1.377E-03 0.000E+00

     total cpu time spent up to now is    25127.6 secs

     total energy              =  -13670.96228315 Ry
     Harris-Foulkes estimate   =  -13670.96228348 Ry
     estimated scf accuracy    <       0.00000155 Ry

     iteration #  9     ecut=    80.00 Ry     beta=0.70
     Davidson diagonalization with overlap
