
     Program PWSCF v.5.4.0 starts on 20Mar2017 at  0:44:37 

     This program is part of the open-source Quantum ESPRESSO suite
     for quantum simulation of materials; please cite
         "P. Giannozzi et al., J. Phys.:Condens. Matter 21 395502 (2009);
          URL http://www.quantum-espresso.org", 
     in publications or presentations arising from this work. More details at
     http://www.quantum-espresso.org/quote

     Parallel version (MPI & OpenMP), running on      56 processor cores
     Number of MPI processes:                56
     Threads/MPI process:                     1
     R & G space division:  proc/nbgrp/npool/nimage =      56
     Waiting for input...
     Reading input from standard input

     Current dimensions of program PWSCF are:
     Max number of different atomic species (ntypx) = 10
     Max number of k-points (npk) =  40000
     Max angular momentum in pseudopotentials (lmaxx) =  3

     -------------------------------------
     Parameters for Dispersion Correction:
     -------------------------------------
       atom      VdW radius       C_6     

        Cu         2.952        374.666
        C          2.744         60.710

     Subspace diagonalization in iterative solution of the eigenvalue problem:
     one sub-group per band group will be used
     scalapack distributed-memory algorithm (size of sub-group:  5*  5 procs)

 
     Parallelization info
     --------------------
     sticks:   dense  smooth     PW     G-vecs:    dense   smooth      PW
     Min         114     114     54                15434    15434    4962
     Max         115     115     55                15451    15451    4968
     Sum        6411    6411   3039               864803   864803  278033
 


     bravais-lattice index     =            0
     lattice parameter (alat)  =      13.9425  a.u.
     unit-cell volume          =   21209.0878 (a.u.)^3
     number of atoms/cell      =          156
     number of atomic types    =            2
     number of electrons       =      1380.00
     number of Kohn-Sham states=          828
     kinetic-energy cutoff     =      80.0000  Ry
     charge density cutoff     =     180.0000  Ry
     convergence threshold     =      1.0E-08
     mixing beta               =       0.7000
     number of iterations used =            8  local-TF  mixing
     Exchange-correlation      =  SLA  PW   PBX  PBC ( 1  4  3  4 0 0)
     nstep                     =           50


     celldm(1)=  13.942539  celldm(2)=   0.000000  celldm(3)=   0.000000
     celldm(4)=   0.000000  celldm(5)=   0.000000  celldm(6)=   0.000000

     crystal axes: (cart. coord. in units of alat)
               a(1) = (   1.000000   0.000000   0.000000 )  
               a(2) = (   0.000000   2.309401   0.000000 )  
               a(3) = (   0.000000   0.000000   3.388418 )  

     reciprocal axes: (cart. coord. in units 2 pi/alat)
               b(1) = (  1.000000  0.000000  0.000000 )  
               b(2) = (  0.000000  0.433013  0.000000 )  
               b(3) = (  0.000000  0.000000  0.295123 )  


     PseudoPot. # 1 for Cu read from file:
     /home/549/hxw549/Short/pseudopotentials/Cu.pbe-n-van_ak.UPF
     MD5 check sum: 601f7c30f7467666bec936e0661ce3e1
     Pseudo is Ultrasoft + core correction, Zval = 11.0
     Generated by new atomic code, or converted to UPF format
     Using radial grid of  867 points,  6 beta functions with: 
                l(1) =   0
                l(2) =   0
                l(3) =   1
                l(4) =   1
                l(5) =   2
                l(6) =   2
     Q(r) pseudized with  8 coefficients,  rinner =    1.400   1.400   1.400
                                                       1.400   1.400

     PseudoPot. # 2 for C  read from file:
     /home/549/hxw549/Short/pseudopotentials/C.pbe-mt_gipaw.UPF
     MD5 check sum: 5ac2f21f2c440b14befe521540822c15
     Pseudo is Norm-conserving, Zval =  4.0
     Generated by new atomic code, or converted to UPF format
     Using radial grid of 1073 points,  1 beta functions with: 
                l(1) =   0

     atomic species   valence    mass     pseudopotential
        Cu            11.00    63.54600     Cu( 1.00)
        C              4.00    12.01070     C ( 1.00)

     No symmetry found



   Cartesian axes

     site n.     atom                  positions (alat units)
         1           Cu  tau(   1) = (   0.0000554   0.0013656   0.8701581  )
         2           Cu  tau(   2) = (   0.2499927   0.2354137   0.8713442  )
         3           Cu  tau(   3) = (   0.4999414   0.0013814   0.8701683  )
         4           Cu  tau(   4) = (   0.7500044   0.2355303   0.8716029  )
         5           Cu  tau(   5) = (  -0.0000717   0.4697483   0.8733770  )
         6           Cu  tau(   6) = (   0.2500005   0.6991325   0.8766605  )
         7           Cu  tau(   7) = (   0.5000680   0.4697434   0.8733675  )
         8           Cu  tau(   8) = (   0.7499963   0.6989537   0.8769059  )
         9           Cu  tau(   9) = (   0.0000223   0.9259794   0.8796143  )
        10           Cu  tau(  10) = (   0.2499936   1.1527605   0.8793037  )
        11           Cu  tau(  11) = (   0.4999741   0.9259927   0.8795964  )
        12           Cu  tau(  12) = (   0.7500027   1.1529969   0.8794704  )
        13           Cu  tau(  13) = (  -0.0000192   1.3795041   0.8764807  )
        14           Cu  tau(  14) = (   0.2499952   1.6088371   0.8731781  )
        15           Cu  tau(  15) = (   0.5000162   1.3795024   0.8764714  )
        16           Cu  tau(  16) = (   0.7500009   1.6087410   0.8734045  )
        17           Cu  tau(  17) = (   0.0000497   1.8433128   0.8714364  )
        18           Cu  tau(  18) = (   0.2500037   2.0774958   0.8704501  )
        19           Cu  tau(  19) = (   0.4999473   1.8433027   0.8714289  )
        20           Cu  tau(  20) = (   0.7499924   2.0775159   0.8698954  )
        21           Cu  tau(  21) = (  -0.0000580   0.2336600   1.1173279  )
        22           Cu  tau(  22) = (   0.2500026   0.0013755   1.1179241  )
        23           Cu  tau(  23) = (   0.5000533   0.2336675   1.1172757  )
        24           Cu  tau(  24) = (   0.7499937   0.0011192   1.1178196  )
        25           Cu  tau(  25) = (   0.0001240   0.6946222   1.1264967  )
        26           Cu  tau(  26) = (   0.2499868   0.4653415   1.1209386  )
        27           Cu  tau(  27) = (   0.4998732   0.6946030   1.1264644  )
        28           Cu  tau(  28) = (   0.7500092   0.4653324   1.1207195  )
        29           Cu  tau(  29) = (   0.0001402   1.1545529   1.1295795  )
        30           Cu  tau(  30) = (   0.2499801   0.9244363   1.1295167  )
        31           Cu  tau(  31) = (   0.4998578   1.1545623   1.1295996  )
        32           Cu  tau(  32) = (   0.7500168   0.9244080   1.1296071  )
        33           Cu  tau(  33) = (  -0.0001213   1.6130415   1.1208413  )
        34           Cu  tau(  34) = (   0.2499968   1.3841051   1.1265046  )
        35           Cu  tau(  35) = (   0.5001179   1.6130661   1.1208563  )
        36           Cu  tau(  36) = (   0.7499995   1.3841765   1.1266040  )
        37           Cu  tau(  37) = (   0.0001390   2.0778535   1.1177868  )
        38           Cu  tau(  38) = (   0.2499969   1.8449200   1.1171012  )
        39           Cu  tau(  39) = (   0.4998581   2.0778648   1.1177610  )
        40           Cu  tau(  40) = (   0.7499996   1.8451478   1.1171687  )
        41           Cu  tau(  41) = (  -0.0001015   0.0015388   1.3673936  )
        42           Cu  tau(  42) = (   0.2499984   0.2324737   1.3683962  )
        43           Cu  tau(  43) = (   0.5000960   0.0015443   1.3674055  )
        44           Cu  tau(  44) = (   0.7499954   0.2325865   1.3686245  )
        45           Cu  tau(  45) = (  -0.0001078   0.4605807   1.3724995  )
        46           Cu  tau(  46) = (   0.2499671   0.6920643   1.3772211  )
        47           Cu  tau(  47) = (   0.5001056   0.4605755   1.3724515  )
        48           Cu  tau(  48) = (   0.7500329   0.6917567   1.3766622  )
        49           Cu  tau(  49) = (   0.0003418   0.9239212   1.3775902  )
        50           Cu  tau(  50) = (   0.2499824   1.1547684   1.3781932  )
        51           Cu  tau(  51) = (   0.4996588   0.9238867   1.3774656  )
        52           Cu  tau(  52) = (   0.7500185   1.1547746   1.3773320  )
        53           Cu  tau(  53) = (  -0.0002324   1.3871185   1.3769972  )
        54           Cu  tau(  54) = (   0.2500055   1.6184627   1.3722270  )
        55           Cu  tau(  55) = (   0.5002314   1.3871066   1.3769965  )
        56           Cu  tau(  56) = (   0.7499909   1.6181600   1.3725816  )
        57           Cu  tau(  57) = (  -0.0000568   1.8461170   1.3684286  )
        58           Cu  tau(  58) = (   0.2499900   2.0775238   1.3670170  )
        59           Cu  tau(  59) = (   0.5000539   1.8461367   1.3684105  )
        60           Cu  tau(  60) = (   0.7500079   2.0775842   1.3675461  )
        61           Cu  tau(  61) = (  -0.0001433   0.2305780   1.6213913  )
        62           Cu  tau(  62) = (   0.2500053   0.0005808   1.6165686  )
        63           Cu  tau(  63) = (   0.5001433   0.2305916   1.6214243  )
        64           Cu  tau(  64) = (   0.7499903   0.0011324   1.6166723  )
        65           Cu  tau(  65) = (   0.0000833   0.6903075   1.6253476  )
        66           Cu  tau(  66) = (   0.2500143   0.4604311   1.6230296  )
        67           Cu  tau(  67) = (   0.4999142   0.6903122   1.6252916  )
        68           Cu  tau(  68) = (   0.7499902   0.4608384   1.6231883  )
        69           Cu  tau(  69) = (  -0.0000916   1.1578723   1.6296898  )
        70           Cu  tau(  70) = (   0.2499420   0.9205513   1.6309945  )
        71           Cu  tau(  71) = (   0.5000845   1.1576740   1.6294851  )
        72           Cu  tau(  72) = (   0.7500583   0.9208934   1.6297045  )
        73           Cu  tau(  73) = (  -0.0002914   1.6186085   1.6236615  )
        74           Cu  tau(  74) = (   0.2499547   1.3887175   1.6242489  )
        75           Cu  tau(  75) = (   0.5002879   1.6187351   1.6235274  )
        76           Cu  tau(  76) = (   0.7500467   1.3889172   1.6251693  )
        77           Cu  tau(  77) = (  -0.0004466   2.0780898   1.6163984  )
        78           Cu  tau(  78) = (   0.2500061   1.8483348   1.6213036  )
        79           Cu  tau(  79) = (   0.5004425   2.0781189   1.6163030  )
        80           Cu  tau(  80) = (   0.7499927   1.8484226   1.6208719  )
        81           Cu  tau(  81) = (  -0.0006733  -0.0017296   1.8661842  )
        82           Cu  tau(  82) = (   0.2500409   0.2251418   1.8735103  )
        83           Cu  tau(  83) = (   0.5006768  -0.0018779   1.8661534  )
        84           Cu  tau(  84) = (   0.7499617   0.2253444   1.8732483  )
        85           Cu  tau(  85) = (  -0.0001514   0.4496633   1.8766580  )
        86           Cu  tau(  86) = (   0.2499066   0.6768390   1.8822244  )
        87           Cu  tau(  87) = (   0.5001489   0.4497713   1.8767163  )
        88           Cu  tau(  88) = (   0.7500825   0.6769826   1.8825961  )
        89           Cu  tau(  89) = (  -0.0003724   0.9190934   1.8732673  )
        90           Cu  tau(  90) = (   0.2498525   1.1599220   1.8725242  )
        91           Cu  tau(  91) = (   0.5003599   0.9191916   1.8729589  )
        92           Cu  tau(  92) = (   0.7501284   1.1597479   1.8733113  )
        93           Cu  tau(  93) = (   0.0003194   1.4019011   1.8825603  )
        94           Cu  tau(  94) = (   0.2503267   1.6288742   1.8766346  )
        95           Cu  tau(  95) = (   0.4996530   1.4010039   1.8813779  )
        96           Cu  tau(  96) = (   0.7496772   1.6288767   1.8753473  )
        97           Cu  tau(  97) = (  -0.0001875   1.8535425   1.8732193  )
        98           Cu  tau(  98) = (   0.2499096   2.0809099   1.8663903  )
        99           Cu  tau(  99) = (   0.5001917   1.8539658   1.8731123  )
       100           Cu  tau( 100) = (   0.7500895   2.0808433   1.8658630  )
       101           Cu  tau( 101) = (   0.2511001   1.3890660   2.1165251  )
       102           Cu  tau( 102) = (   0.7488700   1.3902809   2.1164815  )
       103           Cu  tau( 103) = (   0.0007500   1.1556332   2.1149277  )
       104           Cu  tau( 104) = (   0.2496030   0.9236652   2.1098239  )
       105           Cu  tau( 105) = (   0.4992475   1.1542913   2.1152476  )
       106           Cu  tau( 106) = (   0.7504092   0.9241918   2.1157390  )
       107           Cu  tau( 107) = (  -0.0000407   0.6894616   2.1169714  )
       108           Cu  tau( 108) = (   0.5000237   0.6901523   2.1165194  )
       109           C   tau( 109) = (   0.0000080   0.0957405   2.5556229  )
       110           C   tau( 110) = (   0.0000092   0.2877917   2.5435245  )
       111           C   tau( 111) = (   0.1666742  -0.0005107   2.5598733  )
       112           C   tau( 112) = (   0.1667175   0.3839862   2.5364767  )
       113           C   tau( 113) = (   0.3333233   0.0956394   2.5551681  )
       114           C   tau( 114) = (   0.3333564   0.2877034   2.5435224  )
       115           C   tau( 115) = (   0.5000058  -0.0004738   2.5605032  )
       116           C   tau( 116) = (   0.5000021   0.3838599   2.5370558  )
       117           C   tau( 117) = (   0.6666872   0.0956432   2.5551802  )
       118           C   tau( 118) = (   0.6666484   0.2877071   2.5435038  )
       119           C   tau( 119) = (   0.8333398  -0.0005066   2.5599352  )
       120           C   tau( 120) = (   0.8333010   0.3839827   2.5364587  )
       121           C   tau( 121) = (   0.0000109   0.6726396   2.5182942  )
       122           C   tau( 122) = (   0.0000278   0.8657386   2.5196405  )
       123           C   tau( 123) = (   0.1668496   0.5762959   2.5246820  )
       124           C   tau( 124) = (   0.1665417   0.9618559   2.5167727  )
       125           C   tau( 125) = (   0.3332266   0.6726760   2.5211398  )
       126           C   tau( 126) = (   0.3334017   0.8654708   2.5172584  )
       127           C   tau( 127) = (   0.4999977   0.5762069   2.5229245  )
       128           C   tau( 128) = (   0.4999782   0.9616023   2.5181285  )
       129           C   tau( 129) = (   0.6667757   0.6726449   2.5212044  )
       130           C   tau( 130) = (   0.6665677   0.8654472   2.5172193  )
       131           C   tau( 131) = (   0.8331712   0.5762829   2.5245913  )
       132           C   tau( 132) = (   0.8334961   0.9618718   2.5166979  )
       133           C   tau( 133) = (   0.0000081   1.2507623   2.5185844  )
       134           C   tau( 134) = (   0.0000097   1.4434234   2.5245174  )
       135           C   tau( 135) = (   0.1667285   1.1543211   2.5187976  )
       136           C   tau( 136) = (   0.1664846   1.5398400   2.5260962  )
       137           C   tau( 137) = (   0.3331936   1.2504838   2.5188605  )
       138           C   tau( 138) = (   0.3333534   1.4435059   2.5205315  )
       139           C   tau( 139) = (   0.4999979   1.1541241   2.5153607  )
       140           C   tau( 140) = (   0.4999985   1.5398209   2.5267292  )
       141           C   tau( 141) = (   0.6668019   1.2504867   2.5188389  )
       142           C   tau( 142) = (   0.6666432   1.4435019   2.5205772  )
       143           C   tau( 143) = (   0.8332794   1.1543538   2.5188782  )
       144           C   tau( 144) = (   0.8335318   1.5398315   2.5261244  )
       145           C   tau( 145) = (   0.0000051   1.8283299   2.5452170  )
       146           C   tau( 146) = (   0.0000099   2.0204187   2.5565585  )
       147           C   tau( 147) = (   0.1666309   1.7321500   2.5389888  )
       148           C   tau( 148) = (   0.1666576   2.1164994   2.5612675  )
       149           C   tau( 149) = (   0.3332917   1.8282567   2.5453906  )
       150           C   tau( 150) = (   0.3333526   2.0203349   2.5568879  )
       151           C   tau( 151) = (   0.5000000   1.7320308   2.5382587  )
       152           C   tau( 152) = (   0.5000010   2.1165048   2.5605371  )
       153           C   tau( 153) = (   0.6667146   1.8282488   2.5454367  )
       154           C   tau( 154) = (   0.6666641   2.0203343   2.5568446  )
       155           C   tau( 155) = (   0.8333800   1.7321469   2.5390075  )
       156           C   tau( 156) = (   0.8333464   2.1165005   2.5612417  )

     number of k points=     6  gaussian smearing, width (Ry)=  0.1000
                       cart. coord. in units 2pi/alat
        k(    1) = (   0.0000000   0.0000000   0.0000000), wk =   0.2500000
        k(    2) = (   0.0000000  -0.2165064   0.0000000), wk =   0.2500000
        k(    3) = (   0.2500000   0.0000000   0.0000000), wk =   0.5000000
        k(    4) = (   0.2500000  -0.2165064   0.0000000), wk =   0.5000000
        k(    5) = (  -0.5000000   0.0000000   0.0000000), wk =   0.2500000
        k(    6) = (  -0.5000000  -0.2165064   0.0000000), wk =   0.2500000

     Dense  grid:   864803 G-vectors     FFT dimensions: (  60, 144, 216)

     Largest allocated arrays     est. size (Mb)     dimensions
        Kohn-Sham Wavefunctions        58.29 Mb     (    4614,  828)
        NL pseudopotentials           140.24 Mb     (    4614, 1992)
        Each V/rho on FFT grid          0.53 Mb     (   34560)
        Each G-vector array             0.12 Mb     (   15451)
        G-vector shells                 0.06 Mb     (    7683)
     Largest temporary arrays     est. size (Mb)     dimensions
        Auxiliary wavefunctions       233.18 Mb     (    4614, 3312)
        Each subspace H/S matrix        6.69 Mb     (     662,  662)
        Each <psi_i|beta_j> matrix     25.17 Mb     (    1992,  828)
        Arrays for rho mixing           4.22 Mb     (   34560,    8)

     Initial potential from superposition of free atoms
     Check: negative starting charge=   -0.003962

     starting charge 1354.72292, renormalised to 1380.00000

     negative rho (up, down):  4.036E-03 0.000E+00
     Starting wfc are 1356 randomized atomic wfcs

     total cpu time spent up to now is       96.0 secs

     Self-consistent Calculation

     iteration #  1     ecut=    80.00 Ry     beta=0.70
     Davidson diagonalization with overlap
     c_bands:  3 eigenvalues not converged
     c_bands:  3 eigenvalues not converged
     c_bands:  3 eigenvalues not converged
     ethr =  1.00E-04,  avg # of iterations = 39.8

     negative rho (up, down):  2.746E+01 0.000E+00

     total cpu time spent up to now is     2317.7 secs

     total energy              =  -11075.65090343 Ry
     Harris-Foulkes estimate   =  -19490.75220590 Ry
     estimated scf accuracy    <  237086.76480486 Ry

     iteration #  2     ecut=    80.00 Ry     beta=0.70
     Davidson diagonalization with overlap
     ethr =  1.00E-02,  avg # of iterations =  8.0

     negative rho (up, down):  3.728E+01 0.000E+00

     total cpu time spent up to now is     3234.6 secs

     total energy              =  -13265.34759946 Ry
     Harris-Foulkes estimate   =  -14616.36798918 Ry
     estimated scf accuracy    <   25032.03082571 Ry

     iteration #  3     ecut=    80.00 Ry     beta=0.70
     Davidson diagonalization with overlap
     c_bands:  4 eigenvalues not converged
     ethr =  1.00E-02,  avg # of iterations = 22.2

     negative rho (up, down):  3.025E+01 0.000E+00

     total cpu time spent up to now is     4354.6 secs

     total energy              =  -12918.31298621 Ry
     Harris-Foulkes estimate   =  -14536.64211267 Ry
     estimated scf accuracy    <    8674.11858514 Ry

     iteration #  4     ecut=    80.00 Ry     beta=0.70
     Davidson diagonalization with overlap
     ethr =  1.00E-02,  avg # of iterations =  5.0

     negative rho (up, down):  2.253E+01 0.000E+00

     total cpu time spent up to now is     4921.7 secs

     total energy              =  -13721.31446847 Ry
     Harris-Foulkes estimate   =  -13967.94534566 Ry
     estimated scf accuracy    <    3742.94333955 Ry

     iteration #  5     ecut=    80.00 Ry     beta=0.70
     Davidson diagonalization with overlap
     ethr =  1.00E-02,  avg # of iterations =  6.3

     negative rho (up, down):  1.976E+01 0.000E+00

     total cpu time spent up to now is     5532.7 secs

     total energy              =  -13734.63899657 Ry
     Harris-Foulkes estimate   =  -13939.63251407 Ry
     estimated scf accuracy    <    2415.56246819 Ry

     iteration #  6     ecut=    80.00 Ry     beta=0.70
     Davidson diagonalization with overlap
     ethr =  1.00E-02,  avg # of iterations =  3.0

     negative rho (up, down):  1.435E+01 0.000E+00

     total cpu time spent up to now is     5841.7 secs

     total energy              =  -13775.89050081 Ry
     Harris-Foulkes estimate   =  -13829.71787541 Ry
     estimated scf accuracy    <     819.81721716 Ry

     iteration #  7     ecut=    80.00 Ry     beta=0.70
     Davidson diagonalization with overlap
     ethr =  1.00E-02,  avg # of iterations =  2.0

     negative rho (up, down):  8.929E+00 0.000E+00

     total cpu time spent up to now is     6006.6 secs

     total energy              =  -13750.84940201 Ry
     Harris-Foulkes estimate   =  -13789.19710865 Ry
     estimated scf accuracy    <     275.86707475 Ry

     iteration #  8     ecut=    80.00 Ry     beta=0.70
     Davidson diagonalization with overlap
     ethr =  1.00E-02,  avg # of iterations =  1.2

     negative rho (up, down):  6.378E+00 0.000E+00

     total cpu time spent up to now is     6160.2 secs

     total energy              =  -13735.52737132 Ry
     Harris-Foulkes estimate   =  -13759.52801001 Ry
     estimated scf accuracy    <     207.53821801 Ry

     iteration #  9     ecut=    80.00 Ry     beta=0.70
     Davidson diagonalization with overlap
     ethr =  1.00E-02,  avg # of iterations =  1.0

     negative rho (up, down):  5.611E+00 0.000E+00

     total cpu time spent up to now is     6311.8 secs

     total energy              =  -13732.92089607 Ry
     Harris-Foulkes estimate   =  -13743.51116084 Ry
     estimated scf accuracy    <     177.38844324 Ry

     iteration # 10     ecut=    80.00 Ry     beta=0.70
     Davidson diagonalization with overlap
     ethr =  1.00E-02,  avg # of iterations =  1.0

     negative rho (up, down):  4.095E+00 0.000E+00

     total cpu time spent up to now is     6463.7 secs

     total energy              =  -13712.50240507 Ry
     Harris-Foulkes estimate   =  -13734.56060808 Ry
     estimated scf accuracy    <     111.28331795 Ry

     iteration # 11     ecut=    80.00 Ry     beta=0.70
     Davidson diagonalization with overlap
     ethr =  8.06E-03,  avg # of iterations =  2.0

     negative rho (up, down):  2.330E+00 0.000E+00

     total cpu time spent up to now is     6629.3 secs

     total energy              =  -13689.50698151 Ry
     Harris-Foulkes estimate   =  -13722.74959289 Ry
     estimated scf accuracy    <     115.77726288 Ry

     iteration # 12     ecut=    80.00 Ry     beta=0.70
     Davidson diagonalization with overlap
     ethr =  8.06E-03,  avg # of iterations =  2.0

     negative rho (up, down):  3.193E+00 0.000E+00

     total cpu time spent up to now is     6794.7 secs

     total energy              =  -13686.43733481 Ry
     Harris-Foulkes estimate   =  -13698.22888537 Ry
     estimated scf accuracy    <     113.10300585 Ry

     iteration # 13     ecut=    80.00 Ry     beta=0.70
     Davidson diagonalization with overlap
     ethr =  8.06E-03,  avg # of iterations =  1.5

     negative rho (up, down):  5.510E+00 0.000E+00

     total cpu time spent up to now is     6953.3 secs

     total energy              =  -13678.10540470 Ry
     Harris-Foulkes estimate   =  -13689.58114491 Ry
     estimated scf accuracy    <      90.24749970 Ry

     iteration # 14     ecut=    80.00 Ry     beta=0.70
     Davidson diagonalization with overlap
     ethr =  6.54E-03,  avg # of iterations =  2.0

     negative rho (up, down):  5.338E+00 0.000E+00

     total cpu time spent up to now is     7118.5 secs

     total energy              =  -13678.54628945 Ry
     Harris-Foulkes estimate   =  -13683.50023611 Ry
     estimated scf accuracy    <      41.06803622 Ry

     iteration # 15     ecut=    80.00 Ry     beta=0.70
     Davidson diagonalization with overlap
     ethr =  2.98E-03,  avg # of iterations =  2.2

     negative rho (up, down):  4.050E+00 0.000E+00

     total cpu time spent up to now is     7284.8 secs

     total energy              =  -13676.47364578 Ry
     Harris-Foulkes estimate   =  -13680.43545073 Ry
     estimated scf accuracy    <      40.34609092 Ry

     iteration # 16     ecut=    80.00 Ry     beta=0.70
     Davidson diagonalization with overlap
     ethr =  2.92E-03,  avg # of iterations =  2.0

     negative rho (up, down):  2.046E+00 0.000E+00

     total cpu time spent up to now is     7449.8 secs

     total energy              =  -13677.47934445 Ry
     Harris-Foulkes estimate   =  -13678.96614761 Ry
     estimated scf accuracy    <      30.40013668 Ry

     iteration # 17     ecut=    80.00 Ry     beta=0.70
     Davidson diagonalization with overlap
     ethr =  2.20E-03,  avg # of iterations =  2.2

     negative rho (up, down):  8.618E-01 0.000E+00

     total cpu time spent up to now is     7616.9 secs

     total energy              =  -13676.07109967 Ry
     Harris-Foulkes estimate   =  -13677.68907671 Ry
     estimated scf accuracy    <      23.49927138 Ry

     iteration # 18     ecut=    80.00 Ry     beta=0.70
     Davidson diagonalization with overlap
     ethr =  1.70E-03,  avg # of iterations =  1.7

     negative rho (up, down):  2.315E-01 0.000E+00

     total cpu time spent up to now is     7776.8 secs

     total energy              =  -13673.60062844 Ry
     Harris-Foulkes estimate   =  -13676.34075890 Ry
     estimated scf accuracy    <      17.46320780 Ry

     iteration # 19     ecut=    80.00 Ry     beta=0.70
     Davidson diagonalization with overlap
     ethr =  1.27E-03,  avg # of iterations =  2.3

     negative rho (up, down):  6.825E-01 0.000E+00

     total cpu time spent up to now is     7946.7 secs

     total energy              =  -13672.72048016 Ry
     Harris-Foulkes estimate   =  -13674.63888419 Ry
     estimated scf accuracy    <      10.31260349 Ry

     iteration # 20     ecut=    80.00 Ry     beta=0.70
     Davidson diagonalization with overlap
     ethr =  7.47E-04,  avg # of iterations =  8.2

     negative rho (up, down):  3.357E-01 0.000E+00

     total cpu time spent up to now is     8213.5 secs

     total energy              =  -13672.05344607 Ry
     Harris-Foulkes estimate   =  -13673.21888633 Ry
     estimated scf accuracy    <      12.78263413 Ry

     iteration # 21     ecut=    80.00 Ry     beta=0.70
     Davidson diagonalization with overlap
     ethr =  7.47E-04,  avg # of iterations =  1.0

     negative rho (up, down):  6.712E-01 0.000E+00

     total cpu time spent up to now is     8365.3 secs

     total energy              =  -13671.60519191 Ry
     Harris-Foulkes estimate   =  -13672.36842884 Ry
     estimated scf accuracy    <      12.47056255 Ry

     iteration # 22     ecut=    80.00 Ry     beta=0.70
     Davidson diagonalization with overlap
     ethr =  7.47E-04,  avg # of iterations =  3.2

     negative rho (up, down):  7.354E-01 0.000E+00

     total cpu time spent up to now is     8545.7 secs

     total energy              =  -13671.36348798 Ry
     Harris-Foulkes estimate   =  -13671.89893630 Ry
     estimated scf accuracy    <       7.50313024 Ry

     iteration # 23     ecut=    80.00 Ry     beta=0.70
     Davidson diagonalization with overlap
     ethr =  5.44E-04,  avg # of iterations =  6.7

     negative rho (up, down):  1.032E+00 0.000E+00

     total cpu time spent up to now is     8774.4 secs

     total energy              =  -13671.26798159 Ry
     Harris-Foulkes estimate   =  -13671.56711647 Ry
     estimated scf accuracy    <       4.19248809 Ry

     iteration # 24     ecut=    80.00 Ry     beta=0.70
     Davidson diagonalization with overlap
     ethr =  3.04E-04,  avg # of iterations =  6.2

     negative rho (up, down):  9.307E-01 0.000E+00

     total cpu time spent up to now is     9001.6 secs

     total energy              =  -13671.04070769 Ry
     Harris-Foulkes estimate   =  -13671.33544457 Ry
     estimated scf accuracy    <       2.64120723 Ry

     iteration # 25     ecut=    80.00 Ry     beta=0.70
     Davidson diagonalization with overlap
     ethr =  1.91E-04,  avg # of iterations =  5.3

     negative rho (up, down):  7.330E-01 0.000E+00

     total cpu time spent up to now is     9212.5 secs

     total energy              =  -13670.93751623 Ry
     Harris-Foulkes estimate   =  -13671.10799368 Ry
     estimated scf accuracy    <       1.12562160 Ry

     iteration # 26     ecut=    80.00 Ry     beta=0.70
     Davidson diagonalization with overlap
     ethr =  8.16E-05,  avg # of iterations =  6.3

     negative rho (up, down):  3.084E-01 0.000E+00

     total cpu time spent up to now is     9442.2 secs

     total energy              =  -13670.88516414 Ry
     Harris-Foulkes estimate   =  -13670.98135919 Ry
     estimated scf accuracy    <       0.33212502 Ry

     iteration # 27     ecut=    80.00 Ry     beta=0.70
     Davidson diagonalization with overlap
     c_bands:  1 eigenvalues not converged
     ethr =  2.41E-05,  avg # of iterations = 12.2

     negative rho (up, down):  1.634E-01 0.000E+00

     total cpu time spent up to now is     9772.1 secs

     total energy              =  -13670.88696159 Ry
     Harris-Foulkes estimate   =  -13670.90901473 Ry
     estimated scf accuracy    <       0.10911691 Ry

     iteration # 28     ecut=    80.00 Ry     beta=0.70
     Davidson diagonalization with overlap
     c_bands:  1 eigenvalues not converged
     ethr =  7.91E-06,  avg # of iterations = 13.5

     negative rho (up, down):  7.217E-02 0.000E+00

     total cpu time spent up to now is    10107.6 secs

     total energy              =  -13670.88857656 Ry
     Harris-Foulkes estimate   =  -13670.89791321 Ry
     estimated scf accuracy    <       0.05143417 Ry

     iteration # 29     ecut=    80.00 Ry     beta=0.70
     Davidson diagonalization with overlap
     c_bands:  2 eigenvalues not converged
     c_bands:  1 eigenvalues not converged
     c_bands:  1 eigenvalues not converged
     ethr =  3.73E-06,  avg # of iterations = 16.0

     negative rho (up, down):  4.539E-04 0.000E+00

     total cpu time spent up to now is    10480.2 secs

     total energy              =  -13670.89011956 Ry
     Harris-Foulkes estimate   =  -13670.89356493 Ry
     estimated scf accuracy    <       0.03552292 Ry

     iteration # 30     ecut=    80.00 Ry     beta=0.70
     Davidson diagonalization with overlap
     c_bands:  1 eigenvalues not converged
     ethr =  2.57E-06,  avg # of iterations = 12.5

     total cpu time spent up to now is    10825.6 secs

     total energy              =  -13670.89124107 Ry
     Harris-Foulkes estimate   =  -13670.89186415 Ry
     estimated scf accuracy    <       0.00829904 Ry

     iteration # 31     ecut=    80.00 Ry     beta=0.70
     Davidson diagonalization with overlap
     ethr =  6.01E-07,  avg # of iterations =  7.2

     total cpu time spent up to now is    11075.3 secs

     total energy              =  -13670.89134736 Ry
     Harris-Foulkes estimate   =  -13670.89218162 Ry
     estimated scf accuracy    <       0.00404958 Ry

     iteration # 32     ecut=    80.00 Ry     beta=0.70
     Davidson diagonalization with overlap
     ethr =  2.93E-07,  avg # of iterations =  6.8

     negative rho (up, down):  7.246E-08 0.000E+00

     total cpu time spent up to now is    11314.1 secs

     total energy              =  -13670.89202055 Ry
     Harris-Foulkes estimate   =  -13670.89190392 Ry
     estimated scf accuracy    <       0.00150630 Ry

     iteration # 33     ecut=    80.00 Ry     beta=0.70
     Davidson diagonalization with overlap
     ethr =  1.09E-07,  avg # of iterations =  7.3

     negative rho (up, down):  9.997E-04 0.000E+00

     total cpu time spent up to now is    11569.3 secs

     total energy              =  -13670.89230111 Ry
     Harris-Foulkes estimate   =  -13670.89216002 Ry
     estimated scf accuracy    <       0.00032349 Ry

     iteration # 34     ecut=    80.00 Ry     beta=0.70
     Davidson diagonalization with overlap
     ethr =  2.34E-08,  avg # of iterations =  6.5

     negative rho (up, down):  2.115E-03 0.000E+00

     total cpu time spent up to now is    11809.0 secs

     total energy              =  -13670.89235576 Ry
     Harris-Foulkes estimate   =  -13670.89232565 Ry
     estimated scf accuracy    <       0.00010137 Ry

     iteration # 35     ecut=    80.00 Ry     beta=0.70
     Davidson diagonalization with overlap
     ethr =  7.35E-09,  avg # of iterations =  2.0

     negative rho (up, down):  1.366E-03 0.000E+00

     total cpu time spent up to now is    11978.2 secs

     total energy              =  -13670.89237492 Ry
     Harris-Foulkes estimate   =  -13670.89236621 Ry
     estimated scf accuracy    <       0.00004549 Ry

     iteration # 36     ecut=    80.00 Ry     beta=0.70
     Davidson diagonalization with overlap
     ethr =  3.30E-09,  avg # of iterations =  5.0

     negative rho (up, down):  9.541E-04 0.000E+00

     total cpu time spent up to now is    12189.2 secs

     total energy              =  -13670.89237489 Ry
     Harris-Foulkes estimate   =  -13670.89237871 Ry
     estimated scf accuracy    <       0.00002121 Ry

     iteration # 37     ecut=    80.00 Ry     beta=0.70
     Davidson diagonalization with overlap
     ethr =  1.54E-09,  avg # of iterations =  2.7

     negative rho (up, down):  4.992E-04 0.000E+00

     total cpu time spent up to now is    12369.7 secs

     total energy              =  -13670.89237595 Ry
     Harris-Foulkes estimate   =  -13670.89237718 Ry
     estimated scf accuracy    <       0.00000746 Ry

     iteration # 38     ecut=    80.00 Ry     beta=0.70
     Davidson diagonalization with overlap
     ethr =  5.41E-10,  avg # of iterations =  2.2

     negative rho (up, down):  3.317E-04 0.000E+00

     total cpu time spent up to now is    12542.8 secs

     total energy              =  -13670.89237594 Ry
     Harris-Foulkes estimate   =  -13670.89237624 Ry
     estimated scf accuracy    <       0.00000390 Ry

     iteration # 39     ecut=    80.00 Ry     beta=0.70
     Davidson diagonalization with overlap
     ethr =  2.82E-10,  avg # of iterations =  2.0

     negative rho (up, down):  2.508E-04 0.000E+00

     total cpu time spent up to now is    12710.1 secs

     total energy              =  -13670.89237628 Ry
     Harris-Foulkes estimate   =  -13670.89237617 Ry
     estimated scf accuracy    <       0.00000184 Ry

     iteration # 40     ecut=    80.00 Ry     beta=0.70
     Davidson diagonalization with overlap
     ethr =  1.34E-10,  avg # of iterations =  2.8

     negative rho (up, down):  2.200E-04 0.000E+00

     total cpu time spent up to now is    12889.1 secs

     total energy              =  -13670.89237643 Ry
     Harris-Foulkes estimate   =  -13670.89237634 Ry
     estimated scf accuracy    <       0.00000050 Ry

     iteration # 41     ecut=    80.00 Ry     beta=0.70
     Davidson diagonalization with overlap
     ethr =  3.62E-11,  avg # of iterations =  3.0

     negative rho (up, down):  2.502E-04 0.000E+00

     total cpu time spent up to now is    13079.6 secs

     total energy              =  -13670.89237632 Ry
     Harris-Foulkes estimate   =  -13670.89237637 Ry
     estimated scf accuracy    <       0.00000012 Ry

     iteration # 42     ecut=    80.00 Ry     beta=0.70
     Davidson diagonalization with overlap
     ethr =  8.85E-12,  avg # of iterations =  3.0

     negative rho (up, down):  2.689E-04 0.000E+00

     total cpu time spent up to now is    13323.5 secs

     total energy              =  -13670.89237636 Ry
     Harris-Foulkes estimate   =  -13670.89237641 Ry
     estimated scf accuracy    <       0.00000007 Ry

     iteration # 43     ecut=    80.00 Ry     beta=0.70
     Davidson diagonalization with overlap
     ethr =  4.83E-12,  avg # of iterations =  2.7

     negative rho (up, down):  2.781E-04 0.000E+00

     total cpu time spent up to now is    13499.1 secs

     total energy              =  -13670.89237639 Ry
     Harris-Foulkes estimate   =  -13670.89237640 Ry
     estimated scf accuracy    <       0.00000002 Ry

     iteration # 44     ecut=    80.00 Ry     beta=0.70
     Davidson diagonalization with overlap
     ethr =  1.14E-12,  avg # of iterations =  2.3

     negative rho (up, down):  2.762E-04 0.000E+00

     total cpu time spent up to now is    13670.5 secs

     End of self-consistent calculation

          k = 0.0000 0.0000 0.0000 (256287 PWs)   bands (ev):

   -15.4440 -15.0455 -15.0435 -13.9476 -13.9459 -13.4818 -13.4812 -13.0937
   -13.0931 -13.0905 -13.0899 -12.1541 -12.1513 -12.0326 -12.0324 -12.0304
   -12.0291 -10.3446 -10.3439 -10.3419 -10.3410 -10.1448  -9.1371  -8.4672
    -8.4666  -8.4564  -8.4563  -7.5834  -7.5829  -7.5699  -7.5681  -6.6017
    -6.5923  -6.5145  -6.5132  -6.5107  -6.5094  -6.4952  -6.4950  -5.2179
    -4.9629  -4.9621  -4.9577  -4.9552  -4.8071  -4.8067  -4.7982  -4.7977
    -4.6930  -4.6743  -4.2890  -3.8336  -3.6729  -3.6673  -3.6533  -3.6334
    -3.3442  -3.3354  -3.2182  -3.1995  -3.1651  -3.1615  -2.8583  -2.6035
    -2.6029  -2.5231  -2.5222  -2.5220  -2.5206  -2.4476  -2.3700  -2.3527
    -2.3522  -2.3316  -2.2064  -2.2057  -2.1979  -2.1976  -2.1682  -2.1394
    -1.9855  -1.9819  -1.9258  -1.9094  -1.8723  -1.8717  -1.6926  -1.6919
    -1.6917  -1.6903  -1.5584  -1.5583  -1.5520  -1.5319  -1.5310  -1.4510
    -1.4503  -1.4019  -1.3933  -1.3395  -1.3392  -1.3359  -1.3359  -1.2872
    -1.2276  -1.2275  -1.2084  -1.2083  -1.1764  -1.0691  -1.0689  -1.0649
    -1.0316  -1.0200  -0.9966  -0.9794  -0.9657  -0.9635  -0.9614  -0.9425
    -0.9259  -0.9233  -0.9226  -0.8843  -0.8833  -0.8811  -0.8450  -0.8428
    -0.8352  -0.8342  -0.7738  -0.7729  -0.7676  -0.7662  -0.7174  -0.7172
    -0.7157  -0.7141  -0.7042  -0.6692  -0.6684  -0.6155  -0.5827  -0.5818
    -0.5482  -0.5218  -0.4922  -0.4633  -0.4616  -0.4488  -0.4405  -0.4392
    -0.4087  -0.4019  -0.4013  -0.3821  -0.3801  -0.3783  -0.3743  -0.3727
    -0.3535  -0.3502  -0.3373  -0.3261  -0.2826  -0.2821  -0.2522  -0.2510
    -0.2428  -0.2395  -0.2393  -0.2318  -0.2312  -0.2298  -0.2260  -0.2231
    -0.2087  -0.1744  -0.1707  -0.1664  -0.1628  -0.1592  -0.1357  -0.1323
    -0.1313  -0.1250  -0.1247  -0.1215  -0.1044  -0.0770  -0.0761  -0.0733
    -0.0730  -0.0558  -0.0549  -0.0423  -0.0419  -0.0417  -0.0399  -0.0299
    -0.0280  -0.0251  -0.0145   0.0157   0.0173   0.0468   0.0611   0.0711
     0.0873   0.0918   0.1066   0.1258   0.1262   0.1266   0.1454   0.1472
     0.1638   0.1682   0.1687   0.1822   0.1857   0.1864   0.1888   0.1897
     0.1908   0.1930   0.2133   0.2137   0.2172   0.2360   0.2367   0.2376
     0.2448   0.2485   0.2488   0.2816   0.2829   0.2902   0.3095   0.3172
     0.3279   0.3340   0.3346   0.3421   0.3447   0.3451   0.3575   0.3582
     0.3696   0.3712   0.3932   0.3941   0.3962   0.3994   0.4027   0.4032
     0.4066   0.4191   0.4193   0.4245   0.4468   0.4494   0.4515   0.4536
     0.4563   0.4577   0.4583   0.4873   0.4895   0.4904   0.4915   0.5094
     0.5099   0.5109   0.5301   0.5307   0.5356   0.5358   0.5400   0.5424
     0.5433   0.5562   0.5576   0.5589   0.5637   0.5793   0.5808   0.5898
     0.5903   0.5965   0.6107   0.6126   0.6132   0.6133   0.6137   0.6235
     0.6237   0.6242   0.6249   0.6301   0.6642   0.6666   0.6710   0.6714
     0.6949   0.6950   0.7083   0.7122   0.7326   0.7333   0.7345   0.7408
     0.7418   0.7542   0.7545   0.7547   0.7634   0.7643   0.7881   0.7905
     0.7909   0.7954   0.7964   0.8109   0.8115   0.8151   0.8159   0.8293
     0.8300   0.8302   0.8407   0.8411   0.8424   0.8434   0.8491   0.8536
     0.8545   0.8548   0.8760   0.8780   0.8786   0.8795   0.8957   0.8961
     0.9125   0.9265   0.9286   0.9295   0.9382   0.9397   0.9635   0.9660
     0.9675   0.9680   0.9847   1.0042   1.0043   1.0217   1.0220   1.0255
     1.0294   1.0305   1.0382   1.0393   1.0415   1.0420   1.0461   1.0473
     1.0484   1.0651   1.0757   1.0870   1.0870   1.0923   1.1269   1.1271
     1.1279   1.1336   1.1343   1.1353   1.1486   1.1499   1.1712   1.1730
     1.1731   1.2045   1.2097   1.2131   1.2263   1.2265   1.2275   1.2293
     1.2313   1.2317   1.2333   1.2344   1.2406   1.2421   1.2636   1.2720
     1.2725   1.2898   1.2931   1.2939   1.2973   1.3063   1.3079   1.3131
     1.3134   1.3484   1.3496   1.3520   1.3524   1.3546   1.3606   1.3611
     1.3616   1.3621   1.3836   1.3839   1.3946   1.3949   1.4035   1.4057
     1.4136   1.4141   1.4182   1.4214   1.4221   1.4320   1.4399   1.4427
     1.4432   1.4458   1.4615   1.4617   1.4723   1.4729   1.4732   1.4777
     1.4784   1.4860   1.4861   1.4891   1.4928   1.4974   1.4992   1.5228
     1.5272   1.5283   1.5298   1.5311   1.5315   1.5359   1.5392   1.5396
     1.5408   1.5438   1.5444   1.5501   1.5589   1.5637   1.5692   1.5698
     1.5718   1.5742   1.5819   1.5827   1.5831   1.5895   1.5987   1.6170
     1.6231   1.6340   1.6342   1.6488   1.6556   1.6616   1.6656   1.6657
     1.6754   1.6756   1.6769   1.6786   1.6789   1.6870   1.6872   1.6989
     1.7115   1.7125   1.7143   1.7197   1.7209   1.7229   1.7260   1.7265
     1.7313   1.7374   1.7504   1.7515   1.7639   1.7669   1.7693   1.7793
     1.7805   1.7821   1.7833   1.7868   1.7910   1.7958   1.7966   1.8001
     1.8073   1.8142   1.8182   1.8295   1.8298   1.8367   1.8374   1.8437
     1.8445   1.8529   1.8607   1.8632   1.8641   1.8648   1.8764   1.8827
     1.8831   1.8882   1.8884   1.8896   1.8925   1.8947   1.8950   1.9030
     1.9114   1.9157   1.9204   1.9206   1.9242   1.9261   1.9413   1.9434
     1.9444   1.9539   1.9569   1.9579   1.9643   1.9666   1.9676   1.9692
     1.9702   1.9715   1.9863   1.9927   1.9942   1.9958   1.9965   1.9996
     2.0084   2.0089   2.0192   2.0202   2.0336   2.0378   2.0391   2.0429
     2.0464   2.0561   2.0568   2.0600   2.0615   2.0665   2.0666   2.0690
     2.0748   2.0827   2.0840   2.0867   2.0878   2.0927   2.0992   2.1005
     2.1057   2.1073   2.1084   2.1089   2.1120   2.1219   2.1240   2.1276
     2.1407   2.1437   2.1480   2.1550   2.1606   2.1647   2.1653   2.1667
     2.1704   2.1709   2.1759   2.1790   2.1797   2.1816   2.1822   2.1878
     2.1929   2.1971   2.1996   2.2011   2.2030   2.2055   2.2076   2.2087
     2.2092   2.2099   2.2145   2.2180   2.2190   2.2293   2.2318   2.2329
     2.2412   2.2417   2.2426   2.2460   2.2524   2.2598   2.2606   2.2610
     2.2633   2.2754   2.2759   2.2785   2.2872   2.2882   2.2889   2.2971
     2.2974   2.3096   2.3207   2.3214   2.3280   2.3579   2.3583   2.3584
     2.3704   2.3865   2.3978   2.3987   2.4153   2.4225   2.4237   2.4305
     2.4327   2.4341   2.4480   2.4558   2.4998   2.5565   2.6744   2.7470
     2.7602   2.8228   2.8250   2.8377   2.9440   2.9447   2.9632   2.9645
     3.0035   3.0037   3.0107   3.0113   3.0301   3.0649   3.0652   3.1662
     3.1675   3.1677   3.1829   3.3727   3.3739   3.4204   3.4213   3.5008
     3.6655   3.8828   3.8846   4.0542   4.0601   4.0692   4.0699   4.0929
     4.1504   4.1533   4.2183   4.4043   4.4123   4.4659   4.4691   4.5861
     4.7011   4.7015   4.7198   4.7595   4.7601   4.7763   4.7990   4.7994
     4.8134   4.8143   5.1026   5.1225   5.2045   5.2093   5.4092   5.5163
     5.6636   5.6668   5.6681   5.7573   5.9307   5.9549   5.9555   5.9884
     6.0038   6.0766   6.0820   6.3019   6.3317   6.3421   6.3469   6.6604
     6.6936   6.7638   7.0226   7.0275   7.0290   7.1255   7.2505   7.2779
     7.2799   7.4961   7.5169   7.5175   7.5248   7.5915   7.5918   7.6083
     7.6134   7.7451   7.7559   7.7785   7.7855   7.7994   7.8569   7.8700
     7.8916   7.9285   7.9668   7.9826   8.0472   8.2191   8.2495   8.3321
     8.3899   8.3950   8.4632   8.4635   8.4848   8.4862   8.6938   8.6946
     8.8094   8.8412   8.8426   8.8521   8.9151   8.9856   8.9867   9.0065
     9.0206   9.0862   9.1197   9.2776   9.2797   9.3166   9.3552   9.3619
     9.4013   9.4028   9.4118   9.4169   9.4174   9.4501   9.5403   9.5528
     9.5615   9.5646   9.6456   9.7373   9.7381   9.7547   9.7563   9.7848
     9.7894   9.8757   9.9457   9.9674  10.2779  10.2907  10.2918  10.4436
    10.4622  10.4634  10.4689  10.4718  10.5235  10.5245  10.5840  10.5887
    10.6072  10.6126  10.7154  10.7244

          k = 0.0000-0.2165 0.0000 (256176 PWs)   bands (ev):

   -15.3995 -15.2709 -14.5949 -14.5793 -13.4387 -13.4381 -13.3121 -13.3115
   -13.1373 -13.1260 -12.6566 -12.6546 -12.6411 -12.6403 -11.2609 -11.2604
   -11.2500 -11.2481 -11.0664 -11.0111  -9.3691  -9.3683  -9.3356  -9.3349
    -8.1264  -8.0905  -7.9772  -7.9759  -7.9161  -7.9160  -7.1176  -7.1160
    -7.1066  -7.1058  -5.9791  -5.9791  -5.9037  -5.9036  -5.7882  -5.7861
    -5.7760  -5.7754  -5.1100  -5.0525  -4.9841  -4.9771  -4.2831  -4.1749
    -4.1718  -4.0910  -4.0901  -4.0395  -4.0132  -3.9668  -3.7319  -3.5821
    -3.5814  -3.5797  -3.5783  -3.4278  -3.1473  -3.1110  -2.7939  -2.7021
    -2.6120  -2.5216  -2.5209  -2.4740  -2.4735  -2.4329  -2.3230  -2.2230
    -2.2223  -2.2067  -2.0673  -2.0662  -2.0039  -2.0033  -1.8785  -1.8777
    -1.8465  -1.8265  -1.8260  -1.8253  -1.8231  -1.8216  -1.7691  -1.7683
    -1.7587  -1.7584  -1.7448  -1.7420  -1.6452  -1.6448  -1.5584  -1.5458
    -1.4807  -1.4561  -1.4542  -1.4231  -1.4084  -1.3658  -1.3645  -1.3336
    -1.3316  -1.1745  -1.1744  -1.1727  -1.1562  -1.1560  -1.1399  -1.1385
    -1.0457  -1.0453  -1.0343  -1.0115  -1.0105  -0.9734  -0.9709  -0.9624
    -0.9480  -0.9428  -0.9264  -0.9258  -0.9168  -0.8979  -0.8658  -0.8423
    -0.8410  -0.8396  -0.8239  -0.7638  -0.7350  -0.7344  -0.6795  -0.6793
    -0.6241  -0.6054  -0.6043  -0.5968  -0.5697  -0.5492  -0.5205  -0.5038
    -0.5019  -0.4992  -0.4968  -0.4920  -0.4763  -0.4725  -0.4619  -0.4556
    -0.4549  -0.4512  -0.4490  -0.4399  -0.4340  -0.4229  -0.4213  -0.4188
    -0.4115  -0.3997  -0.3524  -0.3515  -0.3273  -0.3211  -0.3135  -0.3063
    -0.2862  -0.2807  -0.2631  -0.2510  -0.2431  -0.2414  -0.2359  -0.2352
    -0.2321  -0.2311  -0.2149  -0.1848  -0.1845  -0.1795  -0.1672  -0.1593
    -0.1590  -0.1482  -0.1322  -0.1263  -0.1198  -0.1147  -0.1024  -0.1022
    -0.0997  -0.0906  -0.0821  -0.0814  -0.0569  -0.0397  -0.0237  -0.0218
    -0.0211  -0.0200  -0.0078   0.0063   0.0264   0.0266   0.0292   0.0698
     0.0798   0.0901   0.0914   0.1447   0.1451   0.1534   0.1561   0.1604
     0.1607   0.1619   0.1664   0.1740   0.1784   0.1787   0.1955   0.1962
     0.1993   0.2052   0.2053   0.2098   0.2221   0.2329   0.2578   0.2588
     0.2591   0.2610   0.2641   0.2824   0.2848   0.3040   0.3044   0.3085
     0.3090   0.3201   0.3203   0.3311   0.3500   0.3501   0.3649   0.3655
     0.3840   0.4037   0.4039   0.4157   0.4160   0.4350   0.4352   0.4584
     0.4585   0.4685   0.4686   0.4693   0.4817   0.4823   0.4977   0.4978
     0.5012   0.5028   0.5125   0.5125   0.5216   0.5275   0.5283   0.5289
     0.5382   0.5406   0.5408   0.5559   0.5560   0.5644   0.5660   0.5661
     0.5724   0.5728   0.5788   0.5793   0.5989   0.6053   0.6060   0.6063
     0.6072   0.6122   0.6133   0.6273   0.6288   0.6353   0.6554   0.6563
     0.6649   0.6678   0.6756   0.6862   0.6987   0.6997   0.7031   0.7044
     0.7062   0.7068   0.7221   0.7247   0.7251   0.7303   0.7411   0.7665
     0.7666   0.7696   0.7699   0.7708   0.7788   0.7879   0.7912   0.7925
     0.7987   0.8005   0.8099   0.8100   0.8117   0.8213   0.8270   0.8283
     0.8338   0.8342   0.8467   0.8468   0.8718   0.8746   0.8753   0.8769
     0.8776   0.8805   0.8857   0.8871   0.8974   0.9032   0.9040   0.9086
     0.9149   0.9154   0.9155   0.9293   0.9323   0.9336   0.9398   0.9551
     0.9592   0.9615   0.9722   0.9748   0.9847   0.9910   1.0035   1.0049
     1.0061   1.0126   1.0172   1.0292   1.0388   1.0417   1.0494   1.0498
     1.0584   1.0644   1.0650   1.0821   1.0833   1.0920   1.0946   1.0966
     1.1167   1.1281   1.1299   1.1383   1.1416   1.1521   1.1610   1.1617
     1.1629   1.1637   1.1927   1.1930   1.2118   1.2170   1.2319   1.2328
     1.2335   1.2347   1.2353   1.2412   1.2460   1.2467   1.2598   1.2760
     1.2761   1.2872   1.2895   1.3038   1.3041   1.3082   1.3128   1.3183
     1.3248   1.3279   1.3307   1.3323   1.3369   1.3373   1.3432   1.3446
     1.3450   1.3529   1.3617   1.3661   1.3668   1.3805   1.3819   1.3897
     1.3918   1.3941   1.4017   1.4026   1.4040   1.4097   1.4130   1.4163
     1.4188   1.4207   1.4265   1.4271   1.4302   1.4452   1.4524   1.4541
     1.4675   1.4682   1.4705   1.4726   1.4758   1.4811   1.4836   1.4910
     1.4915   1.4984   1.4999   1.5085   1.5107   1.5115   1.5191   1.5194
     1.5212   1.5229   1.5281   1.5291   1.5404   1.5414   1.5536   1.5625
     1.5639   1.5648   1.5668   1.5919   1.5924   1.5978   1.6054   1.6061
     1.6181   1.6201   1.6210   1.6376   1.6615   1.6725   1.6727   1.6830
     1.6898   1.6922   1.6965   1.6976   1.7007   1.7012   1.7133   1.7139
     1.7159   1.7163   1.7182   1.7196   1.7208   1.7258   1.7263   1.7377
     1.7382   1.7516   1.7527   1.7599   1.7603   1.7616   1.7627   1.7696
     1.7759   1.7776   1.7790   1.7795   1.7797   1.7809   1.7834   1.7856
     1.7860   1.7880   1.7922   1.8084   1.8088   1.8156   1.8158   1.8174
     1.8213   1.8317   1.8325   1.8376   1.8415   1.8465   1.8469   1.8544
     1.8603   1.8671   1.8673   1.8684   1.8693   1.8825   1.8830   1.8847
     1.9057   1.9146   1.9204   1.9230   1.9250   1.9271   1.9273   1.9414
     1.9416   1.9427   1.9474   1.9597   1.9682   1.9704   1.9801   1.9816
     1.9839   1.9845   1.9847   1.9907   1.9968   1.9970   2.0050   2.0062
     2.0064   2.0069   2.0156   2.0186   2.0194   2.0216   2.0304   2.0322
     2.0335   2.0341   2.0396   2.0518   2.0526   2.0585   2.0604   2.0720
     2.0720   2.0785   2.0826   2.0827   2.0864   2.0907   2.0909   2.1003
     2.1069   2.1117   2.1139   2.1155   2.1202   2.1241   2.1250   2.1275
     2.1292   2.1308   2.1375   2.1388   2.1393   2.1457   2.1560   2.1564
     2.1574   2.1642   2.1698   2.1742   2.1749   2.1755   2.1797   2.1978
     2.2017   2.2021   2.2068   2.2098   2.2100   2.2108   2.2129   2.2173
     2.2275   2.2278   2.2294   2.2295   2.2393   2.2503   2.2504   2.2514
     2.2523   2.2558   2.2561   2.2600   2.2614   2.2660   2.2661   2.2762
     2.2817   2.2978   2.2979   2.3053   2.3072   2.3124   2.3187   2.3257
     2.3258   2.3288   2.3347   2.3356   2.3360   2.3486   2.3517   2.3548
     2.3551   2.4150   2.4329   2.4464   2.5083   2.5143   2.5423   2.5492
     2.5498   2.5657   2.5658   2.5917   2.5930   2.6221   2.6239   2.6243
     2.6433   2.6552   2.8356   2.8384   2.8404   2.9378   2.9895   2.9941
     3.0363   3.0399   3.0889   3.0900   3.1473   3.2060   3.2068   3.2385
     3.2395   3.2732   3.3261   3.3628   3.3639   3.4594   3.4597   3.4642
     3.4960   3.7063   3.7064   3.7130   3.7794   3.7812   3.9071   3.9072
     3.9524   3.9525   4.2160   4.2306   4.2769   4.2781   4.3869   4.4417
     4.6131   4.7410   4.7421   4.8818   4.8831   4.9649   5.0296   5.0406
     5.0483   5.0496   5.1794   5.2142   5.3411   5.3438   5.6628   5.6673
     5.6778   5.6960   5.7375   5.8179   5.8943   6.0117   6.0144   6.0321
     6.1495   6.1508   6.1991   6.3392   6.3997   6.4569   6.4877   6.4952
     6.5000   6.8275   6.8719   6.8771   6.8799   6.8949   6.9540   7.1463
     7.2105   7.2143   7.3260   7.3622   7.3633   7.4299   7.4938   7.5603
     7.5684   7.7095   7.7971   7.8057   7.8618   7.8641   7.8939   7.8965
     7.8971   7.9028   7.9272   7.9787   8.0652   8.0671   8.2326   8.2618
     8.2729   8.6031   8.6073   8.6659   8.6799   8.6826   8.6939   8.7141
     8.7313   8.7390   8.7477   8.8292   8.9293   8.9551   8.9943   8.9999
     9.1467   9.1474   9.1755   9.1839   9.3027   9.3031   9.3683   9.3740
     9.4053   9.4067   9.4111   9.4703   9.5472   9.5632   9.5863   9.5900
     9.6678   9.6723   9.8769   9.8839   9.8895   9.8961   9.9684   9.9691
    10.0001  10.1188  10.1193  10.1390  10.1399  10.2113  10.2115  10.2450
    10.2601  10.2646  10.4359  10.4375  10.4505  10.4557  10.4626  10.5397
    10.5820  10.6559  10.6979  10.7004

          k = 0.2500 0.0000 0.0000 (256240 PWs)   bands (ev):

   -15.3199 -14.9220 -14.9199 -14.3334 -13.9402 -13.9381 -13.8260 -13.8243
   -12.8614 -12.8598 -12.4055 -12.0375 -12.0347 -12.0245 -12.0224 -11.1166
   -11.1140 -11.0034 -11.0021 -10.0393  -9.7769  -9.7038  -9.6393  -9.1980
    -9.0324  -8.7402  -8.7378  -8.3326  -8.0764  -8.0749  -7.5311  -6.5275
    -6.5190  -6.5176  -6.5132  -6.4088  -6.3944  -5.9347  -5.6625  -5.1024
    -5.0378  -4.9192  -4.9124  -4.8695  -4.8533  -4.5193  -4.5010  -4.1669
    -4.1593  -4.1176  -3.6748  -3.6627  -3.6543  -3.5126  -3.4955  -3.3568
    -3.3511  -3.3229  -3.3185  -3.2029  -3.1893  -3.0745  -3.0532  -3.0200
    -3.0161  -2.8887  -2.8294  -2.7080  -2.6053  -2.6035  -2.5405  -2.5362
    -2.4973  -2.4952  -2.4683  -2.3864  -2.3861  -2.3402  -2.3307  -2.3216
    -2.2078  -2.1229  -2.0480  -2.0273  -1.9930  -1.9899  -1.9202  -1.8922
    -1.7868  -1.7691  -1.6632  -1.6008  -1.5585  -1.5101  -1.4510  -1.4484
    -1.4369  -1.3299  -1.3130  -1.2997  -1.2780  -1.2724  -1.2307  -1.2092
    -1.1263  -1.1151  -1.0548  -1.0450  -1.0142  -0.9935  -0.9914  -0.9881
    -0.9795  -0.9771  -0.9685  -0.9669  -0.9604  -0.8993  -0.8794  -0.8616
    -0.8396  -0.8297  -0.8093  -0.8008  -0.7924  -0.7781  -0.7696  -0.7639
    -0.7627  -0.7603  -0.7076  -0.7066  -0.6967  -0.6942  -0.6743  -0.6649
    -0.6436  -0.6415  -0.6345  -0.6219  -0.5995  -0.5801  -0.5386  -0.5191
    -0.5016  -0.4937  -0.4691  -0.4675  -0.4393  -0.4346  -0.4334  -0.4326
    -0.4210  -0.4194  -0.4004  -0.3886  -0.3827  -0.3780  -0.3718  -0.3561
    -0.3368  -0.3310  -0.3302  -0.3271  -0.3176  -0.3128  -0.3029  -0.3014
    -0.2973  -0.2938  -0.2646  -0.2601  -0.2569  -0.2334  -0.2309  -0.2278
    -0.2175  -0.2158  -0.2149  -0.2114  -0.2055  -0.1983  -0.1921  -0.1856
    -0.1854  -0.1762  -0.1749  -0.1645  -0.1630  -0.1601  -0.1457  -0.1373
    -0.1308  -0.1073  -0.1016  -0.0849  -0.0815  -0.0713  -0.0559  -0.0425
    -0.0107  -0.0042  -0.0023   0.0034   0.0062   0.0120   0.0188   0.0244
     0.0288   0.0388   0.0507   0.0549   0.0578   0.0582   0.0621   0.1116
     0.1227   0.1668   0.1767   0.1790   0.1881   0.2021   0.2058   0.2178
     0.2238   0.2256   0.2268   0.2350   0.2462   0.2528   0.2543   0.2546
     0.2617   0.2667   0.2760   0.2814   0.2821   0.2902   0.2992   0.3034
     0.3046   0.3064   0.3173   0.3367   0.3371   0.3447   0.3542   0.3571
     0.3838   0.3945   0.4008   0.4018   0.4036   0.4078   0.4086   0.4153
     0.4238   0.4305   0.4328   0.4395   0.4489   0.4520   0.4556   0.4714
     0.4787   0.4800   0.4934   0.4962   0.5066   0.5102   0.5115   0.5181
     0.5210   0.5259   0.5268   0.5284   0.5344   0.5482   0.5588   0.5616
     0.5661   0.5785   0.5805   0.5910   0.5936   0.5987   0.6027   0.6110
     0.6137   0.6175   0.6255   0.6296   0.6363   0.6372   0.6495   0.6500
     0.6526   0.6598   0.6853   0.6983   0.7039   0.7054   0.7073   0.7126
     0.7165   0.7190   0.7235   0.7278   0.7395   0.7550   0.7584   0.7602
     0.7612   0.7623   0.7759   0.7842   0.7871   0.7880   0.7908   0.7997
     0.8003   0.8011   0.8109   0.8171   0.8213   0.8254   0.8263   0.8319
     0.8328   0.8475   0.8517   0.8549   0.8625   0.8676   0.8749   0.8771
     0.8775   0.8811   0.8852   0.8965   0.9022   0.9047   0.9211   0.9260
     0.9317   0.9385   0.9410   0.9508   0.9597   0.9713   0.9727   0.9781
     0.9837   0.9950   1.0097   1.0138   1.0174   1.0257   1.0296   1.0353
     1.0367   1.0548   1.0592   1.0676   1.0762   1.0781   1.0794   1.0814
     1.0946   1.0955   1.0980   1.1002   1.1006   1.1051   1.1078   1.1100
     1.1135   1.1209   1.1235   1.1285   1.1320   1.1414   1.1467   1.1486
     1.1543   1.1608   1.1635   1.1735   1.1771   1.1847   1.1910   1.1927
     1.2141   1.2223   1.2295   1.2322   1.2343   1.2424   1.2437   1.2498
     1.2569   1.2578   1.2605   1.2659   1.2671   1.2694   1.2720   1.2756
     1.2919   1.2976   1.3041   1.3102   1.3113   1.3158   1.3226   1.3309
     1.3397   1.3466   1.3488   1.3560   1.3625   1.3651   1.3682   1.3735
     1.3741   1.3752   1.3796   1.3805   1.3869   1.3922   1.3941   1.4019
     1.4085   1.4182   1.4205   1.4303   1.4330   1.4349   1.4399   1.4414
     1.4462   1.4517   1.4569   1.4629   1.4657   1.4669   1.4683   1.4907
     1.4939   1.4950   1.4956   1.4967   1.5050   1.5181   1.5330   1.5426
     1.5498   1.5529   1.5541   1.5571   1.5595   1.5621   1.5632   1.5655
     1.5667   1.5671   1.5845   1.5876   1.6063   1.6075   1.6128   1.6180
     1.6273   1.6291   1.6398   1.6408   1.6459   1.6475   1.6522   1.6562
     1.6609   1.6620   1.6656   1.6665   1.6741   1.6773   1.6841   1.6848
     1.6859   1.6904   1.7017   1.7151   1.7177   1.7181   1.7191   1.7269
     1.7292   1.7325   1.7351   1.7435   1.7584   1.7675   1.7734   1.7768
     1.7873   1.7876   1.7912   1.7935   1.8003   1.8014   1.8029   1.8086
     1.8102   1.8122   1.8131   1.8148   1.8240   1.8249   1.8299   1.8357
     1.8405   1.8450   1.8482   1.8501   1.8507   1.8545   1.8558   1.8581
     1.8630   1.8673   1.8686   1.8708   1.8766   1.8833   1.8882   1.8943
     1.8962   1.9020   1.9074   1.9082   1.9106   1.9114   1.9130   1.9240
     1.9296   1.9342   1.9373   1.9476   1.9486   1.9509   1.9525   1.9558
     1.9656   1.9725   1.9778   1.9872   1.9931   2.0005   2.0030   2.0074
     2.0079   2.0095   2.0115   2.0167   2.0202   2.0243   2.0258   2.0354
     2.0449   2.0465   2.0498   2.0538   2.0546   2.0553   2.0650   2.0711
     2.0743   2.0772   2.0787   2.0790   2.0809   2.0838   2.0946   2.0957
     2.0964   2.0980   2.1029   2.1047   2.1073   2.1097   2.1142   2.1161
     2.1271   2.1295   2.1321   2.1491   2.1541   2.1577   2.1592   2.1644
     2.1665   2.1690   2.1718   2.1756   2.1783   2.1792   2.1887   2.1956
     2.1969   2.1980   2.2019   2.2062   2.2071   2.2094   2.2132   2.2138
     2.2182   2.2210   2.2237   2.2274   2.2298   2.2348   2.2376   2.2391
     2.2436   2.2489   2.2502   2.2599   2.2615   2.2625   2.2659   2.2667
     2.2697   2.2716   2.2737   2.2815   2.2847   2.2917   2.2976   2.3007
     2.3031   2.3106   2.3131   2.3155   2.3221   2.3260   2.3317   2.3532
     2.3554   2.3563   2.3716   2.3837   2.3957   2.4001   2.4112   2.4167
     2.4219   2.4268   2.4338   2.5141   2.5340   2.5380   2.5694   2.5811
     2.5939   2.6275   2.6490   2.7052   2.7815   2.8012   2.8105   2.8258
     2.8602   2.8878   3.0538   3.1002   3.2196   3.2613   3.2656   3.2668
     3.3017   3.4370   3.5833   3.7321   3.7543   3.7656   3.7679   3.8508
     3.9307   3.9656   4.0123   4.0127   4.0519   4.1960   4.2409   4.2976
     4.3147   4.3437   4.4228   4.4252   4.4648   4.4662   4.4737   4.4835
     4.5293   4.6633   4.8718   4.9976   5.0236   5.0743   5.0771   5.2296
     5.2351   5.2736   5.2762   5.3223   5.4222   5.5421   5.5625   5.5717
     5.5999   5.7498   5.8010   5.8063   5.8393   5.8759   5.9496   5.9911
     6.1367   6.1550   6.1707   6.2721   6.3520   6.3659   6.3719   6.3919
     6.4042   6.5467   6.6084   6.6995   6.7390   6.7608   6.8711   6.8769
     6.8843   6.9212   7.0291   7.1647   7.1999   7.3805   7.4751   7.5027
     7.5263   7.5583   7.5677   7.6076   7.6322   7.6829   7.7721   7.7826
     7.7918   7.8025   7.8065   7.8100   7.9214   7.9485   7.9709   8.0680
     8.0783   8.1820   8.2109   8.2191   8.2793   8.3878   8.4381   8.5514
     8.5780   8.6305   8.6447   8.6506   8.6612   8.6642   8.7834   8.8197
     8.8407   9.0116   9.0661   9.1350   9.1455   9.1755   9.1831   9.1898
     9.2186   9.2499   9.2869   9.2932   9.3275   9.4270   9.4361   9.4972
     9.5774   9.6170   9.6848   9.6965   9.7177   9.7380   9.7872   9.8049
     9.8242   9.8303   9.9587   9.9784   9.9817  10.0204  10.0418  10.0869
    10.1343  10.1504  10.2772  10.3023  10.3249  10.4163  10.4751  10.5164
    10.5418  10.5462  10.5651  10.5971

          k = 0.2500-0.2165 0.0000 (256316 PWs)   bands (ev):

   -15.2754 -15.1470 -14.4721 -14.4565 -14.2895 -14.1622 -13.4966 -13.4814
   -13.0177 -13.0064 -12.3635 -12.2381 -12.0700 -12.0587 -11.5998 -11.5854
   -10.9547 -10.8992 -10.3055 -10.2954 -10.0755 -10.0210  -9.7122  -9.5983
    -8.6176  -8.6082  -8.1303  -8.0565  -8.0325  -7.9964  -7.4729  -7.4319
    -7.3638  -7.3526  -5.6774  -5.6262  -5.6150  -5.5958  -5.5235  -5.4265
    -5.2985  -5.2355  -4.9433  -4.9365  -4.9313  -4.8743  -4.1381  -4.1280
    -4.1113  -3.8750  -3.8495  -3.8141  -3.8133  -3.7986  -3.5842  -3.5685
    -3.5158  -3.2807  -3.2082  -3.1463  -3.1353  -3.1301  -3.0005  -2.9666
    -2.8408  -2.8309  -2.7237  -2.6531  -2.6500  -2.6340  -2.5843  -2.5619
    -2.5465  -2.5008  -2.4672  -2.4112  -2.2881  -2.1919  -2.1896  -2.1239
    -2.1010  -2.0999  -2.0569  -2.0445  -1.9749  -1.9621  -1.8692  -1.8670
    -1.7490  -1.7181  -1.6449  -1.5865  -1.5804  -1.5325  -1.4923  -1.4695
    -1.4068  -1.3747  -1.3561  -1.3544  -1.3510  -1.3324  -1.3208  -1.2121
    -1.2076  -1.1457  -1.1310  -1.0783  -1.0169  -0.9998  -0.9976  -0.9590
    -0.9450  -0.9323  -0.9315  -0.9165  -0.9131  -0.9036  -0.8902  -0.8885
    -0.8818  -0.8709  -0.8694  -0.8544  -0.8527  -0.8505  -0.7941  -0.7798
    -0.7739  -0.7578  -0.7535  -0.7437  -0.7392  -0.7288  -0.6891  -0.6739
    -0.6467  -0.5986  -0.5868  -0.5667  -0.5550  -0.5211  -0.5099  -0.4950
    -0.4924  -0.4854  -0.4692  -0.4636  -0.4594  -0.4548  -0.4439  -0.4355
    -0.4265  -0.4172  -0.4145  -0.4025  -0.3982  -0.3976  -0.3953  -0.3777
    -0.3650  -0.3628  -0.3458  -0.3449  -0.3334  -0.3139  -0.3115  -0.3053
    -0.3041  -0.2897  -0.2806  -0.2565  -0.2537  -0.2529  -0.2445  -0.2373
    -0.2360  -0.2313  -0.2251  -0.2247  -0.2054  -0.1917  -0.1846  -0.1826
    -0.1738  -0.1726  -0.1666  -0.1659  -0.1591  -0.1469  -0.1434  -0.1161
    -0.0962  -0.0898  -0.0760  -0.0732  -0.0645  -0.0604  -0.0592  -0.0506
    -0.0425  -0.0135  -0.0028   0.0111   0.0236   0.0286   0.0339   0.0489
     0.0737   0.0750   0.0769   0.0924   0.0953   0.1119   0.1200   0.1240
     0.1351   0.1542   0.1741   0.1822   0.1854   0.1899   0.1967   0.2085
     0.2095   0.2245   0.2256   0.2340   0.2373   0.2393   0.2449   0.2509
     0.2525   0.2535   0.2727   0.2757   0.2903   0.3077   0.3113   0.3205
     0.3306   0.3373   0.3401   0.3477   0.3554   0.3559   0.3585   0.3629
     0.3675   0.3796   0.4002   0.4031   0.4123   0.4146   0.4185   0.4223
     0.4248   0.4262   0.4336   0.4390   0.4405   0.4474   0.4483   0.4583
     0.4591   0.4675   0.4791   0.4812   0.4914   0.4923   0.5058   0.5153
     0.5244   0.5332   0.5440   0.5521   0.5581   0.5689   0.5720   0.5739
     0.5815   0.5831   0.5855   0.5864   0.5900   0.5948   0.6108   0.6116
     0.6167   0.6304   0.6336   0.6373   0.6420   0.6435   0.6635   0.6699
     0.6778   0.6797   0.6871   0.6885   0.6913   0.6951   0.6974   0.7085
     0.7097   0.7212   0.7290   0.7369   0.7437   0.7442   0.7448   0.7489
     0.7560   0.7612   0.7694   0.7702   0.7716   0.7848   0.7865   0.7949
     0.7955   0.7977   0.8084   0.8101   0.8115   0.8178   0.8191   0.8213
     0.8249   0.8304   0.8334   0.8448   0.8634   0.8738   0.8799   0.8853
     0.8861   0.8888   0.8982   0.9041   0.9147   0.9261   0.9273   0.9349
     0.9381   0.9400   0.9456   0.9483   0.9487   0.9509   0.9613   0.9712
     0.9768   0.9777   0.9791   0.9918   1.0004   1.0049   1.0120   1.0133
     1.0186   1.0249   1.0253   1.0301   1.0439   1.0575   1.0723   1.0797
     1.0808   1.0818   1.0950   1.1034   1.1041   1.1063   1.1106   1.1134
     1.1233   1.1246   1.1273   1.1278   1.1319   1.1386   1.1394   1.1462
     1.1566   1.1594   1.1656   1.1819   1.1861   1.1927   1.1977   1.2039
     1.2047   1.2112   1.2130   1.2247   1.2260   1.2363   1.2370   1.2478
     1.2502   1.2511   1.2534   1.2665   1.2739   1.2769   1.2894   1.2945
     1.2974   1.3025   1.3085   1.3092   1.3123   1.3194   1.3351   1.3381
     1.3400   1.3546   1.3573   1.3709   1.3784   1.3792   1.3805   1.3840
     1.3868   1.3902   1.4011   1.4017   1.4044   1.4101   1.4162   1.4190
     1.4257   1.4306   1.4329   1.4354   1.4451   1.4546   1.4561   1.4656
     1.4710   1.4727   1.4755   1.4789   1.4897   1.4898   1.4909   1.4930
     1.4964   1.5024   1.5032   1.5073   1.5108   1.5166   1.5346   1.5379
     1.5398   1.5413   1.5444   1.5487   1.5511   1.5556   1.5589   1.5617
     1.5705   1.5731   1.5761   1.5795   1.5880   1.5912   1.5926   1.6029
     1.6062   1.6101   1.6308   1.6328   1.6365   1.6378   1.6398   1.6465
     1.6469   1.6521   1.6546   1.6641   1.6708   1.6735   1.6774   1.6790
     1.6834   1.6857   1.6924   1.6932   1.7061   1.7075   1.7128   1.7133
     1.7199   1.7262   1.7274   1.7329   1.7386   1.7449   1.7511   1.7585
     1.7684   1.7700   1.7708   1.7786   1.7802   1.7814   1.7944   1.7992
     1.8007   1.8082   1.8198   1.8204   1.8275   1.8436   1.8485   1.8500
     1.8554   1.8574   1.8639   1.8658   1.8667   1.8688   1.8795   1.8799
     1.8885   1.8925   1.8951   1.8965   1.9026   1.9062   1.9066   1.9089
     1.9113   1.9130   1.9253   1.9270   1.9319   1.9330   1.9348   1.9434
     1.9458   1.9488   1.9551   1.9593   1.9642   1.9677   1.9681   1.9725
     1.9738   1.9777   1.9816   1.9840   1.9913   1.9915   1.9930   1.9982
     1.9996   2.0063   2.0082   2.0107   2.0130   2.0238   2.0260   2.0307
     2.0364   2.0374   2.0440   2.0518   2.0522   2.0544   2.0592   2.0618
     2.0627   2.0655   2.0666   2.0682   2.0742   2.0787   2.0879   2.0974
     2.1026   2.1032   2.1060   2.1169   2.1220   2.1234   2.1246   2.1266
     2.1300   2.1379   2.1388   2.1407   2.1530   2.1537   2.1554   2.1604
     2.1646   2.1707   2.1727   2.1728   2.1746   2.1768   2.1787   2.1797
     2.1851   2.1952   2.1970   2.2002   2.2014   2.2025   2.2108   2.2156
     2.2232   2.2262   2.2267   2.2309   2.2322   2.2358   2.2396   2.2412
     2.2424   2.2431   2.2479   2.2502   2.2511   2.2633   2.2660   2.2694
     2.2707   2.2738   2.2744   2.2763   2.2808   2.2903   2.2905   2.2945
     2.2961   2.2969   2.3024   2.3075   2.3118   2.3237   2.3286   2.3390
     2.3468   2.3493   2.3532   2.3677   2.3826   2.3865   2.4215   2.4370
     2.4508   2.4749   2.4969   2.5027   2.5074   2.5252   2.5390   2.5488
     2.5518   2.5532   2.6457   2.7315   2.8942   2.9071   2.9168   2.9316
     2.9480   2.9668   2.9863   3.0422   3.0771   3.2165   3.2661   3.3538
     3.3717   3.4015   3.4783   3.5571   3.5723   3.5831   3.6377   3.6795
     3.7105   3.8729   3.9127   3.9295   3.9405   4.1859   4.3321   4.3763
     4.4502   4.5184   4.5694   4.5982   4.6041   4.6118   4.6523   4.8074
     4.8083   4.8805   4.9229   4.9291   5.0148   5.0707   5.0905   5.1067
     5.2272   5.2532   5.3057   5.3552   5.3820   5.3956   5.4437   5.5078
     5.6427   5.6872   5.7574   5.7924   5.8188   5.8240   5.8489   5.9537
     5.9778   5.9964   6.1732   6.1953   6.2079   6.2279   6.3299   6.4495
     6.4940   6.5116   6.5510   6.5860   6.6721   6.7289   6.8741   6.9212
     6.9443   7.0817   7.1057   7.1143   7.1721   7.2193   7.2932   7.4877
     7.5366   7.5483   7.5772   7.6642   7.6742   7.8492   7.8578   7.9020
     7.9038   7.9215   7.9309   8.0099   8.0616   8.1021   8.1276   8.1368
     8.1537   8.1734   8.1922   8.2185   8.3110   8.3416   8.4190   8.4633
     8.5633   8.6312   8.6700   8.7691   8.7729   8.8104   8.8163   8.8771
     8.8942   8.9578   8.9846   9.0164   9.0287   9.0312   9.0873   9.0914
     9.2680   9.3232   9.3849   9.3956   9.4047   9.4461   9.4720   9.4941
     9.5182   9.5439   9.5543   9.5795   9.6377   9.6529   9.7551   9.7839
     9.7972   9.8132   9.8436   9.8796   9.9031   9.9992  10.0276  10.0430
    10.1179  10.1607  10.1664  10.1989  10.2505  10.2671  10.2828  10.3300
    10.3811  10.4161  10.4425  10.4836

          k =-0.5000 0.0000 0.0000 (256496 PWs)   bands (ev):

   -14.9492 -14.9477 -14.5527 -14.5519 -14.5505 -14.5498 -13.4632 -13.4620
   -13.4613 -13.4605 -11.6897 -11.6891 -11.6875 -11.6859 -11.1320 -11.1297
   -10.7819 -10.7760 -10.7656 -10.7654 -10.1246 -10.1243  -9.7235  -9.7230
    -9.1412  -9.1397  -8.7341  -8.7321  -7.9003  -7.8996  -7.8963  -7.8951
    -6.4059  -6.4042  -6.3433  -6.3418  -6.3339  -6.3322  -4.8867  -4.8840
    -4.5080  -4.5068  -4.1667  -4.1637  -4.0096  -4.0087  -3.9940  -3.9904
    -3.7363  -3.7342  -3.7340  -3.7322  -3.6518  -3.6507  -3.6466  -3.6452
    -3.6175  -3.6138  -3.3760  -3.3705  -3.3632  -3.3574  -3.2127  -3.2062
    -3.0486  -3.0467  -3.0395  -3.0383  -2.6479  -2.6446  -2.6239  -2.6213
    -2.6006  -2.5990  -2.5915  -2.5894  -2.3640  -2.3637  -2.3512  -2.3491
    -2.3468  -2.3450  -2.2830  -2.2757  -1.9848  -1.9816  -1.8901  -1.8886
    -1.7603  -1.7595  -1.7523  -1.7522  -1.7255  -1.7238  -1.7046  -1.7015
    -1.3840  -1.3816  -1.3651  -1.3601  -1.1548  -1.1524  -1.1457  -1.1440
    -1.0739  -1.0734  -1.0731  -1.0730  -1.0659  -1.0644  -1.0376  -1.0369
    -0.8525  -0.8522  -0.8519  -0.8501  -0.7996  -0.7991  -0.7987  -0.7984
    -0.7894  -0.7891  -0.7098  -0.7081  -0.6946  -0.6943  -0.6492  -0.6473
    -0.6467  -0.6456  -0.6386  -0.6377  -0.6259  -0.6235  -0.5810  -0.5799
    -0.5520  -0.5498  -0.5492  -0.5480  -0.5178  -0.5168  -0.5093  -0.5088
    -0.4956  -0.4951  -0.4882  -0.4877  -0.4723  -0.4716  -0.4686  -0.4677
    -0.4562  -0.4551  -0.4358  -0.4353  -0.4010  -0.3995  -0.3952  -0.3894
    -0.3862  -0.3842  -0.3746  -0.3726  -0.3424  -0.3418  -0.3413  -0.3408
    -0.3126  -0.3124  -0.3120  -0.3113  -0.3033  -0.3023  -0.2813  -0.2804
    -0.2631  -0.2609  -0.2338  -0.2333  -0.2277  -0.2253  -0.2091  -0.2084
    -0.1785  -0.1772  -0.1695  -0.1687  -0.1621  -0.1616  -0.1569  -0.1551
    -0.1430  -0.1411  -0.1183  -0.1164  -0.1139  -0.1115  -0.1102  -0.1071
    -0.1071  -0.1037  -0.0759  -0.0749  -0.0314  -0.0293   0.0149   0.0171
     0.0238   0.0263   0.0771   0.0777   0.0835   0.0842   0.0954   0.0973
     0.1232   0.1250   0.1302   0.1306   0.1372   0.1378   0.1677   0.1685
     0.1850   0.1856   0.1867   0.1873   0.2107   0.2123   0.2338   0.2341
     0.2353   0.2359   0.2825   0.2857   0.3210   0.3251   0.3265   0.3284
     0.3352   0.3369   0.3425   0.3434   0.3508   0.3611   0.3793   0.3803
     0.3873   0.3893   0.4020   0.4049   0.4163   0.4180   0.4245   0.4249
     0.4521   0.4529   0.4643   0.4648   0.4707   0.4712   0.4897   0.4905
     0.4985   0.4996   0.5058   0.5059   0.5234   0.5242   0.5378   0.5385
     0.5511   0.5523   0.5540   0.5541   0.5754   0.5775   0.5851   0.5861
     0.5979   0.5990   0.6150   0.6177   0.6192   0.6225   0.6379   0.6398
     0.6419   0.6437   0.6595   0.6611   0.6763   0.6772   0.6841   0.6851
     0.6882   0.6886   0.7310   0.7331   0.7501   0.7510   0.7517   0.7525
     0.7544   0.7578   0.7633   0.7646   0.7705   0.7707   0.7747   0.7775
     0.7841   0.7848   0.7999   0.8008   0.8074   0.8076   0.8089   0.8096
     0.8438   0.8440   0.8535   0.8554   0.8738   0.8745   0.8820   0.8822
     0.8843   0.8874   0.8905   0.8914   0.8952   0.8974   0.8977   0.8987
     0.9141   0.9151   0.9191   0.9196   0.9215   0.9248   0.9256   0.9262
     0.9448   0.9450   0.9478   0.9481   0.9500   0.9523   0.9571   0.9572
     0.9672   0.9682   0.9700   0.9718   1.0100   1.0123   1.0137   1.0142
     1.0292   1.0322   1.0606   1.0632   1.0871   1.0919   1.0960   1.0963
     1.1113   1.1124   1.1134   1.1151   1.1227   1.1279   1.1304   1.1308
     1.1487   1.1497   1.1511   1.1512   1.1519   1.1547   1.1571   1.1651
     1.1667   1.1694   1.1749   1.1757   1.1796   1.1813   1.1817   1.1874
     1.1945   1.1973   1.2002   1.2022   1.2159   1.2201   1.2229   1.2284
     1.2380   1.2519   1.2605   1.2699   1.2746   1.2769   1.2886   1.2892
     1.2970   1.2997   1.3013   1.3026   1.3033   1.3172   1.3222   1.3233
     1.3267   1.3413   1.3419   1.3423   1.3427   1.3571   1.3624   1.3635
     1.3640   1.3694   1.3697   1.3711   1.3733   1.3761   1.3817   1.4014
     1.4104   1.4112   1.4123   1.4136   1.4201   1.4276   1.4279   1.4282
     1.4287   1.4311   1.4414   1.4463   1.4484   1.4509   1.4551   1.4561
     1.4625   1.4690   1.4742   1.4758   1.4812   1.4815   1.4821   1.4855
     1.4910   1.5190   1.5243   1.5363   1.5372   1.5395   1.5404   1.5411
     1.5515   1.5519   1.5630   1.5633   1.5734   1.5737   1.5868   1.5885
     1.5911   1.5949   1.6049   1.6063   1.6150   1.6227   1.6234   1.6251
     1.6258   1.6281   1.6350   1.6374   1.6524   1.6563   1.6588   1.6592
     1.6626   1.6638   1.6673   1.6679   1.6729   1.6827   1.6943   1.6949
     1.7004   1.7007   1.7110   1.7155   1.7159   1.7201   1.7269   1.7395
     1.7500   1.7647   1.7666   1.7672   1.7718   1.7754   1.7879   1.7885
     1.7930   1.7954   1.8141   1.8144   1.8231   1.8312   1.8323   1.8352
     1.8568   1.8597   1.8601   1.8634   1.8673   1.8713   1.8732   1.8734
     1.8822   1.8829   1.8952   1.8993   1.9008   1.9058   1.9162   1.9168
     1.9184   1.9194   1.9196   1.9203   1.9275   1.9313   1.9361   1.9369
     1.9393   1.9410   1.9443   1.9451   1.9553   1.9562   1.9668   1.9672
     1.9798   1.9813   1.9822   1.9831   1.9977   2.0040   2.0079   2.0082
     2.0110   2.0117   2.0149   2.0162   2.0179   2.0214   2.0256   2.0295
     2.0304   2.0308   2.0377   2.0386   2.0417   2.0432   2.0449   2.0474
     2.0676   2.0679   2.0823   2.0829   2.0887   2.0930   2.0943   2.0952
     2.1000   2.1003   2.1092   2.1116   2.1119   2.1122   2.1131   2.1141
     2.1159   2.1168   2.1176   2.1183   2.1259   2.1266   2.1275   2.1284
     2.1292   2.1365   2.1394   2.1502   2.1505   2.1512   2.1636   2.1652
     2.1705   2.1758   2.1809   2.1812   2.1829   2.1833   2.2016   2.2024
     2.2034   2.2042   2.2109   2.2122   2.2155   2.2162   2.2182   2.2212
     2.2218   2.2231   2.2239   2.2281   2.2289   2.2303   2.2451   2.2455
     2.2476   2.2478   2.2617   2.2624   2.2720   2.2771   2.2847   2.2855
     2.2940   2.2963   2.2984   2.2986   2.3049   2.3051   2.3056   2.3058
     2.3173   2.3176   2.3452   2.3498   2.3589   2.3590   2.3743   2.3750
     2.3830   2.3857   2.4032   2.4036   2.4187   2.4200   2.5015   2.5023
     2.5420   2.5436   2.7003   2.7018   2.9887   2.9912   3.0095   3.0117
     3.0668   3.0684   3.0782   3.0789   3.0874   3.0883   3.5073   3.5079
     3.5534   3.5539   3.7573   3.7591   3.8146   3.8160   3.9380   3.9392
     3.9565   3.9574   3.9943   3.9959   4.1222   4.1235   4.5799   4.5811
     4.6023   4.6028   4.7070   4.7113   4.7349   4.7480   4.7883   4.7951
     4.8956   4.8960   5.3541   5.3568   5.3955   5.4079   5.4704   5.4731
     5.5136   5.5221   5.5869   5.5873   5.5995   5.6337   5.6342   5.6508
     5.6623   5.6652   5.7818   5.7955   5.8179   5.8188   5.8472   5.8543
     5.8788   5.8891   6.0497   6.0557   6.0690   6.0766   6.2469   6.2681
     6.2829   6.3009   6.4565   6.4620   6.4949   6.5150   6.6436   6.6449
     6.6696   6.6769   6.7581   6.7621   6.8035   6.8154   6.9048   6.9083
     7.1371   7.1413   7.2225   7.2259   7.4821   7.4900   7.5103   7.5190
     7.6227   7.6417   7.6528   7.6831   7.9461   7.9467   7.9958   7.9994
     8.2272   8.2297   8.3486   8.3545   8.3610   8.3629   8.3660   8.3669
     8.4843   8.4850   8.5669   8.5681   8.5838   8.5865   8.6447   8.6474
     8.6782   8.6800   8.8656   8.8767   8.9437   8.9474   8.9858   8.9894
     9.0917   9.0979   9.1660   9.1663   9.3377   9.3410   9.4599   9.4616
     9.4882   9.4904   9.5779   9.5821   9.6418   9.6442   9.6824   9.6826
     9.6995   9.6997   9.8440   9.8484   9.9157   9.9184  10.0048  10.0068
    10.1565  10.1591  10.3486  10.3503  10.3787  10.3805  10.3928  10.3934
    10.4495  10.4633  10.4666  10.4677

          k =-0.5000-0.2165 0.0000 (256328 PWs)   bands (ev):

   -14.9052 -14.9032 -14.7763 -14.7761 -14.1052 -14.1042 -14.0897 -14.0889
   -12.6607 -12.6598 -12.6495 -12.6484 -11.0936 -11.0914 -10.9699 -10.9673
   -10.6220 -10.6210 -10.5660 -10.5652 -10.4431 -10.4295 -10.3717 -10.3614
    -8.7552  -8.7446  -8.6791  -8.6702  -7.7704  -7.7678  -7.7325  -7.7319
    -7.0283  -7.0245  -6.9491  -6.9446  -4.9196  -4.9181  -4.9146  -4.9128
    -4.4060  -4.4044  -4.3518  -4.3471  -4.3227  -4.3152  -4.2590  -4.2538
    -4.1104  -4.1065  -3.9911  -3.9901  -3.6175  -3.6095  -3.3964  -3.3952
    -3.3742  -3.3708  -3.3109  -3.3047  -3.1895  -3.1876  -3.1792  -3.1771
    -3.1378  -3.1312  -2.8465  -2.8459  -2.7017  -2.6987  -2.6385  -2.6375
    -2.6281  -2.6266  -2.5872  -2.5848  -2.5831  -2.5802  -2.5565  -2.5555
    -2.2415  -2.2376  -2.1367  -2.1342  -2.0409  -2.0373  -1.8843  -1.8822
    -1.7709  -1.7676  -1.7667  -1.7655  -1.4971  -1.4945  -1.4507  -1.4498
    -1.3268  -1.3256  -1.3210  -1.3201  -1.2831  -1.2807  -1.2732  -1.2716
    -1.0886  -1.0850  -1.0426  -1.0408  -1.0143  -1.0129  -0.9852  -0.9834
    -0.9725  -0.9721  -0.9184  -0.9183  -0.8591  -0.8582  -0.7762  -0.7741
    -0.6865  -0.6857  -0.6801  -0.6791  -0.6591  -0.6589  -0.6465  -0.6455
    -0.6317  -0.6300  -0.6179  -0.6179  -0.6137  -0.6114  -0.5827  -0.5823
    -0.5797  -0.5795  -0.5730  -0.5723  -0.5665  -0.5629  -0.5566  -0.5563
    -0.5527  -0.5516  -0.4943  -0.4923  -0.4744  -0.4714  -0.4599  -0.4560
    -0.4292  -0.4288  -0.4194  -0.4180  -0.3937  -0.3931  -0.3876  -0.3806
    -0.3794  -0.3766  -0.3546  -0.3541  -0.3443  -0.3438  -0.3367  -0.3361
    -0.3274  -0.3255  -0.3250  -0.3242  -0.3236  -0.3227  -0.2847  -0.2816
    -0.2630  -0.2627  -0.2524  -0.2515  -0.2483  -0.2453  -0.2350  -0.2319
    -0.2305  -0.2284  -0.2236  -0.2215  -0.1796  -0.1735  -0.1715  -0.1681
    -0.1271  -0.1216  -0.1078  -0.1066  -0.0565  -0.0550  -0.0486  -0.0464
    -0.0414  -0.0399  -0.0203  -0.0201  -0.0097  -0.0092   0.0059   0.0064
     0.0329   0.0366   0.0488   0.0495   0.0504   0.0512   0.0634   0.0645
     0.0786   0.0808   0.0978   0.0984   0.1063   0.1078   0.1098   0.1114
     0.1146   0.1170   0.1310   0.1333   0.2324   0.2329   0.2343   0.2362
     0.2590   0.2611   0.2680   0.2685   0.2774   0.2796   0.3113   0.3131
     0.3132   0.3148   0.3239   0.3263   0.3276   0.3349   0.3609   0.3629
     0.3655   0.3686   0.3732   0.3738   0.3774   0.3827   0.4131   0.4143
     0.4268   0.4298   0.4453   0.4474   0.4531   0.4561   0.5038   0.5056
     0.5073   0.5081   0.5358   0.5365   0.5417   0.5422   0.5426   0.5431
     0.5475   0.5485   0.5529   0.5535   0.5587   0.5605   0.5942   0.5956
     0.5979   0.5995   0.6287   0.6289   0.6332   0.6335   0.6367   0.6369
     0.6621   0.6626   0.6786   0.6793   0.6797   0.6805   0.6809   0.6820
     0.6952   0.6958   0.6959   0.6964   0.7049   0.7054   0.7431   0.7444
     0.7476   0.7488   0.7814   0.7841   0.7864   0.7877   0.7939   0.8012
     0.8187   0.8204   0.8204   0.8217   0.8253   0.8260   0.8335   0.8343
     0.8535   0.8541   0.8642   0.8656   0.8698   0.8702   0.8783   0.8791
     0.8844   0.8853   0.8919   0.8920   0.9034   0.9038   0.9064   0.9085
     0.9115   0.9134   0.9268   0.9275   0.9284   0.9295   0.9469   0.9476
     0.9483   0.9494   0.9563   0.9596   0.9636   0.9644   0.9915   0.9933
     0.9959   0.9993   1.0110   1.0125   1.0133   1.0149   1.0239   1.0261
     1.0344   1.0363   1.0459   1.0506   1.0553   1.0608   1.0897   1.0902
     1.1103   1.1135   1.1198   1.1199   1.1330   1.1368   1.1464   1.1477
     1.1494   1.1557   1.1585   1.1629   1.1636   1.1653   1.1718   1.1736
     1.1758   1.1769   1.1783   1.1798   1.1901   1.1904   1.1941   1.2015
     1.2197   1.2263   1.2300   1.2320   1.2428   1.2470   1.2482   1.2492
     1.2509   1.2522   1.2534   1.2567   1.2708   1.2757   1.2768   1.2795
[...]
     atom   35 type  1   force =    -0.00003971    0.00116323    0.00118005
     atom   36 type  1   force =    -0.00001665    0.00037644    0.00258687
     atom   37 type  1   force =    -0.00024207    0.00016705    0.00145672
     atom   38 type  1   force =    -0.00001113   -0.00036289   -0.00022916
     atom   39 type  1   force =     0.00024222    0.00012340    0.00148877
     atom   40 type  1   force =     0.00001149    0.00024722   -0.00021560
     atom   41 type  1   force =     0.00010159    0.00080066    0.00106036
     atom   42 type  1   force =     0.00002564    0.00005742    0.00092418
     atom   43 type  1   force =    -0.00010536    0.00086589    0.00098845
     atom   44 type  1   force =    -0.00002618    0.00015568    0.00003340
     atom   45 type  1   force =     0.00028922    0.00049134    0.00038374
     atom   46 type  1   force =     0.00002544   -0.00030617   -0.00080571
     atom   47 type  1   force =    -0.00029092    0.00052177    0.00034857
     atom   48 type  1   force =    -0.00002677    0.00073416   -0.00084966
     atom   49 type  1   force =    -0.00021559    0.00067927    0.00126406
     atom   50 type  1   force =     0.00000638   -0.00072873    0.00096487
     atom   51 type  1   force =     0.00022108    0.00062865    0.00131179
     atom   52 type  1   force =    -0.00000756   -0.00084763    0.00171994
     atom   53 type  1   force =     0.00013008    0.00006924   -0.00042462
     atom   54 type  1   force =    -0.00002487   -0.00064810    0.00048072
     atom   55 type  1   force =    -0.00012913    0.00004864   -0.00038277
     atom   56 type  1   force =     0.00002646    0.00013543   -0.00007410
     atom   57 type  1   force =     0.00015035    0.00032880   -0.00008659
     atom   58 type  1   force =    -0.00002262   -0.00110224    0.00119645
     atom   59 type  1   force =    -0.00015088    0.00040331   -0.00016625
     atom   60 type  1   force =     0.00001872   -0.00075145    0.00019391
     atom   61 type  1   force =     0.00073079    0.00124134    0.00080547
     atom   62 type  1   force =    -0.00002836    0.00039249   -0.00023386
     atom   63 type  1   force =    -0.00073093    0.00133075    0.00087901
     atom   64 type  1   force =     0.00002808    0.00081437   -0.00096285
     atom   65 type  1   force =    -0.00027244    0.00063955   -0.00157407
     atom   66 type  1   force =     0.00002951   -0.00181083    0.00215448
     atom   67 type  1   force =     0.00028837    0.00067966   -0.00169829
     atom   68 type  1   force =    -0.00003333   -0.00117735    0.00194810
     atom   69 type  1   force =    -0.00048891   -0.00386079   -0.00203094
     atom   70 type  1   force =    -0.00000720    0.00400706   -0.00250807
     atom   71 type  1   force =     0.00050229   -0.00392222   -0.00211782
     atom   72 type  1   force =     0.00000069    0.00363803   -0.00228647
     atom   73 type  1   force =     0.00103824    0.00126799    0.00186034
     atom   74 type  1   force =     0.00000108    0.00011407   -0.00109518
     atom   75 type  1   force =    -0.00102905    0.00115433    0.00179711
     atom   76 type  1   force =    -0.00000993   -0.00221303   -0.00116457
     atom   77 type  1   force =     0.00066580   -0.00045502   -0.00070124
     atom   78 type  1   force =    -0.00007732   -0.00027063    0.00086383
     atom   79 type  1   force =    -0.00066737   -0.00036876   -0.00074981
     atom   80 type  1   force =     0.00007500   -0.00068509    0.00065791
     atom   81 type  1   force =     0.00055491   -0.00128338    0.00031107
     atom   82 type  1   force =     0.00006354   -0.00010823    0.00165921
     atom   83 type  1   force =    -0.00055734   -0.00115765    0.00029880
     atom   84 type  1   force =    -0.00005911    0.00167930    0.00219648
     atom   85 type  1   force =     0.00024384    0.00276186    0.00063033
     atom   86 type  1   force =     0.00006832   -0.00311221   -0.00031313
     atom   87 type  1   force =    -0.00023013    0.00279253    0.00072051
     atom   88 type  1   force =    -0.00006237    0.00039574    0.00124871
     atom   89 type  1   force =    -0.00237779   -0.00054621    0.00080963
     atom   90 type  1   force =     0.00000576    0.00350115   -0.00098444
     atom   91 type  1   force =     0.00230962   -0.00060817    0.00094347
     atom   92 type  1   force =    -0.00002216    0.00134879    0.00265757
     atom   93 type  1   force =    -0.00024886   -0.00042438    0.00087743
     atom   94 type  1   force =     0.00003008   -0.00213981    0.00052434
     atom   95 type  1   force =     0.00028568   -0.00062603    0.00119273
     atom   96 type  1   force =    -0.00002440   -0.00312640    0.00082932
     atom   97 type  1   force =     0.00011767   -0.00009068    0.00210408
     atom   98 type  1   force =    -0.00004382    0.00147441   -0.00007461
     atom   99 type  1   force =    -0.00011781   -0.00005368    0.00212829
     atom  100 type  1   force =     0.00004551    0.00077639    0.00048437
     atom  101 type  1   force =     0.00001871    0.00180408   -0.00027021
     atom  102 type  1   force =    -0.00010103    0.00158145   -0.00172989
     atom  103 type  1   force =    -0.00089680    0.00178649   -0.00021712
     atom  104 type  1   force =     0.00002439   -0.00237519   -0.00077429
     atom  105 type  1   force =     0.00091093    0.00199366   -0.00063590
     atom  106 type  1   force =     0.00000415   -0.00103962   -0.00100292
     atom  107 type  1   force =    -0.00054260   -0.00204416    0.00001156
     atom  108 type  1   force =     0.00053637   -0.00184303   -0.00014373
     atom  109 type  2   force =     0.00006913   -0.00014796   -0.00123480
     atom  110 type  2   force =    -0.00001823   -0.00115784   -0.00070017
     atom  111 type  2   force =     0.00048149   -0.00020868   -0.00103199
     atom  112 type  2   force =     0.00018199   -0.00073193   -0.00156659
     atom  113 type  2   force =    -0.00023268   -0.00118031   -0.00242033
     atom  114 type  2   force =    -0.00015762   -0.00084371   -0.00142489
     atom  115 type  2   force =    -0.00005817    0.00047486    0.00116021
     atom  116 type  2   force =     0.00005493    0.00047575    0.00060497
     atom  117 type  2   force =     0.00036751   -0.00122000   -0.00257186
     atom  118 type  2   force =     0.00004136   -0.00082238   -0.00152068
     atom  119 type  2   force =    -0.00059335   -0.00021542   -0.00102495
     atom  120 type  2   force =    -0.00015418   -0.00070676   -0.00143517
     atom  121 type  2   force =    -0.00014387   -0.00189703   -0.00319852
     atom  122 type  2   force =    -0.00012979    0.00267636    0.00321781
     atom  123 type  2   force =    -0.00016991    0.00090069    0.00027855
     atom  124 type  2   force =    -0.00140199   -0.00009038   -0.00349200
     atom  125 type  2   force =    -0.00031775    0.00074701    0.00121714
     atom  126 type  2   force =     0.00110509    0.00025446   -0.00140745
     atom  127 type  2   force =     0.00007317   -0.00074845   -0.00330958
     atom  128 type  2   force =     0.00009069   -0.00064465    0.00167598
     atom  129 type  2   force =     0.00010477    0.00091046    0.00130426
     atom  130 type  2   force =    -0.00135495    0.00011543   -0.00155998
     atom  131 type  2   force =     0.00051240    0.00086480    0.00024795
     atom  132 type  2   force =     0.00168384    0.00003533   -0.00363267
     atom  133 type  2   force =    -0.00009155    0.00107469   -0.00222288
     atom  134 type  2   force =    -0.00003303   -0.00237495    0.00197894
     atom  135 type  2   force =     0.00115427   -0.00038960    0.00049917
     atom  136 type  2   force =     0.00049930    0.00042544   -0.00210147
     atom  137 type  2   force =    -0.00060213   -0.00107327    0.00178215
     atom  138 type  2   force =    -0.00035617   -0.00009035   -0.00253788
     atom  139 type  2   force =     0.00017123    0.00047753   -0.00437289
     atom  140 type  2   force =     0.00006573    0.00032191    0.00181068
     atom  141 type  2   force =     0.00028017   -0.00110921    0.00178756
     atom  142 type  2   force =     0.00032946   -0.00002815   -0.00247381
     atom  143 type  2   force =    -0.00095840   -0.00047638    0.00070256
     atom  144 type  2   force =    -0.00042037    0.00036377   -0.00222914
     atom  145 type  2   force =     0.00004227   -0.00023360   -0.00191039
     atom  146 type  2   force =     0.00009119    0.00164536   -0.00319417
     atom  147 type  2   force =    -0.00005174   -0.00004086    0.00022102
     atom  148 type  2   force =    -0.00082644   -0.00040318   -0.00039071
     atom  149 type  2   force =    -0.00038675    0.00051580   -0.00105823
     atom  150 type  2   force =     0.00075894    0.00057325   -0.00178701
     atom  151 type  2   force =    -0.00007587   -0.00045973   -0.00228531
     atom  152 type  2   force =    -0.00009038   -0.00079432   -0.00213961
     atom  153 type  2   force =     0.00052517    0.00050543   -0.00097951
     atom  154 type  2   force =    -0.00060496    0.00057406   -0.00172112
     atom  155 type  2   force =    -0.00005861    0.00002794    0.00011433
     atom  156 type  2   force =     0.00067561   -0.00040032   -0.00034289

     Total force =     0.025052     Total SCF correction =     0.000241

     number of scf cycles    =  13
     number of bfgs steps    =  12

     energy   old            =  -13670.9004868393 Ry
     energy   new            =  -13670.9011898643 Ry

     CASE: energy  _new < energy  _old

     new trust radius        =       0.0338737562 bohr
     new conv_thr            =       0.0000000100 Ry


ATOMIC_POSITIONS (angstrom)
Cu       0.000070579   0.011761227   6.443719323
Cu       1.844491007   1.720827066   6.456855593
Cu       3.688918860   0.011929864   6.443858319
Cu       5.533540182   1.723345230   6.456144591
Cu      -0.000651458   3.428295807   6.478936859
Cu       1.844508043   5.128714255   6.489575181
Cu       3.689640874   3.428153371   6.478774577
Cu       5.533523127   5.128325340   6.487846560
Cu       0.000884649   6.823667701   6.482385843
Cu       1.844529822   8.516344171   6.485497360
Cu       3.688105878   6.823707663   6.482507390
Cu       5.533499171   8.516598641   6.482851929
Cu      -0.000764122  10.212177445   6.491405273
Cu       1.844502922  11.915092661   6.479812799
Cu       3.689758655  10.212035048   6.491476875
Cu       5.533524656  11.913346553   6.478363282
Cu       0.000460809  13.619970383   6.454738854
Cu       1.844491755  15.329038276   6.441317232
Cu       3.688531640  13.619994319   6.454869050
Cu       5.533528319  15.329492929   6.444372349
Cu       0.000209396   1.713354904   8.287629883
Cu       1.844491646   0.005460547   8.265203858
Cu       3.688792006   1.713430055   8.287751831
Cu       5.533550440   0.006886960   8.265953158
Cu      -0.000670957   5.136353663   8.322349590
Cu       1.844489871   3.427589676   8.303436353
Cu       3.689662243   5.135962902   8.322287241
Cu       5.533542633   3.426239291   8.302953852
Cu      -0.000339151   8.509196132   8.349780620
Cu       1.844469002   6.829420291   8.351701413
Cu       3.689326656   8.509359898   8.350338051
Cu       5.533542824   6.828709025   8.352192810
Cu       0.000404086  11.914368079   8.305584520
Cu       1.844373234  10.204825666   8.320510443
Cu       3.688585642  11.914589783   8.305423857
Cu       5.533644717  10.205795197   8.321712433
Cu      -0.000445510  15.335759146   8.265123078
Cu       1.844512930  13.629294610   8.288338931
Cu       3.689442662  15.335753172   8.264952488
Cu       5.533515797  13.627144690   8.288254838
Cu      -0.000999237  -0.002711546  10.111250299
Cu       1.844396414   1.700132070  10.124159306
Cu       3.690008293  -0.003253952  10.110988711
Cu       5.533631765   1.698045057  10.127023302
Cu      -0.000734679   3.403092215  10.143367057
Cu       1.844368909   5.109407610  10.181189656
Cu       3.689719032   3.403340245  10.144030835
Cu       5.533624883   5.106463998  10.183563026
Cu      -0.000199766   6.816048597  10.224878382
Cu       1.844206393   8.525501121  10.223723693
Cu       3.689153713   6.815457590  10.224226946
Cu       5.533773076   8.526189201  10.224312412
Cu      -0.000073349  10.230706646  10.179897312
Cu       1.844384074  11.936431812  10.142607488
Cu       3.689037230  10.231475790  10.179346842
Cu       5.533611647  11.936471093  10.142436653
Cu      -0.000918006  13.641998475  10.126472638
Cu       1.844550203  15.344662910  10.111207946
Cu       3.689903927  13.641811117  10.126562744
Cu       5.533501658  15.343231255  10.113458447
Cu      -0.001813501   1.683632651  11.974497746
Cu       1.844329331  -0.009758215  11.966933112
Cu       3.690794710   1.682222411  11.973204966
Cu       5.533676147  -0.011884842  11.967924444
Cu       0.000923547   5.051155754  12.048438249
Cu       1.844515350   3.381998169  11.995170863
Cu       3.688015808   5.052071516  12.049697892
Cu       5.533485850   3.377830504  11.993429050
Cu       0.002590012   8.574332486  12.070384515
Cu       1.843901443   6.767947178  12.064572764
Cu       3.686392763   8.573889446  12.066097720
Cu       5.534194220   6.766710169  12.070943106
Cu      -0.002252886  11.963138476  11.990422377
Cu       1.843626909  10.285950484  12.048535271
Cu       3.691228099  11.963425112  11.990161658
Cu       5.534380684  10.295519260  12.046219952
Cu      -0.001714899  15.350453286  11.967923684
Cu       1.844648561  13.655076634  11.971749356
Cu       3.690687405  15.350582300  11.967663239
Cu       5.533357192  13.657697489  11.974330940
Cu       0.000389723  -0.010936450  13.830487159
Cu       1.844470136   1.648598105  13.826057283
Cu       3.688572843  -0.011651391  13.830398813
Cu       5.533513866   1.639868796  13.825529793
Cu       0.001046933   3.275712203  13.908150784
Cu       1.841733560   4.966354549  13.941701532
Cu       3.687974403   3.276022591  13.902847217
Cu       5.536338138   4.952818834  13.934353789
Cu       0.010443435   6.775448279  13.829602000
Cu       1.845776441   8.553573709  13.833498116
Cu       3.678716436   6.779850247  13.826512913
Cu       5.532373751   8.561188260  13.817872119
Cu       0.000159703  10.396042409  13.937597048
Cu       1.846636104  12.066610061  13.903362211
Cu       3.688861214  10.386976932  13.928336248
Cu       5.531339196  12.070126266  13.908723262
Cu      -0.000272679  13.694156492  13.823681686
Cu       1.844019191  15.349937031  13.829794308
Cu       3.689199488  13.696392338  13.823944872
Cu       5.533929771  15.353178858  13.831041057
Cu       1.854501385  10.228933229  15.625420944
Cu       5.523919947  10.226742861  15.630966308
Cu      -0.000903951   8.523875231  15.589398132
Cu       1.840349889   6.834836856  15.617707292
Cu       3.689700873   8.510438374  15.603817241
Cu       5.537314250   6.828226147  15.592790848
Cu       0.001587565   5.113987525  15.642433942
Cu       3.687439459   5.117812681  15.625965963
C        0.000050039   0.703874055  18.788347603
C        0.000029405   2.121935627  18.706151014
C        1.229659262  -0.006944322  18.810680175
C        1.229970047   2.829577806  18.658173320
C        2.459331038   0.703396824  18.790104131
C        2.459411473   2.120853888  18.705701236
C        3.689064029  -0.007509554  18.803711626
C        3.689079200   2.827344824  18.652380619
C        4.918856458   0.703424334  18.790897268
C        4.918751925   2.120853598  18.705909637
C        6.148471924  -0.006938801  18.810750789
C        6.148147029   2.829574714  18.657657412
C        0.000028829   4.958133192  18.530809424
C       -0.000015933   6.381325456  18.503897693
C        1.231219475   4.246175134  18.567280528
C        1.229322519   7.092215514  18.513621119
C        2.458694171   4.956654377  18.536684643
C        2.459746184   6.379580462  18.508851966
C        3.689102689   4.245837452  18.572619912
C        3.689214109   7.090528903  18.504983402
C        4.919467073   4.956776510  18.536325556
C        4.918653012   6.379674771  18.510012914
C        6.146926694   4.246204288  18.567191312
C        6.148775642   7.092114167  18.514798653
C        0.000081234   9.226311385  18.524022942
C        0.000089899  10.647747493  18.555358010
C        1.229636069   8.514611283  18.514888149
C        1.228255444  11.358031351  18.588423151
C        2.458706511   9.224910842  18.507609585
C        2.459894298  10.647058532  18.548387964
C        3.689130492   8.512459326  18.507897003
C        3.689090490  11.357880252  18.580201670
C        4.919543641   9.224834555  18.507086109
C        4.918358520  10.647074667  18.547843524
C        6.148664761   8.514401922  18.513967310
C        6.149960002  11.358042727  18.588777541
C        0.000056265  13.482862924  18.729283229
C        0.000023171  14.901003359  18.807404907
C        1.229408270  12.775150109  18.674794858
C        1.229768335  15.611515211  18.815901282
C        2.459387135  13.481851102  18.727545158
C        2.459437618  14.900521330  18.802962311
C        3.689073814  12.773464715  18.677982280
C        3.689093112  15.611144123  18.817100520
C        4.918785055  13.481881195  18.727244422
C        4.918678223  14.900554657  18.802661820
C        6.148731109  12.775143077  18.675385937
C        6.148426659  15.611520493  18.815732403



     Writing output data file gc.save
     Check: negative starting charge=   -0.004058
     NEW-OLD atomic charge density approx. for the potential
     Check: negative starting charge=   -0.004073

     negative rho (up, down):  4.850E-04 0.000E+00

     total cpu time spent up to now is    47633.4 secs

     Self-consistent Calculation

     iteration #  1     ecut=    80.00 Ry     beta=0.70
     Davidson diagonalization with overlap
     c_bands:  1 eigenvalues not converged
     c_bands:  1 eigenvalues not converged
     ethr =  1.00E-06,  avg # of iterations = 11.5

     negative rho (up, down):  2.596E-06 0.000E+00

     total cpu time spent up to now is    48253.3 secs

     total energy              =  -13670.89557012 Ry
     Harris-Foulkes estimate   =  -13670.91736152 Ry
     estimated scf accuracy    <       0.37408303 Ry

     iteration #  2     ecut=    80.00 Ry     beta=0.70
     Davidson diagonalization with overlap
     ethr =  2.71E-05,  avg # of iterations =  1.5

     negative rho (up, down):  6.204E-07 0.000E+00

     total cpu time spent up to now is    48412.9 secs

     total energy              =  -13670.89597351 Ry
     Harris-Foulkes estimate   =  -13670.90913060 Ry
     estimated scf accuracy    <       0.05899598 Ry

     iteration #  3     ecut=    80.00 Ry     beta=0.70
     Davidson diagonalization with overlap
     ethr =  4.28E-06,  avg # of iterations =  6.5

     negative rho (up, down):  2.883E-08 0.000E+00

     total cpu time spent up to now is    48645.1 secs

     total energy              =  -13670.89932261 Ry
     Harris-Foulkes estimate   =  -13670.90590256 Ry
     estimated scf accuracy    <       0.10658299 Ry

     iteration #  4     ecut=    80.00 Ry     beta=0.70
     Davidson diagonalization with overlap
     ethr =  4.28E-06,  avg # of iterations =  4.8

     negative rho (up, down):  1.461E-08 0.000E+00

     total cpu time spent up to now is    48850.3 secs

     total energy              =  -13670.90229131 Ry
     Harris-Foulkes estimate   =  -13670.90256190 Ry
     estimated scf accuracy    <       0.00389675 Ry

     iteration #  5     ecut=    80.00 Ry     beta=0.70
     Davidson diagonalization with overlap
     ethr =  2.82E-07,  avg # of iterations =  4.2

     negative rho (up, down):  2.155E-08 0.000E+00

     total cpu time spent up to now is    49047.1 secs

     total energy              =  -13670.90215505 Ry
     Harris-Foulkes estimate   =  -13670.90244593 Ry
     estimated scf accuracy    <       0.00361335 Ry

     iteration #  6     ecut=    80.00 Ry     beta=0.70
     Davidson diagonalization with overlap
