
     Program PWSCF v.5.4.0 starts on 12Apr2017 at 15:34:28 

     This program is part of the open-source Quantum ESPRESSO suite
     for quantum simulation of materials; please cite
         "P. Giannozzi et al., J. Phys.:Condens. Matter 21 395502 (2009);
          URL http://www.quantum-espresso.org", 
     in publications or presentations arising from this work. More details at
     http://www.quantum-espresso.org/quote

     Parallel version (MPI & OpenMP), running on      28 processor cores
     Number of MPI processes:                28
     Threads/MPI process:                     1
     R & G space division:  proc/nbgrp/npool/nimage =      28
     Waiting for input...
     Reading input from standard input

     Current dimensions of program PWSCF are:
     Max number of different atomic species (ntypx) = 10
     Max number of k-points (npk) =  40000
     Max angular momentum in pseudopotentials (lmaxx) =  3

     -------------------------------------
     Parameters for Dispersion Correction:
     -------------------------------------
       atom      VdW radius       C_6     

        Cu         2.952        374.666
        C          2.744         60.710

     Subspace diagonalization in iterative solution of the eigenvalue problem:
     one sub-group per band group will be used
     scalapack distributed-memory algorithm (size of sub-group:  3*  3 procs)

 
     Parallelization info
     --------------------
     sticks:   dense  smooth     PW     G-vecs:    dense   smooth      PW
     Min         408     408    108                73226    73226    9928
     Max         410     410    109                73231    73231    9931
     Sum       11433   11433   3039              2050409  2050409  278033
 


     bravais-lattice index     =            0
     lattice parameter (alat)  =      13.9425  a.u.
     unit-cell volume          =   21209.0878 (a.u.)^3
     number of atoms/cell      =          156
     number of atomic types    =            2
     number of electrons       =      1380.00
     number of Kohn-Sham states=          828
     kinetic-energy cutoff     =      80.0000  Ry
     charge density cutoff     =     320.0000  Ry
     convergence threshold     =      1.0E-08
     mixing beta               =       0.7000
     number of iterations used =            8  local-TF  mixing
     Exchange-correlation      =  SLA  PW   PBX  PBC ( 1  4  3  4 0 0)
     nstep                     =           50


     celldm(1)=  13.942539  celldm(2)=   0.000000  celldm(3)=   0.000000
     celldm(4)=   0.000000  celldm(5)=   0.000000  celldm(6)=   0.000000

     crystal axes: (cart. coord. in units of alat)
               a(1) = (   1.000000   0.000000   0.000000 )  
               a(2) = (   0.000000   2.309401   0.000000 )  
               a(3) = (   0.000000   0.000000   3.388418 )  

     reciprocal axes: (cart. coord. in units 2 pi/alat)
               b(1) = (  1.000000  0.000000  0.000000 )  
               b(2) = (  0.000000  0.433013  0.000000 )  
               b(3) = (  0.000000  0.000000  0.295123 )  


     PseudoPot. # 1 for Cu read from file:
     /home/549/hxw549/Short/pseudopotentials/Cu.pbe-n-van_ak.UPF
     MD5 check sum: 601f7c30f7467666bec936e0661ce3e1
     Pseudo is Ultrasoft + core correction, Zval = 11.0
     Generated by new atomic code, or converted to UPF format
     Using radial grid of  867 points,  6 beta functions with: 
                l(1) =   0
                l(2) =   0
                l(3) =   1
                l(4) =   1
                l(5) =   2
                l(6) =   2
     Q(r) pseudized with  8 coefficients,  rinner =    1.400   1.400   1.400
                                                       1.400   1.400

     PseudoPot. # 2 for C  read from file:
     /home/549/hxw549/Short/pseudopotentials/C.pbe-mt_gipaw.UPF
     MD5 check sum: 5ac2f21f2c440b14befe521540822c15
     Pseudo is Norm-conserving, Zval =  4.0
     Generated by new atomic code, or converted to UPF format
     Using radial grid of 1073 points,  1 beta functions with: 
                l(1) =   0

     atomic species   valence    mass     pseudopotential
        Cu            11.00    63.54600     Cu( 1.00)
        C              4.00    12.01070     C ( 1.00)

     No symmetry found



   Cartesian axes

     site n.     atom                  positions (alat units)
         1           Cu  tau(   1) = (  -0.0000727   0.0037704   0.8810665  )
         2           Cu  tau(   2) = (   0.2498891   0.2363603   0.8851417  )
         3           Cu  tau(   3) = (   0.5000043   0.0039138   0.8807228  )
         4           Cu  tau(   4) = (   0.7500404   0.2364499   0.8850785  )
         5           Cu  tau(   5) = (  -0.0000279   0.4679862   0.8908817  )
         6           Cu  tau(   6) = (   0.2499633   0.6980528   0.8946332  )
         7           Cu  tau(   7) = (   0.4999544   0.4679921   0.8908252  )
         8           Cu  tau(   8) = (   0.7499559   0.6980709   0.8946191  )
         9           Cu  tau(   9) = (  -0.0000033   0.9273320   0.8954715  )
        10           Cu  tau(  10) = (   0.2499608   1.1565568   0.8956787  )
        11           Cu  tau(  11) = (   0.4999184   0.9273102   0.8953843  )
        12           Cu  tau(  12) = (   0.7499519   1.1564999   0.8955794  )
        13           Cu  tau(  13) = (  -0.0000756   1.3860419   0.8950033  )
        14           Cu  tau(  14) = (   0.2499147   1.6164624   0.8909621  )
        15           Cu  tau(  15) = (   0.4999893   1.3860917   0.8948357  )
        16           Cu  tau(  16) = (   0.7500019   1.6163618   0.8908472  )
        17           Cu  tau(  17) = (  -0.0000208   1.8480566   0.8848204  )
        18           Cu  tau(  18) = (   0.2500459   2.0804066   0.8807676  )
        19           Cu  tau(  19) = (   0.4999440   1.8479342   0.8850993  )
        20           Cu  tau(  20) = (   0.7498843   2.0803909   0.8808386  )
        21           Cu  tau(  21) = (   0.0000046   0.2319052   1.1336322  )
        22           Cu  tau(  22) = (   0.2498938   0.0019017   1.1301944  )
        23           Cu  tau(  23) = (   0.4999215   0.2317612   1.1333884  )
        24           Cu  tau(  24) = (   0.7500285   0.0020093   1.1302634  )
        25           Cu  tau(  25) = (  -0.0000883   0.6958992   1.1435917  )
        26           Cu  tau(  26) = (   0.2500131   0.4634147   1.1388410  )
        27           Cu  tau(  27) = (   0.5000082   0.6958849   1.1436364  )
        28           Cu  tau(  28) = (   0.7499093   0.4633770   1.1388355  )
        29           Cu  tau(  29) = (  -0.0000965   1.1568080   1.1464323  )
        30           Cu  tau(  30) = (   0.2499597   0.9269179   1.1464914  )
        31           Cu  tau(  31) = (   0.5000121   1.1568526   1.1462902  )
        32           Cu  tau(  32) = (   0.7499610   0.9269745   1.1465162  )
        33           Cu  tau(  33) = (  -0.0000343   1.6212068   1.1386742  )
        34           Cu  tau(  34) = (   0.2499334   1.3882505   1.1433370  )
        35           Cu  tau(  35) = (   0.4999503   1.6209004   1.1387866  )
        36           Cu  tau(  36) = (   0.7499818   1.3882775   1.1434280  )
        37           Cu  tau(  37) = (  -0.0001108   2.0821258   1.1303075  )
        38           Cu  tau(  38) = (   0.2500421   1.8526083   1.1335672  )
        39           Cu  tau(  39) = (   0.5000263   2.0824277   1.1302478  )
        40           Cu  tau(  40) = (   0.7498715   1.8525376   1.1334906  )
        41           Cu  tau(  41) = (  -0.0001062   0.0012794   1.3835665  )
        42           Cu  tau(  42) = (   0.2498773   0.2295490   1.3851598  )
        43           Cu  tau(  43) = (   0.5000154   0.0015329   1.3835653  )
        44           Cu  tau(  44) = (   0.7500392   0.2295534   1.3851525  )
        45           Cu  tau(  45) = (  -0.0000085   0.4595763   1.3877585  )
        46           Cu  tau(  46) = (   0.2500782   0.6917339   1.3923516  )
        47           Cu  tau(  47) = (   0.4999318   0.4591628   1.3877407  )
        48           Cu  tau(  48) = (   0.7498559   0.6916292   1.3925135  )
        49           Cu  tau(  49) = (  -0.0001325   0.9252147   1.3974028  )
        50           Cu  tau(  50) = (   0.2499437   1.1590993   1.3968577  )
        51           Cu  tau(  51) = (   0.5000623   0.9252849   1.3973679  )
        52           Cu  tau(  52) = (   0.7499917   1.1590306   1.3973278  )
        53           Cu  tau(  53) = (  -0.0001030   1.3926369   1.3917091  )
        54           Cu  tau(  54) = (   0.2500187   1.6247017   1.3873563  )
        55           Cu  tau(  55) = (   0.5000311   1.3923619   1.3920427  )
        56           Cu  tau(  56) = (   0.7498999   1.6249591   1.3874347  )
        57           Cu  tau(  57) = (  -0.0000229   1.8547060   1.3853497  )
        58           Cu  tau(  58) = (   0.2499480   2.0829280   1.3836003  )
        59           Cu  tau(  59) = (   0.4999264   1.8547239   1.3849240  )
        60           Cu  tau(  60) = (   0.7499590   2.0827407   1.3836927  )
        61           Cu  tau(  61) = (  -0.0000304   0.2286758   1.6386367  )
        62           Cu  tau(  62) = (   0.2500324   0.0007052   1.6373317  )
        63           Cu  tau(  63) = (   0.4999429   0.2285838   1.6389885  )
        64           Cu  tau(  64) = (   0.7498634   0.0006846   1.6374388  )
        65           Cu  tau(  65) = (   0.0000074   0.6852267   1.6418462  )
        66           Cu  tau(  66) = (   0.2498652   0.4565465   1.6394152  )
        67           Cu  tau(  67) = (   0.4999196   0.6848021   1.6416697  )
        68           Cu  tau(  68) = (   0.7500632   0.4563214   1.6393584  )
        69           Cu  tau(  69) = (  -0.0000115   1.1640400   1.6433499  )
        70           Cu  tau(  70) = (   0.2501223   0.9213830   1.6433298  )
        71           Cu  tau(  71) = (   0.4999602   1.1633778   1.6438167  )
        72           Cu  tau(  72) = (   0.7498009   0.9210271   1.6439837  )
        73           Cu  tau(  73) = (   0.0000237   1.6273101   1.6391141  )
        74           Cu  tau(  74) = (   0.2500439   1.3992446   1.6413826  )
        75           Cu  tau(  75) = (   0.4999032   1.6279491   1.6388232  )
        76           Cu  tau(  76) = (   0.7499043   1.3997235   1.6414464  )
        77           Cu  tau(  77) = (  -0.0001179   2.0836518   1.6376309  )
        78           Cu  tau(  78) = (   0.2497312   1.8554698   1.6383345  )
        79           Cu  tau(  79) = (   0.5000098   2.0833446   1.6369901  )
        80           Cu  tau(  80) = (   0.7501752   1.8554330   1.6389062  )
        81           Cu  tau(  81) = (   0.0001865   0.0008533   1.8924751  )
        82           Cu  tau(  82) = (   0.2503957   0.2251270   1.8920500  )
        83           Cu  tau(  83) = (   0.4997109  -0.0007753   1.8924170  )
        84           Cu  tau(  84) = (   0.7495207   0.2249001   1.8921235  )
        85           Cu  tau(  85) = (   0.0000632   0.4468959   1.8980061  )
        86           Cu  tau(  86) = (   0.2494945   0.6736126   1.8971386  )
        87           Cu  tau(  87) = (   0.4998479   0.4464037   1.8972119  )
        88           Cu  tau(  88) = (   0.7504032   0.6728653   1.8969200  )
        89           Cu  tau(  89) = (   0.0005021   0.9195355   1.8805779  )
        90           Cu  tau(  90) = (   0.2499860   1.1662958   1.8811888  )
        91           Cu  tau(  91) = (   0.4994046   0.9180829   1.8810448  )
        92           Cu  tau(  92) = (   0.7499653   1.1666030   1.8806229  )
        93           Cu  tau(  93) = (  -0.0000525   1.4123306   1.8981876  )
        94           Cu  tau(  94) = (   0.2502644   1.6377477   1.8972572  )
        95           Cu  tau(  95) = (   0.5000090   1.4116240   1.8959837  )
        96           Cu  tau(  96) = (   0.7496638   1.6379481   1.8980782  )
        97           Cu  tau(  97) = (  -0.0001086   1.8584864   1.8920428  )
        98           Cu  tau(  98) = (   0.2491580   2.0837038   1.8920589  )
        99           Cu  tau(  99) = (   0.5000082   1.8596674   1.8916467  )
       100           Cu  tau( 100) = (   0.7507275   2.0841880   1.8925521  )
       101           Cu  tau( 101) = (   0.2533991   1.3926804   2.1284877  )
       102           Cu  tau( 102) = (   0.7465859   1.3927168   2.1287480  )
       103           Cu  tau( 103) = (  -0.0003880   1.1582974   2.1150543  )
       104           Cu  tau( 104) = (   0.2502139   0.9287715   2.1166913  )
       105           Cu  tau( 105) = (   0.5003168   1.1559660   2.1150810  )
       106           Cu  tau( 106) = (   0.7496867   0.9280822   2.1147182  )
       107           Cu  tau( 107) = (   0.0000401   0.6949639   2.1285632  )
       108           Cu  tau( 108) = (   0.4998615   0.6906426   2.1272560  )
       109           C   tau( 109) = (   0.0000802   0.0895940   2.4389162  )
       110           C   tau( 110) = (   0.0000771   0.2819686   2.4446032  )
       111           C   tau( 111) = (   0.1667423  -0.0066440   2.4380468  )
       112           C   tau( 112) = (   0.1668763   0.3779217   2.4491904  )
       113           C   tau( 113) = (   0.3334058   0.0894514   2.4383434  )
       114           C   tau( 114) = (   0.3334690   0.2817831   2.4433058  )
       115           C   tau( 115) = (   0.5000831  -0.0067605   2.4371752  )
       116           C   tau( 116) = (   0.5000855   0.3776879   2.4455235  )
       117           C   tau( 117) = (   0.6667545   0.0894532   2.4382379  )
       118           C   tau( 118) = (   0.6666908   0.2817836   2.4432287  )
       119           C   tau( 119) = (   0.8334216  -0.0066444   2.4379644  )
       120           C   tau( 120) = (   0.8332895   0.3779244   2.4491096  )
       121           C   tau( 121) = (   0.0000859   0.6669753   2.4651823  )
       122           C   tau( 122) = (   0.0000783   0.8594462   2.4865374  )
       123           C   tau( 123) = (   0.1672057   0.5699857   2.4608291  )
       124           C   tau( 124) = (   0.1666652   0.9555426   2.4907719  )
       125           C   tau( 125) = (   0.3331058   0.6665893   2.4694302  )
       126           C   tau( 126) = (   0.3334284   0.8589954   2.4862316  )
       127           C   tau( 127) = (   0.5000910   0.5705203   2.4569739  )
       128           C   tau( 128) = (   0.5001164   0.9550395   2.4929747  )
       129           C   tau( 129) = (   0.6670797   0.6666022   2.4695186  )
       130           C   tau( 130) = (   0.6667766   0.8589827   2.4865076  )
       131           C   tau( 131) = (   0.8329596   0.5699946   2.4607877  )
       132           C   tau( 132) = (   0.8335264   0.9555241   2.4910577  )
       133           C   tau( 133) = (   0.0001011   1.2448121   2.4852819  )
       134           C   tau( 134) = (   0.0000955   1.4371323   2.4691780  )
       135           C   tau( 135) = (   0.1668099   1.1484143   2.4920986  )
       136           C   tau( 136) = (   0.1663320   1.5333393   2.4581507  )
       137           C   tau( 137) = (   0.3333177   1.2442162   2.4854745  )
       138           C   tau( 138) = (   0.3335469   1.4366683   2.4649297  )
       139           C   tau( 139) = (   0.5001046   1.1478277   2.4893517  )
       140           C   tau( 140) = (   0.5000959   1.5335382   2.4593218  )
       141           C   tau( 141) = (   0.6668944   1.2442000   2.4854114  )
       142           C   tau( 142) = (   0.6666432   1.4366617   2.4648341  )
       143           C   tau( 143) = (   0.8333911   1.1483851   2.4921521  )
       144           C   tau( 144) = (   0.8338626   1.5333378   2.4580742  )
       145           C   tau( 145) = (   0.0000862   1.8218110   2.4429805  )
       146           C   tau( 146) = (   0.0000889   2.0141166   2.4386193  )
       147           C   tau( 147) = (   0.1666923   1.7257869   2.4469804  )
       148           C   tau( 148) = (   0.1667316   2.1102961   2.4378156  )
       149           C   tau( 149) = (   0.3333425   1.8216716   2.4442064  )
       150           C   tau( 150) = (   0.3334102   2.0140567   2.4391490  )
       151           C   tau( 151) = (   0.5000883   1.7254852   2.4493040  )
       152           C   tau( 152) = (   0.5000794   2.1102294   2.4386032  )
       153           C   tau( 153) = (   0.6668286   1.8216675   2.4441332  )
       154           C   tau( 154) = (   0.6667657   2.0140548   2.4390353  )
       155           C   tau( 155) = (   0.8334847   1.7257858   2.4469092  )
       156           C   tau( 156) = (   0.8334254   2.1102956   2.4377189  )

     number of k points=     6  gaussian smearing, width (Ry)=  0.1000
                       cart. coord. in units 2pi/alat
        k(    1) = (   0.0000000   0.0000000   0.0000000), wk =   0.2500000
        k(    2) = (   0.0000000  -0.2165064   0.0000000), wk =   0.2500000
        k(    3) = (   0.2500000   0.0000000   0.0000000), wk =   0.5000000
        k(    4) = (   0.2500000  -0.2165064   0.0000000), wk =   0.5000000
        k(    5) = (  -0.5000000   0.0000000   0.0000000), wk =   0.2500000
        k(    6) = (  -0.5000000  -0.2165064   0.0000000), wk =   0.2500000

     Dense  grid:  2050409 G-vectors     FFT dimensions: (  80, 192, 270)

     Largest allocated arrays     est. size (Mb)     dimensions
        Kohn-Sham Wavefunctions       115.87 Mb     (    9171,  828)
        NL pseudopotentials           278.76 Mb     (    9171, 1992)
        Each V/rho on FFT grid          2.34 Mb     (  153600)
        Each G-vector array             0.56 Mb     (   73230)
        G-vector shells                 0.27 Mb     (   35784)
     Largest temporary arrays     est. size (Mb)     dimensions
        Auxiliary wavefunctions       463.48 Mb     (    9171, 3312)
        Each subspace H/S matrix       18.60 Mb     (    1104, 1104)
        Each <psi_i|beta_j> matrix     25.17 Mb     (    1992,  828)
        Arrays for rho mixing          18.75 Mb     (  153600,    8)

     Initial potential from superposition of free atoms
     Check: negative starting charge=   -0.001500

     starting charge 1354.72292, renormalised to 1380.00000

     negative rho (up, down):  1.528E-03 0.000E+00
     Starting wfc are 1356 randomized atomic wfcs

     total cpu time spent up to now is      225.9 secs

     Self-consistent Calculation

     iteration #  1     ecut=    80.00 Ry     beta=0.70
     Davidson diagonalization with overlap
     c_bands:  3 eigenvalues not converged
     c_bands:  3 eigenvalues not converged
     ethr =  1.00E-04,  avg # of iterations = 33.8

     negative rho (up, down):  2.669E+01 0.000E+00

     total cpu time spent up to now is     4795.3 secs

     total energy              =  -10628.87766061 Ry
     Harris-Foulkes estimate   =  -18950.62457388 Ry
     estimated scf accuracy    <  218333.50979930 Ry

     iteration #  2     ecut=    80.00 Ry     beta=0.70
     Davidson diagonalization with overlap
     ethr =  1.00E-02,  avg # of iterations = 16.2

     negative rho (up, down):  3.126E+01 0.000E+00

     total cpu time spent up to now is     7318.5 secs

     total energy              =  -13086.21742845 Ry
     Harris-Foulkes estimate   =  -14617.25946877 Ry
     estimated scf accuracy    <   20069.34060237 Ry

     iteration #  3     ecut=    80.00 Ry     beta=0.70
     Davidson diagonalization with overlap
     ethr =  1.00E-02,  avg # of iterations =  6.0

     negative rho (up, down):  3.448E+01 0.000E+00

     total cpu time spent up to now is     8461.7 secs

     total energy              =  -13558.91306265 Ry
     Harris-Foulkes estimate   =  -14426.82231570 Ry
     estimated scf accuracy    <   16419.54296619 Ry

     iteration #  4     ecut=    80.00 Ry     beta=0.70
     Davidson diagonalization with overlap
     ethr =  1.00E-02,  avg # of iterations =  6.0

     negative rho (up, down):  2.675E+01 0.000E+00

     total cpu time spent up to now is     9690.7 secs

     total energy              =  -13693.72260118 Ry
     Harris-Foulkes estimate   =  -14133.55472231 Ry
     estimated scf accuracy    <    1977.05407199 Ry

     iteration #  5     ecut=    80.00 Ry     beta=0.70
     Davidson diagonalization with overlap
     ethr =  1.00E-02,  avg # of iterations =  4.3

     negative rho (up, down):  1.705E+01 0.000E+00

     total cpu time spent up to now is    10474.9 secs

     total energy              =  -13813.80968669 Ry
     Harris-Foulkes estimate   =  -13932.12357157 Ry
     estimated scf accuracy    <     673.18180946 Ry

     iteration #  6     ecut=    80.00 Ry     beta=0.70
     Davidson diagonalization with overlap
     ethr =  1.00E-02,  avg # of iterations =  2.0

     negative rho (up, down):  1.005E+01 0.000E+00

     total cpu time spent up to now is    10917.8 secs

     total energy              =  -13790.25913937 Ry
     Harris-Foulkes estimate   =  -13833.11082296 Ry
     estimated scf accuracy    <     340.38332876 Ry

     iteration #  7     ecut=    80.00 Ry     beta=0.70
     Davidson diagonalization with overlap
     ethr =  1.00E-02,  avg # of iterations =  1.8

     negative rho (up, down):  9.558E+00 0.000E+00

     total cpu time spent up to now is    11300.3 secs

     total energy              =  -13787.98458650 Ry
     Harris-Foulkes estimate   =  -13797.32658967 Ry
     estimated scf accuracy    <     377.80458257 Ry

     iteration #  8     ecut=    80.00 Ry     beta=0.70
     Davidson diagonalization with overlap
     ethr =  1.00E-02,  avg # of iterations =  1.0

     negative rho (up, down):  6.157E+00 0.000E+00

     total cpu time spent up to now is    11661.3 secs

     total energy              =  -13756.84868932 Ry
     Harris-Foulkes estimate   =  -13790.88929230 Ry
     estimated scf accuracy    <     250.43054925 Ry

     iteration #  9     ecut=    80.00 Ry     beta=0.70
     Davidson diagonalization with overlap
     ethr =  1.00E-02,  avg # of iterations =  1.0

     negative rho (up, down):  3.080E+00 0.000E+00

     total cpu time spent up to now is    12022.3 secs

     total energy              =  -13730.40499319 Ry
     Harris-Foulkes estimate   =  -13759.76250785 Ry
     estimated scf accuracy    <     187.23118061 Ry

     iteration # 10     ecut=    80.00 Ry     beta=0.70
     Davidson diagonalization with overlap
     ethr =  1.00E-02,  avg # of iterations =  1.0

     negative rho (up, down):  3.969E+00 0.000E+00

     total cpu time spent up to now is    12384.3 secs

     total energy              =  -13690.63780067 Ry
     Harris-Foulkes estimate   =  -13732.13542837 Ry
     estimated scf accuracy    <     123.78506902 Ry

     iteration # 11     ecut=    80.00 Ry     beta=0.70
     Davidson diagonalization with overlap
     ethr =  8.97E-03,  avg # of iterations =  2.0

     negative rho (up, down):  9.591E+00 0.000E+00

     total cpu time spent up to now is    12770.1 secs

     total energy              =  -13684.65440094 Ry
     Harris-Foulkes estimate   =  -13698.77271829 Ry
     estimated scf accuracy    <     263.35230886 Ry

     iteration # 12     ecut=    80.00 Ry     beta=0.70
     Davidson diagonalization with overlap
     ethr =  8.97E-03,  avg # of iterations =  1.0

     negative rho (up, down):  9.753E+00 0.000E+00

     total cpu time spent up to now is    13131.0 secs

     total energy              =  -13678.22389584 Ry
     Harris-Foulkes estimate   =  -13692.77785350 Ry
     estimated scf accuracy    <     280.13790809 Ry

     iteration # 13     ecut=    80.00 Ry     beta=0.70
     Davidson diagonalization with overlap
     ethr =  8.97E-03,  avg # of iterations =  1.0

     negative rho (up, down):  8.011E+00 0.000E+00

     total cpu time spent up to now is    13492.7 secs

     total energy              =  -13679.85345734 Ry
     Harris-Foulkes estimate   =  -13686.76120475 Ry
     estimated scf accuracy    <      45.76832644 Ry

     iteration # 14     ecut=    80.00 Ry     beta=0.70
     Davidson diagonalization with overlap
     ethr =  3.32E-03,  avg # of iterations =  2.0

     negative rho (up, down):  6.075E+00 0.000E+00

     total cpu time spent up to now is    13876.3 secs

     total energy              =  -13678.49901548 Ry
     Harris-Foulkes estimate   =  -13682.59212110 Ry
     estimated scf accuracy    <      19.58570824 Ry

     iteration # 15     ecut=    80.00 Ry     beta=0.70
     Davidson diagonalization with overlap
     ethr =  1.42E-03,  avg # of iterations =  6.2

     negative rho (up, down):  6.494E+00 0.000E+00

     total cpu time spent up to now is    14373.8 secs

     total energy              =  -13678.94303475 Ry
     Harris-Foulkes estimate   =  -13679.83380873 Ry
     estimated scf accuracy    <      17.66885812 Ry

     iteration # 16     ecut=    80.00 Ry     beta=0.70
     Davidson diagonalization with overlap
     ethr =  1.28E-03,  avg # of iterations =  3.5

     negative rho (up, down):  3.903E+00 0.000E+00

     total cpu time spent up to now is    14796.4 secs

     total energy              =  -13677.29955757 Ry
     Harris-Foulkes estimate   =  -13679.18583607 Ry
     estimated scf accuracy    <      11.81375101 Ry

     iteration # 17     ecut=    80.00 Ry     beta=0.70
     Davidson diagonalization with overlap
     ethr =  8.56E-04,  avg # of iterations =  6.3

     negative rho (up, down):  2.839E+00 0.000E+00

     total cpu time spent up to now is    15290.3 secs

     total energy              =  -13675.79172455 Ry
     Harris-Foulkes estimate   =  -13677.44597536 Ry
     estimated scf accuracy    <      11.61924373 Ry

     iteration # 18     ecut=    80.00 Ry     beta=0.70
     Davidson diagonalization with overlap
     ethr =  8.42E-04,  avg # of iterations =  3.0

     negative rho (up, down):  1.357E+00 0.000E+00

     total cpu time spent up to now is    15700.0 secs

     total energy              =  -13673.34081212 Ry
     Harris-Foulkes estimate   =  -13675.93476599 Ry
     estimated scf accuracy    <       8.39993922 Ry

     iteration # 19     ecut=    80.00 Ry     beta=0.70
     Davidson diagonalization with overlap
     ethr =  6.09E-04,  avg # of iterations =  2.2

     negative rho (up, down):  8.319E-01 0.000E+00

     total cpu time spent up to now is    16090.1 secs

     total energy              =  -13672.44967386 Ry
     Harris-Foulkes estimate   =  -13673.51047207 Ry
     estimated scf accuracy    <       6.06686258 Ry

     iteration # 20     ecut=    80.00 Ry     beta=0.70
     Davidson diagonalization with overlap
     ethr =  4.40E-04,  avg # of iterations =  5.2

     negative rho (up, down):  4.499E-01 0.000E+00

     total cpu time spent up to now is    16556.3 secs

     total energy              =  -13671.47452490 Ry
     Harris-Foulkes estimate   =  -13672.59571715 Ry
     estimated scf accuracy    <       4.43679876 Ry

     iteration # 21     ecut=    80.00 Ry     beta=0.70
     Davidson diagonalization with overlap
     ethr =  3.22E-04,  avg # of iterations =  3.7

     negative rho (up, down):  9.353E-01 0.000E+00

     total cpu time spent up to now is    16986.3 secs

     total energy              =  -13671.10255589 Ry
     Harris-Foulkes estimate   =  -13671.61775113 Ry
     estimated scf accuracy    <       2.23927760 Ry

     iteration # 22     ecut=    80.00 Ry     beta=0.70
     Davidson diagonalization with overlap
     ethr =  1.62E-04,  avg # of iterations =  9.0

     negative rho (up, down):  9.599E-01 0.000E+00

     total cpu time spent up to now is    17623.4 secs

     total energy              =  -13670.97777581 Ry
     Harris-Foulkes estimate   =  -13671.23173094 Ry
     estimated scf accuracy    <       1.67691130 Ry

     iteration # 23     ecut=    80.00 Ry     beta=0.70
     Davidson diagonalization with overlap
     ethr =  1.22E-04,  avg # of iterations =  7.2

     negative rho (up, down):  8.380E-01 0.000E+00

     total cpu time spent up to now is    18203.1 secs

     total energy              =  -13670.99061244 Ry
     Harris-Foulkes estimate   =  -13671.05498052 Ry
     estimated scf accuracy    <       0.47064437 Ry

     iteration # 24     ecut=    80.00 Ry     beta=0.70
     Davidson diagonalization with overlap
     ethr =  3.41E-05,  avg # of iterations =  5.8

     negative rho (up, down):  5.790E-01 0.000E+00

     total cpu time spent up to now is    18695.9 secs

     total energy              =  -13670.97175976 Ry
     Harris-Foulkes estimate   =  -13671.03212134 Ry
     estimated scf accuracy    <       0.34781024 Ry

     iteration # 25     ecut=    80.00 Ry     beta=0.70
     Davidson diagonalization with overlap
     ethr =  2.52E-05,  avg # of iterations =  8.0

     negative rho (up, down):  2.730E-01 0.000E+00

     total cpu time spent up to now is    19279.0 secs

     total energy              =  -13670.96093786 Ry
     Harris-Foulkes estimate   =  -13670.98486924 Ry
     estimated scf accuracy    <       0.09245583 Ry

     iteration # 26     ecut=    80.00 Ry     beta=0.70
     Davidson diagonalization with overlap
     ethr =  6.70E-06,  avg # of iterations = 12.7

     negative rho (up, down):  1.815E-01 0.000E+00

     total cpu time spent up to now is    20047.1 secs

     total energy              =  -13670.96330011 Ry
     Harris-Foulkes estimate   =  -13670.96760691 Ry
     estimated scf accuracy    <       0.02193259 Ry

     iteration # 27     ecut=    80.00 Ry     beta=0.70
     Davidson diagonalization with overlap
     c_bands:  1 eigenvalues not converged
     c_bands:  2 eigenvalues not converged
     ethr =  1.59E-06,  avg # of iterations = 14.7

     negative rho (up, down):  8.251E-02 0.000E+00

     total cpu time spent up to now is    20849.7 secs

     total energy              =  -13670.96338299 Ry
     Harris-Foulkes estimate   =  -13670.96535099 Ry
     estimated scf accuracy    <       0.00763467 Ry

     iteration # 28     ecut=    80.00 Ry     beta=0.70
     Davidson diagonalization with overlap
     c_bands:  1 eigenvalues not converged
     c_bands:  1 eigenvalues not converged
     ethr =  5.53E-07,  avg # of iterations = 14.0

     negative rho (up, down):  4.518E-02 0.000E+00

     total cpu time spent up to now is    21669.8 secs

     total energy              =  -13670.96270670 Ry
     Harris-Foulkes estimate   =  -13670.96413641 Ry
     estimated scf accuracy    <       0.00293379 Ry

     iteration # 29     ecut=    80.00 Ry     beta=0.70
     Davidson diagonalization with overlap
     c_bands:  2 eigenvalues not converged
     ethr =  2.13E-07,  avg # of iterations = 10.7

     negative rho (up, down):  2.973E-02 0.000E+00

     total cpu time spent up to now is    22347.3 secs

     total energy              =  -13670.96265844 Ry
     Harris-Foulkes estimate   =  -13670.96311009 Ry
     estimated scf accuracy    <       0.00134833 Ry

     iteration # 30     ecut=    80.00 Ry     beta=0.70
     Davidson diagonalization with overlap
     ethr =  9.77E-08,  avg # of iterations =  7.0

     negative rho (up, down):  1.198E-02 0.000E+00

     total cpu time spent up to now is    22909.4 secs

     total energy              =  -13670.96243049 Ry
     Harris-Foulkes estimate   =  -13670.96277113 Ry
     estimated scf accuracy    <       0.00037381 Ry

     iteration # 31     ecut=    80.00 Ry     beta=0.70
     Davidson diagonalization with overlap
     ethr =  2.71E-08,  avg # of iterations = 12.0

     negative rho (up, down):  5.247E-03 0.000E+00

     total cpu time spent up to now is    23650.8 secs

     total energy              =  -13670.96231351 Ry
     Harris-Foulkes estimate   =  -13670.96246869 Ry
     estimated scf accuracy    <       0.00013428 Ry

     iteration # 32     ecut=    80.00 Ry     beta=0.70
     Davidson diagonalization with overlap
     ethr =  9.73E-09,  avg # of iterations =  9.0

     negative rho (up, down):  2.101E-03 0.000E+00

     total cpu time spent up to now is    24246.3 secs

     total energy              =  -13670.96227516 Ry
     Harris-Foulkes estimate   =  -13670.96232460 Ry
     estimated scf accuracy    <       0.00003698 Ry

     iteration # 33     ecut=    80.00 Ry     beta=0.70
     Davidson diagonalization with overlap
     c_bands:  1 eigenvalues not converged
     ethr =  2.68E-09,  avg # of iterations =  9.2

     negative rho (up, down):  1.284E-03 0.000E+00

     total cpu time spent up to now is    24850.8 secs

     total energy              =  -13670.96228071 Ry
     Harris-Foulkes estimate   =  -13670.96227805 Ry
     estimated scf accuracy    <       0.00001209 Ry

     iteration # 34     ecut=    80.00 Ry     beta=0.70
     Davidson diagonalization with overlap
     ethr =  8.76E-10,  avg # of iterations =  8.3

     negative rho (up, down):  1.322E-03 0.000E+00

     total cpu time spent up to now is    25465.3 secs

     total energy              =  -13670.96228091 Ry
     Harris-Foulkes estimate   =  -13670.96228236 Ry
     estimated scf accuracy    <       0.00000784 Ry

     iteration # 35     ecut=    80.00 Ry     beta=0.70
     Davidson diagonalization with overlap
     ethr =  5.68E-10,  avg # of iterations =  2.8

     negative rho (up, down):  1.457E-03 0.000E+00

     total cpu time spent up to now is    25888.7 secs

     total energy              =  -13670.96228242 Ry
     Harris-Foulkes estimate   =  -13670.96228153 Ry
     estimated scf accuracy    <       0.00000079 Ry

     iteration # 36     ecut=    80.00 Ry     beta=0.70
     Davidson diagonalization with overlap
     ethr =  5.71E-11,  avg # of iterations =  3.0

     negative rho (up, down):  1.472E-03 0.000E+00

     total cpu time spent up to now is    26458.5 secs

     total energy              =  -13670.96228263 Ry
     Harris-Foulkes estimate   =  -13670.96228258 Ry
     estimated scf accuracy    <       0.00000028 Ry

     iteration # 37     ecut=    80.00 Ry     beta=0.70
     Davidson diagonalization with overlap
     ethr =  2.01E-11,  avg # of iterations =  2.5

     negative rho (up, down):  1.484E-03 0.000E+00

     total cpu time spent up to now is    26876.5 secs

     total energy              =  -13670.96228285 Ry
     Harris-Foulkes estimate   =  -13670.96228267 Ry
     estimated scf accuracy    <       0.00000015 Ry

     iteration # 38     ecut=    80.00 Ry     beta=0.70
     Davidson diagonalization with overlap
     ethr =  1.09E-11,  avg # of iterations =  3.2

     negative rho (up, down):  1.484E-03 0.000E+00

     total cpu time spent up to now is    27317.6 secs

     total energy              =  -13670.96228290 Ry
     Harris-Foulkes estimate   =  -13670.96228286 Ry
     estimated scf accuracy    <       0.00000005 Ry

     iteration # 39     ecut=    80.00 Ry     beta=0.70
     Davidson diagonalization with overlap
     ethr =  3.50E-12,  avg # of iterations =  3.2

     negative rho (up, down):  1.492E-03 0.000E+00

     total cpu time spent up to now is    27756.3 secs

     total energy              =  -13670.96228292 Ry
     Harris-Foulkes estimate   =  -13670.96228291 Ry
     estimated scf accuracy    <       0.00000002 Ry

     iteration # 40     ecut=    80.00 Ry     beta=0.70
     Davidson diagonalization with overlap
     ethr =  1.18E-12,  avg # of iterations =  3.0

     negative rho (up, down):  1.506E-03 0.000E+00

     total cpu time spent up to now is    28187.8 secs

     End of self-consistent calculation

          k = 0.0000 0.0000 0.0000 (256287 PWs)   bands (ev):

   -15.5849 -15.1799 -15.0979 -14.0490 -14.0455 -13.6231 -13.6167 -13.2276
   -13.2213 -13.1454 -13.1437 -12.2584 -12.2524 -12.1374 -12.1347 -12.1268
   -12.1212 -10.4481 -10.4446 -10.4440 -10.4394 -10.2506  -9.2326  -8.5748
    -8.5702  -8.5622  -8.5591  -7.6911  -7.6845  -7.6657  -7.6617  -6.7000
    -6.6964  -6.6173  -6.6108  -6.6076  -6.6026  -6.5896  -6.5892  -5.1821
    -5.0650  -5.0630  -5.0578  -5.0537  -4.9079  -4.9067  -4.8968  -4.8933
    -4.6802  -4.6349  -4.3604  -4.0047  -3.7498  -3.7474  -3.7265  -3.6669
    -3.4593  -3.4373  -3.4252  -3.2499  -3.1363  -3.1356  -2.7873  -2.6304
    -2.6295  -2.6271  -2.6246  -2.5671  -2.5669  -2.4853  -2.4635  -2.4581
    -2.4208  -2.3377  -2.1915  -2.1907  -2.1691  -2.1571  -2.1570  -2.1040
    -2.0994  -2.0905  -2.0734  -2.0405  -1.9593  -1.9544  -1.7847  -1.7841
    -1.7597  -1.7588  -1.6661  -1.6655  -1.5202  -1.5200  -1.5104  -1.5103
    -1.4761  -1.3600  -1.3557  -1.3244  -1.3102  -1.3012  -1.3006  -1.2913
    -1.2912  -1.2350  -1.1995  -1.1995  -1.1620  -1.1619  -1.1575  -1.0731
    -1.0630  -1.0406  -1.0360  -1.0273  -0.9983  -0.9934  -0.9359  -0.9272
    -0.9152  -0.9145  -0.9098  -0.8821  -0.8819  -0.8591  -0.8116  -0.8080
    -0.8075  -0.8063  -0.7456  -0.7315  -0.7298  -0.7232  -0.7048  -0.7047
    -0.6861  -0.6847  -0.6737  -0.6307  -0.6307  -0.5761  -0.5558  -0.5554
    -0.5104  -0.5021  -0.4654  -0.4561  -0.4444  -0.4395  -0.4360  -0.4131
    -0.4130  -0.4080  -0.3800  -0.3697  -0.3688  -0.3511  -0.3433  -0.3393
    -0.3392  -0.3343  -0.2980  -0.2958  -0.2470  -0.2467  -0.2288  -0.2232
    -0.2215  -0.2184  -0.2136  -0.2122  -0.2108  -0.1976  -0.1966  -0.1932
    -0.1846  -0.1707  -0.1500  -0.1494  -0.1423  -0.1313  -0.1247  -0.1118
    -0.1078  -0.1045  -0.1042  -0.0966  -0.0951  -0.0873  -0.0571  -0.0510
    -0.0482  -0.0399  -0.0279  -0.0262  -0.0257  -0.0053  -0.0037  -0.0034
    -0.0012  -0.0007   0.0013   0.0080   0.0093   0.0192   0.0331   0.0543
     0.0552   0.0887   0.0969   0.0997   0.1106   0.1147   0.1300   0.1616
     0.1671   0.1674   0.1746   0.1786   0.1890   0.1942   0.2076   0.2089
     0.2166   0.2209   0.2242   0.2245   0.2284   0.2403   0.2460   0.2535
     0.2550   0.2578   0.2686   0.2715   0.2728   0.3092   0.3108   0.3154
     0.3419   0.3571   0.3649   0.3654   0.3747   0.3753   0.3968   0.3974
     0.4031   0.4047   0.4251   0.4257   0.4263   0.4346   0.4347   0.4405
     0.4406   0.4420   0.4447   0.4578   0.4715   0.4782   0.4806   0.4852
     0.4854   0.4900   0.4902   0.5054   0.5160   0.5186   0.5188   0.5302
     0.5450   0.5455   0.5568   0.5600   0.5603   0.5634   0.5635   0.5737
     0.5744   0.5842   0.5859   0.5966   0.5976   0.6035   0.6038   0.6050
     0.6151   0.6152   0.6446   0.6451   0.6452   0.6463   0.6486   0.6497
     0.6514   0.6525   0.6573   0.6574   0.6845   0.6915   0.6919   0.6949
     0.7153   0.7165   0.7414   0.7477   0.7490   0.7499   0.7519   0.7705
     0.7712   0.7734   0.7798   0.7806   0.7836   0.7845   0.8106   0.8137
     0.8138   0.8210   0.8247   0.8255   0.8278   0.8435   0.8445   0.8467
     0.8497   0.8497   0.8659   0.8709   0.8712   0.8753   0.8776   0.8789
     0.8790   0.8879   0.9005   0.9008   0.9036   0.9075   0.9079   0.9107
     0.9155   0.9230   0.9441   0.9523   0.9532   0.9602   0.9685   0.9782
     0.9798   0.9980   0.9987   1.0050   1.0106   1.0121   1.0139   1.0369
     1.0381   1.0565   1.0574   1.0695   1.0696   1.0718   1.0770   1.0820
     1.0830   1.0945   1.1147   1.1195   1.1252   1.1254   1.1370   1.1415
     1.1430   1.1583   1.1592   1.1752   1.1755   1.1792   1.1857   1.1914
     1.1914   1.2245   1.2334   1.2345   1.2373   1.2447   1.2497   1.2503
     1.2514   1.2527   1.2605   1.2672   1.2673   1.2687   1.2695   1.3005
     1.3011   1.3047   1.3057   1.3128   1.3178   1.3222   1.3311   1.3313
     1.3670   1.3671   1.3781   1.3835   1.3838   1.3879   1.3917   1.3917
     1.3960   1.4016   1.4102   1.4112   1.4195   1.4243   1.4265   1.4271
     1.4272   1.4346   1.4426   1.4475   1.4514   1.4551   1.4566   1.4573
     1.4587   1.4695   1.4740   1.4776   1.4834   1.4841   1.4941   1.4942
     1.5005   1.5105   1.5111   1.5123   1.5124   1.5145   1.5185   1.5190
     1.5424   1.5438   1.5479   1.5519   1.5563   1.5579   1.5582   1.5598
     1.5608   1.5659   1.5697   1.5709   1.5717   1.5882   1.5895   1.5929
     1.5930   1.6051   1.6058   1.6072   1.6078   1.6177   1.6232   1.6321
     1.6419   1.6460   1.6617   1.6671   1.6692   1.6826   1.6840   1.6873
     1.6946   1.6968   1.7053   1.7085   1.7096   1.7134   1.7161   1.7175
     1.7208   1.7213   1.7302   1.7395   1.7457   1.7489   1.7500   1.7606
     1.7622   1.7670   1.7716   1.7756   1.7810   1.7825   1.7844   1.7923
     1.7970   1.7977   1.8064   1.8092   1.8116   1.8135   1.8164   1.8261
     1.8263   1.8272   1.8405   1.8430   1.8433   1.8485   1.8596   1.8629
     1.8700   1.8815   1.8820   1.8856   1.8873   1.8886   1.9019   1.9031
     1.9096   1.9104   1.9116   1.9169   1.9172   1.9179   1.9194   1.9295
     1.9321   1.9364   1.9431   1.9450   1.9466   1.9482   1.9512   1.9520
     1.9577   1.9591   1.9611   1.9725   1.9762   1.9773   1.9774   1.9835
     1.9842   1.9929   1.9947   2.0092   2.0114   2.0212   2.0223   2.0273
     2.0316   2.0336   2.0414   2.0424   2.0544   2.0547   2.0651   2.0660
     2.0703   2.0736   2.0763   2.0804   2.0849   2.0897   2.0897   2.0986
     2.1032   2.1079   2.1104   2.1123   2.1137   2.1189   2.1195   2.1282
     2.1283   2.1330   2.1330   2.1366   2.1431   2.1476   2.1479   2.1557
     2.1687   2.1725   2.1735   2.1778   2.1799   2.1845   2.1867   2.1880
     2.1892   2.1902   2.1941   2.2068   2.2114   2.2128   2.2167   2.2192
     2.2216   2.2239   2.2257   2.2263   2.2319   2.2327   2.2354   2.2355
     2.2363   2.2369   2.2402   2.2426   2.2454   2.2578   2.2586   2.2594
     2.2644   2.2674   2.2699   2.2707   2.2725   2.2861   2.2864   2.2951
     2.2982   2.3005   2.3013   2.3038   2.3162   2.3199   2.3206   2.3399
     2.3414   2.3427   2.3622   2.3640   2.3646   2.3877   2.3878   2.3956
     2.3985   2.4196   2.4197   2.4217   2.4513   2.4578   2.4604   2.4616
     2.4621   2.4624   2.4806   2.4836   2.5187   2.6200   2.7137   2.7798
     2.8043   2.8676   2.8816   2.8831   2.9741   2.9746   2.9991   2.9998
     3.0332   3.0334   3.0431   3.0434   3.1078   3.1078   3.1181   3.1654
     3.1655   3.2102   3.2154   3.3906   3.3910   3.4497   3.4505   3.5971
     3.7208   3.8981   3.8989   3.9574   3.9644   4.0320   4.0360   4.1530
     4.2359   4.2360   4.2651   4.4261   4.4296   4.5004   4.5016   4.6336
     4.7233   4.7233   4.7332   4.7596   4.7601   4.8093   4.8293   4.8296
     4.8332   4.8333   5.1988   5.2226   5.2240   5.2502   5.3970   5.5485
     5.6669   5.7276   5.7681   5.7823   5.8345   5.8403   5.8842   5.8900
     6.0187   6.1166   6.3091   6.3259   6.4330   6.5198   6.5245   6.6955
     6.7333   7.0020   7.0022   7.0131   7.0661   7.2489   7.2760   7.2782
     7.3589   7.5310   7.5468   7.5599   7.5843   7.6051   7.6051   7.6377
     7.6623   7.6820   7.7037   7.7615   7.7701   7.8671   7.8698   7.9049
     7.9402   8.0335   8.0743   8.1201   8.1326   8.2864   8.3083   8.3868
     8.4843   8.4867   8.4880   8.5023   8.5032   8.7523   8.7593   8.7617
     8.8728   8.8759   8.8853   8.9025   8.9909   9.0095   9.0179   9.0215
     9.1290   9.1503   9.2858   9.3327   9.3331   9.3602   9.3609   9.4107
     9.4110   9.4234   9.4278   9.4345   9.5014   9.5142   9.5308   9.5381
     9.5481   9.5994   9.7103   9.7406   9.7780   9.8695   9.8698   9.9063
     9.9124   9.9745  10.0664  10.0992  10.3042  10.3136  10.3376  10.3782
    10.3790  10.5224  10.5302  10.5611  10.5612  10.6435  10.6520  10.6834
    10.6887  10.8027  10.8069  10.8442

          k = 0.0000-0.2165 0.0000 (256176 PWs)   bands (ev):

   -15.5584 -15.3458 -14.7038 -14.6659 -13.5977 -13.5907 -13.3872 -13.3838
   -13.2471 -13.2196 -12.7649 -12.7594 -12.7277 -12.7253 -11.3699 -11.3663
   -11.3444 -11.3397 -11.1918 -11.0917  -9.4863  -9.4821  -9.4255  -9.4226
    -8.2355  -8.1811  -8.1009  -8.0958  -8.0040  -8.0026  -7.2242  -7.2166
    -7.1958  -7.1921  -6.1028  -6.1013  -5.9783  -5.9771  -5.8945  -5.8848
    -5.8699  -5.8667  -5.0951  -5.0750  -5.0640  -5.0285  -4.4038  -4.2962
    -4.2905  -4.1645  -4.1587  -4.0243  -3.9742  -3.9474  -3.9099  -3.6847
    -3.6824  -3.6788  -3.6771  -3.6349  -3.1237  -3.1153  -2.8570  -2.7758
    -2.7039  -2.4801  -2.4791  -2.4523  -2.4484  -2.4477  -2.4187  -2.2780
    -2.2111  -2.2072  -2.1840  -2.1837  -2.1165  -2.1163  -1.9878  -1.9859
    -1.8916  -1.8901  -1.8764  -1.8761  -1.8721  -1.8251  -1.7998  -1.7767
    -1.7319  -1.7318  -1.7245  -1.7232  -1.6636  -1.6432  -1.6385  -1.6275
    -1.6271  -1.6159  -1.4662  -1.3985  -1.3956  -1.3936  -1.3570  -1.3349
    -1.3346  -1.2875  -1.2870  -1.2404  -1.1714  -1.1322  -1.1321  -1.1292
    -1.1150  -1.1150  -1.0056  -1.0051  -0.9564  -0.9551  -0.9505  -0.9453
    -0.9241  -0.9062  -0.8821  -0.8820  -0.8695  -0.8683  -0.8287  -0.8237
    -0.8077  -0.8074  -0.7980  -0.7595  -0.7573  -0.7334  -0.7118  -0.7102
    -0.6506  -0.6502  -0.5979  -0.5965  -0.5901  -0.5619  -0.5341  -0.5248
    -0.4808  -0.4782  -0.4699  -0.4651  -0.4622  -0.4595  -0.4447  -0.4361
    -0.4330  -0.4279  -0.4217  -0.4213  -0.4139  -0.4089  -0.4084  -0.4066
    -0.3936  -0.3803  -0.3795  -0.3590  -0.3083  -0.3082  -0.2864  -0.2856
    -0.2581  -0.2432  -0.2423  -0.2236  -0.2190  -0.2046  -0.2035  -0.2031
    -0.2001  -0.1832  -0.1737  -0.1557  -0.1430  -0.1422  -0.1363  -0.1266
    -0.1259  -0.1249  -0.1112  -0.0921  -0.0873  -0.0865  -0.0857  -0.0724
    -0.0703  -0.0410  -0.0371  -0.0368  -0.0232  -0.0114  -0.0016  -0.0013
     0.0055   0.0174   0.0226   0.0403   0.0555   0.0570   0.0593   0.0950
     0.1128   0.1403   0.1409   0.1511   0.1730   0.1744   0.1802   0.1804
     0.1995   0.2008   0.2036   0.2036   0.2156   0.2164   0.2235   0.2347
     0.2351   0.2468   0.2472   0.2475   0.2521   0.2586   0.2679   0.2817
     0.2822   0.2941   0.2952   0.3115   0.3154   0.3295   0.3333   0.3497
     0.3499   0.3521   0.3526   0.3586   0.3710   0.3713   0.3858   0.3864
     0.4277   0.4381   0.4381   0.4527   0.4577   0.4583   0.4697   0.4744
     0.4751   0.4845   0.4855   0.4877   0.4940   0.5060   0.5069   0.5182
     0.5184   0.5235   0.5235   0.5362   0.5397   0.5474   0.5488   0.5491
     0.5496   0.5544   0.5558   0.5585   0.5640   0.5783   0.5875   0.5881
     0.5965   0.5969   0.5980   0.6142   0.6143   0.6223   0.6281   0.6291
     0.6353   0.6362   0.6381   0.6428   0.6440   0.6518   0.6543   0.6694
     0.6699   0.6787   0.6829   0.6944   0.7011   0.7101   0.7140   0.7151
     0.7152   0.7290   0.7299   0.7442   0.7501   0.7526   0.7556   0.7557
     0.7563   0.7603   0.7637   0.7710   0.7821   0.7830   0.7947   0.7966
     0.8090   0.8137   0.8157   0.8199   0.8236   0.8265   0.8307   0.8340
     0.8452   0.8455   0.8467   0.8596   0.8664   0.8671   0.8687   0.8783
     0.8880   0.8883   0.9005   0.9058   0.9091   0.9095   0.9208   0.9217
     0.9275   0.9281   0.9391   0.9416   0.9424   0.9471   0.9530   0.9533
     0.9596   0.9648   0.9694   0.9775   0.9838   0.9927   0.9936   1.0044
     1.0113   1.0160   1.0306   1.0421   1.0534   1.0551   1.0722   1.0761
     1.0782   1.0841   1.0842   1.0976   1.1155   1.1161   1.1191   1.1200
     1.1340   1.1435   1.1507   1.1552   1.1578   1.1654   1.1771   1.1819
     1.1824   1.1980   1.2071   1.2207   1.2208   1.2297   1.2474   1.2516
     1.2548   1.2551   1.2651   1.2654   1.2718   1.2808   1.2812   1.2989
     1.2990   1.3145   1.3157   1.3209   1.3272   1.3317   1.3319   1.3522
     1.3587   1.3590   1.3592   1.3600   1.3659   1.3664   1.3765   1.3765
     1.3780   1.3826   1.3915   1.3967   1.3997   1.4027   1.4054   1.4081
     1.4151   1.4194   1.4212   1.4401   1.4406   1.4467   1.4501   1.4532
     1.4541   1.4547   1.4621   1.4627   1.4639   1.4743   1.4750   1.4903
     1.4916   1.4980   1.4983   1.5002   1.5041   1.5064   1.5189   1.5192
     1.5195   1.5217   1.5229   1.5268   1.5298   1.5305   1.5433   1.5441
     1.5519   1.5555   1.5565   1.5567   1.5577   1.5661   1.5773   1.5809
     1.5891   1.5894   1.5908   1.6059   1.6242   1.6269   1.6300   1.6363
     1.6376   1.6413   1.6462   1.6473   1.6614   1.6934   1.6940   1.7138
     1.7163   1.7192   1.7245   1.7260   1.7288   1.7289   1.7360   1.7377
     1.7395   1.7436   1.7485   1.7486   1.7552   1.7555   1.7557   1.7613
     1.7729   1.7743   1.7761   1.7889   1.7903   1.7919   1.7925   1.8025
     1.8039   1.8040   1.8092   1.8109   1.8122   1.8137   1.8145   1.8147
     1.8180   1.8198   1.8344   1.8352   1.8373   1.8377   1.8430   1.8452
     1.8454   1.8477   1.8503   1.8506   1.8676   1.8718   1.8718   1.8782
     1.8817   1.8928   1.9017   1.9019   1.9028   1.9116   1.9119   1.9134
     1.9274   1.9296   1.9348   1.9455   1.9460   1.9468   1.9581   1.9613
     1.9631   1.9639   1.9699   1.9870   1.9947   1.9964   2.0045   2.0047
     2.0063   2.0082   2.0120   2.0207   2.0232   2.0235   2.0265   2.0310
     2.0319   2.0374   2.0383   2.0441   2.0448   2.0493   2.0519   2.0538
     2.0546   2.0613   2.0621   2.0792   2.0849   2.0856   2.0863   2.0900
     2.0967   2.0972   2.1072   2.1077   2.1080   2.1123   2.1138   2.1164
     2.1194   2.1328   2.1334   2.1357   2.1424   2.1476   2.1481   2.1530
     2.1539   2.1579   2.1592   2.1608   2.1660   2.1663   2.1763   2.1794
     2.1874   2.1875   2.1966   2.2011   2.2041   2.2043   2.2092   2.2228
     2.2253   2.2260   2.2286   2.2295   2.2298   2.2327   2.2367   2.2386
     2.2508   2.2509   2.2526   2.2586   2.2658   2.2702   2.2765   2.2767
     2.2805   2.2810   2.2824   2.2826   2.2988   2.3036   2.3042   2.3069
     2.3105   2.3252   2.3325   2.3325   2.3403   2.3519   2.3527   2.3532
     2.3544   2.3574   2.3578   2.3592   2.3705   2.3718   2.3719   2.3779
     2.4012   2.4405   2.4535   2.4671   2.4917   2.5450   2.5714   2.5758
     2.5759   2.5979   2.5980   2.6189   2.6193   2.6516   2.6520   2.6645
     2.6804   2.6849   2.8836   2.8852   2.9288   2.9332   2.9466   2.9639
     2.9785   3.0327   3.1062   3.1112   3.2088   3.2091   3.2196   3.2578
     3.2588   3.3134   3.3729   3.3986   3.3992   3.4865   3.4912   3.4914
     3.5245   3.7384   3.7384   3.7400   3.8067   3.8086   3.9868   3.9869
     4.0139   4.0146   4.2792   4.2954   4.3620   4.3624   4.4627   4.4958
     4.7100   4.7370   4.7423   4.8566   4.8615   4.8986   4.9012   4.9303
     4.9448   4.9878   5.1823   5.2140   5.3705   5.3741   5.6586   5.7597
     5.8022   5.8028   5.8769   5.9138   5.9420   6.0857   6.0862   6.1509
     6.1775   6.1952   6.1954   6.3486   6.4317   6.5315   6.5372   6.5794
     6.6047   6.7149   6.8001   6.8007   6.8151   6.8823   7.0026   7.1846
     7.2388   7.2422   7.3969   7.3970   7.4358   7.5244   7.6371   7.7286
     7.7316   7.7385   7.8400   7.8428   7.8907   7.9282   7.9288   7.9453
     7.9459   7.9883   8.0575   8.0814   8.1720   8.1741   8.3813   8.3861
     8.4767   8.5207   8.5745   8.6028   8.6082   8.6100   8.6298   8.7583
     8.7621   8.7624   8.8457   8.8914   8.9878   9.0702   9.0732   9.1786
     9.2132   9.2233   9.2233   9.2352   9.3309   9.3319   9.4196   9.4545
     9.4559   9.4829   9.4929   9.6086   9.6147   9.6236   9.6318   9.6670
     9.7405   9.7925   9.9066   9.9140   9.9162   9.9278   9.9430   9.9465
    10.0303  10.0309  10.1420  10.1430  10.1868  10.2187  10.2249  10.3021
    10.3032  10.4913  10.5099  10.5293  10.5302  10.5991  10.6039  10.6156
    10.6803  10.6805  10.6965  10.7753

          k = 0.2500 0.0000 0.0000 (256240 PWs)   bands (ev):

   -15.4606 -15.0561 -14.9743 -14.4726 -14.0733 -13.9922 -13.9272 -13.9238
   -12.9622 -12.9585 -12.5418 -12.1552 -12.1416 -12.1358 -12.0758 -11.2202
   -11.2148 -11.1028 -11.0988 -10.1451  -9.9217  -9.8128  -9.6850  -9.3027
    -9.1279  -8.8559  -8.8397  -8.4284  -8.1735  -8.1686  -7.6306  -6.6271
    -6.6228  -6.6156  -6.6138  -6.5057  -6.4997  -6.0317  -5.7674  -5.2015
    -5.0477  -5.0131  -5.0015  -4.9422  -4.9365  -4.5068  -4.4616  -4.2678
    -4.2563  -4.1944  -3.8429  -3.7530  -3.6273  -3.5760  -3.5154  -3.4564
    -3.4390  -3.4238  -3.4170  -3.2996  -3.1919  -3.1498  -3.1042  -3.0062
    -2.9891  -2.9886  -2.9483  -2.7084  -2.7044  -2.6796  -2.6583  -2.6371
    -2.6243  -2.5807  -2.5526  -2.4438  -2.4380  -2.3891  -2.3340  -2.2967
    -2.2257  -2.2057  -2.1845  -2.0382  -1.9822  -1.9665  -1.9623  -1.9466
    -1.9441  -1.9410  -1.6093  -1.5655  -1.5468  -1.5406  -1.5241  -1.4712
    -1.3631  -1.2826  -1.2709  -1.2625  -1.2584  -1.2406  -1.2382  -1.1991
    -1.1836  -1.1034  -1.0857  -1.0369  -1.0360  -1.0074  -1.0013  -0.9600
    -0.9479  -0.9447  -0.9430  -0.9338  -0.9299  -0.9286  -0.9018  -0.8753
    -0.8547  -0.8194  -0.8170  -0.8138  -0.7639  -0.7488  -0.7430  -0.7393
    -0.7363  -0.7304  -0.7218  -0.7078  -0.6978  -0.6795  -0.6781  -0.6679
    -0.6590  -0.6583  -0.6570  -0.6161  -0.6060  -0.5414  -0.5361  -0.5075
    -0.4886  -0.4705  -0.4566  -0.4530  -0.4300  -0.4109  -0.4005  -0.3976
    -0.3912  -0.3859  -0.3757  -0.3656  -0.3550  -0.3442  -0.3424  -0.3319
    -0.3212  -0.3189  -0.2992  -0.2985  -0.2957  -0.2902  -0.2819  -0.2756
    -0.2731  -0.2586  -0.2545  -0.2254  -0.2224  -0.2080  -0.2030  -0.1965
    -0.1926  -0.1855  -0.1829  -0.1802  -0.1772  -0.1735  -0.1686  -0.1664
    -0.1519  -0.1458  -0.1398  -0.1391  -0.1385  -0.1304  -0.1300  -0.1264
    -0.1230  -0.1132  -0.1032  -0.0847  -0.0721  -0.0519  -0.0506  -0.0488
    -0.0330  -0.0215  -0.0050   0.0010   0.0075   0.0321   0.0333   0.0437
     0.0566   0.0572   0.0616   0.0643   0.0780   0.0934   0.0984   0.0992
     0.1163   0.1171   0.1289   0.1576   0.1596   0.2038   0.2126   0.2234
     0.2324   0.2432   0.2500   0.2513   0.2573   0.2732   0.2854   0.2871
     0.2922   0.2942   0.3033   0.3082   0.3220   0.3249   0.3332   0.3341
     0.3405   0.3418   0.3454   0.3678   0.3710   0.3720   0.3745   0.3893
     0.4061   0.4093   0.4238   0.4354   0.4390   0.4429   0.4475   0.4509
     0.4524   0.4589   0.4633   0.4714   0.4716   0.4726   0.4812   0.4842
     0.5003   0.5098   0.5127   0.5153   0.5221   0.5260   0.5325   0.5359
     0.5382   0.5484   0.5538   0.5550   0.5556   0.5592   0.5641   0.5772
     0.5854   0.5943   0.6056   0.6078   0.6091   0.6270   0.6345   0.6402
     0.6416   0.6442   0.6506   0.6589   0.6620   0.6691   0.6717   0.6762
     0.6799   0.6873   0.6998   0.7123   0.7140   0.7214   0.7238   0.7256
     0.7280   0.7362   0.7431   0.7461   0.7567   0.7587   0.7729   0.7782
     0.7840   0.7844   0.7996   0.8015   0.8079   0.8163   0.8211   0.8271
     0.8283   0.8331   0.8357   0.8365   0.8392   0.8462   0.8520   0.8543
     0.8570   0.8614   0.8662   0.8741   0.8868   0.8902   0.8918   0.8946
     0.9011   0.9040   0.9080   0.9095   0.9106   0.9185   0.9232   0.9276
     0.9364   0.9387   0.9538   0.9648   0.9734   0.9786   0.9800   0.9852
     0.9903   0.9906   1.0084   1.0174   1.0210   1.0244   1.0331   1.0359
     1.0484   1.0530   1.0642   1.0805   1.0857   1.0967   1.0991   1.1030
     1.1142   1.1210   1.1221   1.1285   1.1314   1.1347   1.1362   1.1412
     1.1462   1.1506   1.1509   1.1573   1.1595   1.1634   1.1673   1.1714
     1.1719   1.1826   1.1848   1.1856   1.1901   1.1957   1.2018   1.2102
     1.2138   1.2226   1.2315   1.2426   1.2489   1.2669   1.2707   1.2720
     1.2757   1.2856   1.2862   1.2886   1.2909   1.2952   1.2958   1.3105
     1.3162   1.3224   1.3284   1.3299   1.3326   1.3506   1.3515   1.3568
     1.3596   1.3624   1.3748   1.3783   1.3809   1.3870   1.3930   1.3974
     1.4014   1.4047   1.4119   1.4137   1.4210   1.4268   1.4295   1.4312
     1.4348   1.4447   1.4475   1.4525   1.4534   1.4616   1.4692   1.4696
     1.4712   1.4740   1.4860   1.4866   1.4886   1.4921   1.4956   1.4995
     1.5141   1.5169   1.5182   1.5209   1.5354   1.5392   1.5440   1.5567
     1.5630   1.5704   1.5748   1.5771   1.5876   1.5889   1.5897   1.5923
     1.5952   1.6041   1.6064   1.6126   1.6179   1.6193   1.6346   1.6434
     1.6453   1.6469   1.6504   1.6537   1.6628   1.6638   1.6818   1.6832
     1.6869   1.6888   1.6911   1.6933   1.6989   1.7074   1.7137   1.7149
     1.7159   1.7180   1.7200   1.7311   1.7383   1.7439   1.7455   1.7488
     1.7512   1.7584   1.7607   1.7619   1.7856   1.7894   1.7953   1.7957
     1.8053   1.8078   1.8134   1.8182   1.8198   1.8229   1.8285   1.8339
     1.8357   1.8393   1.8412   1.8447   1.8497   1.8572   1.8576   1.8587
     1.8631   1.8694   1.8733   1.8738   1.8778   1.8809   1.8816   1.8869
     1.8889   1.8910   1.8920   1.8958   1.9004   1.9040   1.9079   1.9149
     1.9187   1.9267   1.9277   1.9336   1.9357   1.9365   1.9381   1.9429
     1.9466   1.9528   1.9562   1.9586   1.9596   1.9789   1.9800   1.9845
     1.9889   1.9907   1.9964   2.0014   2.0136   2.0201   2.0271   2.0279
     2.0298   2.0322   2.0355   2.0461   2.0473   2.0479   2.0501   2.0563
     2.0635   2.0716   2.0746   2.0794   2.0828   2.0836   2.0891   2.0916
     2.0981   2.1011   2.1041   2.1053   2.1059   2.1099   2.1103   2.1154
     2.1196   2.1233   2.1271   2.1288   2.1338   2.1387   2.1405   2.1432
     2.1444   2.1514   2.1596   2.1614   2.1694   2.1853   2.1878   2.1915
     2.1935   2.1995   2.2002   2.2023   2.2039   2.2063   2.2074   2.2175
     2.2200   2.2227   2.2246   2.2269   2.2406   2.2410   2.2424   2.2435
     2.2444   2.2522   2.2536   2.2559   2.2594   2.2624   2.2652   2.2693
     2.2725   2.2744   2.2747   2.2823   2.2853   2.2863   2.2928   2.2970
     2.2990   2.2998   2.3017   2.3090   2.3112   2.3198   2.3231   2.3266
     2.3295   2.3351   2.3364   2.3427   2.3548   2.3599   2.3608   2.3747
     2.3908   2.3952   2.3979   2.4052   2.4273   2.4288   2.4386   2.4405
     2.4493   2.4627   2.4660   2.5498   2.5620   2.5706   2.6058   2.6189
     2.6349   2.6598   2.6730   2.7357   2.7593   2.8177   2.8404   2.8572
     2.8956   2.9245   2.9782   3.1909   3.2657   3.2877   3.2983   3.3325
     3.3798   3.5388   3.6808   3.7326   3.7996   3.8003   3.8141   3.9156
     3.9608   3.9946   4.0428   4.0461   4.0715   4.2154   4.2785   4.2948
     4.3559   4.3973   4.4561   4.4591   4.4877   4.4949   4.5010   4.5039
     4.5579   4.7706   4.9019   4.9510   5.0301   5.1102   5.1328   5.1694
     5.2369   5.2739   5.3508   5.3684   5.3879   5.4654   5.4796   5.5968
     5.6323   5.7924   5.8379   5.8551   5.8909   5.9228   5.9715   6.0167
     6.1147   6.1626   6.1826   6.2513   6.2556   6.3123   6.3985   6.3991
     6.6177   6.6368   6.6990   6.7165   6.7790   6.7874   6.7945   6.8091
     7.0035   7.1194   7.1551   7.3354   7.3834   7.4417   7.5315   7.5452
     7.5768   7.6039   7.6163   7.6389   7.6536   7.6946   7.7102   7.7343
     7.7437   7.7487   7.8283   7.8408   7.9575   8.0326   8.0590   8.1314
     8.1561   8.2606   8.3105   8.3199   8.4883   8.5044   8.5153   8.5564
     8.5965   8.6472   8.6539   8.6900   8.7148   8.8236   8.8431   8.9382
     8.9679   9.0798   9.1579   9.1673   9.1786   9.1945   9.2154   9.2253
     9.2815   9.2848   9.3652   9.4254   9.4461   9.5160   9.5483   9.5939
     9.7121   9.7326   9.7394   9.7493   9.7544   9.8031   9.8639   9.8671
     9.8936   9.9034   9.9941  10.0202  10.0355  10.0390  10.0772  10.1750
    10.2214  10.2447  10.3430  10.3448  10.4270  10.5255  10.5406  10.5525
    10.5558  10.5611  10.5775  10.6406

          k = 0.2500-0.2165 0.0000 (256316 PWs)   bands (ev):

   -15.4340 -15.2218 -14.5808 -14.5432 -14.4464 -14.2365 -13.6041 -13.5678
   -13.1273 -13.1000 -12.5167 -12.3126 -12.1780 -12.1520 -11.7042 -11.6715
   -11.0801 -10.9797 -10.4104 -10.3937 -10.1990 -10.1014  -9.8521  -9.6572
    -8.7313  -8.7060  -8.2563  -8.1416  -8.1264  -8.0856  -7.5844  -7.5185
    -7.4684  -7.4443  -5.8074  -5.7397  -5.7334  -5.6656  -5.6381  -5.4766
    -5.4164  -5.3132  -5.0507  -5.0344  -4.8874  -4.8501  -4.2424  -4.2252
    -4.2175  -3.9138  -3.9130  -3.8590  -3.8130  -3.7809  -3.7571  -3.5261
    -3.4910  -3.4869  -3.3299  -3.2401  -3.2379  -3.2169  -2.9783  -2.9746
    -2.9728  -2.9655  -2.7914  -2.7203  -2.7097  -2.6334  -2.6265  -2.6088
    -2.5725  -2.5577  -2.5471  -2.5391  -2.3392  -2.2749  -2.2731  -2.2693
    -2.1495  -2.1306  -2.0619  -2.0617  -1.9909  -1.9496  -1.9447  -1.9367
    -1.7059  -1.7037  -1.6810  -1.6772  -1.6425  -1.5938  -1.5023  -1.4834
    -1.4653  -1.3868  -1.3446  -1.3206  -1.3140  -1.3018  -1.2667  -1.1795
    -1.1774  -1.1331  -1.1198  -1.1011  -1.0785  -1.0579  -1.0123  -1.0045
    -0.9611  -0.9534  -0.9454  -0.9139  -0.9033  -0.8660  -0.8619  -0.8563
    -0.8527  -0.8522  -0.8448  -0.8427  -0.8343  -0.8294  -0.8269  -0.8223
    -0.7649  -0.7585  -0.7312  -0.7300  -0.7217  -0.7126  -0.6623  -0.6558
    -0.6197  -0.6149  -0.5739  -0.5527  -0.5184  -0.5127  -0.5002  -0.4875
    -0.4859  -0.4720  -0.4412  -0.4400  -0.4379  -0.4203  -0.4159  -0.4056
    -0.3968  -0.3935  -0.3921  -0.3808  -0.3630  -0.3602  -0.3600  -0.3587
    -0.3548  -0.3498  -0.3446  -0.3202  -0.3040  -0.2822  -0.2762  -0.2751
    -0.2743  -0.2690  -0.2644  -0.2393  -0.2278  -0.2276  -0.2208  -0.2113
    -0.2058  -0.2029  -0.1988  -0.1893  -0.1802  -0.1737  -0.1655  -0.1478
    -0.1428  -0.1419  -0.1362  -0.1295  -0.1278  -0.1266  -0.1207  -0.1157
    -0.0829  -0.0657  -0.0504  -0.0467  -0.0444  -0.0381  -0.0275  -0.0236
    -0.0076   0.0027   0.0156   0.0283   0.0341   0.0410   0.0474   0.0557
     0.0689   0.0781   0.0906   0.0941   0.1000   0.1064   0.1149   0.1297
     0.1350   0.1488   0.1529   0.1611   0.1639   0.1763   0.1880   0.2290
     0.2297   0.2318   0.2424   0.2630   0.2657   0.2667   0.2725   0.2763
     0.2813   0.2879   0.3000   0.3068   0.3190   0.3356   0.3371   0.3426
     0.3458   0.3518   0.3602   0.3667   0.3769   0.3838   0.3855   0.3876
     0.3891   0.4060   0.4115   0.4164   0.4286   0.4350   0.4435   0.4491
     0.4555   0.4589   0.4598   0.4615   0.4750   0.4765   0.4844   0.4863
     0.4893   0.4921   0.4952   0.5030   0.5047   0.5075   0.5106   0.5153
     0.5273   0.5299   0.5342   0.5576   0.5582   0.5632   0.5735   0.5820
     0.5906   0.5926   0.5997   0.6068   0.6103   0.6184   0.6220   0.6279
     0.6338   0.6372   0.6477   0.6519   0.6599   0.6637   0.6718   0.6823
     0.6987   0.7103   0.7123   0.7177   0.7184   0.7199   0.7218   0.7335
     0.7387   0.7437   0.7518   0.7599   0.7613   0.7689   0.7732   0.7762
     0.7813   0.7816   0.7855   0.7932   0.7964   0.8008   0.8110   0.8120
     0.8235   0.8267   0.8300   0.8317   0.8347   0.8360   0.8413   0.8554
     0.8587   0.8638   0.8653   0.8679   0.8734   0.8855   0.8884   0.9101
     0.9205   0.9216   0.9235   0.9238   0.9282   0.9299   0.9334   0.9481
     0.9561   0.9609   0.9661   0.9739   0.9812   0.9882   0.9904   0.9919
     0.9942   0.9952   1.0032   1.0084   1.0136   1.0203   1.0220   1.0258
     1.0310   1.0362   1.0373   1.0475   1.0587   1.0783   1.0818   1.0877
     1.1058   1.1116   1.1172   1.1210   1.1233   1.1284   1.1397   1.1448
     1.1480   1.1514   1.1530   1.1549   1.1653   1.1660   1.1673   1.1729
     1.1850   1.1855   1.1900   1.1916   1.1972   1.2103   1.2143   1.2170
     1.2206   1.2246   1.2273   1.2386   1.2427   1.2474   1.2583   1.2605
     1.2659   1.2693   1.2733   1.2738   1.2851   1.2890   1.3123   1.3237
     1.3307   1.3325   1.3373   1.3378   1.3387   1.3488   1.3534   1.3660
     1.3679   1.3699   1.3853   1.3873   1.3998   1.4074   1.4132   1.4165
     1.4171   1.4198   1.4257   1.4283   1.4291   1.4338   1.4345   1.4486
     1.4503   1.4583   1.4590   1.4652   1.4717   1.4740   1.4831   1.4866
     1.4875   1.4950   1.4958   1.5012   1.5036   1.5106   1.5136   1.5189
     1.5258   1.5272   1.5310   1.5340   1.5376   1.5386   1.5438   1.5468
     1.5597   1.5660   1.5706   1.5713   1.5721   1.5760   1.5777   1.5859
     1.5867   1.5869   1.5921   1.5994   1.6021   1.6077   1.6161   1.6247
     1.6305   1.6317   1.6366   1.6453   1.6569   1.6605   1.6628   1.6660
     1.6734   1.6772   1.6783   1.6825   1.6863   1.6948   1.7055   1.7090
     1.7136   1.7166   1.7168   1.7175   1.7206   1.7257   1.7261   1.7308
     1.7478   1.7513   1.7550   1.7579   1.7607   1.7647   1.7737   1.7812
     1.7853   1.7955   1.7958   1.7964   1.8012   1.8067   1.8189   1.8229
     1.8241   1.8256   1.8293   1.8354   1.8394   1.8618   1.8651   1.8691
     1.8774   1.8812   1.8887   1.8925   1.8964   1.8996   1.9038   1.9100
     1.9105   1.9150   1.9199   1.9217   1.9261   1.9299   1.9312   1.9339
     1.9361   1.9381   1.9384   1.9431   1.9520   1.9561   1.9585   1.9620
     1.9747   1.9766   1.9856   1.9911   1.9919   1.9946   1.9964   1.9976
     1.9996   2.0036   2.0059   2.0083   2.0094   2.0122   2.0154   2.0186
     2.0276   2.0325   2.0327   2.0353   2.0366   2.0396   2.0418   2.0454
     2.0464   2.0537   2.0624   2.0730   2.0745   2.0783   2.0827   2.0871
     2.0893   2.0894   2.0927   2.0960   2.1001   2.1006   2.1134   2.1219
     2.1256   2.1269   2.1336   2.1388   2.1398   2.1421   2.1470   2.1494
     2.1581   2.1596   2.1665   2.1728   2.1756   2.1778   2.1842   2.1848
     2.1896   2.1943   2.1983   2.2005   2.2016   2.2059   2.2078   2.2114
     2.2124   2.2157   2.2255   2.2274   2.2282   2.2315   2.2440   2.2456
     2.2482   2.2530   2.2541   2.2567   2.2590   2.2600   2.2621   2.2681
     2.2742   2.2748   2.2772   2.2787   2.2795   2.2846   2.2932   2.2960
     2.2990   2.3032   2.3046   2.3052   2.3108   2.3142   2.3160   2.3245
     2.3253   2.3329   2.3345   2.3356   2.3416   2.3475   2.3506   2.3667
     2.3695   2.3734   2.3768   2.3851   2.4057   2.4130   2.4327   2.4597
     2.4856   2.4962   2.5175   2.5326   2.5420   2.5510   2.5526   2.5742
     2.5782   2.5842   2.6366   2.7031   2.9289   2.9356   2.9521   2.9627
     2.9902   3.0518   3.0534   3.0623   3.1730   3.2841   3.3636   3.3801
     3.4011   3.4373   3.5013   3.5944   3.6094   3.6280   3.6739   3.7161
     3.7434   3.8932   3.9651   3.9766   3.9770   4.1994   4.4026   4.4266
     4.4654   4.5380   4.6082   4.6327   4.6436   4.6577   4.7699   4.8451
     4.8982   4.9405   4.9625   4.9627   5.0746   5.1109   5.1338   5.1372
     5.1682   5.2420   5.2814   5.3223   5.3651   5.4189   5.4278   5.4777
     5.5254   5.6629   5.6866   5.7026   5.7641   5.8033   5.8399   6.0039
     6.0237   6.0901   6.2079   6.2234   6.2427   6.2812   6.3419   6.4345
     6.5429   6.5473   6.6495   6.7545   6.7768   6.8122   6.8680   6.8923
     7.0025   7.0820   7.1797   7.2514   7.2553   7.2965   7.3158   7.5389
     7.5803   7.6175   7.6874   7.7615   7.7998   7.8843   7.8993   7.9211
     7.9479   7.9591   7.9837   7.9908   8.0037   8.1014   8.1433   8.1835
     8.2351   8.2449   8.2729   8.2804   8.3001   8.4424   8.5548   8.6422
     8.6624   8.7226   8.7803   8.7805   8.8150   8.8243   8.8769   8.9399
     8.9743   9.0249   9.0691   9.0707   9.0752   9.0889   9.2326   9.2994
     9.3255   9.3384   9.3533   9.3721   9.4437   9.5076   9.5293   9.5371
     9.5401   9.6204   9.6447   9.7124   9.7854   9.7950   9.8084   9.8249
     9.8476   9.8723   9.9107   9.9445   9.9635  10.0254  10.0506  10.1344
    10.1361  10.1510  10.1684  10.2128  10.2269  10.2663  10.3842  10.3874
    10.4158  10.4973  10.5731  10.6014

          k =-0.5000 0.0000 0.0000 (256496 PWs)   bands (ev):

   -15.0899 -15.0874 -14.6875 -14.6846 -14.6047 -14.6041 -13.5650 -13.5626
   -13.5605 -13.5594 -11.7948 -11.7918 -11.7879 -11.7873 -11.2745 -11.2581
   -10.9170 -10.8929 -10.8316 -10.8167 -10.2136 -10.2064  -9.8290  -9.8278
    -9.2494  -9.2438  -8.8298  -8.8272  -8.0081  -8.0062  -7.9898  -7.9895
    -6.5087  -6.5008  -6.4406  -6.4394  -6.4367  -6.4338  -4.9870  -4.9784
    -4.4725  -4.4707  -4.2857  -4.2810  -4.0006  -3.9980  -3.9538  -3.9519
    -3.8721  -3.8663  -3.8090  -3.8084  -3.7573  -3.7567  -3.7342  -3.7323
    -3.6839  -3.6778  -3.4755  -3.4740  -3.4625  -3.4562  -3.3613  -3.3554
    -3.1140  -3.1058  -3.0473  -3.0458  -2.8759  -2.8706  -2.6694  -2.6683
    -2.5688  -2.5681  -2.5675  -2.5672  -2.4535  -2.4507  -2.4473  -2.4451
    -2.4436  -2.4426  -2.2131  -2.2099  -1.9570  -1.9533  -1.8772  -1.8743
    -1.8614  -1.8600  -1.8478  -1.8477  -1.6874  -1.6871  -1.6763  -1.6750
    -1.5861  -1.5783  -1.5432  -1.5411  -1.1128  -1.1119  -1.1107  -1.1088
    -1.0359  -1.0347  -1.0329  -1.0316  -1.0259  -1.0253  -0.9836  -0.9819
    -0.8171  -0.8169  -0.8146  -0.8139  -0.7702  -0.7666  -0.7642  -0.7635
    -0.7607  -0.7599  -0.7503  -0.7501  -0.6957  -0.6944  -0.6527  -0.6526
    -0.6212  -0.6202  -0.6093  -0.6088  -0.5876  -0.5874  -0.5609  -0.5602
    -0.5460  -0.5447  -0.5200  -0.5189  -0.5138  -0.5133  -0.5110  -0.5108
    -0.4871  -0.4871  -0.4765  -0.4759  -0.4609  -0.4607  -0.4539  -0.4530
    -0.4412  -0.4407  -0.4364  -0.4347  -0.3750  -0.3741  -0.3696  -0.3645
    -0.3485  -0.3478  -0.3386  -0.3380  -0.3176  -0.3171  -0.3124  -0.3122
    -0.2884  -0.2870  -0.2725  -0.2719  -0.2654  -0.2650  -0.2494  -0.2482
    -0.2416  -0.2374  -0.2082  -0.2041  -0.1960  -0.1950  -0.1715  -0.1698
    -0.1466  -0.1455  -0.1329  -0.1327  -0.1324  -0.1319  -0.1235  -0.1227
    -0.1066  -0.1063  -0.0972  -0.0955  -0.0798  -0.0793  -0.0708  -0.0697
    -0.0653  -0.0646  -0.0603  -0.0559  -0.0502  -0.0495  -0.0054  -0.0049
     0.0654   0.0671   0.1048   0.1069   0.1144   0.1166   0.1377   0.1385
     0.1619   0.1637   0.1663   0.1685   0.1739   0.1746   0.1948   0.2005
     0.2011   0.2015   0.2180   0.2182   0.2224   0.2233   0.2464   0.2466
     0.2575   0.2605   0.2612   0.2626   0.3135   0.3208   0.3215   0.3254
     0.3555   0.3597   0.3672   0.3676   0.3746   0.3774   0.3928   0.3961
     0.3986   0.4049   0.4056   0.4104   0.4148   0.4160   0.4306   0.4311
     0.4566   0.4579   0.4624   0.4634   0.4840   0.4860   0.4948   0.4956
     0.5086   0.5094   0.5150   0.5335   0.5377   0.5381   0.5396   0.5403
     0.5534   0.5649   0.5662   0.5673   0.5823   0.5830   0.5847   0.5851
     0.5908   0.5909   0.6109   0.6286   0.6298   0.6314   0.6538   0.6568
     0.6668   0.6686   0.6833   0.6891   0.6907   0.6940   0.7039   0.7087
     0.7121   0.7241   0.7268   0.7335   0.7382   0.7628   0.7645   0.7679
     0.7693   0.7698   0.7816   0.7875   0.7929   0.7960   0.7980   0.8011
     0.8050   0.8170   0.8173   0.8185   0.8200   0.8215   0.8258   0.8323
     0.8456   0.8512   0.8613   0.8674   0.8690   0.8699   0.8999   0.9011
     0.9103   0.9107   0.9112   0.9194   0.9223   0.9250   0.9252   0.9285
     0.9314   0.9330   0.9359   0.9374   0.9406   0.9426   0.9511   0.9603
     0.9610   0.9623   0.9628   0.9637   0.9699   0.9736   0.9740   0.9759
     0.9792   0.9831   0.9939   0.9969   0.9971   0.9974   1.0001   1.0311
     1.0338   1.0428   1.0451   1.0604   1.0643   1.0996   1.1061   1.1103
     1.1167   1.1263   1.1277   1.1297   1.1321   1.1360   1.1377   1.1473
     1.1688   1.1698   1.1727   1.1744   1.1811   1.1852   1.1868   1.1900
     1.1924   1.1953   1.1970   1.1978   1.2049   1.2156   1.2200   1.2220
     1.2222   1.2231   1.2234   1.2265   1.2292   1.2389   1.2407   1.2511
     1.2523   1.2543   1.2602   1.2802   1.2911   1.2928   1.3031   1.3046
     1.3076   1.3209   1.3212   1.3275   1.3302   1.3321   1.3354   1.3393
     1.3482   1.3503   1.3537   1.3696   1.3731   1.3756   1.3772   1.3809
     1.3814   1.3900   1.3936   1.3970   1.3978   1.4021   1.4052   1.4080
     1.4095   1.4356   1.4360   1.4370   1.4420   1.4435   1.4440   1.4554
     1.4568   1.4605   1.4616   1.4737   1.4751   1.4766   1.4804   1.4888
     1.4899   1.4908   1.4951   1.4964   1.5105   1.5114   1.5157   1.5169
     1.5205   1.5224   1.5342   1.5392   1.5636   1.5675   1.5698   1.5729
     1.5770   1.5776   1.5917   1.5923   1.5937   1.5941   1.5983   1.5988
     1.6171   1.6178   1.6239   1.6301   1.6308   1.6402   1.6480   1.6505
     1.6559   1.6603   1.6606   1.6627   1.6628   1.6768   1.6825   1.6842
     1.6852   1.6860   1.6893   1.6981   1.6984   1.6998   1.7012   1.7101
     1.7249   1.7262   1.7289   1.7304   1.7367   1.7372   1.7500   1.7567
     1.7630   1.7833   1.7834   1.7892   1.7936   1.7951   1.8148   1.8152
     1.8217   1.8230   1.8284   1.8316   1.8391   1.8504   1.8627   1.8632
     1.8742   1.8797   1.8877   1.8907   1.8943   1.9001   1.9075   1.9077
     1.9140   1.9152   1.9156   1.9178   1.9214   1.9259   1.9329   1.9355
     1.9414   1.9438   1.9492   1.9497   1.9551   1.9567   1.9568   1.9574
     1.9660   1.9700   1.9785   1.9817   1.9824   1.9826   1.9997   2.0007
     2.0068   2.0091   2.0094   2.0105   2.0108   2.0165   2.0185   2.0290
     2.0366   2.0397   2.0402   2.0413   2.0450   2.0508   2.0514   2.0517
     2.0548   2.0550   2.0560   2.0581   2.0674   2.0693   2.0705   2.0774
     2.0938   2.0979   2.1053   2.1091   2.1104   2.1143   2.1182   2.1195
     2.1230   2.1234   2.1296   2.1303   2.1351   2.1391   2.1396   2.1440
     2.1448   2.1499   2.1502   2.1508   2.1511   2.1529   2.1566   2.1576
     2.1590   2.1704   2.1707   2.1779   2.1812   2.1878   2.1910   2.1940
     2.1978   2.2043   2.2046   2.2090   2.2114   2.2208   2.2236   2.2249
     2.2271   2.2282   2.2298   2.2425   2.2430   2.2445   2.2451   2.2458
     2.2469   2.2521   2.2573   2.2593   2.2621   2.2709   2.2723   2.2730
     2.2736   2.2745   2.2891   2.2950   2.2957   2.2989   2.3109   2.3113
     2.3185   2.3217   2.3222   2.3252   2.3342   2.3345   2.3349   2.3360
     2.3433   2.3440   2.3716   2.3839   2.3885   2.3890   2.3943   2.4006
     2.4046   2.4077   2.4305   2.4308   2.4489   2.4522   2.5650   2.5660
     2.6001   2.6017   2.7476   2.7487   3.0252   3.0310   3.0691   3.0696
     3.0795   3.0798   3.1057   3.1066   3.1224   3.1243   3.5409   3.5425
     3.5815   3.5822   3.8608   3.8628   3.8832   3.8889   3.9647   3.9696
     3.9960   3.9966   4.0865   4.0883   4.1595   4.1646   4.6025   4.6054
     4.6232   4.6236   4.7416   4.7516   4.7981   4.8083   4.8216   4.8250
     4.9148   4.9158   5.3041   5.3128   5.3761   5.3830   5.4554   5.4807
     5.4941   5.4989   5.5147   5.5467   5.6663   5.6735   5.6773   5.6820
     5.7049   5.7191   5.8216   5.8401   5.8452   5.8488   5.9076   5.9189
     5.9218   5.9354   6.0231   6.0302   6.0432   6.0805   6.1401   6.1573
     6.2095   6.2530   6.5164   6.5204   6.5520   6.5889   6.6717   6.6771
     6.7241   6.7301   6.7841   6.7978   6.8014   6.8289   6.8529   6.8803
     7.2916   7.2966   7.3755   7.3769   7.3957   7.4036   7.4265   7.4315
     7.8465   7.8728   7.8795   7.8863   8.0104   8.0140   8.0153   8.0205
     8.3109   8.3133   8.4002   8.4013   8.4116   8.4140   8.4291   8.4325
     8.5916   8.5943   8.6213   8.6216   8.6890   8.6911   8.7031   8.7088
     8.7105   8.7145   8.9878   8.9905   9.0548   9.0583   9.0663   9.0700
     9.1663   9.1666   9.2562   9.2710   9.4506   9.4569   9.5208   9.5228
     9.5701   9.5762   9.6456   9.6495   9.6746   9.6747   9.6860   9.6867
     9.8644   9.8678   9.9412   9.9463  10.0107  10.0120  10.1931  10.1942
    10.2762  10.2786  10.3255  10.3371  10.3408  10.3516  10.3773  10.3811
    10.3967  10.3975  10.4453  10.4466

          k =-0.5000-0.2165 0.0000 (256328 PWs)   bands (ev):

   -15.0636 -15.0608 -14.8517 -14.8500 -14.2141 -14.2119 -14.1763 -14.1752
   -12.7705 -12.7686 -12.7432 -12.7416 -11.2532 -11.2340 -11.0457 -11.0426
   -10.7471 -10.7456 -10.6469 -10.6457 -10.5649 -10.5417 -10.4430 -10.4159
    -8.8902  -8.8650  -8.7618  -8.7404  -7.8803  -7.8766  -7.8211  -7.8202
    -7.1606  -7.1527  -7.0240  -7.0100  -5.0234  -5.0212  -5.0138  -5.0113
    -4.4558  -4.4195  -4.3647  -4.3615  -4.3488  -4.3255  -4.3246  -4.3175
    -4.2471  -4.2413  -4.0588  -4.0569  -3.7411  -3.7335  -3.3793  -3.3753
    -3.3465  -3.3444  -3.3037  -3.3029  -3.2960  -3.2955  -3.2757  -3.2747
    -3.2662  -3.2635  -3.0551  -3.0466  -2.8396  -2.8383  -2.7364  -2.7356
    -2.7208  -2.7195  -2.6356  -2.6288  -2.5598  -2.5572  -2.5508  -2.5480
    -2.3043  -2.3022  -2.2210  -2.2156  -2.1423  -2.1373  -1.8640  -1.8627
    -1.7302  -1.7295  -1.7294  -1.7283  -1.4641  -1.4616  -1.4330  -1.4321
    -1.4282  -1.4264  -1.4125  -1.4114  -1.2482  -1.2471  -1.2347  -1.2341
    -1.1658  -1.1638  -1.0484  -1.0472  -1.0122  -1.0079  -0.9673  -0.9666
    -0.9589  -0.9578  -0.8898  -0.8890  -0.8701  -0.8690  -0.7478  -0.7477
    -0.7346  -0.7324  -0.6587  -0.6553  -0.6408  -0.6391  -0.6388  -0.6378
    -0.6013  -0.6010  -0.5977  -0.5976  -0.5881  -0.5850  -0.5837  -0.5833
    -0.5688  -0.5665  -0.5489  -0.5474  -0.5465  -0.5461  -0.5308  -0.5302
    -0.5261  -0.5252  -0.5155  -0.5148  -0.5146  -0.5141  -0.4713  -0.4698
    -0.4038  -0.4035  -0.3933  -0.3913  -0.3754  -0.3700  -0.3585  -0.3581
    -0.3461  -0.3454  -0.3234  -0.3230  -0.3130  -0.3126  -0.2974  -0.2968
    -0.2927  -0.2925  -0.2812  -0.2809  -0.2753  -0.2750  -0.2598  -0.2577
    -0.2329  -0.2315  -0.2292  -0.2271  -0.2098  -0.2091  -0.2066  -0.2060
    -0.1885  -0.1883  -0.1882  -0.1874  -0.1645  -0.1641  -0.1414  -0.1404
    -0.1361  -0.1326  -0.0934  -0.0907  -0.0847  -0.0830  -0.0547  -0.0536
    -0.0283  -0.0274  -0.0043  -0.0040   0.0163   0.0168   0.0259   0.0267
     0.0692   0.0695   0.0829   0.0834   0.0839   0.0841   0.0967   0.0971
     0.1043   0.1049   0.1323   0.1330   0.1423   0.1436   0.1518   0.1523
     0.1602   0.1609   0.1724   0.1729   0.2547   0.2571   0.2609   0.2611
     0.2680   0.2688   0.2938   0.2947   0.2963   0.3021   0.3053   0.3059
     0.3231   0.3394   0.3473   0.3476   0.3493   0.3495   0.3890   0.3909
     0.3955   0.3962   0.3985   0.3992   0.4011   0.4024   0.4351   0.4373
     0.4426   0.4465   0.4622   0.4657   0.4681   0.4695   0.5187   0.5198
     0.5410   0.5444   0.5647   0.5675   0.5710   0.5721   0.5737   0.5752
     0.5759   0.5764   0.5839   0.5850   0.5865   0.5892   0.5966   0.6074
     0.6092   0.6290   0.6535   0.6601   0.6607   0.6609   0.6628   0.6692
     0.6716   0.6744   0.7044   0.7075   0.7077   0.7111   0.7126   0.7128
     0.7135   0.7140   0.7163   0.7190   0.7266   0.7278   0.7365   0.7489
     0.7535   0.7685   0.7687   0.7779   0.7862   0.7894   0.7939   0.8020
     0.8167   0.8344   0.8350   0.8363   0.8523   0.8574   0.8629   0.8634
     0.8659   0.8670   0.8744   0.8778   0.8826   0.8891   0.8945   0.8946
     0.9048   0.9066   0.9192   0.9222   0.9229   0.9244   0.9248   0.9249
     0.9299   0.9385   0.9391   0.9412   0.9477   0.9517   0.9523   0.9533
     0.9645   0.9664   0.9693   0.9694   0.9697   0.9747   0.9755   0.9822
     0.9833   0.9926   1.0018   1.0354   1.0358   1.0367   1.0439   1.0472
     1.0491   1.0496   1.0531   1.0791   1.0821   1.0832   1.0846   1.0973
     1.0996   1.1026   1.1095   1.1104   1.1254   1.1394   1.1442   1.1543
     1.1577   1.1604   1.1766   1.1774   1.1883   1.1934   1.1963   1.1979
     1.2017   1.2028   1.2051   1.2198   1.2211   1.2228   1.2230   1.2374
     1.2381   1.2398   1.2407   1.2481   1.2526   1.2536   1.2544   1.2633
     1.2708   1.2736   1.2755   1.2789   1.2815   1.2820   1.2866   1.2952
     1.2995   1.3089   1.3123   1.3128   1.3209   1.3288   1.3337   1.3365
     1.3376   1.3415   1.3597   1.3677   1.3691   1.3748   1.3760   1.3868
     1.3937   1.3942   1.3964   1.4019   1.4046   1.4051   1.4072   1.4305
     1.4311   1.4314   1.4349   1.4381   1.4419   1.4511   1.4531   1.4551
     1.4562   1.4577   1.4598   1.4609   1.4632   1.4859   1.4911   1.4964
     1.4969   1.5025   1.5045   1.5049   1.5114   1.5124   1.5215   1.5277
     1.5381   1.5407   1.5442   1.5460   1.5525   1.5533   1.5554   1.5555
     1.5617   1.5685   1.5751   1.5761   1.5854   1.5911   1.5925   1.6002
     1.6038   1.6086   1.6104   1.6128   1.6167   1.6175   1.6178   1.6275
     1.6341   1.6407   1.6425   1.6457   1.6516   1.6598   1.6670   1.6838
     1.6866   1.6894   1.6927   1.6976   1.7104   1.7109   1.7251   1.7259
     1.7441   1.7450   1.7593   1.7671   1.7799   1.7819   1.7955   1.7962
     1.7996   1.8003   1.8054   1.8073   1.8332   1.8339   1.8356   1.8447
     1.8492   1.8495   1.8500   1.8514   1.8525   1.8528   1.8582   1.8618
     1.8620   1.8632   1.8660   1.8683   1.8692   1.8700   1.8750   1.8752
     1.8757   1.8761   1.8831   1.8925   1.9073   1.9118   1.9176   1.9180
     1.9227   1.9263   1.9287   1.9315   1.9372   1.9398   1.9407   1.9419
     1.9531   1.9536   1.9615   1.9650   1.9653   1.9656   1.9693   1.9715
     1.9725   1.9729   1.9792   1.9892   2.0059   2.0063   2.0077   2.0083
     2.0272   2.0303   2.0355   2.0379   2.0472   2.0478   2.0497   2.0509
     2.0523   2.0571   2.0640   2.0727   2.0835   2.0848   2.0881   2.0904
     2.0968   2.1082   2.1086   2.1093   2.1113   2.1176   2.1179   2.1191
[...]
     atom   67 type  1   force =     0.00002027    0.00018291   -0.00028768
     atom   68 type  1   force =    -0.00003468   -0.00034666   -0.00003115
     atom   69 type  1   force =    -0.00002798   -0.00020606    0.00061649
     atom   70 type  1   force =    -0.00014217   -0.00002510    0.00056760
     atom   71 type  1   force =     0.00001633   -0.00021032    0.00019267
     atom   72 type  1   force =     0.00014351    0.00016138    0.00028035
     atom   73 type  1   force =    -0.00001654    0.00055391    0.00005073
     atom   74 type  1   force =    -0.00012632    0.00004218   -0.00020744
     atom   75 type  1   force =     0.00001426    0.00046453   -0.00006692
     atom   76 type  1   force =     0.00011549   -0.00018376   -0.00024362
     atom   77 type  1   force =     0.00002947   -0.00016519    0.00052670
     atom   78 type  1   force =     0.00008139    0.00039460    0.00012925
     atom   79 type  1   force =    -0.00001836   -0.00002281    0.00075297
     atom   80 type  1   force =    -0.00007520    0.00039361   -0.00011551
     atom   81 type  1   force =    -0.00011369   -0.00023954    0.00042531
     atom   82 type  1   force =    -0.00015652   -0.00003173    0.00106330
     atom   83 type  1   force =     0.00011792    0.00037194    0.00041877
     atom   84 type  1   force =     0.00015143    0.00010530    0.00105173
     atom   85 type  1   force =    -0.00003444   -0.00008002   -0.00056174
     atom   86 type  1   force =    -0.00019572   -0.00055900   -0.00027786
     atom   87 type  1   force =     0.00003170   -0.00015800   -0.00148318
     atom   88 type  1   force =     0.00020179   -0.00024600   -0.00022609
     atom   89 type  1   force =    -0.00024325   -0.00066693    0.00065798
     atom   90 type  1   force =    -0.00010036    0.00043870    0.00023810
     atom   91 type  1   force =     0.00024668   -0.00027143    0.00010283
     atom   92 type  1   force =     0.00008768    0.00034569    0.00047870
     atom   93 type  1   force =     0.00000868    0.00061338    0.00007255
     atom   94 type  1   force =     0.00009506    0.00015126   -0.00098795
     atom   95 type  1   force =    -0.00002070   -0.00008105   -0.00081907
     atom   96 type  1   force =    -0.00009480    0.00005572   -0.00137288
     atom   97 type  1   force =     0.00002756    0.00017566    0.00101299
     atom   98 type  1   force =     0.00025073    0.00013067    0.00056438
     atom   99 type  1   force =    -0.00001611   -0.00007408    0.00122809
     atom  100 type  1   force =    -0.00023478   -0.00009955    0.00035697
     atom  101 type  1   force =     0.00050641    0.00133686   -0.00010263
     atom  102 type  1   force =    -0.00053568    0.00138540   -0.00017182
     atom  103 type  1   force =     0.00013872    0.00051931   -0.00014655
     atom  104 type  1   force =     0.00007018   -0.00057889   -0.00085311
     atom  105 type  1   force =    -0.00014487    0.00016895   -0.00033701
     atom  106 type  1   force =    -0.00006082   -0.00028267    0.00001929
     atom  107 type  1   force =    -0.00006378   -0.00130242    0.00063636
     atom  108 type  1   force =     0.00006635   -0.00127731   -0.00069665
     atom  109 type  2   force =    -0.00000759   -0.00019990   -0.00231440
     atom  110 type  2   force =    -0.00004368    0.00021126   -0.00235014
     atom  111 type  2   force =     0.00027282    0.00056838   -0.00133130
     atom  112 type  2   force =     0.00009742    0.00002495   -0.00085373
     atom  113 type  2   force =    -0.00029165    0.00017084   -0.00196364
     atom  114 type  2   force =    -0.00011727   -0.00019283   -0.00103810
     atom  115 type  2   force =     0.00004872    0.00004689   -0.00184313
     atom  116 type  2   force =     0.00004449    0.00077407   -0.00111637
     atom  117 type  2   force =     0.00025029    0.00018220   -0.00195703
     atom  118 type  2   force =     0.00005917   -0.00020026   -0.00098394
     atom  119 type  2   force =    -0.00019303    0.00055999   -0.00127188
     atom  120 type  2   force =     0.00001977   -0.00000039   -0.00078967
     atom  121 type  2   force =     0.00005075   -0.00022917   -0.00093245
     atom  122 type  2   force =    -0.00004734    0.00023788    0.00185240
     atom  123 type  2   force =    -0.00016368    0.00033493   -0.00126823
     atom  124 type  2   force =     0.00089807   -0.00054524    0.00005881
     atom  125 type  2   force =     0.00018030    0.00027967   -0.00003409
     atom  126 type  2   force =    -0.00089884    0.00010123    0.00060331
     atom  127 type  2   force =    -0.00004719   -0.00035519   -0.00037727
     atom  128 type  2   force =     0.00002663    0.00007242    0.00111494
     atom  129 type  2   force =    -0.00007544    0.00024983   -0.00000915
     atom  130 type  2   force =     0.00080593    0.00011093    0.00050625
     atom  131 type  2   force =     0.00006190    0.00035804   -0.00127010
     atom  132 type  2   force =    -0.00081407   -0.00052953   -0.00006837
     atom  133 type  2   force =     0.00004733    0.00004374    0.00107970
     atom  134 type  2   force =    -0.00002518   -0.00051101    0.00004334
     atom  135 type  2   force =    -0.00080232    0.00040342    0.00105971
     atom  136 type  2   force =     0.00028870    0.00005468   -0.00030590
     atom  137 type  2   force =     0.00075365   -0.00045398    0.00099408
     atom  138 type  2   force =    -0.00025863    0.00029179   -0.00086464
     atom  139 type  2   force =    -0.00004621    0.00062031   -0.00061405
     atom  140 type  2   force =     0.00005087   -0.00089182   -0.00199170
     atom  141 type  2   force =    -0.00067863   -0.00045157    0.00098951
     atom  142 type  2   force =     0.00015095    0.00030250   -0.00080971
     atom  143 type  2   force =     0.00068729    0.00039929    0.00109904
     atom  144 type  2   force =    -0.00024330    0.00006125   -0.00029662
     atom  145 type  2   force =    -0.00003354    0.00052526   -0.00107507
     atom  146 type  2   force =     0.00010225   -0.00042500   -0.00160671
     atom  147 type  2   force =     0.00020902   -0.00053003   -0.00094550
     atom  148 type  2   force =    -0.00038752   -0.00024269   -0.00172699
     atom  149 type  2   force =    -0.00011026   -0.00012560   -0.00225902
     atom  150 type  2   force =     0.00038830   -0.00001374   -0.00258416
     atom  151 type  2   force =     0.00000667    0.00038811   -0.00113374
     atom  152 type  2   force =    -0.00008978   -0.00025257   -0.00108812
     atom  153 type  2   force =     0.00006337   -0.00014812   -0.00220540
     atom  154 type  2   force =    -0.00019268    0.00000738   -0.00256513
     atom  155 type  2   force =    -0.00017080   -0.00052618   -0.00094101
     atom  156 type  2   force =     0.00020168   -0.00023967   -0.00168058

     Total force =     0.012585     Total SCF correction =     0.000224

     number of scf cycles    =   4
     number of bfgs steps    =   3

     energy   old            =  -13670.9627610787 Ry
     energy   new            =  -13670.9630940778 Ry

     CASE: energy  _new < energy  _old

     new trust radius        =       0.0118594186 bohr
     new conv_thr            =       0.0000000100 Ry


ATOMIC_POSITIONS (angstrom)
Cu      -0.000488626   0.027756153   6.507151987
Cu       1.843807128   1.744020656   6.534410707
Cu       3.688998253   0.028667734   6.505414891
Cu       5.533735524   1.744346649   6.534248014
Cu      -0.000191691   3.453160146   6.573854608
Cu       1.844240361   5.151724953   6.602104745
Cu       3.688670876   3.452969639   6.573436097
Cu       5.533246535   5.151921828   6.602075208
Cu      -0.000156564   6.843066709   6.611578319
Cu       1.844248556   8.532051012   6.612498906
Cu       3.688580389   6.842852710   6.611283720
Cu       5.533196639   8.531849524   6.612168166
Cu      -0.000411088  10.224700992   6.603863216
Cu       1.843978797  11.925335332   6.573974416
Cu       3.688820905  10.224976865   6.602922990
Cu       5.533488771  11.925109498   6.573560372
Cu      -0.000270763  13.634805195   6.532766767
Cu       1.844707962  15.349741053   6.505616256
Cu       3.688728895  13.633888010   6.534178262
Cu       5.532820139  15.349686999   6.505849569
Cu      -0.000117348   1.712944474   8.365857106
Cu       1.843840209   0.015210138   8.344113521
Cu       3.688583864   1.712190424   8.364638509
Cu       5.533649534   0.015568104   8.344354033
Cu      -0.000536249   5.133474270   8.439822190
Cu       1.844456953   3.420320367   8.402641987
Cu       3.689004329   5.133303346   8.439955207
Cu       5.533052194   3.420131409   8.402754572
Cu      -0.000621877   8.536313615   8.461518470
Cu       1.844303180   6.838132075   8.462068922
Cu       3.689065472   8.536785401   8.461037926
Cu       5.533180113   6.838290252   8.462433943
Cu      -0.000333063  11.959419647   8.401181586
Cu       1.844118613  10.243550349   8.437660503
Cu       3.688749451  11.957431472   8.401657728
Cu       5.533346845  10.243470073   8.438424990
Cu      -0.000563451  15.361503096   8.344504462
Cu       1.844539416  13.666308060   8.365118402
Cu       3.688996005  15.363389499   8.343994245
Cu       5.532908141  13.665811569   8.364620499
Cu      -0.000615489   0.010188180  10.211471557
Cu       1.843657354   1.693376556  10.221365240
Cu       3.688997857   0.011328502  10.211030198
Cu       5.533806408   1.693494821  10.221324940
Cu      -0.000103157   3.389841251  10.240853257
Cu       1.844703007   5.102641953  10.275701390
Cu       3.688580275   3.387733814  10.240623150
Cu       5.532827380   5.102403196  10.276497207
Cu      -0.000823795   6.826323967  10.312246559
Cu       1.844191648   8.551556401  10.309027070
Cu       3.689341695   6.826742689  10.311439438
Cu       5.533369054   8.551166588  10.311288110
Cu      -0.000673757  10.275656948  10.271551762
Cu       1.844323927  11.988086269  10.238092891
Cu       3.689176953  10.274101036  10.273541545
Cu       5.533144070  11.989502756  10.238470453
Cu      -0.000146591  13.684121721  10.222019131
Cu       1.844120935  15.367726736  10.211057600
Cu       3.688522437  13.684512871  10.219588515
Cu       5.533268228  15.366747833  10.211734395
Cu      -0.000132496   1.686372326  12.090800153
Cu       1.844466655   0.006075020  12.083303811
Cu       3.688530779   1.684114880  12.090452268
Cu       5.532888884   0.006170718  12.083769807
Cu      -0.000057724   5.055000652  12.111534559
Cu       1.843425679   3.366684280  12.094753702
Cu       3.688531565   5.053246964  12.110164386
Cu       5.534047508   3.365464034  12.094188928
Cu      -0.000178916   8.587492060  12.127191377
Cu       1.844675188   6.797639507  12.126391692
Cu       3.688774560   8.582875578  12.127849717
Cu       5.532844843   6.795933679  12.129793420
Cu       0.000116274  12.009373580  12.092614249
Cu       1.844207928  10.324075375  12.108200063
Cu       3.688385119  12.013691273  12.090070583
Cu       5.533414704  10.326600211  12.108373700
Cu      -0.000663950  15.371906740  12.084830592
Cu       1.842968762  13.691524166  12.087695163
Cu       3.688954973  15.370514056  12.081299117
Cu       5.534435979  13.691226950  12.090536807
Cu       0.000866041   0.005351149  13.964761982
Cu       1.846095608   1.660525103  13.965562382
Cu       3.687437956  -0.004022230  13.964371610
Cu       5.531281263   1.659615855  13.966140750
Cu       0.000417155   3.296313690  14.000528944
Cu       1.840594639   4.967002415  13.995947228
Cu       3.688000360   3.294228520  13.990700212
Cu       5.536740444   4.963451293  13.994722061
Cu       0.002231887   6.781632375  13.879483261
Cu       1.843653360   8.607517153  13.881744311
Cu       3.686112825   6.771725840  13.880252584
Cu       5.534006578   8.609050079  13.879389793
Cu      -0.000416692  10.422803984  14.005868270
Cu       1.847023661  12.084197047  13.993081576
Cu       3.689110772  10.414312809  13.985118901
Cu       5.530491970  12.084846983  13.997202644
Cu      -0.000578286  13.713230346  13.965123943
Cu       1.839600941  15.374345969  13.962423158
Cu       3.688942842  13.720423182  13.963450062
Cu       5.537741276  15.376680832  13.965077082
Cu       1.872241156  10.282234296  15.702879140
Cu       5.505544560  10.282747111  15.704296304
Cu      -0.002317599   8.548352615  15.603013750
Cu       1.846315717   6.849887327  15.612569746
Cu       3.690826516   8.529597309  15.603654942
Cu       5.531063838   6.846638236  15.602241838
Cu      -0.000065409   5.120412500  15.708146523
Cu       3.688357992   5.088853136  15.690307433
C        0.000616383   0.661641418  17.989397081
C        0.000645519   2.081258920  18.030929533
C        1.230362046  -0.049034165  17.977095637
C        1.231078620   2.789893397  18.059056863
C        2.460105940   0.660493969  17.984932952
C        2.460522305   2.080250688  18.019170995
C        3.689647773  -0.049644799  17.975469055
C        3.689677766   2.787215161  18.042754965
C        4.919218118   0.660480330  17.984539351
C        4.918856221   2.080254467  18.018732189
C        6.148933946  -0.049032816  17.976496324
C        6.148216288   2.789931690  18.058701466
C        0.000638563   4.922479411  18.185321074
C        0.000613374   6.342659143  18.338141701
C        1.233511613   4.206095980  18.155231982
C        1.229146300   7.050584878  18.388164781
C        2.457625882   4.918940337  18.218914711
C        2.460172604   6.338232823  18.345256934
C        3.689743298   4.210654563  18.127024468
C        3.689815905   7.046066313  18.391997957
C        4.921773926   4.919046264  18.219277291
C        4.919369861   6.338160005  18.346816100
C        6.145878824   4.206102006  18.155429578
C        6.150278713   7.050455422  18.389863615
C        0.000678600   9.183721189  18.341314385
C        0.000700670  10.603313734  18.223455185
C        1.230996294   8.472607120  18.391456126
C        1.226891283  11.312219884  18.134501799
C        2.458975564   9.178882994  18.333703539
C        2.460799177  10.598483443  18.183108275
C        3.689773381   8.468094029  18.375390915
C        3.689703915  11.313781393  18.142728634
C        4.920528115   9.178801105  18.333669454
C        4.918727779  10.598401138  18.182476530
C        6.148528074   8.472445954  18.391585211
C        6.152560855  11.312206670  18.134098229
C        0.000668921  13.441015779  18.018781171
C        0.000600962  14.860870804  17.985321018
C        1.229589293  12.732483786  18.048229538
C        1.230569469  15.570025734  17.977885077
C        2.459514010  13.439288564  18.026047217
C        2.459942619  14.859055910  17.990225238
C        3.689714045  12.728398501  18.055562744
C        3.689695610  15.569088725  17.977178404
C        4.919889577  13.439290696  18.025505430
C        4.919326771  14.859039438  17.989791055
C        6.149825914  12.732478878  18.047814943
C        6.148825815  15.570012838  17.977324298



     Writing output data file gc.save
     Check: negative starting charge=   -0.001500
     NEW-OLD atomic charge density approx. for the potential
     Check: negative starting charge=   -0.001499

     negative rho (up, down):  1.517E-03 0.000E+00

     total cpu time spent up to now is    44944.2 secs

     Self-consistent Calculation

     iteration #  1     ecut=    80.00 Ry     beta=0.70
     Davidson diagonalization with overlap
     ethr =  1.00E-06,  avg # of iterations =  3.5

     negative rho (up, down):  1.258E-03 0.000E+00

     total cpu time spent up to now is    45851.6 secs

     total energy              =  -13670.96334717 Ry
     Harris-Foulkes estimate   =  -13670.96400088 Ry
     estimated scf accuracy    <       0.00778539 Ry

     iteration #  2     ecut=    80.00 Ry     beta=0.70
     Davidson diagonalization with overlap
     ethr =  5.64E-07,  avg # of iterations =  1.2

     negative rho (up, down):  1.157E-03 0.000E+00

     total cpu time spent up to now is    46247.3 secs

     total energy              =  -13670.96338535 Ry
     Harris-Foulkes estimate   =  -13670.96373276 Ry
     estimated scf accuracy    <       0.00150344 Ry

     iteration #  3     ecut=    80.00 Ry     beta=0.70
     Davidson diagonalization with overlap
     ethr =  1.09E-07,  avg # of iterations =  2.3

     negative rho (up, down):  1.043E-03 0.000E+00

     total cpu time spent up to now is    46682.4 secs

     total energy              =  -13670.96346285 Ry
     Harris-Foulkes estimate   =  -13670.96365151 Ry
     estimated scf accuracy    <       0.00226213 Ry

     iteration #  4     ecut=    80.00 Ry     beta=0.70
     Davidson diagonalization with overlap
     ethr =  1.09E-07,  avg # of iterations =  2.0

     negative rho (up, down):  1.059E-03 0.000E+00

     total cpu time spent up to now is    47085.0 secs

     total energy              =  -13670.96354880 Ry
     Harris-Foulkes estimate   =  -13670.96355637 Ry
     estimated scf accuracy    <       0.00011881 Ry

     iteration #  5     ecut=    80.00 Ry     beta=0.70
     Davidson diagonalization with overlap
     ethr =  8.61E-09,  avg # of iterations =  3.0

     negative rho (up, down):  1.130E-03 0.000E+00

     total cpu time spent up to now is    47517.1 secs

     total energy              =  -13670.96354793 Ry
     Harris-Foulkes estimate   =  -13670.96355482 Ry
     estimated scf accuracy    <       0.00006646 Ry

     iteration #  6     ecut=    80.00 Ry     beta=0.70
     Davidson diagonalization with overlap
     ethr =  4.82E-09,  avg # of iterations =  2.0

     negative rho (up, down):  1.211E-03 0.000E+00

     total cpu time spent up to now is    47921.8 secs

     total energy              =  -13670.96355093 Ry
     Harris-Foulkes estimate   =  -13670.96355165 Ry
     estimated scf accuracy    <       0.00000976 Ry

     iteration #  7     ecut=    80.00 Ry     beta=0.70
     Davidson diagonalization with overlap
     ethr =  7.07E-10,  avg # of iterations =  2.3

     negative rho (up, down):  1.315E-03 0.000E+00

     total cpu time spent up to now is    48351.2 secs

     total energy              =  -13670.96355153 Ry
     Harris-Foulkes estimate   =  -13670.96355184 Ry
     estimated scf accuracy    <       0.00000293 Ry

     iteration #  8     ecut=    80.00 Ry     beta=0.70
     Davidson diagonalization with overlap
     ethr =  2.12E-10,  avg # of iterations =  2.2

     negative rho (up, down):  1.409E-03 0.000E+00

     total cpu time spent up to now is    48790.8 secs

     total energy              =  -13670.96355153 Ry
     Harris-Foulkes estimate   =  -13670.96355190 Ry
     estimated scf accuracy    <       0.00000135 Ry

     iteration #  9     ecut=    80.00 Ry     beta=0.70
     Davidson diagonalization with overlap
     ethr =  9.76E-11,  avg # of iterations =  2.2

     negative rho (up, down):  1.451E-03 0.000E+00

     total cpu time spent up to now is    49208.4 secs

     total energy              =  -13670.96355150 Ry
     Harris-Foulkes estimate   =  -13670.96355164 Ry
     estimated scf accuracy    <       0.00000040 Ry

     iteration # 10     ecut=    80.00 Ry     beta=0.70
     Davidson diagonalization with overlap
     ethr =  2.87E-11,  avg # of iterations =  2.0

     negative rho (up, down):  1.466E-03 0.000E+00

     total cpu time spent up to now is    49611.7 secs

     total energy              =  -13670.96355151 Ry
     Harris-Foulkes estimate   =  -13670.96355154 Ry
     estimated scf accuracy    <       0.00000007 Ry

     iteration # 11     ecut=    80.00 Ry     beta=0.70
     Davidson diagonalization with overlap
     ethr =  5.41E-12,  avg # of iterations =  3.0

     negative rho (up, down):  1.485E-03 0.000E+00

     total cpu time spent up to now is    50177.8 secs

     total energy              =  -13670.96355146 Ry
     Harris-Foulkes estimate   =  -13670.96355152 Ry
     estimated scf accuracy    <       0.00000003 Ry

     iteration # 12     ecut=    80.00 Ry     beta=0.70
     Davidson diagonalization with overlap
