
     Program PWSCF v.5.4.0 starts on  7Apr2017 at 18: 6:54 

     This program is part of the open-source Quantum ESPRESSO suite
     for quantum simulation of materials; please cite
         "P. Giannozzi et al., J. Phys.:Condens. Matter 21 395502 (2009);
          URL http://www.quantum-espresso.org", 
     in publications or presentations arising from this work. More details at
     http://www.quantum-espresso.org/quote

     Parallel version (MPI & OpenMP), running on      56 processor cores
     Number of MPI processes:                56
     Threads/MPI process:                     1
     R & G space division:  proc/nbgrp/npool/nimage =      56
     Waiting for input...
     Reading input from standard input

     Current dimensions of program PWSCF are:
     Max number of different atomic species (ntypx) = 10
     Max number of k-points (npk) =  40000
     Max angular momentum in pseudopotentials (lmaxx) =  3

     -------------------------------------
     Parameters for Dispersion Correction:
     -------------------------------------
       atom      VdW radius       C_6     

        Cu         2.952        374.666
        C          2.744         60.710

     Subspace diagonalization in iterative solution of the eigenvalue problem:
     one sub-group per band group will be used
     scalapack distributed-memory algorithm (size of sub-group:  5*  5 procs)

 
     Parallelization info
     --------------------
     sticks:   dense  smooth     PW     G-vecs:    dense   smooth      PW
     Min         204     204     54                36612    36612    4962
     Max         205     205     55                36617    36617    4968
     Sum       11433   11433   3039              2050409  2050409  278033
 


     bravais-lattice index     =            0
     lattice parameter (alat)  =      13.9425  a.u.
     unit-cell volume          =   21209.0878 (a.u.)^3
     number of atoms/cell      =          156
     number of atomic types    =            2
     number of electrons       =      1380.00
     number of Kohn-Sham states=          828
     kinetic-energy cutoff     =      80.0000  Ry
     charge density cutoff     =     320.0000  Ry
     convergence threshold     =      1.0E-08
     mixing beta               =       0.7000
     number of iterations used =            8  local-TF  mixing
     Exchange-correlation      =  SLA  PW   PBX  PBC ( 1  4  3  4 0 0)
     nstep                     =           50


     celldm(1)=  13.942539  celldm(2)=   0.000000  celldm(3)=   0.000000
     celldm(4)=   0.000000  celldm(5)=   0.000000  celldm(6)=   0.000000

     crystal axes: (cart. coord. in units of alat)
               a(1) = (   1.000000   0.000000   0.000000 )  
               a(2) = (   0.000000   2.309401   0.000000 )  
               a(3) = (   0.000000   0.000000   3.388418 )  

     reciprocal axes: (cart. coord. in units 2 pi/alat)
               b(1) = (  1.000000  0.000000  0.000000 )  
               b(2) = (  0.000000  0.433013  0.000000 )  
               b(3) = (  0.000000  0.000000  0.295123 )  


     PseudoPot. # 1 for Cu read from file:
     /home/549/hxw549/Short/pseudopotentials/Cu.pbe-n-van_ak.UPF
     MD5 check sum: 601f7c30f7467666bec936e0661ce3e1
     Pseudo is Ultrasoft + core correction, Zval = 11.0
     Generated by new atomic code, or converted to UPF format
     Using radial grid of  867 points,  6 beta functions with: 
                l(1) =   0
                l(2) =   0
                l(3) =   1
                l(4) =   1
                l(5) =   2
                l(6) =   2
     Q(r) pseudized with  8 coefficients,  rinner =    1.400   1.400   1.400
                                                       1.400   1.400

     PseudoPot. # 2 for C  read from file:
     /home/549/hxw549/Short/pseudopotentials/C.pbe-mt_gipaw.UPF
     MD5 check sum: 5ac2f21f2c440b14befe521540822c15
     Pseudo is Norm-conserving, Zval =  4.0
     Generated by new atomic code, or converted to UPF format
     Using radial grid of 1073 points,  1 beta functions with: 
                l(1) =   0

     atomic species   valence    mass     pseudopotential
        Cu            11.00    63.54600     Cu( 1.00)
        C              4.00    12.01070     C ( 1.00)

     No symmetry found



   Cartesian axes

     site n.     atom                  positions (alat units)
         1           Cu  tau(   1) = (  -0.0001004   0.0041562   0.8725645  )
         2           Cu  tau(   2) = (   0.2498055   0.2364532   0.8773109  )
         3           Cu  tau(   3) = (   0.5000328   0.0041084   0.8721466  )
         4           Cu  tau(   4) = (   0.7501252   0.2365442   0.8772581  )
         5           Cu  tau(   5) = (   0.0000354   0.4674761   0.8840460  )
         6           Cu  tau(   6) = (   0.2500378   0.6979998   0.8884100  )
         7           Cu  tau(   7) = (   0.4998935   0.4675552   0.8841093  )
         8           Cu  tau(   8) = (   0.7498886   0.6981958   0.8883418  )
         9           Cu  tau(   9) = (  -0.0000059   0.9277711   0.8888730  )
        10           Cu  tau(  10) = (   0.2498982   1.1566323   0.8893384  )
        11           Cu  tau(  11) = (   0.4999300   0.9277147   0.8888848  )
        12           Cu  tau(  12) = (   0.7500255   1.1565822   0.8891790  )
        13           Cu  tau(  13) = (  -0.0000669   1.3862985   0.8891567  )
        14           Cu  tau(  14) = (   0.2499578   1.6174557   0.8847767  )
        15           Cu  tau(  15) = (   0.4999888   1.3865547   0.8889993  )
        16           Cu  tau(  16) = (   0.7499656   1.6174342   0.8845654  )
        17           Cu  tau(  17) = (  -0.0000565   1.8486749   0.8774195  )
        18           Cu  tau(  18) = (   0.2500571   2.0808259   0.8722905  )
        19           Cu  tau(  19) = (   0.4999846   1.8486242   0.8776985  )
        20           Cu  tau(  20) = (   0.7498727   2.0808124   0.8725696  )
        21           Cu  tau(  21) = (   0.0000136   0.2325968   1.1271447  )
        22           Cu  tau(  22) = (   0.2499467   0.0024867   1.1241320  )
        23           Cu  tau(  23) = (   0.4999138   0.2326588   1.1268479  )
        24           Cu  tau(  24) = (   0.7499806   0.0025484   1.1241142  )
        25           Cu  tau(  25) = (  -0.0001226   0.6959509   1.1371316  )
        26           Cu  tau(  26) = (   0.2499895   0.4639031   1.1321584  )
        27           Cu  tau(  27) = (   0.5000402   0.6961292   1.1372976  )
        28           Cu  tau(  28) = (   0.7499339   0.4636690   1.1322731  )
        29           Cu  tau(  29) = (  -0.0001568   1.1569773   1.1404828  )
        30           Cu  tau(  30) = (   0.2499721   0.9269903   1.1403412  )
        31           Cu  tau(  31) = (   0.5000756   1.1570518   1.1400949  )
        32           Cu  tau(  32) = (   0.7499444   0.9268768   1.1403982  )
        33           Cu  tau(  33) = (   0.0000025   1.6215960   1.1321306  )
        34           Cu  tau(  34) = (   0.2499335   1.3886061   1.1369264  )
        35           Cu  tau(  35) = (   0.4999128   1.6212835   1.1323050  )
        36           Cu  tau(  36) = (   0.7499870   1.3884890   1.1371306  )
        37           Cu  tau(  37) = (  -0.0001876   2.0820840   1.1243489  )
        38           Cu  tau(  38) = (   0.2500571   1.8525602   1.1273723  )
        39           Cu  tau(  39) = (   0.5001139   2.0824743   1.1245207  )
        40           Cu  tau(  40) = (   0.7498608   1.8524099   1.1271967  )
        41           Cu  tau(  41) = (  -0.0000802   0.0019165   1.3772831  )
        42           Cu  tau(  42) = (   0.2498660   0.2305708   1.3793994  )
        43           Cu  tau(  43) = (   0.4999959   0.0022331   1.3772562  )
        44           Cu  tau(  44) = (   0.7500547   0.2306103   1.3793434  )
        45           Cu  tau(  45) = (  -0.0000249   0.4603934   1.3813189  )
        46           Cu  tau(  46) = (   0.2503007   0.6917624   1.3854142  )
        47           Cu  tau(  47) = (   0.4999387   0.4602065   1.3815046  )
        48           Cu  tau(  48) = (   0.7496272   0.6918173   1.3855779  )
        49           Cu  tau(  49) = (  -0.0002518   0.9250766   1.3912899  )
        50           Cu  tau(  50) = (   0.2499172   1.1594115   1.3906334  )
        51           Cu  tau(  51) = (   0.5001974   0.9249989   1.3916171  )
        52           Cu  tau(  52) = (   0.7500214   1.1593457   1.3913019  )
        53           Cu  tau(  53) = (  -0.0001236   1.3927409   1.3847605  )
        54           Cu  tau(  54) = (   0.2501611   1.6241954   1.3811337  )
        55           Cu  tau(  55) = (   0.5000561   1.3925016   1.3851158  )
        56           Cu  tau(  56) = (   0.7497671   1.6245796   1.3810004  )
        57           Cu  tau(  57) = (  -0.0000271   1.8546231   1.3794068  )
        58           Cu  tau(  58) = (   0.2499744   2.0829815   1.3773632  )
        59           Cu  tau(  59) = (   0.4999391   1.8544191   1.3790109  )
        60           Cu  tau(  60) = (   0.7499292   2.0828410   1.3774508  )
        61           Cu  tau(  61) = (   0.0000793   0.2298036   1.6318632  )
        62           Cu  tau(  62) = (   0.2500785   0.0006908   1.6304942  )
        63           Cu  tau(  63) = (   0.4998167   0.2296115   1.6327039  )
        64           Cu  tau(  64) = (   0.7498322   0.0007319   1.6303806  )
        65           Cu  tau(  65) = (   0.0000137   0.6853888   1.6367002  )
        66           Cu  tau(  66) = (   0.2500794   0.4572124   1.6334170  )
        67           Cu  tau(  67) = (   0.4999442   0.6847060   1.6374775  )
        68           Cu  tau(  68) = (   0.7498397   0.4570388   1.6333518  )
        69           Cu  tau(  69) = (  -0.0000622   1.1640642   1.6374274  )
        70           Cu  tau(  70) = (   0.2503274   0.9212471   1.6368729  )
        71           Cu  tau(  71) = (   0.4999915   1.1636744   1.6376816  )
        72           Cu  tau(  72) = (   0.7496361   0.9209180   1.6378330  )
        73           Cu  tau(  73) = (   0.0000683   1.6272984   1.6323077  )
        74           Cu  tau(  74) = (   0.2501202   1.3994914   1.6366278  )
        75           Cu  tau(  75) = (   0.4998734   1.6273635   1.6327821  )
        76           Cu  tau(  76) = (   0.7498416   1.3998889   1.6366872  )
        77           Cu  tau(  77) = (   0.0000143   2.0846068   1.6306384  )
        78           Cu  tau(  78) = (   0.2495858   1.8551177   1.6317027  )
        79           Cu  tau(  79) = (   0.4998836   2.0837549   1.6301009  )
        80           Cu  tau(  80) = (   0.7503368   1.8550263   1.6323924  )
        81           Cu  tau(  81) = (   0.0003870   0.0008571   1.8848060  )
        82           Cu  tau(  82) = (   0.2503038   0.2248503   1.8841765  )
        83           Cu  tau(  83) = (   0.4995080  -0.0007979   1.8849554  )
        84           Cu  tau(  84) = (   0.7496084   0.2245713   1.8843658  )
        85           Cu  tau(  85) = (   0.0001422   0.4471450   1.8940509  )
        86           Cu  tau(  86) = (   0.2491022   0.6746423   1.8920036  )
        87           Cu  tau(  87) = (   0.4998142   0.4463199   1.8934030  )
        88           Cu  tau(  88) = (   0.7508087   0.6735604   1.8915954  )
        89           Cu  tau(  89) = (   0.0006736   0.9200593   1.8748817  )
        90           Cu  tau(  90) = (   0.2505448   1.1650517   1.8752563  )
        91           Cu  tau(  91) = (   0.4991604   0.9198173   1.8752194  )
        92           Cu  tau(  92) = (   0.7494247   1.1654299   1.8743481  )
        93           Cu  tau(  93) = (  -0.0000703   1.4118094   1.8914624  )
        94           Cu  tau(  94) = (   0.2499666   1.6381199   1.8929459  )
        95           Cu  tau(  95) = (   0.5000815   1.4117891   1.8916250  )
        96           Cu  tau(  96) = (   0.7499751   1.6383430   1.8940096  )
        97           Cu  tau(  97) = (  -0.0001379   1.8594420   1.8838351  )
        98           Cu  tau(  98) = (   0.2489991   2.0840917   1.8841251  )
        99           Cu  tau(  99) = (   0.5000158   1.8602113   1.8833613  )
       100           Cu  tau( 100) = (   0.7509038   2.0845041   1.8848684  )
       101           Cu  tau( 101) = (   0.2519564   1.3900696   2.1223700  )
       102           Cu  tau( 102) = (   0.7479676   1.3900466   2.1226652  )
       103           Cu  tau( 103) = (  -0.0005849   1.1579808   2.1109315  )
       104           Cu  tau( 104) = (   0.2498610   0.9293983   2.1143111  )
       105           Cu  tau( 105) = (   0.5005356   1.1561497   2.1122629  )
       106           Cu  tau( 106) = (   0.7500531   0.9286926   2.1108579  )
       107           Cu  tau( 107) = (   0.0000503   0.6962967   2.1238385  )
       108           Cu  tau( 108) = (   0.4998641   0.6947549   2.1212551  )
       109           C   tau( 109) = (   0.0000578   0.0890013   2.4707395  )
       110           C   tau( 110) = (   0.0000621   0.2815956   2.4690958  )
       111           C   tau( 111) = (   0.1667591  -0.0071975   2.4710556  )
       112           C   tau( 112) = (   0.1667743   0.3775962   2.4673646  )
       113           C   tau( 113) = (   0.3333707   0.0892486   2.4705498  )
       114           C   tau( 114) = (   0.3334526   0.2816404   2.4673052  )
       115           C   tau( 115) = (   0.5000571  -0.0070090   2.4705706  )
       116           C   tau( 116) = (   0.5000768   0.3776104   2.4658663  )
       117           C   tau( 117) = (   0.6667408   0.0892473   2.4703154  )
       118           C   tau( 118) = (   0.6666810   0.2816415   2.4671589  )
       119           C   tau( 119) = (   0.8333555  -0.0071976   2.4708604  )
       120           C   tau( 120) = (   0.8333746   0.3776024   2.4673161  )
       121           C   tau( 121) = (   0.0000784   0.6664457   2.4685292  )
       122           C   tau( 122) = (   0.0000657   0.8591709   2.4788139  )
       123           C   tau( 123) = (   0.1671176   0.5699458   2.4692549  )
       124           C   tau( 124) = (   0.1666731   0.9551040   2.4821718  )
       125           C   tau( 125) = (   0.3331985   0.6663988   2.4731626  )
       126           C   tau( 126) = (   0.3335583   0.8589689   2.4800994  )
       127           C   tau( 127) = (   0.5000895   0.5703218   2.4677785  )
       128           C   tau( 128) = (   0.5001284   0.9549585   2.4838567  )
       129           C   tau( 129) = (   0.6669814   0.6664314   2.4732320  )
       130           C   tau( 130) = (   0.6666692   0.8589782   2.4804520  )
       131           C   tau( 131) = (   0.8330405   0.5699560   2.4693367  )
       132           C   tau( 132) = (   0.8335060   0.9550890   2.4825561  )
       133           C   tau( 133) = (   0.0001031   1.2434966   2.4798396  )
       134           C   tau( 134) = (   0.0000985   1.4359064   2.4743946  )
       135           C   tau( 135) = (   0.1668901   1.1473123   2.4831091  )
       136           C   tau( 136) = (   0.1664003   1.5324357   2.4693982  )
       137           C   tau( 137) = (   0.3332963   1.2434044   2.4796668  )
       138           C   tau( 138) = (   0.3335712   1.4360162   2.4710942  )
       139           C   tau( 139) = (   0.5001127   1.1471962   2.4821011  )
       140           C   tau( 140) = (   0.5001033   1.5328133   2.4703658  )
       141           C   tau( 141) = (   0.6669214   1.2433939   2.4796877  )
       142           C   tau( 142) = (   0.6666326   1.4360183   2.4708824  )
       143           C   tau( 143) = (   0.8333176   1.1472834   2.4831595  )
       144           C   tau( 144) = (   0.8338141   1.5324421   2.4691923  )
       145           C   tau( 145) = (   0.0000871   1.8209176   2.4688645  )
       146           C   tau( 146) = (   0.0000750   2.0133183   2.4713686  )
       147           C   tau( 147) = (   0.1667145   1.7249157   2.4691223  )
       148           C   tau( 148) = (   0.1667180   2.1096402   2.4722211  )
       149           C   tau( 149) = (   0.3333426   1.8209758   2.4717795  )
       150           C   tau( 150) = (   0.3334050   2.0135257   2.4733463  )
       151           C   tau( 151) = (   0.5000894   1.7249849   2.4698446  )
       152           C   tau( 152) = (   0.5000598   2.1097988   2.4713501  )
       153           C   tau( 153) = (   0.6668295   1.8209859   2.4716506  )
       154           C   tau( 154) = (   0.6667383   2.0135331   2.4734416  )
       155           C   tau( 155) = (   0.8334687   1.7249276   2.4689282  )
       156           C   tau( 156) = (   0.8334079   2.1096416   2.4722723  )

     number of k points=     6  gaussian smearing, width (Ry)=  0.1000
                       cart. coord. in units 2pi/alat
        k(    1) = (   0.0000000   0.0000000   0.0000000), wk =   0.2500000
        k(    2) = (   0.0000000  -0.2165064   0.0000000), wk =   0.2500000
        k(    3) = (   0.2500000   0.0000000   0.0000000), wk =   0.5000000
        k(    4) = (   0.2500000  -0.2165064   0.0000000), wk =   0.5000000
        k(    5) = (  -0.5000000   0.0000000   0.0000000), wk =   0.2500000
        k(    6) = (  -0.5000000  -0.2165064   0.0000000), wk =   0.2500000

     Dense  grid:  2050409 G-vectors     FFT dimensions: (  80, 192, 270)

     Largest allocated arrays     est. size (Mb)     dimensions
        Kohn-Sham Wavefunctions        58.17 Mb     (    4604,  828)
        NL pseudopotentials           139.94 Mb     (    4604, 1992)
        Each V/rho on FFT grid          1.17 Mb     (   76800)
        Each G-vector array             0.28 Mb     (   36616)
        G-vector shells                 0.14 Mb     (   17932)
     Largest temporary arrays     est. size (Mb)     dimensions
        Auxiliary wavefunctions       232.67 Mb     (    4604, 3312)
        Each subspace H/S matrix        6.69 Mb     (     662,  662)
        Each <psi_i|beta_j> matrix     25.17 Mb     (    1992,  828)
        Arrays for rho mixing           9.38 Mb     (   76800,    8)

     Initial potential from superposition of free atoms
     Check: negative starting charge=   -0.001472

     starting charge 1354.72292, renormalised to 1380.00000

     negative rho (up, down):  1.500E-03 0.000E+00
     Starting wfc are 1356 randomized atomic wfcs

     total cpu time spent up to now is      117.3 secs

     Self-consistent Calculation

     iteration #  1     ecut=    80.00 Ry     beta=0.70
     Davidson diagonalization with overlap
     c_bands:  4 eigenvalues not converged
     c_bands:  4 eigenvalues not converged
     c_bands:  2 eigenvalues not converged
     c_bands:  1 eigenvalues not converged
     c_bands:  3 eigenvalues not converged
     c_bands:  2 eigenvalues not converged
     ethr =  1.00E-04,  avg # of iterations = 40.0

     negative rho (up, down):  2.639E+01 0.000E+00

     total cpu time spent up to now is     2460.5 secs

     total energy              =  -10762.66280810 Ry
     Harris-Foulkes estimate   =  -19075.40886359 Ry
     estimated scf accuracy    <  222015.82948907 Ry

     iteration #  2     ecut=    80.00 Ry     beta=0.70
     Davidson diagonalization with overlap
     ethr =  1.00E-02,  avg # of iterations = 18.8

     negative rho (up, down):  3.184E+01 0.000E+00

     total cpu time spent up to now is     3787.0 secs

     total energy              =  -13061.80820331 Ry
     Harris-Foulkes estimate   =  -14614.82439856 Ry
     estimated scf accuracy    <   21055.94236342 Ry

     iteration #  3     ecut=    80.00 Ry     beta=0.70
     Davidson diagonalization with overlap
     ethr =  1.00E-02,  avg # of iterations =  6.3

     negative rho (up, down):  3.389E+01 0.000E+00

     total cpu time spent up to now is     4348.5 secs

     total energy              =  -13531.81172716 Ry
     Harris-Foulkes estimate   =  -14437.87586247 Ry
     estimated scf accuracy    <   13892.37485001 Ry

     iteration #  4     ecut=    80.00 Ry     beta=0.70
     Davidson diagonalization with overlap
     ethr =  1.00E-02,  avg # of iterations =  6.0

     negative rho (up, down):  2.603E+01 0.000E+00

     total cpu time spent up to now is     4956.4 secs

     total energy              =  -13701.91404396 Ry
     Harris-Foulkes estimate   =  -14097.04731073 Ry
     estimated scf accuracy    <    1707.27857880 Ry

     iteration #  5     ecut=    80.00 Ry     beta=0.70
     Davidson diagonalization with overlap
     ethr =  1.00E-02,  avg # of iterations =  4.3

     negative rho (up, down):  1.707E+01 0.000E+00

     total cpu time spent up to now is     5321.3 secs

     total energy              =  -13800.35459824 Ry
     Harris-Foulkes estimate   =  -13916.36590031 Ry
     estimated scf accuracy    <     699.01121115 Ry

     iteration #  6     ecut=    80.00 Ry     beta=0.70
     Davidson diagonalization with overlap
     ethr =  1.00E-02,  avg # of iterations =  2.0

     negative rho (up, down):  1.089E+01 0.000E+00

     total cpu time spent up to now is     5531.0 secs

     total energy              =  -13785.42115433 Ry
     Harris-Foulkes estimate   =  -13828.65954725 Ry
     estimated scf accuracy    <     328.07963762 Ry

     iteration #  7     ecut=    80.00 Ry     beta=0.70
     Davidson diagonalization with overlap
     ethr =  1.00E-02,  avg # of iterations =  2.0

     negative rho (up, down):  7.875E+00 0.000E+00

     total cpu time spent up to now is     5729.3 secs

     total energy              =  -13769.27847201 Ry
     Harris-Foulkes estimate   =  -13791.43936887 Ry
     estimated scf accuracy    <     245.32797821 Ry

     iteration #  8     ecut=    80.00 Ry     beta=0.70
     Davidson diagonalization with overlap
     ethr =  1.00E-02,  avg # of iterations =  1.0

     negative rho (up, down):  3.919E+00 0.000E+00

     total cpu time spent up to now is     5913.7 secs

     total energy              =  -13734.36807453 Ry
     Harris-Foulkes estimate   =  -13770.97297919 Ry
     estimated scf accuracy    <     214.86275100 Ry

     iteration #  9     ecut=    80.00 Ry     beta=0.70
     Davidson diagonalization with overlap
     ethr =  1.00E-02,  avg # of iterations =  1.0

     negative rho (up, down):  1.256E+00 0.000E+00

     total cpu time spent up to now is     6097.7 secs

     total energy              =  -13707.41718543 Ry
     Harris-Foulkes estimate   =  -13736.53705241 Ry
     estimated scf accuracy    <     127.30128439 Ry

     iteration # 10     ecut=    80.00 Ry     beta=0.70
     Davidson diagonalization with overlap
     ethr =  9.22E-03,  avg # of iterations =  1.0

     negative rho (up, down):  9.109E+00 0.000E+00

     total cpu time spent up to now is     6281.4 secs

     total energy              =  -13683.06739909 Ry
     Harris-Foulkes estimate   =  -13713.59715921 Ry
     estimated scf accuracy    <     283.10873372 Ry

     iteration # 11     ecut=    80.00 Ry     beta=0.70
     Davidson diagonalization with overlap
     ethr =  9.22E-03,  avg # of iterations =  1.5

     negative rho (up, down):  7.544E+00 0.000E+00

     total cpu time spent up to now is     6472.8 secs

     total energy              =  -13679.30160009 Ry
     Harris-Foulkes estimate   =  -13692.01359990 Ry
     estimated scf accuracy    <     111.09844571 Ry

     iteration # 12     ecut=    80.00 Ry     beta=0.70
     Davidson diagonalization with overlap
     ethr =  8.05E-03,  avg # of iterations =  1.0

     negative rho (up, down):  6.502E+00 0.000E+00

     total cpu time spent up to now is     6656.9 secs

     total energy              =  -13680.54750611 Ry
     Harris-Foulkes estimate   =  -13686.81848036 Ry
     estimated scf accuracy    <      42.20043437 Ry

     iteration # 13     ecut=    80.00 Ry     beta=0.70
     Davidson diagonalization with overlap
     ethr =  3.06E-03,  avg # of iterations =  2.2

     negative rho (up, down):  7.628E+00 0.000E+00

     total cpu time spent up to now is     6860.1 secs

     total energy              =  -13677.30733749 Ry
     Harris-Foulkes estimate   =  -13683.99002733 Ry
     estimated scf accuracy    <      47.30562721 Ry

     iteration # 14     ecut=    80.00 Ry     beta=0.70
     Davidson diagonalization with overlap
     ethr =  3.06E-03,  avg # of iterations =  3.7

     negative rho (up, down):  6.270E+00 0.000E+00

     total cpu time spent up to now is     7082.2 secs

     total energy              =  -13677.44563089 Ry
     Harris-Foulkes estimate   =  -13680.87720826 Ry
     estimated scf accuracy    <      33.43124474 Ry

     iteration # 15     ecut=    80.00 Ry     beta=0.70
     Davidson diagonalization with overlap
     ethr =  2.42E-03,  avg # of iterations =  1.7

     negative rho (up, down):  5.229E+00 0.000E+00

     total cpu time spent up to now is     7276.0 secs

     total energy              =  -13678.24764334 Ry
     Harris-Foulkes estimate   =  -13679.38701135 Ry
     estimated scf accuracy    <      19.42328960 Ry

     iteration # 16     ecut=    80.00 Ry     beta=0.70
     Davidson diagonalization with overlap
     ethr =  1.41E-03,  avg # of iterations =  1.8

     negative rho (up, down):  4.528E+00 0.000E+00

     total cpu time spent up to now is     7470.7 secs

     total energy              =  -13677.48582359 Ry
     Harris-Foulkes estimate   =  -13678.37006796 Ry
     estimated scf accuracy    <      15.61540220 Ry

     iteration # 17     ecut=    80.00 Ry     beta=0.70
     Davidson diagonalization with overlap
     ethr =  1.13E-03,  avg # of iterations =  1.3

     negative rho (up, down):  1.410E+00 0.000E+00

     total cpu time spent up to now is     7660.8 secs

     total energy              =  -13673.47261606 Ry
     Harris-Foulkes estimate   =  -13677.56946869 Ry
     estimated scf accuracy    <      13.16106366 Ry

     iteration # 18     ecut=    80.00 Ry     beta=0.70
     Davidson diagonalization with overlap
     ethr =  9.54E-04,  avg # of iterations =  4.0

     negative rho (up, down):  1.192E+00 0.000E+00

     total cpu time spent up to now is     7886.1 secs

     total energy              =  -13673.01299726 Ry
     Harris-Foulkes estimate   =  -13674.11024508 Ry
     estimated scf accuracy    <       7.96692604 Ry

     iteration # 19     ecut=    80.00 Ry     beta=0.70
     Davidson diagonalization with overlap
     ethr =  5.77E-04,  avg # of iterations =  5.7

     negative rho (up, down):  8.307E-01 0.000E+00

     total cpu time spent up to now is     8137.9 secs

     total energy              =  -13673.10978952 Ry
     Harris-Foulkes estimate   =  -13673.18485623 Ry
     estimated scf accuracy    <       9.64210899 Ry

     iteration # 20     ecut=    80.00 Ry     beta=0.70
     Davidson diagonalization with overlap
     ethr =  5.77E-04,  avg # of iterations =  3.7

     negative rho (up, down):  7.074E-04 0.000E+00

     total cpu time spent up to now is     8358.2 secs

     total energy              =  -13671.92734248 Ry
     Harris-Foulkes estimate   =  -13673.26539257 Ry
     estimated scf accuracy    <       6.87126791 Ry

     iteration # 21     ecut=    80.00 Ry     beta=0.70
     Davidson diagonalization with overlap
     ethr =  4.98E-04,  avg # of iterations =  5.3

     negative rho (up, down):  4.639E-01 0.000E+00

     total cpu time spent up to now is     8600.8 secs

     total energy              =  -13671.44810732 Ry
     Harris-Foulkes estimate   =  -13672.05779083 Ry
     estimated scf accuracy    <       5.61725876 Ry

     iteration # 22     ecut=    80.00 Ry     beta=0.70
     Davidson diagonalization with overlap
     ethr =  4.07E-04,  avg # of iterations =  2.2

     negative rho (up, down):  6.465E-01 0.000E+00

     total cpu time spent up to now is     8801.2 secs

     total energy              =  -13671.12070625 Ry
     Harris-Foulkes estimate   =  -13671.56340376 Ry
     estimated scf accuracy    <       4.29125880 Ry

     iteration # 23     ecut=    80.00 Ry     beta=0.70
     Davidson diagonalization with overlap
     ethr =  3.11E-04,  avg # of iterations =  9.2

     negative rho (up, down):  5.664E-01 0.000E+00

     total cpu time spent up to now is     9103.1 secs

     total energy              =  -13671.00655449 Ry
     Harris-Foulkes estimate   =  -13671.23597001 Ry
     estimated scf accuracy    <       1.81063250 Ry

     iteration # 24     ecut=    80.00 Ry     beta=0.70
     Davidson diagonalization with overlap
     ethr =  1.31E-04,  avg # of iterations =  7.3

     negative rho (up, down):  1.096E-01 0.000E+00

     total cpu time spent up to now is     9378.8 secs

     total energy              =  -13670.87564182 Ry
     Harris-Foulkes estimate   =  -13671.10996028 Ry
     estimated scf accuracy    <       0.99575367 Ry

     iteration # 25     ecut=    80.00 Ry     beta=0.70
     Davidson diagonalization with overlap
     ethr =  7.22E-05,  avg # of iterations =  7.3

     negative rho (up, down):  2.764E-01 0.000E+00

     total cpu time spent up to now is     9681.4 secs

     total energy              =  -13670.91714852 Ry
     Harris-Foulkes estimate   =  -13670.95236289 Ry
     estimated scf accuracy    <       0.38070094 Ry

     iteration # 26     ecut=    80.00 Ry     beta=0.70
     Davidson diagonalization with overlap
     ethr =  2.76E-05,  avg # of iterations =  7.2

     negative rho (up, down):  1.138E-01 0.000E+00

     total cpu time spent up to now is     9971.1 secs

     total energy              =  -13670.93832750 Ry
     Harris-Foulkes estimate   =  -13670.93561530 Ry
     estimated scf accuracy    <       0.02565057 Ry

     iteration # 27     ecut=    80.00 Ry     beta=0.70
     Davidson diagonalization with overlap
     ethr =  1.86E-06,  avg # of iterations = 10.8

     negative rho (up, down):  6.844E-02 0.000E+00

     total cpu time spent up to now is    10338.8 secs

     total energy              =  -13670.93957446 Ry
     Harris-Foulkes estimate   =  -13670.94054327 Ry
     estimated scf accuracy    <       0.01178736 Ry

     iteration # 28     ecut=    80.00 Ry     beta=0.70
     Davidson diagonalization with overlap
     c_bands:  1 eigenvalues not converged
     c_bands:  1 eigenvalues not converged
     ethr =  8.54E-07,  avg # of iterations = 14.2

     negative rho (up, down):  6.489E-02 0.000E+00

     total cpu time spent up to now is    10732.1 secs

     total energy              =  -13670.94084075 Ry
     Harris-Foulkes estimate   =  -13670.94138660 Ry
     estimated scf accuracy    <       0.00845912 Ry

     iteration # 29     ecut=    80.00 Ry     beta=0.70
     Davidson diagonalization with overlap
     ethr =  6.13E-07,  avg # of iterations =  8.3

     negative rho (up, down):  4.122E-02 0.000E+00

     total cpu time spent up to now is    11027.0 secs

     total energy              =  -13670.94130868 Ry
     Harris-Foulkes estimate   =  -13670.94161028 Ry
     estimated scf accuracy    <       0.00199917 Ry

     iteration # 30     ecut=    80.00 Ry     beta=0.70
     Davidson diagonalization with overlap
     c_bands:  2 eigenvalues not converged
     ethr =  1.45E-07,  avg # of iterations =  9.3

     negative rho (up, down):  2.246E-02 0.000E+00

     total cpu time spent up to now is    11347.5 secs

     total energy              =  -13670.94094391 Ry
     Harris-Foulkes estimate   =  -13670.94148074 Ry
     estimated scf accuracy    <       0.00080084 Ry

     iteration # 31     ecut=    80.00 Ry     beta=0.70
     Davidson diagonalization with overlap
     ethr =  5.80E-08,  avg # of iterations =  7.8

     negative rho (up, down):  1.682E-02 0.000E+00

     total cpu time spent up to now is    11647.2 secs

     total energy              =  -13670.94085142 Ry
     Harris-Foulkes estimate   =  -13670.94102095 Ry
     estimated scf accuracy    <       0.00029788 Ry

     iteration # 32     ecut=    80.00 Ry     beta=0.70
     Davidson diagonalization with overlap
     ethr =  2.16E-08,  avg # of iterations =  4.0

     negative rho (up, down):  9.606E-03 0.000E+00

     total cpu time spent up to now is    11882.1 secs

     total energy              =  -13670.94070201 Ry
     Harris-Foulkes estimate   =  -13670.94088063 Ry
     estimated scf accuracy    <       0.00009683 Ry

     iteration # 33     ecut=    80.00 Ry     beta=0.70
     Davidson diagonalization with overlap
     ethr =  7.02E-09,  avg # of iterations =  5.5

     negative rho (up, down):  3.338E-03 0.000E+00

     total cpu time spent up to now is    12151.2 secs

     total energy              =  -13670.94061054 Ry
     Harris-Foulkes estimate   =  -13670.94071285 Ry
     estimated scf accuracy    <       0.00002926 Ry

     iteration # 34     ecut=    80.00 Ry     beta=0.70
     Davidson diagonalization with overlap
     ethr =  2.12E-09,  avg # of iterations =  8.7

     negative rho (up, down):  2.152E-03 0.000E+00

     total cpu time spent up to now is    12469.4 secs

     total energy              =  -13670.94059875 Ry
     Harris-Foulkes estimate   =  -13670.94061427 Ry
     estimated scf accuracy    <       0.00001630 Ry

     iteration # 35     ecut=    80.00 Ry     beta=0.70
     Davidson diagonalization with overlap
     ethr =  1.18E-09,  avg # of iterations =  3.2

     negative rho (up, down):  1.832E-03 0.000E+00

     total cpu time spent up to now is    12692.6 secs

     total energy              =  -13670.94059712 Ry
     Harris-Foulkes estimate   =  -13670.94059974 Ry
     estimated scf accuracy    <       0.00000370 Ry

     iteration # 36     ecut=    80.00 Ry     beta=0.70
     Davidson diagonalization with overlap
     ethr =  2.68E-10,  avg # of iterations =  2.2

     negative rho (up, down):  1.456E-03 0.000E+00

     total cpu time spent up to now is    12897.6 secs

     total energy              =  -13670.94059683 Ry
     Harris-Foulkes estimate   =  -13670.94059732 Ry
     estimated scf accuracy    <       0.00000183 Ry

     iteration # 37     ecut=    80.00 Ry     beta=0.70
     Davidson diagonalization with overlap
     ethr =  1.33E-10,  avg # of iterations =  3.0

     negative rho (up, down):  1.415E-03 0.000E+00

     total cpu time spent up to now is    13127.8 secs

     total energy              =  -13670.94059699 Ry
     Harris-Foulkes estimate   =  -13670.94059707 Ry
     estimated scf accuracy    <       0.00000096 Ry

     iteration # 38     ecut=    80.00 Ry     beta=0.70
     Davidson diagonalization with overlap
     ethr =  6.93E-11,  avg # of iterations =  2.2

     negative rho (up, down):  1.423E-03 0.000E+00

     total cpu time spent up to now is    13335.2 secs

     total energy              =  -13670.94059706 Ry
     Harris-Foulkes estimate   =  -13670.94059711 Ry
     estimated scf accuracy    <       0.00000025 Ry

     iteration # 39     ecut=    80.00 Ry     beta=0.70
     Davidson diagonalization with overlap
     ethr =  1.81E-11,  avg # of iterations =  2.8

     negative rho (up, down):  1.433E-03 0.000E+00

     total cpu time spent up to now is    13583.8 secs

     total energy              =  -13670.94059706 Ry
     Harris-Foulkes estimate   =  -13670.94059711 Ry
     estimated scf accuracy    <       0.00000009 Ry

     iteration # 40     ecut=    80.00 Ry     beta=0.70
     Davidson diagonalization with overlap
     ethr =  6.20E-12,  avg # of iterations =  2.5

     negative rho (up, down):  1.461E-03 0.000E+00

     total cpu time spent up to now is    13798.5 secs

     total energy              =  -13670.94059701 Ry
     Harris-Foulkes estimate   =  -13670.94059707 Ry
     estimated scf accuracy    <       0.00000005 Ry

     iteration # 41     ecut=    80.00 Ry     beta=0.70
     Davidson diagonalization with overlap
     ethr =  3.30E-12,  avg # of iterations =  2.7

     negative rho (up, down):  1.489E-03 0.000E+00

     total cpu time spent up to now is    14018.1 secs

     total energy              =  -13670.94059697 Ry
     Harris-Foulkes estimate   =  -13670.94059701 Ry
     estimated scf accuracy    <       0.00000001 Ry

     iteration # 42     ecut=    80.00 Ry     beta=0.70
     Davidson diagonalization with overlap
     ethr =  9.60E-13,  avg # of iterations =  3.0

     negative rho (up, down):  1.474E-03 0.000E+00

     total cpu time spent up to now is    14235.8 secs

     End of self-consistent calculation

          k = 0.0000 0.0000 0.0000 (256287 PWs)   bands (ev):

   -15.6010 -15.1711 -15.0959 -14.0446 -14.0433 -13.6388 -13.6355 -13.2185
   -13.2156 -13.1434 -13.1419 -12.2508 -12.2457 -12.1350 -12.1337 -12.1221
   -12.1187 -10.4423 -10.4390 -10.4358 -10.4345 -10.2299  -9.2359  -8.5700
    -8.5679  -8.5546  -8.5523  -7.6867  -7.6823  -7.6715  -7.6688  -6.6851
    -6.6834  -6.6112  -6.6105  -6.6071  -6.6016  -6.5952  -6.5936  -5.1814
    -5.0594  -5.0569  -5.0531  -5.0452  -4.8948  -4.8937  -4.8873  -4.8859
    -4.6792  -4.6348  -4.3621  -4.0089  -3.7369  -3.7349  -3.6963  -3.6578
    -3.4365  -3.4154  -3.4105  -3.2413  -3.1364  -3.1355  -2.7899  -2.6166
    -2.6158  -2.6069  -2.6062  -2.5667  -2.5666  -2.5105  -2.4612  -2.4541
    -2.4232  -2.3282  -2.1904  -2.1897  -2.1578  -2.1572  -2.1555  -2.1037
    -2.0980  -2.0742  -2.0648  -2.0411  -1.9625  -1.9591  -1.7656  -1.7654
    -1.7477  -1.7467  -1.6756  -1.6753  -1.5136  -1.5124  -1.5031  -1.5028
    -1.4810  -1.3608  -1.3584  -1.3041  -1.3037  -1.2937  -1.2933  -1.2729
    -1.2674  -1.2395  -1.1984  -1.1981  -1.1623  -1.1621  -1.1573  -1.0792
    -1.0675  -1.0341  -1.0306  -1.0278  -0.9916  -0.9872  -0.9439  -0.9278
    -0.9108  -0.9096  -0.9091  -0.8820  -0.8818  -0.8607  -0.8126  -0.8097
    -0.8094  -0.8048  -0.7497  -0.7353  -0.7273  -0.7212  -0.7051  -0.7045
    -0.6911  -0.6853  -0.6758  -0.6303  -0.6302  -0.5784  -0.5570  -0.5563
    -0.5120  -0.4944  -0.4572  -0.4404  -0.4373  -0.4342  -0.4287  -0.4098
    -0.4096  -0.4094  -0.3805  -0.3717  -0.3701  -0.3523  -0.3452  -0.3434
    -0.3402  -0.3397  -0.3023  -0.2949  -0.2473  -0.2458  -0.2255  -0.2223
    -0.2181  -0.2178  -0.2134  -0.2115  -0.2092  -0.1992  -0.1980  -0.1948
    -0.1809  -0.1727  -0.1503  -0.1498  -0.1371  -0.1348  -0.1218  -0.1056
    -0.1048  -0.1047  -0.1044  -0.0991  -0.0871  -0.0870  -0.0578  -0.0483
    -0.0444  -0.0408  -0.0269  -0.0257  -0.0257  -0.0063  -0.0057  -0.0052
    -0.0008   0.0059   0.0070   0.0116   0.0120   0.0188   0.0351   0.0634
     0.0639   0.0891   0.1041   0.1079   0.1114   0.1167   0.1285   0.1621
     0.1661   0.1664   0.1746   0.1825   0.1862   0.1932   0.2086   0.2086
     0.2122   0.2203   0.2228   0.2256   0.2279   0.2413   0.2476   0.2531
     0.2534   0.2557   0.2683   0.2708   0.2713   0.3088   0.3103   0.3152
     0.3439   0.3587   0.3636   0.3650   0.3746   0.3751   0.3947   0.3953
     0.4022   0.4050   0.4228   0.4253   0.4256   0.4323   0.4325   0.4383
     0.4385   0.4392   0.4420   0.4562   0.4718   0.4791   0.4825   0.4827
     0.4836   0.4896   0.4898   0.5035   0.5214   0.5224   0.5231   0.5339
     0.5436   0.5445   0.5542   0.5587   0.5594   0.5616   0.5618   0.5719
     0.5725   0.5820   0.5830   0.5928   0.5968   0.5995   0.6005   0.6048
     0.6129   0.6135   0.6434   0.6441   0.6449   0.6451   0.6474   0.6493
     0.6510   0.6518   0.6544   0.6548   0.6799   0.6889   0.6892   0.6945
     0.7134   0.7148   0.7371   0.7442   0.7499   0.7506   0.7524   0.7702
     0.7727   0.7732   0.7784   0.7793   0.7829   0.7834   0.8079   0.8126
     0.8131   0.8178   0.8246   0.8252   0.8254   0.8406   0.8416   0.8470
     0.8472   0.8499   0.8653   0.8693   0.8703   0.8718   0.8748   0.8789
     0.8798   0.8875   0.8880   0.9054   0.9058   0.9075   0.9086   0.9096
     0.9132   0.9253   0.9537   0.9537   0.9587   0.9677   0.9680   0.9729
     0.9771   0.9919   0.9923   1.0020   1.0093   1.0104   1.0132   1.0302
     1.0322   1.0558   1.0565   1.0652   1.0659   1.0698   1.0773   1.0779
     1.0788   1.0907   1.1107   1.1139   1.1225   1.1233   1.1408   1.1431
     1.1472   1.1555   1.1564   1.1742   1.1743   1.1767   1.1892   1.1896
     1.1904   1.2181   1.2292   1.2310   1.2348   1.2429   1.2457   1.2459
     1.2511   1.2521   1.2623   1.2653   1.2654   1.2684   1.2703   1.2981
     1.2984   1.3014   1.3043   1.3079   1.3183   1.3285   1.3290   1.3372
     1.3647   1.3649   1.3760   1.3797   1.3801   1.3846   1.3888   1.3889
     1.3961   1.4023   1.4082   1.4091   1.4155   1.4253   1.4257   1.4267
     1.4279   1.4376   1.4413   1.4474   1.4511   1.4559   1.4559   1.4568
     1.4574   1.4662   1.4701   1.4779   1.4806   1.4844   1.4928   1.4930
     1.4993   1.5036   1.5069   1.5085   1.5088   1.5128   1.5178   1.5190
     1.5449   1.5456   1.5490   1.5494   1.5513   1.5553   1.5557   1.5571
     1.5577   1.5602   1.5698   1.5702   1.5748   1.5853   1.5873   1.5907
     1.5911   1.6016   1.6035   1.6051   1.6053   1.6155   1.6188   1.6300
     1.6455   1.6458   1.6490   1.6621   1.6680   1.6835   1.6873   1.6883
     1.6954   1.6964   1.7016   1.7063   1.7091   1.7135   1.7141   1.7165
     1.7202   1.7216   1.7306   1.7344   1.7439   1.7459   1.7468   1.7573
     1.7610   1.7654   1.7729   1.7747   1.7778   1.7811   1.7833   1.7880
     1.7923   1.7997   1.8060   1.8100   1.8110   1.8125   1.8149   1.8201
     1.8236   1.8255   1.8380   1.8396   1.8426   1.8453   1.8572   1.8604
     1.8650   1.8785   1.8803   1.8835   1.8869   1.8890   1.9005   1.9006
     1.9058   1.9071   1.9097   1.9131   1.9133   1.9159   1.9161   1.9278
     1.9326   1.9359   1.9390   1.9408   1.9440   1.9488   1.9492   1.9501
     1.9552   1.9574   1.9661   1.9704   1.9738   1.9742   1.9747   1.9809
     1.9823   1.9894   1.9900   2.0047   2.0058   2.0177   2.0200   2.0242
     2.0273   2.0291   2.0382   2.0388   2.0468   2.0512   2.0615   2.0626
     2.0649   2.0707   2.0721   2.0777   2.0805   2.0862   2.0865   2.0926
     2.1000   2.1048   2.1074   2.1096   2.1112   2.1148   2.1190   2.1204
     2.1214   2.1286   2.1289   2.1318   2.1384   2.1432   2.1439   2.1511
     2.1696   2.1696   2.1704   2.1753   2.1760   2.1811   2.1829   2.1845
     2.1852   2.1877   2.1941   2.2019   2.2072   2.2084   2.2141   2.2148
     2.2177   2.2211   2.2214   2.2244   2.2280   2.2287   2.2319   2.2326
     2.2332   2.2335   2.2340   2.2395   2.2417   2.2538   2.2554   2.2556
     2.2601   2.2636   2.2690   2.2690   2.2718   2.2818   2.2824   2.2896
     2.2916   2.2975   2.2981   2.3011   2.3128   2.3191   2.3199   2.3329
     2.3333   2.3400   2.3554   2.3558   2.3582   2.3815   2.3818   2.3952
     2.3960   2.4151   2.4152   2.4187   2.4481   2.4526   2.4543   2.4563
     2.4566   2.4604   2.4796   2.4873   2.5123   2.6089   2.7095   2.7781
     2.7969   2.8650   2.8767   2.8781   2.9704   2.9713   2.9909   2.9915
     3.0294   3.0299   3.0413   3.0416   3.1001   3.1032   3.1037   3.1602
     3.1603   3.2089   3.2136   3.3871   3.3872   3.4470   3.4479   3.5788
     3.7091   3.9205   3.9228   3.9681   3.9757   4.0180   4.0223   4.1349
     4.2193   4.2203   4.2492   4.4243   4.4264   4.4960   4.4973   4.6209
     4.7150   4.7151   4.7345   4.7541   4.7541   4.8114   4.8263   4.8270
     4.8300   4.8307   5.1880   5.2121   5.2145   5.2263   5.3817   5.5460
     5.6888   5.7192   5.7684   5.7766   5.8480   5.8549   5.8977   5.8994
     6.0039   6.1083   6.3114   6.3217   6.3971   6.4782   6.4841   6.6956
     6.7304   6.9889   6.9929   6.9936   7.0639   7.2278   7.2767   7.2771
     7.3376   7.5200   7.5518   7.5543   7.5864   7.6007   7.6008   7.6541
     7.6753   7.6929   7.7132   7.7732   7.7879   7.8359   7.8457   7.8809
     7.9445   7.9951   8.0688   8.0991   8.1051   8.2609   8.2997   8.3764
     8.4729   8.4730   8.4859   8.4976   8.4986   8.6930   8.7398   8.7414
     8.8674   8.8691   8.8742   8.8994   8.9919   9.0055   9.0073   9.0105
     9.1260   9.1480   9.2451   9.3254   9.3274   9.3777   9.3837   9.4030
     9.4176   9.4205   9.4359   9.4482   9.4961   9.5066   9.5199   9.5325
     9.5464   9.5877   9.7033   9.7363   9.7755   9.8562   9.8587   9.8677
     9.8715   9.9397  10.0326  10.0545  10.3068  10.3131  10.3228  10.4060
    10.4067  10.5235  10.5298  10.5390  10.5397  10.5778  10.6401  10.6718
    10.6758  10.7834  10.7874  10.8130

          k = 0.0000-0.2165 0.0000 (256176 PWs)   bands (ev):

   -15.5790 -15.3336 -14.6968 -14.6671 -13.6178 -13.6142 -13.3751 -13.3732
   -13.2374 -13.2198 -12.7575 -12.7547 -12.7288 -12.7272 -11.3607 -11.3585
   -11.3436 -11.3411 -11.1732 -11.0885  -9.4685  -9.4660  -9.4259  -9.4245
    -8.2402  -8.1616  -8.1133  -8.1108  -7.9915  -7.9906  -7.2199  -7.2146
    -7.1979  -7.1960  -6.1119  -6.1113  -5.9614  -5.9608  -5.8858  -5.8797
    -5.8705  -5.8680  -5.0733  -5.0632  -5.0595  -5.0281  -4.4008  -4.2859
    -4.2844  -4.1558  -4.1513  -4.0088  -3.9738  -3.9513  -3.9226  -3.6688
    -3.6680  -3.6655  -3.6637  -3.5945  -3.1188  -3.1013  -2.8426  -2.7721
    -2.6939  -2.4866  -2.4777  -2.4761  -2.4487  -2.4479  -2.4220  -2.2703
    -2.2108  -2.2077  -2.1856  -2.1835  -2.0966  -2.0958  -1.9888  -1.9884
    -1.8754  -1.8750  -1.8621  -1.8611  -1.8389  -1.8104  -1.8057  -1.7828
    -1.7305  -1.7301  -1.7244  -1.7241  -1.6639  -1.6436  -1.6404  -1.6275
    -1.6268  -1.6237  -1.4524  -1.3934  -1.3629  -1.3620  -1.3606  -1.3303
    -1.3302  -1.2799  -1.2797  -1.2086  -1.1789  -1.1342  -1.1327  -1.1326
    -1.1168  -1.1167  -1.0056  -1.0054  -0.9534  -0.9523  -0.9512  -0.9447
    -0.9253  -0.9063  -0.8816  -0.8814  -0.8704  -0.8689  -0.8280  -0.8238
    -0.8083  -0.8079  -0.8009  -0.7450  -0.7443  -0.7374  -0.7023  -0.7014
    -0.6489  -0.6488  -0.5998  -0.5814  -0.5795  -0.5646  -0.5341  -0.5253
    -0.4831  -0.4797  -0.4716  -0.4672  -0.4641  -0.4621  -0.4435  -0.4366
    -0.4294  -0.4256  -0.4234  -0.4224  -0.4135  -0.4133  -0.4105  -0.4100
    -0.3952  -0.3801  -0.3790  -0.3601  -0.3090  -0.3086  -0.2857  -0.2844
    -0.2573  -0.2458  -0.2439  -0.2261  -0.2199  -0.2072  -0.2059  -0.2052
    -0.2018  -0.1852  -0.1747  -0.1590  -0.1441  -0.1436  -0.1354  -0.1287
    -0.1275  -0.1273  -0.1096  -0.0908  -0.0883  -0.0879  -0.0872  -0.0740
    -0.0715  -0.0416  -0.0398  -0.0393  -0.0212  -0.0103   0.0018   0.0026
     0.0079   0.0157   0.0187   0.0421   0.0547   0.0547   0.0605   0.0909
     0.1132   0.1391   0.1395   0.1523   0.1696   0.1710   0.1797   0.1800
     0.1975   0.2011   0.2011   0.2044   0.2135   0.2140   0.2239   0.2338
     0.2341   0.2443   0.2463   0.2465   0.2513   0.2595   0.2715   0.2817
     0.2823   0.2935   0.2965   0.3056   0.3133   0.3305   0.3329   0.3497
     0.3499   0.3543   0.3568   0.3599   0.3714   0.3718   0.3846   0.3857
     0.4222   0.4376   0.4384   0.4603   0.4604   0.4703   0.4737   0.4744
     0.4763   0.4848   0.4853   0.4855   0.4952   0.5076   0.5098   0.5152
     0.5157   0.5197   0.5199   0.5377   0.5380   0.5468   0.5469   0.5493
     0.5520   0.5545   0.5576   0.5609   0.5653   0.5775   0.5874   0.5876
     0.5937   0.5943   0.5998   0.6137   0.6138   0.6305   0.6332   0.6339
     0.6346   0.6396   0.6398   0.6425   0.6485   0.6521   0.6536   0.6672
     0.6713   0.6765   0.6864   0.6950   0.6968   0.7071   0.7141   0.7146
     0.7158   0.7287   0.7295   0.7436   0.7512   0.7527   0.7533   0.7551
     0.7576   0.7588   0.7602   0.7808   0.7842   0.7860   0.7934   0.7948
     0.8081   0.8162   0.8176   0.8185   0.8268   0.8287   0.8324   0.8368
     0.8414   0.8420   0.8577   0.8581   0.8660   0.8668   0.8692   0.8779
     0.8822   0.8831   0.8879   0.9074   0.9130   0.9131   0.9180   0.9194
     0.9260   0.9265   0.9363   0.9434   0.9443   0.9451   0.9510   0.9521
     0.9577   0.9633   0.9682   0.9738   0.9806   0.9918   0.9920   1.0026
     1.0098   1.0139   1.0320   1.0505   1.0532   1.0543   1.0689   1.0708
     1.0815   1.0821   1.0836   1.0973   1.1152   1.1167   1.1173   1.1180
     1.1389   1.1431   1.1501   1.1531   1.1582   1.1630   1.1735   1.1812
     1.1819   1.1958   1.2111   1.2192   1.2193   1.2290   1.2471   1.2492
     1.2536   1.2541   1.2613   1.2618   1.2639   1.2744   1.2749   1.2956
     1.2958   1.3115   1.3123   1.3167   1.3257   1.3286   1.3291   1.3513
     1.3553   1.3572   1.3580   1.3591   1.3660   1.3667   1.3754   1.3756
     1.3777   1.3803   1.3880   1.3932   1.3972   1.3983   1.4014   1.4026
     1.4090   1.4158   1.4167   1.4375   1.4380   1.4418   1.4487   1.4499
     1.4504   1.4540   1.4599   1.4630   1.4641   1.4713   1.4723   1.4927
     1.4931   1.4962   1.4973   1.4981   1.5034   1.5060   1.5154   1.5175
     1.5175   1.5210   1.5231   1.5234   1.5264   1.5282   1.5414   1.5420
     1.5478   1.5517   1.5541   1.5543   1.5563   1.5644   1.5750   1.5811
     1.5871   1.5883   1.5890   1.6034   1.6201   1.6217   1.6259   1.6333
     1.6347   1.6396   1.6427   1.6440   1.6537   1.6928   1.6930   1.7106
     1.7122   1.7143   1.7213   1.7245   1.7274   1.7275   1.7315   1.7356
     1.7361   1.7402   1.7462   1.7464   1.7524   1.7529   1.7536   1.7559
     1.7729   1.7768   1.7783   1.7872   1.7875   1.7883   1.7904   1.7982
     1.8010   1.8010   1.8060   1.8069   1.8105   1.8116   1.8139   1.8142
     1.8158   1.8170   1.8295   1.8303   1.8326   1.8329   1.8393   1.8395
     1.8444   1.8455   1.8491   1.8502   1.8674   1.8676   1.8689   1.8749
     1.8788   1.8903   1.8982   1.8985   1.9013   1.9084   1.9085   1.9101
     1.9254   1.9265   1.9364   1.9418   1.9423   1.9457   1.9521   1.9590
     1.9607   1.9617   1.9666   1.9846   1.9902   1.9936   2.0003   2.0005
     2.0015   2.0027   2.0120   2.0170   2.0214   2.0217   2.0245   2.0262
     2.0269   2.0327   2.0393   2.0426   2.0436   2.0443   2.0481   2.0517
     2.0519   2.0562   2.0599   2.0766   2.0823   2.0835   2.0849   2.0879
     2.0934   2.0941   2.1026   2.1052   2.1055   2.1069   2.1115   2.1126
     2.1168   2.1305   2.1307   2.1310   2.1398   2.1418   2.1426   2.1501
     2.1528   2.1548   2.1552   2.1582   2.1624   2.1630   2.1753   2.1773
     2.1841   2.1842   2.1949   2.1999   2.2007   2.2008   2.2024   2.2192
     2.2204   2.2211   2.2230   2.2261   2.2285   2.2307   2.2321   2.2362
     2.2465   2.2468   2.2484   2.2537   2.2620   2.2677   2.2738   2.2739
     2.2762   2.2776   2.2784   2.2793   2.2919   2.2988   2.2995   2.3046
     2.3063   2.3223   2.3249   2.3254   2.3365   2.3485   2.3485   2.3499
     2.3524   2.3529   2.3547   2.3556   2.3673   2.3673   2.3680   2.3723
     2.3958   2.4412   2.4492   2.4627   2.4991   2.5414   2.5699   2.5732
     2.5733   2.5933   2.5935   2.6156   2.6162   2.6451   2.6454   2.6639
     2.6754   2.6823   2.8875   2.8887   2.9346   2.9480   2.9494   2.9618
     2.9740   3.0184   3.0927   3.0977   3.2018   3.2020   3.2094   3.2559
     3.2565   3.3115   3.3631   3.3955   3.3964   3.4834   3.4875   3.4877
     3.5213   3.7232   3.7353   3.7354   3.8025   3.8042   3.9859   3.9862
     4.0026   4.0035   4.2728   4.2897   4.3466   4.3473   4.4572   4.4747
     4.6926   4.7347   4.7375   4.8521   4.8557   4.9037   4.9109   4.9543
     4.9593   4.9743   5.1774   5.2055   5.3652   5.3671   5.6534   5.7693
     5.7871   5.7889   5.8740   5.9129   5.9319   6.0782   6.0793   6.1450
     6.1504   6.1899   6.1902   6.3404   6.4502   6.5274   6.5317   6.5576
     6.5786   6.7421   6.8003   6.8075   6.8140   6.8610   6.9978   7.1863
     7.2229   7.2285   7.3881   7.3883   7.4392   7.5187   7.5936   7.7066
     7.7127   7.7235   7.8355   7.8412   7.8896   7.9194   7.9197   7.9379
     7.9385   7.9895   8.0394   8.0576   8.1472   8.1500   8.3776   8.3800
     8.4366   8.5600   8.5938   8.6054   8.6068   8.6162   8.6347   8.7449
     8.7467   8.7504   8.8141   8.8762   8.9915   9.0558   9.0587   9.1218
     9.2035   9.2048   9.2069   9.2135   9.3237   9.3252   9.4503   9.4533
     9.4663   9.4773   9.5110   9.5709   9.5866   9.6127   9.6334   9.6493
     9.7122   9.7715   9.9085   9.9098   9.9255   9.9272   9.9738   9.9750
    10.0175  10.0179  10.1058  10.1397  10.1401  10.2331  10.2399  10.2926
    10.2941  10.4787  10.4809  10.5014  10.5110  10.5130  10.5841  10.6099
    10.6415  10.6885  10.7535  10.7573

          k = 0.2500 0.0000 0.0000 (256240 PWs)   bands (ev):

   -15.4768 -15.0474 -14.9723 -14.4894 -14.0652 -13.9903 -13.9229 -13.9216
   -12.9579 -12.9568 -12.5600 -12.1486 -12.1341 -12.1290 -12.0739 -11.2133
   -11.2080 -11.0993 -11.0983 -10.1247  -9.9456  -9.8054  -9.6705  -9.2830
    -9.1312  -8.8546  -8.8383  -8.4322  -8.1693  -8.1675  -7.6129  -6.6164
    -6.6136  -6.6074  -6.6025  -6.5015  -6.4976  -6.0348  -5.7759  -5.1856
    -5.0485  -5.0203  -5.0011  -4.9295  -4.9270  -4.5058  -4.4615  -4.2544
    -4.2478  -4.1959  -3.8468  -3.7545  -3.6266  -3.5430  -3.5036  -3.4375
    -3.4275  -3.4194  -3.4129  -3.2781  -3.1909  -3.1497  -3.0948  -3.0300
    -2.9893  -2.9885  -2.9457  -2.6904  -2.6880  -2.6652  -2.6495  -2.6392
    -2.6255  -2.5966  -2.5526  -2.4274  -2.4220  -2.3566  -2.3270  -2.3003
    -2.2139  -2.1953  -2.1596  -2.0331  -1.9857  -1.9574  -1.9468  -1.9413
    -1.9385  -1.9290  -1.6099  -1.5660  -1.5465  -1.5410  -1.5244  -1.4683
    -1.3672  -1.2875  -1.2723  -1.2655  -1.2500  -1.2405  -1.2386  -1.2019
    -1.1869  -1.1016  -1.0650  -1.0324  -1.0253  -1.0082  -0.9859  -0.9555
    -0.9481  -0.9462  -0.9451  -0.9304  -0.9294  -0.9179  -0.8954  -0.8827
    -0.8561  -0.8179  -0.8155  -0.8142  -0.7620  -0.7419  -0.7382  -0.7349
    -0.7313  -0.7259  -0.7243  -0.7082  -0.6955  -0.6862  -0.6786  -0.6694
    -0.6620  -0.6609  -0.6561  -0.6230  -0.6068  -0.5436  -0.5340  -0.5050
    -0.4903  -0.4715  -0.4620  -0.4512  -0.4340  -0.4085  -0.4003  -0.3954
    -0.3934  -0.3902  -0.3725  -0.3693  -0.3519  -0.3466  -0.3449  -0.3274
    -0.3218  -0.3197  -0.3004  -0.2997  -0.2964  -0.2903  -0.2834  -0.2757
    -0.2717  -0.2589  -0.2565  -0.2269  -0.2235  -0.2063  -0.1982  -0.1956
    -0.1906  -0.1865  -0.1856  -0.1799  -0.1779  -0.1701  -0.1673  -0.1607
    -0.1526  -0.1487  -0.1406  -0.1382  -0.1338  -0.1278  -0.1260  -0.1243
    -0.1210  -0.1133  -0.0985  -0.0799  -0.0738  -0.0540  -0.0514  -0.0486
    -0.0357  -0.0206   0.0053   0.0105   0.0219   0.0319   0.0341   0.0431
     0.0561   0.0580   0.0610   0.0631   0.0752   0.0914   0.0975   0.0994
     0.1154   0.1203   0.1297   0.1575   0.1781   0.2046   0.2123   0.2235
     0.2289   0.2458   0.2476   0.2529   0.2586   0.2724   0.2863   0.2875
     0.2919   0.2941   0.3071   0.3094   0.3234   0.3260   0.3319   0.3352
     0.3385   0.3409   0.3419   0.3673   0.3721   0.3726   0.3793   0.3870
     0.4058   0.4103   0.4246   0.4361   0.4367   0.4406   0.4455   0.4535
     0.4538   0.4548   0.4636   0.4693   0.4712   0.4733   0.4789   0.4929
     0.4992   0.5077   0.5106   0.5148   0.5209   0.5234   0.5322   0.5350
     0.5392   0.5488   0.5525   0.5555   0.5562   0.5590   0.5597   0.5769
     0.5808   0.5927   0.6044   0.6065   0.6078   0.6279   0.6370   0.6424
     0.6441   0.6454   0.6500   0.6572   0.6613   0.6676   0.6698   0.6780
     0.6829   0.6901   0.6980   0.7120   0.7188   0.7202   0.7240   0.7263
     0.7279   0.7361   0.7425   0.7461   0.7530   0.7556   0.7708   0.7767
     0.7836   0.7853   0.7989   0.8013   0.8074   0.8148   0.8189   0.8233
     0.8276   0.8322   0.8346   0.8364   0.8416   0.8456   0.8525   0.8540
     0.8558   0.8594   0.8707   0.8736   0.8823   0.8887   0.8911   0.8916
     0.8997   0.9028   0.9050   0.9108   0.9135   0.9229   0.9238   0.9268
     0.9306   0.9483   0.9510   0.9650   0.9708   0.9723   0.9789   0.9821
     0.9859   0.9892   1.0046   1.0138   1.0183   1.0216   1.0287   1.0343
     1.0496   1.0511   1.0664   1.0819   1.0824   1.0956   1.0985   1.1026
     1.1143   1.1173   1.1235   1.1257   1.1281   1.1299   1.1330   1.1395
     1.1420   1.1436   1.1510   1.1563   1.1574   1.1633   1.1649   1.1706
     1.1725   1.1804   1.1825   1.1854   1.1880   1.1946   1.2018   1.2055
     1.2171   1.2193   1.2253   1.2410   1.2479   1.2635   1.2703   1.2715
     1.2776   1.2808   1.2839   1.2885   1.2897   1.2905   1.2933   1.3067
     1.3144   1.3242   1.3249   1.3267   1.3316   1.3499   1.3509   1.3550
     1.3575   1.3626   1.3713   1.3781   1.3795   1.3843   1.3919   1.3941
     1.4009   1.4049   1.4083   1.4098   1.4228   1.4287   1.4291   1.4316
     1.4393   1.4430   1.4454   1.4486   1.4526   1.4577   1.4656   1.4676
     1.4707   1.4745   1.4807   1.4863   1.4870   1.4885   1.4927   1.5000
     1.5113   1.5152   1.5185   1.5198   1.5356   1.5386   1.5419   1.5583
     1.5622   1.5682   1.5703   1.5752   1.5857   1.5862   1.5869   1.5899
     1.5932   1.5986   1.6015   1.6109   1.6143   1.6189   1.6304   1.6414
     1.6424   1.6463   1.6502   1.6523   1.6602   1.6608   1.6794   1.6807
     1.6841   1.6869   1.6878   1.6898   1.6945   1.7052   1.7114   1.7124
     1.7135   1.7181   1.7189   1.7284   1.7373   1.7409   1.7428   1.7489
     1.7507   1.7549   1.7573   1.7605   1.7826   1.7875   1.7947   1.7975
     1.8041   1.8062   1.8091   1.8162   1.8180   1.8218   1.8275   1.8307
     1.8337   1.8374   1.8382   1.8418   1.8464   1.8534   1.8544   1.8553
     1.8606   1.8648   1.8708   1.8720   1.8739   1.8788   1.8803   1.8851
     1.8859   1.8894   1.8902   1.8942   1.8958   1.9031   1.9064   1.9159
     1.9188   1.9255   1.9270   1.9306   1.9317   1.9351   1.9358   1.9413
     1.9423   1.9509   1.9522   1.9538   1.9559   1.9766   1.9784   1.9804
     1.9876   1.9912   1.9948   2.0003   2.0116   2.0170   2.0247   2.0260
     2.0265   2.0296   2.0337   2.0405   2.0415   2.0450   2.0473   2.0527
     2.0609   2.0695   2.0725   2.0757   2.0781   2.0797   2.0860   2.0905
     2.0948   2.0971   2.1004   2.1013   2.1035   2.1063   2.1077   2.1145
     2.1158   2.1196   2.1230   2.1252   2.1288   2.1346   2.1351   2.1377
     2.1404   2.1498   2.1570   2.1586   2.1664   2.1833   2.1835   2.1879
     2.1913   2.1950   2.1963   2.1979   2.1997   2.2017   2.2027   2.2149
     2.2154   2.2180   2.2187   2.2233   2.2356   2.2376   2.2388   2.2393
     2.2399   2.2486   2.2491   2.2526   2.2552   2.2580   2.2624   2.2661
     2.2685   2.2697   2.2719   2.2778   2.2803   2.2836   2.2888   2.2928
     2.2952   2.2964   2.2972   2.3053   2.3069   2.3146   2.3194   2.3228
     2.3239   2.3310   2.3338   2.3379   2.3528   2.3572   2.3580   2.3682
     2.3868   2.3927   2.3948   2.4003   2.4240   2.4262   2.4346   2.4360
     2.4443   2.4591   2.4601   2.5442   2.5590   2.5681   2.6013   2.6162
     2.6280   2.6577   2.6676   2.7300   2.7630   2.8101   2.8366   2.8534
     2.8905   2.9183   2.9960   3.1812   3.2586   3.2847   3.2960   3.3282
     3.3687   3.5219   3.6609   3.7255   3.7969   3.7975   3.7991   3.9088
     3.9583   3.9911   4.0394   4.0432   4.0642   4.2085   4.2684   4.2920
     4.3410   4.3819   4.4511   4.4557   4.4874   4.4923   4.4971   4.5029
     4.5569   4.7569   4.9057   4.9366   5.0314   5.1113   5.1410   5.1535
     5.2541   5.2894   5.3371   5.3461   5.3653   5.4714   5.4955   5.5981
     5.6294   5.7831   5.8347   5.8487   5.8841   5.9139   5.9634   6.0099
     6.1110   6.1641   6.1719   6.2650   6.2721   6.3081   6.3976   6.3996
     6.6187   6.6206   6.6957   6.7104   6.7764   6.7936   6.8039   6.8091
     6.9843   7.1046   7.1163   7.3059   7.3469   7.4383   7.5222   7.5360
     7.5720   7.5895   7.6036   7.6266   7.6579   7.7125   7.7200   7.7310
     7.7411   7.7529   7.8236   7.8351   7.9542   8.0199   8.0321   8.1283
     8.1370   8.2392   8.3076   8.3095   8.4551   8.4954   8.5045   8.5731
     8.5853   8.6240   8.6520   8.6779   8.7114   8.8216   8.8366   8.8836
     8.9394   9.0686   9.1606   9.1765   9.1816   9.1952   9.2130   9.2164
     9.2679   9.2739   9.3336   9.3936   9.4008   9.5023   9.5335   9.5903
     9.7022   9.7158   9.7281   9.7395   9.7457   9.7976   9.8419   9.8607
     9.8813   9.8892   9.9948  10.0182  10.0239  10.0247  10.0634  10.1450
    10.2032  10.2090  10.3280  10.3336  10.4212  10.4910  10.5358  10.5446
    10.5475  10.5509  10.5734  10.6148

          k = 0.2500-0.2165 0.0000 (256316 PWs)   bands (ev):

   -15.4547 -15.2096 -14.5738 -14.5443 -14.4678 -14.2248 -13.5976 -13.5692
   -13.1177 -13.1003 -12.5395 -12.3016 -12.1688 -12.1524 -11.6986 -11.6732
   -11.0616 -10.9764 -10.4063 -10.3938 -10.1814 -10.0985  -9.8702  -9.6444
    -8.7306  -8.7098  -8.2390  -8.1466  -8.1194  -8.0653  -7.5920  -7.5000
    -7.4603  -7.4452  -5.7933  -5.7669  -5.7329  -5.6585  -5.6323  -5.4626
    -5.4240  -5.2959  -5.0298  -5.0195  -4.8870  -4.8498  -4.2359  -4.2267
    -4.2230  -3.9001  -3.8991  -3.8440  -3.8127  -3.7839  -3.7669  -3.5254
    -3.4908  -3.4466  -3.3358  -3.2333  -3.2232  -3.1937  -3.0039  -2.9755
    -2.9724  -2.9550  -2.7852  -2.7068  -2.7020  -2.6272  -2.6176  -2.6094
    -2.5630  -2.5545  -2.5474  -2.5344  -2.2970  -2.2758  -2.2604  -2.2547
    -2.1500  -2.1391  -2.0636  -2.0615  -1.9626  -1.9464  -1.9347  -1.9291
    -1.7103  -1.6832  -1.6746  -1.6691  -1.6258  -1.5963  -1.4843  -1.4833
    -1.4646  -1.3790  -1.3412  -1.3237  -1.3148  -1.3014  -1.2713  -1.1774
    -1.1766  -1.1229  -1.1027  -1.0979  -1.0835  -1.0570  -1.0138  -1.0060
    -0.9621  -0.9536  -0.9281  -0.9138  -0.9029  -0.8665  -0.8626  -0.8589
    -0.8512  -0.8481  -0.8433  -0.8367  -0.8340  -0.8289  -0.8258  -0.8233
    -0.7625  -0.7578  -0.7334  -0.7328  -0.7230  -0.7186  -0.6693  -0.6552
    -0.6213  -0.6197  -0.5713  -0.5558  -0.5206  -0.5172  -0.4896  -0.4874
    -0.4826  -0.4742  -0.4436  -0.4429  -0.4359  -0.4189  -0.4168  -0.4074
    -0.3937  -0.3930  -0.3922  -0.3807  -0.3648  -0.3620  -0.3588  -0.3572
    -0.3554  -0.3486  -0.3468  -0.3231  -0.3029  -0.2832  -0.2775  -0.2773
    -0.2757  -0.2699  -0.2616  -0.2404  -0.2279  -0.2275  -0.2216  -0.2104
    -0.2061  -0.2059  -0.1986  -0.1906  -0.1762  -0.1710  -0.1647  -0.1472
    -0.1437  -0.1416  -0.1356  -0.1321  -0.1288  -0.1236  -0.1212  -0.1073
    -0.0827  -0.0681  -0.0559  -0.0452  -0.0418  -0.0295  -0.0252  -0.0233
    -0.0096   0.0015   0.0170   0.0298   0.0380   0.0517   0.0540   0.0554
     0.0668   0.0848   0.0901   0.0956   0.1022   0.1056   0.1178   0.1320
     0.1356   0.1494   0.1525   0.1596   0.1648   0.1757   0.1907   0.2289
     0.2296   0.2314   0.2422   0.2614   0.2639   0.2677   0.2717   0.2745
     0.2800   0.2859   0.3020   0.3122   0.3204   0.3370   0.3379   0.3439
     0.3543   0.3565   0.3601   0.3682   0.3784   0.3799   0.3864   0.3882
     0.3911   0.4062   0.4105   0.4163   0.4291   0.4360   0.4439   0.4507
     0.4572   0.4588   0.4605   0.4615   0.4709   0.4735   0.4838   0.4870
     0.4913   0.4962   0.4976   0.5048   0.5070   0.5086   0.5110   0.5227
     0.5248   0.5331   0.5478   0.5566   0.5606   0.5658   0.5700   0.5818
     0.5896   0.5912   0.5969   0.6066   0.6116   0.6194   0.6202   0.6253
     0.6339   0.6376   0.6463   0.6538   0.6582   0.6630   0.6687   0.6800
     0.6965   0.7101   0.7112   0.7158   0.7174   0.7183   0.7202   0.7317
     0.7362   0.7434   0.7483   0.7563   0.7602   0.7690   0.7747   0.7761
     0.7781   0.7807   0.7826   0.7928   0.7948   0.7994   0.8101   0.8117
     0.8221   0.8262   0.8285   0.8322   0.8333   0.8360   0.8418   0.8504
     0.8549   0.8603   0.8621   0.8663   0.8714   0.8840   0.8872   0.9103
     0.9144   0.9196   0.9221   0.9230   0.9240   0.9297   0.9376   0.9488
     0.9538   0.9575   0.9620   0.9676   0.9765   0.9863   0.9876   0.9900
     0.9930   0.9951   1.0038   1.0063   1.0099   1.0161   1.0197   1.0220
     1.0259   1.0351   1.0365   1.0433   1.0568   1.0778   1.0829   1.0849
     1.1078   1.1093   1.1185   1.1207   1.1244   1.1297   1.1399   1.1449
     1.1477   1.1485   1.1499   1.1525   1.1623   1.1642   1.1680   1.1695
     1.1820   1.1840   1.1895   1.1937   1.1979   1.2075   1.2108   1.2142
     1.2204   1.2257   1.2276   1.2378   1.2410   1.2471   1.2570   1.2579
     1.2651   1.2690   1.2696   1.2718   1.2848   1.2880   1.3105   1.3197
     1.3270   1.3278   1.3336   1.3371   1.3376   1.3467   1.3516   1.3659
     1.3669   1.3678   1.3844   1.3887   1.3982   1.4054   1.4102   1.4166
     1.4176   1.4183   1.4233   1.4260   1.4269   1.4323   1.4334   1.4485
     1.4510   1.4560   1.4584   1.4643   1.4682   1.4693   1.4831   1.4849
     1.4857   1.4934   1.4960   1.5021   1.5031   1.5075   1.5123   1.5168
     1.5244   1.5276   1.5292   1.5308   1.5345   1.5362   1.5433   1.5444
     1.5608   1.5658   1.5667   1.5688   1.5696   1.5729   1.5756   1.5822
     1.5845   1.5852   1.5904   1.5965   1.5979   1.6051   1.6157   1.6245
     1.6304   1.6326   1.6347   1.6441   1.6529   1.6573   1.6598   1.6642
     1.6720   1.6757   1.6784   1.6797   1.6836   1.6951   1.7034   1.7081
     1.7114   1.7121   1.7147   1.7152   1.7174   1.7236   1.7264   1.7275
     1.7437   1.7505   1.7527   1.7564   1.7618   1.7624   1.7744   1.7764
     1.7863   1.7904   1.7934   1.7958   1.7984   1.8046   1.8120   1.8196
     1.8207   1.8246   1.8300   1.8329   1.8384   1.8571   1.8607   1.8674
     1.8743   1.8760   1.8861   1.8903   1.8908   1.8971   1.9032   1.9084
     1.9090   1.9133   1.9194   1.9198   1.9233   1.9278   1.9292   1.9304
     1.9327   1.9345   1.9350   1.9415   1.9512   1.9537   1.9566   1.9607
     1.9707   1.9711   1.9826   1.9883   1.9898   1.9909   1.9930   1.9934
     1.9967   2.0012   2.0044   2.0062   2.0070   2.0103   2.0128   2.0199
     2.0253   2.0292   2.0298   2.0346   2.0348   2.0371   2.0406   2.0431
     2.0439   2.0489   2.0599   2.0702   2.0718   2.0758   2.0811   2.0838
     2.0861   2.0871   2.0896   2.0924   2.0954   2.0971   2.1109   2.1184
     2.1217   2.1247   2.1301   2.1330   2.1341   2.1402   2.1436   2.1454
     2.1540   2.1551   2.1640   2.1685   2.1730   2.1744   2.1790   2.1803
     2.1847   2.1903   2.1960   2.1967   2.1982   2.2030   2.2042   2.2083
     2.2086   2.2118   2.2222   2.2234   2.2247   2.2285   2.2395   2.2408
     2.2430   2.2485   2.2505   2.2516   2.2554   2.2575   2.2586   2.2656
     2.2684   2.2716   2.2744   2.2751   2.2759   2.2821   2.2888   2.2914
     2.2937   2.2995   2.3011   2.3018   2.3082   2.3116   2.3131   2.3205
     2.3219   2.3310   2.3326   2.3355   2.3402   2.3426   2.3467   2.3627
     2.3659   2.3693   2.3717   2.3836   2.4020   2.4070   2.4354   2.4548
     2.4819   2.4866   2.5128   2.5263   2.5368   2.5455   2.5492   2.5695
     2.5757   2.5818   2.6253   2.7116   2.9268   2.9316   2.9484   2.9590
     2.9838   3.0451   3.0488   3.0507   3.1643   3.2714   3.3492   3.3738
     3.3978   3.4335   3.4966   3.5917   3.6092   3.6183   3.6659   3.7133
     3.7401   3.8853   3.9468   3.9699   3.9718   4.1935   4.3930   4.4199
     4.4608   4.5340   4.5976   4.6280   4.6381   4.6412   4.7624   4.8438
     4.8974   4.9211   4.9595   4.9604   5.0690   5.0979   5.1238   5.1489
     5.1630   5.2545   5.2841   5.3161   5.3549   5.4147   5.4197   5.4974
     5.5205   5.6731   5.7020   5.7190   5.7568   5.7981   5.8512   5.9954
     6.0233   6.1025   6.2057   6.2114   6.2271   6.2638   6.3347   6.4371
     6.5394   6.5444   6.6520   6.7195   6.7539   6.8239   6.8717   6.8950
     6.9827   7.0831   7.1649   7.2173   7.2477   7.2554   7.3192   7.5342
     7.5727   7.6064   7.6897   7.7288   7.7702   7.8825   7.8903   7.9152
     7.9458   7.9679   7.9819   7.9881   8.0237   8.1176   8.1366   8.1774
     8.2345   8.2364   8.2614   8.2692   8.2732   8.4467   8.4918   8.5978
     8.6594   8.7227   8.7761   8.7858   8.8045   8.8090   8.8629   8.9259
     8.9568   9.0195   9.0417   9.0559   9.0630   9.0735   9.2123   9.2526
     9.3441   9.3466   9.3562   9.3605   9.4411   9.4962   9.5243   9.5359
     9.5458   9.6029   9.6237   9.6856   9.7825   9.7897   9.8008   9.8160
     9.8204   9.8657   9.9037   9.9117   9.9483  10.0192  10.0478  10.1298
    10.1313  10.1542  10.2020  10.2132  10.2176  10.2540  10.3187  10.3769
    10.3997  10.4905  10.5616  10.6374

          k =-0.5000 0.0000 0.0000 (256496 PWs)   bands (ev):

   -15.1061 -15.1039 -14.6786 -14.6766 -14.6028 -14.6021 -13.5603 -13.5586
   -13.5583 -13.5576 -11.7879 -11.7844 -11.7814 -11.7802 -11.2928 -11.2795
   -10.9187 -10.8805 -10.8338 -10.8107 -10.2058 -10.2030  -9.8087  -9.8076
    -9.2480  -9.2455  -8.8328  -8.8309  -8.0002  -7.9961  -7.9876  -7.9822
    -6.4908  -6.4850  -6.4291  -6.4269  -6.4237  -6.4231  -4.9896  -4.9802
    -4.4717  -4.4702  -4.3053  -4.3029  -3.9984  -3.9968  -3.9536  -3.9519
    -3.8719  -3.8675  -3.8123  -3.8117  -3.7348  -3.7330  -3.7199  -3.7193
    -3.6946  -3.6914  -3.4724  -3.4636  -3.4485  -3.4392  -3.3705  -3.3663
    -3.0777  -3.0746  -3.0383  -3.0374  -2.8539  -2.8508  -2.6603  -2.6588
    -2.5690  -2.5680  -2.5679  -2.5671  -2.4453  -2.4411  -2.4409  -2.4373
    -2.4285  -2.4278  -2.2155  -2.2116  -1.9579  -1.9558  -1.8655  -1.8631
    -1.8535  -1.8501  -1.8424  -1.8395  -1.6947  -1.6926  -1.6823  -1.6806
    -1.5499  -1.5468  -1.5319  -1.5297  -1.1147  -1.1131  -1.1128  -1.1109
    -1.0364  -1.0358  -1.0355  -1.0350  -1.0271  -1.0258  -0.9841  -0.9823
    -0.8184  -0.8178  -0.8164  -0.8155  -0.7654  -0.7647  -0.7621  -0.7619
    -0.7551  -0.7546  -0.7523  -0.7518  -0.6983  -0.6977  -0.6530  -0.6525
    -0.6194  -0.6179  -0.6101  -0.6086  -0.5873  -0.5869  -0.5548  -0.5538
    -0.5487  -0.5475  -0.5225  -0.5218  -0.5139  -0.5136  -0.4917  -0.4909
    -0.4885  -0.4882  -0.4781  -0.4775  -0.4614  -0.4607  -0.4556  -0.4551
    -0.4415  -0.4408  -0.4369  -0.4352  -0.3777  -0.3771  -0.3753  -0.3695
    -0.3475  -0.3462  -0.3409  -0.3402  -0.3161  -0.3158  -0.3099  -0.3094
    -0.2882  -0.2855  -0.2746  -0.2737  -0.2666  -0.2664  -0.2503  -0.2499
    -0.2426  -0.2384  -0.2082  -0.2043  -0.1964  -0.1953  -0.1716  -0.1700
    -0.1478  -0.1465  -0.1346  -0.1333  -0.1328  -0.1318  -0.1235  -0.1226
    -0.1070  -0.1066  -0.0960  -0.0937  -0.0810  -0.0800  -0.0742  -0.0728
    -0.0671  -0.0657  -0.0489  -0.0487  -0.0415  -0.0403  -0.0051  -0.0038
     0.0640   0.0655   0.1054   0.1066   0.1194   0.1199   0.1365   0.1375
     0.1619   0.1637   0.1646   0.1677   0.1730   0.1744   0.1930   0.1988
     0.2010   0.2060   0.2154   0.2158   0.2198   0.2210   0.2490   0.2499
     0.2553   0.2585   0.2613   0.2625   0.3170   0.3192   0.3214   0.3272
     0.3571   0.3580   0.3645   0.3687   0.3751   0.3769   0.4017   0.4029
     0.4082   0.4105   0.4168   0.4178   0.4209   0.4227   0.4359   0.4378
     0.4589   0.4598   0.4626   0.4634   0.4866   0.4885   0.4971   0.4976
     0.5091   0.5095   0.5167   0.5296   0.5357   0.5361   0.5399   0.5410
     0.5512   0.5601   0.5631   0.5647   0.5816   0.5822   0.5826   0.5834
     0.5898   0.5903   0.6167   0.6269   0.6300   0.6331   0.6530   0.6559
     0.6675   0.6690   0.6848   0.6876   0.6882   0.6930   0.7061   0.7086
     0.7118   0.7228   0.7268   0.7354   0.7401   0.7604   0.7619   0.7657
     0.7679   0.7686   0.7788   0.7852   0.7907   0.7926   0.7988   0.8031
     0.8040   0.8135   0.8139   0.8153   0.8160   0.8184   0.8212   0.8227
     0.8409   0.8420   0.8613   0.8677   0.8695   0.8709   0.9037   0.9048
     0.9062   0.9075   0.9094   0.9172   0.9216   0.9217   0.9219   0.9276
     0.9298   0.9312   0.9329   0.9350   0.9352   0.9375   0.9489   0.9572
     0.9576   0.9588   0.9603   0.9633   0.9663   0.9725   0.9746   0.9758
     0.9764   0.9766   0.9895   0.9926   0.9934   0.9957   1.0020   1.0292
     1.0330   1.0382   1.0404   1.0579   1.0624   1.1027   1.1083   1.1095
     1.1140   1.1292   1.1308   1.1317   1.1346   1.1380   1.1412   1.1524
     1.1661   1.1681   1.1692   1.1718   1.1788   1.1819   1.1869   1.1887
     1.1902   1.1947   1.1959   1.2030   1.2103   1.2119   1.2178   1.2188
     1.2197   1.2205   1.2246   1.2258   1.2357   1.2373   1.2388   1.2507
     1.2524   1.2529   1.2686   1.2754   1.2914   1.2922   1.3002   1.3065
     1.3151   1.3163   1.3185   1.3232   1.3261   1.3270   1.3380   1.3408
     1.3415   1.3452   1.3500   1.3688   1.3740   1.3758   1.3759   1.3784
     1.3791   1.3877   1.3893   1.3960   1.3973   1.3998   1.4022   1.4057
     1.4100   1.4331   1.4346   1.4357   1.4389   1.4394   1.4405   1.4536
     1.4543   1.4568   1.4578   1.4716   1.4731   1.4741   1.4798   1.4885
     1.4896   1.4901   1.4935   1.5119   1.5129   1.5133   1.5154   1.5173
     1.5185   1.5201   1.5307   1.5370   1.5600   1.5664   1.5686   1.5706
     1.5753   1.5761   1.5934   1.5945   1.5948   1.5960   1.5977   1.6027
     1.6135   1.6144   1.6297   1.6303   1.6320   1.6426   1.6521   1.6547
     1.6587   1.6594   1.6609   1.6618   1.6668   1.6768   1.6773   1.6788
     1.6794   1.6839   1.6926   1.6943   1.6946   1.6966   1.7039   1.7063
     1.7213   1.7224   1.7243   1.7285   1.7357   1.7360   1.7446   1.7551
     1.7609   1.7801   1.7828   1.7859   1.7905   1.7936   1.8140   1.8155
     1.8205   1.8217   1.8256   1.8277   1.8365   1.8483   1.8577   1.8584
     1.8718   1.8741   1.8804   1.8900   1.8926   1.8930   1.9042   1.9043
     1.9130   1.9135   1.9137   1.9172   1.9209   1.9246   1.9305   1.9319
     1.9378   1.9404   1.9446   1.9455   1.9512   1.9528   1.9537   1.9544
     1.9625   1.9655   1.9768   1.9787   1.9790   1.9798   1.9975   1.9988
     2.0016   2.0049   2.0052   2.0058   2.0068   2.0126   2.0186   2.0261
     2.0346   2.0352   2.0355   2.0364   2.0400   2.0474   2.0481   2.0486
     2.0502   2.0518   2.0537   2.0548   2.0640   2.0656   2.0668   2.0726
     2.0924   2.0938   2.1029   2.1066   2.1079   2.1097   2.1157   2.1160
     2.1198   2.1207   2.1280   2.1290   2.1321   2.1345   2.1366   2.1395
     2.1399   2.1426   2.1448   2.1468   2.1469   2.1485   2.1512   2.1534
     2.1553   2.1659   2.1671   2.1741   2.1767   2.1830   2.1884   2.1898
     2.1907   2.2015   2.2018   2.2078   2.2117   2.2150   2.2189   2.2200
     2.2245   2.2251   2.2289   2.2374   2.2381   2.2401   2.2408   2.2413
     2.2431   2.2483   2.2527   2.2541   2.2575   2.2641   2.2670   2.2678
     2.2691   2.2701   2.2858   2.2903   2.2909   2.2953   2.3082   2.3085
     2.3140   2.3171   2.3174   2.3203   2.3290   2.3295   2.3307   2.3318
     2.3380   2.3394   2.3677   2.3787   2.3844   2.3846   2.3967   2.3981
     2.4049   2.4077   2.4261   2.4262   2.4484   2.4515   2.5621   2.5638
     2.5887   2.5898   2.7353   2.7369   3.0210   3.0280   3.0618   3.0630
     3.0739   3.0743   3.1036   3.1044   3.1164   3.1185   3.5384   3.5387
     3.5782   3.5788   3.8536   3.8550   3.8680   3.8724   3.9632   3.9679
     3.9925   3.9926   4.0634   4.0653   4.1552   4.1584   4.6015   4.6043
     4.6200   4.6219   4.7402   4.7471   4.7817   4.8036   4.8059   4.8189
     4.9061   4.9064   5.2974   5.3009   5.3717   5.3892   5.4535   5.4812
     5.4964   5.5019   5.5122   5.5647   5.6695   5.6699   5.6731   5.6811
     5.6988   5.7082   5.8179   5.8330   5.8471   5.8498   5.9045   5.9073
     5.9126   5.9251   6.0322   6.0454   6.0622   6.0916   6.1355   6.1750
     6.2164   6.2609   6.4983   6.5026   6.5372   6.5765   6.6642   6.6696
     6.7173   6.7228   6.7972   6.7986   6.8064   6.8343   6.8563   6.8858
     7.2861   7.2867   7.3546   7.3563   7.4140   7.4176   7.4385   7.4456
     7.8098   7.8225   7.8290   7.8420   7.9848   7.9881   8.0031   8.0099
     8.2902   8.2913   8.3987   8.3998   8.4061   8.4072   8.4231   8.4253
     8.5701   8.5723   8.6126   8.6135   8.6787   8.6853   8.6910   8.6931
     8.6989   8.6998   8.9680   8.9692   9.0476   9.0517   9.0588   9.0631
     9.1661   9.1664   9.2157   9.2315   9.4327   9.4377   9.5101   9.5113
     9.5379   9.5386   9.6281   9.6312   9.6748   9.6750   9.6830   9.6834
     9.8513   9.8572   9.9042   9.9079   9.9941   9.9969  10.1786  10.1793
    10.2791  10.2807  10.3504  10.3578  10.3683  10.3713  10.3748  10.3826
    10.3897  10.3905  10.4392  10.4431

          k =-0.5000-0.2165 0.0000 (256328 PWs)   bands (ev):

   -15.0843 -15.0820 -14.8394 -14.8383 -14.2069 -14.2055 -14.1776 -14.1764
   -12.7608 -12.7593 -12.7434 -12.7421 -11.2751 -11.2607 -11.0395 -11.0288
   -10.7289 -10.7274 -10.6433 -10.6428 -10.5654 -10.5469 -10.4297 -10.4105
    -8.8892  -8.8736  -8.7483  -8.7346  -7.8849  -7.8827  -7.8013  -7.8001
    -7.1441  -7.1388  -7.0149  -7.0056  -5.0078  -5.0061  -5.0028  -5.0013
    -4.4579  -4.4308  -4.3634  -4.3605  -4.3260  -4.3255  -4.3241  -4.3067
    -4.2718  -4.2690  -4.0493  -4.0476  -3.7454  -3.7406  -3.3644  -3.3625
    -3.3457  -3.3437  -3.3047  -3.3028  -3.2964  -3.2940  -3.2762  -3.2739
    -3.2716  -3.2701  -3.0143  -3.0119  -2.8268  -2.8257  -2.7286  -2.7270
    -2.7145  -2.7133  -2.6191  -2.6150  -2.5554  -2.5528  -2.5385  -2.5375
    -2.2877  -2.2867  -2.2187  -2.2151  -2.1299  -2.1254  -1.8669  -1.8657
    -1.7308  -1.7306  -1.7301  -1.7290  -1.4652  -1.4631  -1.4247  -1.4228
    -1.4161  -1.4157  -1.4069  -1.4048  -1.2491  -1.2475  -1.2341  -1.2334
    -1.1525  -1.1515  -1.0390  -1.0386  -1.0166  -1.0124  -0.9675  -0.9671
    -0.9594  -0.9587  -0.8940  -0.8922  -0.8560  -0.8546  -0.7506  -0.7499
    -0.7153  -0.7132  -0.6639  -0.6612  -0.6440  -0.6422  -0.6386  -0.6377
    -0.6037  -0.6031  -0.5959  -0.5954  -0.5884  -0.5874  -0.5767  -0.5740
    -0.5667  -0.5645  -0.5485  -0.5474  -0.5468  -0.5463  -0.5341  -0.5331
    -0.5286  -0.5276  -0.5152  -0.5144  -0.5133  -0.5131  -0.4685  -0.4676
    -0.4045  -0.4038  -0.3947  -0.3931  -0.3794  -0.3737  -0.3607  -0.3601
    -0.3484  -0.3474  -0.3243  -0.3240  -0.3148  -0.3143  -0.2989  -0.2981
    -0.2945  -0.2941  -0.2828  -0.2819  -0.2754  -0.2752  -0.2571  -0.2554
    -0.2326  -0.2323  -0.2299  -0.2264  -0.2093  -0.2087  -0.2071  -0.2062
    -0.1917  -0.1907  -0.1880  -0.1875  -0.1570  -0.1551  -0.1420  -0.1415
    -0.1363  -0.1339  -0.0971  -0.0941  -0.0826  -0.0815  -0.0343  -0.0340
    -0.0274  -0.0269  -0.0046  -0.0038   0.0134   0.0143   0.0247   0.0254
     0.0694   0.0704   0.0824   0.0829   0.0835   0.0839   0.0958   0.0982
     0.1078   0.1090   0.1367   0.1372   0.1423   0.1429   0.1481   0.1488
     0.1604   0.1611   0.1703   0.1714   0.2438   0.2581   0.2590   0.2638
     0.2704   0.2717   0.2917   0.2946   0.2958   0.2985   0.3046   0.3051
     0.3259   0.3407   0.3462   0.3471   0.3479   0.3485   0.3876   0.3908
     0.3932   0.3948   0.3985   0.4007   0.4017   0.4034   0.4358   0.4373
     0.4418   0.4437   0.4629   0.4656   0.4662   0.4703   0.5201   0.5211
     0.5392   0.5415   0.5674   0.5692   0.5707   0.5718   0.5725   0.5735
     0.5760   0.5781   0.5816   0.5822   0.5869   0.5894   0.6024   0.6123
     0.6127   0.6308   0.6538   0.6568   0.6581   0.6611   0.6622   0.6697
     0.6710   0.6717   0.7023   0.7035   0.7079   0.7098   0.7109   0.7112
     0.7114   0.7120   0.7144   0.7150   0.7279   0.7284   0.7369   0.7476
     0.7518   0.7687   0.7716   0.7790   0.7844   0.7867   0.7909   0.8071
     0.8157   0.8164   0.8313   0.8324   0.8469   0.8517   0.8597   0.8613
     0.8646   0.8649   0.8773   0.8790   0.8828   0.8886   0.8914   0.8928
     0.9019   0.9031   0.9174   0.9178   0.9199   0.9224   0.9227   0.9243
     0.9297   0.9348   0.9358   0.9430   0.9513   0.9515   0.9525   0.9537
     0.9631   0.9643   0.9646   0.9650   0.9733   0.9736   0.9753   0.9801
     0.9805   0.9919   0.9988   1.0293   1.0302   1.0351   1.0428   1.0453
     1.0469   1.0476   1.0479   1.0778   1.0817   1.0828   1.0837   1.1007
     1.1031   1.1091   1.1125   1.1138   1.1272   1.1447   1.1466   1.1559
     1.1574   1.1675   1.1749   1.1813   1.1902   1.1905   1.1923   1.1984
     1.2006   1.2032   1.2146   1.2186   1.2188   1.2204   1.2215   1.2311
     1.2387   1.2397   1.2405   1.2449   1.2540   1.2547   1.2560   1.2580
     1.2693   1.2726   1.2732   1.2764   1.2789   1.2836   1.2876   1.2958
     1.2974   1.3047   1.3092   1.3105   1.3206   1.3270   1.3319   1.3340
     1.3354   1.3373   1.3624   1.3654   1.3662   1.3733   1.3797   1.3847
     1.3890   1.3930   1.3977   1.4005   1.4029   1.4035   1.4087   1.4252
     1.4265   1.4274   1.4342   1.4368   1.4398   1.4455   1.4507   1.4545
     1.4548   1.4554   1.4562   1.4603   1.4622   1.4872   1.4922   1.4971
     1.5008   1.5023   1.5025   1.5101   1.5117   1.5199   1.5209   1.5266
     1.5370   1.5393   1.5450   1.5456   1.5505   1.5514   1.5554   1.5559
     1.5591   1.5673   1.5771   1.5790   1.5873   1.5915   1.5967   1.6007
     1.6027   1.6090   1.6115   1.6137   1.6146   1.6157   1.6257   1.6293
     1.6315   1.6399   1.6460   1.6487   1.6510   1.6610   1.6787   1.6850
     1.6857   1.6868   1.6892   1.7074   1.7099   1.7116   1.7226   1.7334
[...]
     atom   17 type  1   force =     0.00007930    0.00050620   -0.00002455
     atom   18 type  1   force =    -0.00004394    0.00014104    0.00033313
     atom   19 type  1   force =    -0.00007965    0.00055443    0.00020172
     atom   20 type  1   force =     0.00005018    0.00012431    0.00028979
     atom   21 type  1   force =     0.00010167   -0.00146712    0.00012643
     atom   22 type  1   force =     0.00005744   -0.00095690   -0.00198961
     atom   23 type  1   force =    -0.00009879   -0.00186198   -0.00030069
     atom   24 type  1   force =    -0.00004742   -0.00058566   -0.00170923
     atom   25 type  1   force =    -0.00002053    0.00048977   -0.00067893
     atom   26 type  1   force =    -0.00002362   -0.00148196    0.00051689
     atom   27 type  1   force =     0.00001180    0.00031012   -0.00056284
     atom   28 type  1   force =     0.00001436   -0.00116987    0.00023161
     atom   29 type  1   force =     0.00000462   -0.00076406   -0.00012320
     atom   30 type  1   force =    -0.00007249    0.00049688   -0.00011922
     atom   31 type  1   force =    -0.00001942   -0.00091359   -0.00008475
     atom   32 type  1   force =     0.00007795    0.00081872   -0.00025887
     atom   33 type  1   force =    -0.00000752    0.00113725    0.00056975
     atom   34 type  1   force =    -0.00001988   -0.00047279   -0.00026633
     atom   35 type  1   force =     0.00000837    0.00093915    0.00060077
     atom   36 type  1   force =     0.00000855   -0.00015161   -0.00047531
     atom   37 type  1   force =     0.00004228    0.00104481   -0.00197988
     atom   38 type  1   force =     0.00002236    0.00177829   -0.00008529
     atom   39 type  1   force =    -0.00004923    0.00105231   -0.00202817
     atom   40 type  1   force =    -0.00002162    0.00164243   -0.00003465
     atom   41 type  1   force =    -0.00006543   -0.00013074   -0.00057914
     atom   42 type  1   force =    -0.00005329   -0.00014132   -0.00026880
     atom   43 type  1   force =     0.00005741   -0.00048266   -0.00067737
     atom   44 type  1   force =     0.00003441   -0.00033233   -0.00011706
     atom   45 type  1   force =     0.00001535    0.00020372    0.00018864
     atom   46 type  1   force =     0.00007712    0.00068331    0.00092875
     atom   47 type  1   force =    -0.00001299   -0.00005510    0.00049267
     atom   48 type  1   force =    -0.00004680    0.00030958    0.00111870
     atom   49 type  1   force =     0.00005782    0.00004389    0.00056837
     atom   50 type  1   force =    -0.00006691    0.00016776    0.00037318
     atom   51 type  1   force =    -0.00006327    0.00000979    0.00034964
     atom   52 type  1   force =     0.00007275    0.00010431    0.00058162
     atom   53 type  1   force =    -0.00001147   -0.00042552    0.00084010
     atom   54 type  1   force =     0.00007379   -0.00020406    0.00027645
     atom   55 type  1   force =     0.00001071   -0.00071484    0.00085772
     atom   56 type  1   force =    -0.00008402   -0.00029496    0.00054551
     atom   57 type  1   force =    -0.00000616   -0.00001204    0.00010115
     atom   58 type  1   force =     0.00010282    0.00034129   -0.00040031
     atom   59 type  1   force =    -0.00000476   -0.00002455    0.00052157
     atom   60 type  1   force =    -0.00008861    0.00023429   -0.00041031
     atom   61 type  1   force =    -0.00017470    0.00020069    0.00102862
     atom   62 type  1   force =     0.00008744    0.00028611   -0.00045027
     atom   63 type  1   force =     0.00018765    0.00086757    0.00168781
     atom   64 type  1   force =    -0.00012217    0.00003498   -0.00004928
     atom   65 type  1   force =     0.00003244    0.00023661    0.00147662
     atom   66 type  1   force =    -0.00010268    0.00124891    0.00153378
     atom   67 type  1   force =    -0.00005165    0.00000862    0.00108307
     atom   68 type  1   force =     0.00014114    0.00079851    0.00151330
     atom   69 type  1   force =     0.00022766    0.00045785   -0.00014952
     atom   70 type  1   force =    -0.00010359    0.00000122    0.00035975
     atom   71 type  1   force =    -0.00015513    0.00063082    0.00083381
     atom   72 type  1   force =     0.00004792   -0.00043766    0.00069458
     atom   73 type  1   force =    -0.00009460   -0.00164682    0.00159486
     atom   74 type  1   force =     0.00008655   -0.00048821    0.00127487
     atom   75 type  1   force =     0.00010018   -0.00100316    0.00143293
     atom   76 type  1   force =    -0.00007144    0.00015163    0.00115447
     atom   77 type  1   force =    -0.00023191   -0.00017573   -0.00009977
     atom   78 type  1   force =    -0.00003589   -0.00087356    0.00103450
     atom   79 type  1   force =     0.00022896   -0.00010017   -0.00051067
     atom   80 type  1   force =     0.00001931   -0.00069466    0.00135112
     atom   81 type  1   force =    -0.00003639    0.00055896    0.00126368
     atom   82 type  1   force =     0.00036383    0.00052433   -0.00094534
     atom   83 type  1   force =     0.00002785   -0.00030803    0.00119039
     atom   84 type  1   force =    -0.00034716    0.00009587   -0.00110261
     atom   85 type  1   force =    -0.00001503   -0.00013244    0.00159060
     atom   86 type  1   force =     0.00046670    0.00088885    0.00139553
     atom   87 type  1   force =    -0.00001819   -0.00000290    0.00335655
     atom   88 type  1   force =    -0.00045917    0.00030718    0.00139260
     atom   89 type  1   force =     0.00058433    0.00111848   -0.00020979
     atom   90 type  1   force =    -0.00011761   -0.00094134    0.00071932
     atom   91 type  1   force =    -0.00046175    0.00062249    0.00065645
     atom   92 type  1   force =     0.00010883   -0.00057806    0.00020451
     atom   93 type  1   force =    -0.00000187   -0.00108178    0.00117295
     atom   94 type  1   force =    -0.00023323   -0.00021585    0.00232264
     atom   95 type  1   force =    -0.00007238    0.00025403    0.00196126
     atom   96 type  1   force =     0.00023381    0.00010088    0.00283359
     atom   97 type  1   force =     0.00002777   -0.00088942   -0.00081110
     atom   98 type  1   force =    -0.00016947   -0.00042906    0.00126597
     atom   99 type  1   force =     0.00001599   -0.00021257   -0.00121652
     atom  100 type  1   force =     0.00011465    0.00022450    0.00126467
     atom  101 type  1   force =    -0.00056635   -0.00163033    0.00030897
     atom  102 type  1   force =     0.00067936   -0.00176270    0.00041611
     atom  103 type  1   force =    -0.00001927   -0.00033802    0.00044298
     atom  104 type  1   force =    -0.00026500    0.00064572    0.00148385
     atom  105 type  1   force =     0.00001476   -0.00014334    0.00066158
     atom  106 type  1   force =     0.00020986    0.00000554    0.00046307
     atom  107 type  1   force =     0.00012490    0.00206136   -0.00053235
     atom  108 type  1   force =    -0.00012344    0.00110885    0.00079904
     atom  109 type  2   force =    -0.00002243   -0.00266119    0.00019229
     atom  110 type  2   force =    -0.00001840   -0.00075010    0.00206992
     atom  111 type  2   force =     0.00124381    0.00092819   -0.00428373
     atom  112 type  2   force =     0.00032316   -0.00154463   -0.00232674
     atom  113 type  2   force =    -0.00085842   -0.00235802   -0.00006818
     atom  114 type  2   force =    -0.00014177    0.00033256   -0.00269995
     atom  115 type  2   force =     0.00001827    0.00116557   -0.00148125
     atom  116 type  2   force =    -0.00001395   -0.00139415   -0.00109187
     atom  117 type  2   force =     0.00081644   -0.00235244    0.00024022
     atom  118 type  2   force =     0.00011211    0.00033596   -0.00274710
     atom  119 type  2   force =    -0.00120915    0.00097191   -0.00429143
     atom  120 type  2   force =    -0.00032953   -0.00148210   -0.00264518
     atom  121 type  2   force =     0.00001847    0.00026093    0.00168380
     atom  122 type  2   force =    -0.00003737   -0.00214216   -0.00456945
     atom  123 type  2   force =    -0.00096637   -0.00231130    0.00085231
     atom  124 type  2   force =     0.00084845   -0.00029954    0.00266431
     atom  125 type  2   force =     0.00107150   -0.00005503   -0.00040210
     atom  126 type  2   force =    -0.00075641   -0.00084528   -0.00022323
     atom  127 type  2   force =    -0.00007233   -0.00063712   -0.00092488
     atom  128 type  2   force =     0.00010323    0.00040009   -0.00139052
     atom  129 type  2   force =    -0.00099458    0.00004805   -0.00053809
     atom  130 type  2   force =     0.00063320   -0.00091094    0.00012486
     atom  131 type  2   force =     0.00089005   -0.00234643    0.00072314
     atom  132 type  2   force =    -0.00069214   -0.00021371    0.00290906
     atom  133 type  2   force =     0.00007973   -0.00059113    0.00013132
     atom  134 type  2   force =    -0.00000703    0.00167405    0.00000012
     atom  135 type  2   force =    -0.00044114    0.00045856   -0.00087591
     atom  136 type  2   force =     0.00046772    0.00097733   -0.00267758
     atom  137 type  2   force =     0.00033570    0.00075679   -0.00264108
     atom  138 type  2   force =    -0.00058002    0.00104803    0.00150408
     atom  139 type  2   force =    -0.00002653    0.00079188    0.00365419
     atom  140 type  2   force =    -0.00002828    0.00305724    0.00256319
     atom  141 type  2   force =    -0.00024865    0.00080688   -0.00279304
     atom  142 type  2   force =     0.00058244    0.00098328    0.00123197
     atom  143 type  2   force =     0.00039706    0.00037483   -0.00110064
     atom  144 type  2   force =    -0.00045514    0.00103501   -0.00250177
     atom  145 type  2   force =    -0.00001823    0.00119732   -0.00233978
     atom  146 type  2   force =     0.00004127    0.00074476   -0.00158261
     atom  147 type  2   force =    -0.00042983    0.00120524   -0.00158758
     atom  148 type  2   force =    -0.00089111   -0.00064792   -0.00239099
     atom  149 type  2   force =     0.00014654    0.00168767    0.00021554
     atom  150 type  2   force =     0.00089143    0.00086115    0.00110953
     atom  151 type  2   force =     0.00000833    0.00085236   -0.00379176
     atom  152 type  2   force =    -0.00003854   -0.00095902   -0.00584668
     atom  153 type  2   force =    -0.00021640    0.00170837    0.00010681
     atom  154 type  2   force =    -0.00081696    0.00090210    0.00096944
     atom  155 type  2   force =     0.00042444    0.00117195   -0.00135141
     atom  156 type  2   force =     0.00079665   -0.00066364   -0.00259469

     Total force =     0.022419     Total SCF correction =     0.000500

     number of scf cycles    =  14
     number of bfgs steps    =  13

     energy   old            =  -13670.9487132510 Ry
     energy   new            =  -13670.9492999391 Ry

     CASE: energy  _new < energy  _old

     new trust radius        =       0.0466290794 bohr
     new conv_thr            =       0.0000000100 Ry


ATOMIC_POSITIONS (angstrom)
Cu       0.000093201   0.030338651   6.516882225
Cu       1.844300611   1.748760853   6.526691339
Cu       3.688296984   0.029754176   6.519390385
Cu       5.533141935   1.748123954   6.527364662
Cu      -0.000364700   3.462859857   6.545342872
Cu       1.844543325   5.165363821   6.575997892
Cu       3.688826292   3.462386020   6.545497036
Cu       5.532993350   5.165462422   6.576295726
Cu      -0.000718254   6.850866078   6.605435628
Cu       1.843984680   8.526682965   6.603402680
Cu       3.689218404   6.851129146   6.607399806
Cu       5.533576447   8.527560158   6.604647592
Cu      -0.000104264  10.210605921   6.571302190
Cu       1.844788644  11.912663020   6.543760405
Cu       3.688618592  10.211608604   6.573529201
Cu       5.532741160  11.913530689   6.544848115
Cu      -0.000504779  13.630123480   6.529071077
Cu       1.844035274  15.351165878   6.519122657
Cu       3.688968837  13.630157274   6.525981160
Cu       5.533417797  15.351022968   6.518465117
Cu      -0.000707361   1.730024200   8.349038017
Cu       1.844186764   0.025162509   8.345808219
Cu       3.689190491   1.732510818   8.351102310
Cu       5.533311150   0.023865929   8.344713011
Cu       0.000134421   5.135865731   8.419995023
Cu       1.843566056   3.436273510   8.375158346
Cu       3.688339200   5.136340561   8.418761624
Cu       5.533970894   3.436342088   8.375352572
Cu       0.000127578   8.541662579   8.446686983
Cu       1.844116276   6.838045775   8.447212953
Cu       3.688398766   8.542172327   8.448085800
Cu       5.533398518   6.837387122   8.447044110
Cu      -0.000445773  11.939633625   8.372277988
Cu       1.844411762  10.242206806   8.418384314
Cu       3.688958275  11.941990620   8.372471947
Cu       5.533151827  10.241558471   8.418028244
Cu       0.000341688  15.356678867   8.345066032
Cu       1.843275371  13.646445667   8.346276401
Cu       3.688151792  15.354705189   8.342853891
Cu       5.534270869  13.647275432   8.346871922
Cu       0.000296449   0.014478726  10.195276652
Cu       1.844404924   1.696530051  10.194477328
Cu       3.688312822   0.009661943  10.190155685
Cu       5.533175717   1.696917254  10.194548118
Cu      -0.000634438   3.390327242  10.216381237
Cu       1.842177286   5.102892789  10.251775948
Cu       3.689026068   3.394254603  10.214247077
Cu       5.535188721   5.104067296  10.250091564
Cu       0.000511555   6.829685256  10.285535197
Cu       1.843440651   8.549175192  10.286890003
Cu       3.687978308   6.826716629  10.283556336
Cu       5.533860690   8.549952102  10.282339109
Cu       0.000084124  10.275024169  10.251858402
Cu       1.843222991  11.989629036  10.213594103
Cu       3.688290126  10.276141341  10.250748109
Cu       5.534282789  11.987391629  10.212476962
Cu      -0.000453412  13.682208761  10.191181769
Cu       1.843045459  15.367293965  10.190439178
Cu       3.688992939  13.684606023  10.188872465
Cu       5.534516650  15.368692846  10.190523196
Cu      -0.000273069   1.677091626  12.056484341
Cu       1.842098880   0.007216219  12.064155351
Cu       3.688678794   1.664474825  12.036522784
Cu       5.535594883   0.007875422  12.062878115
Cu      -0.000532511   5.054142339  12.065291869
Cu       1.844201459   3.350887968  12.047703692
Cu       3.689096484   5.058442495  12.064500858
Cu       5.533181132   3.353480371  12.048121319
Cu      -0.000711498   8.580875150  12.106670848
Cu       1.839373506   6.796524439  12.101328553
Cu       3.688835834   8.574681173  12.088377257
Cu       5.538156351   6.799957450  12.094756109
Cu      -0.000661945  12.031825948  12.048197799
Cu       1.838450269  10.325360555  12.061808816
Cu       3.688950857  12.032349819  12.039865787
Cu       5.538732170  10.321293007  12.061963017
Cu       0.000466253  15.371174224  12.061755032
Cu       1.845144411  13.711114233  12.046694688
Cu       3.688229634  15.373598664  12.063739324
Cu       5.532400134  13.711060917  12.041250132
Cu      -0.002698719  -0.002248071  13.933959876
Cu       1.838700136   1.657237854  13.951548257
Cu       3.691377408   0.009269346  13.930633082
Cu       5.538776119   1.659741674  13.951203003
Cu      -0.000957910   3.289774213  13.933164056
Cu       1.833091033   4.951250794  13.936840554
Cu       3.689297244   3.289440725  13.891593217
Cu       5.544177611   4.958226462  13.939357161
Cu      -0.006053514   6.766711106  13.867487333
Cu       1.837886663   8.615774779  13.850685629
Cu       3.694345494   6.769353949  13.842896231
Cu       5.539528337   8.612327278  13.856943149
Cu      -0.000279552  10.444487787  13.963547140
Cu       1.853478288  12.093105937  13.909628860
Cu       3.688609442  10.406669383  13.904292846
Cu       5.523935299  12.091135082  13.902643599
Cu       0.000365219  13.721950258  13.950549210
Cu       1.847664068  15.379347499  13.934343147
Cu       3.688015738  13.723190770  13.952002049
Cu       5.530123558  15.374398860  13.930257165
Cu       1.895003152  10.324503507  15.642203325
Cu       5.481470520  10.324624239  15.640326276
Cu       0.003012627   8.573742839  15.569454533
Cu       1.846883551   6.827679862  15.554175650
Cu       3.685587553   8.537744161  15.560469064
Cu       5.530880091   6.833743479  15.573348920
Cu      -0.001080507   5.068809351  15.678632275
Cu       3.689525591   5.056987482  15.608826634
C        0.000778282   0.663766060  18.121622153
C        0.000803902   2.084482400  18.107243596
C        1.230209555  -0.048215723  18.133262596
C        1.231424425   2.792175345  18.128423074
C        2.460506653   0.659540655  18.121572767
C        2.460616666   2.080172735  18.125807049
C        3.689820459  -0.051505942  18.127957181
C        3.689776932   2.787019733  18.134844230
C        4.919121735   0.659495657  18.121470228
C        4.918997635   2.080124972  18.126344280
C        6.149436244  -0.048251412  18.133871870
C        6.148155732   2.792062514  18.129859994
C        0.000740959   4.927126859  18.179087579
C        0.000708589   6.344974821  18.334575867
C        1.233510020   4.210736837  18.173942451
C        1.229579430   7.050946127  18.374494829
C        2.458786844   4.920572192  18.235019358
C        2.459674848   6.338585548  18.335908702
C        3.689718074   4.209783391  18.176853895
C        3.689475931   7.044197128  18.377935702
C        4.920659788   4.920310188  18.234899941
C        4.919394167   6.338629792  18.332507760
C        6.146002251   4.210588815  18.174953071
C        6.149750929   7.051091146  18.371498435
C        0.000544887   9.181706879  18.352741636
C        0.000613555  10.600434969  18.267677148
C        1.230207866   8.470654398  18.391977579
C        1.227314259  11.309248960  18.196454401
C        2.458998100   9.173970318  18.333151853
C        2.459164367  10.591991725  18.196515707
C        3.689504087   8.463668513  18.351767287
C        3.689640451  11.304409914  18.158794479
C        4.920096619   9.174048803  18.334291705
C        4.920068882  10.591982636  18.197967342
C        6.148888763   8.470846099  18.392259518
C        6.151948624  11.309139918  18.196338021
C        0.000692857  13.439481751  18.139802090
C        0.000721723  14.859974685  18.134220703
C        1.229763205  12.729096410  18.141857211
C        1.230686827  15.568874904  18.131848777
C        2.459706431  13.434809091  18.113465633
C        2.459900647  14.855519090  18.116222783
C        3.689732435  12.722356195  18.127326794
C        3.689799251  15.565539529  18.132882671
C        4.919778975  13.434748077  18.114461002
C        4.919632562  14.855447667  18.117550083
C        6.149722560  12.729003309  18.141724221
C        6.148898887  15.568832334  18.133066864



     Writing output data file gc.save
     Check: negative starting charge=   -0.001423
     NEW-OLD atomic charge density approx. for the potential
     Check: negative starting charge=   -0.001423

     negative rho (up, down):  1.493E-03 0.000E+00

     total cpu time spent up to now is    58768.5 secs

     Self-consistent Calculation

     iteration #  1     ecut=    80.00 Ry     beta=0.70
     Davidson diagonalization with overlap
     ethr =  1.00E-06,  avg # of iterations = 11.0

     negative rho (up, down):  4.694E-04 0.000E+00

     total cpu time spent up to now is    59454.5 secs

     total energy              =  -13670.94626965 Ry
     Harris-Foulkes estimate   =  -13670.96456723 Ry
     estimated scf accuracy    <       0.22610966 Ry

     iteration #  2     ecut=    80.00 Ry     beta=0.70
     Davidson diagonalization with overlap
     ethr =  1.64E-05,  avg # of iterations =  2.7

     negative rho (up, down):  3.209E-04 0.000E+00

     total cpu time spent up to now is    59671.5 secs

     total energy              =  -13670.94628322 Ry
     Harris-Foulkes estimate   =  -13670.95548903 Ry
     estimated scf accuracy    <       0.03758251 Ry

     iteration #  3     ecut=    80.00 Ry     beta=0.70
     Davidson diagonalization with overlap
