mpirun: INFO: switching to OpenMPI runtime version 1.10.2

     Program PWSCF v.5.4.0 starts on  6Oct2017 at 11:20:12 

     This program is part of the open-source Quantum ESPRESSO suite
     for quantum simulation of materials; please cite
         "P. Giannozzi et al., J. Phys.:Condens. Matter 21 395502 (2009);
          URL http://www.quantum-espresso.org", 
     in publications or presentations arising from this work. More details at
     http://www.quantum-espresso.org/quote

     Parallel version (MPI & OpenMP), running on      28 processor cores
     Number of MPI processes:                28
     Threads/MPI process:                     1
     R & G space division:  proc/nbgrp/npool/nimage =      28
     Waiting for input...
     Reading input from standard input
Warning: card &IONS ignored
Warning: card / ignored

     Current dimensions of program PWSCF are:
     Max number of different atomic species (ntypx) = 10
     Max number of k-points (npk) =  40000
     Max angular momentum in pseudopotentials (lmaxx) =  3
     WARNING: atomic wfc #  2 for atom type 4 has zero norm
     WARNING: atomic wfc #  4 for atom type 4 has zero norm
     WARNING: atomic wfc #  5 for atom type 4 has zero norm

     -------------------------------------
     Parameters for Dispersion Correction:
     -------------------------------------
       atom      VdW radius       C_6     

        Cu         2.952        374.666
        C_h        2.744         60.710
        C          2.744         60.710
        O          2.536         24.284
        H          1.892          4.857

     Subspace diagonalization in iterative solution of the eigenvalue problem:
     one sub-group per band group will be used
     scalapack distributed-memory algorithm (size of sub-group:  3*  3 procs)

 
     Parallelization info
     --------------------
     sticks:   dense  smooth     PW     G-vecs:    dense   smooth      PW
     Min         408     408    108                73226    73226    9928
     Max         410     410    109                73231    73231    9931
     Sum       11433   11433   3039              2050409  2050409  278033
 


     bravais-lattice index     =            0
     lattice parameter (alat)  =      13.9425  a.u.
     unit-cell volume          =   21209.0878 (a.u.)^3
     number of atoms/cell      =          150
     number of atomic types    =            5
     number of electrons       =      1302.00
     number of Kohn-Sham states=          781
     kinetic-energy cutoff     =      80.0000  Ry
     charge density cutoff     =     320.0000  Ry
     convergence threshold     =      1.0E-08
     mixing beta               =       0.7000
     number of iterations used =            8  local-TF  mixing
     Exchange-correlation      =  SLA  PW   PBE  PBE ( 1  4  3  4 0 0)

     celldm(1)=  13.942539  celldm(2)=   0.000000  celldm(3)=   0.000000
     celldm(4)=   0.000000  celldm(5)=   0.000000  celldm(6)=   0.000000

     crystal axes: (cart. coord. in units of alat)
               a(1) = (   1.000000   0.000000   0.000000 )  
               a(2) = (   0.000000   2.309401   0.000000 )  
               a(3) = (   0.000000   0.000000   3.388418 )  

     reciprocal axes: (cart. coord. in units 2 pi/alat)
               b(1) = (  1.000000  0.000000  0.000000 )  
               b(2) = (  0.000000  0.433013  0.000000 )  
               b(3) = (  0.000000  0.000000  0.295123 )  


     PseudoPot. # 1 for Cu read from file:
     /home/549/hxw549/Short/pseudopotentials/Cu.pbe-n-van_ak.UPF
     MD5 check sum: 601f7c30f7467666bec936e0661ce3e1
     Pseudo is Ultrasoft + core correction, Zval = 11.0
     Generated by new atomic code, or converted to UPF format
     Using radial grid of  867 points,  6 beta functions with: 
                l(1) =   0
                l(2) =   0
                l(3) =   1
                l(4) =   1
                l(5) =   2
                l(6) =   2
     Q(r) pseudized with  8 coefficients,  rinner =    1.400   1.400   1.400
                                                       1.400   1.400

     PseudoPot. # 2 for C  read from file:
     /home/549/hxw549/Short/pseudopotentials/C.star1s-pbe-mt_gipaw.UPF
     MD5 check sum: ef0cb3dee31bd9e4ba2a832a2c716264
     Pseudo is Norm-conserving, Zval =  5.0
     Generated by new atomic code, or converted to UPF format
     Using radial grid of 1073 points,  1 beta functions with: 
                l(1) =   0

     PseudoPot. # 3 for C  read from file:
     /home/549/hxw549/Short/pseudopotentials/C.pbe-mt_gipaw.UPF
     MD5 check sum: 5ac2f21f2c440b14befe521540822c15
     Pseudo is Norm-conserving, Zval =  4.0
     Generated by new atomic code, or converted to UPF format
     Using radial grid of 1073 points,  1 beta functions with: 
                l(1) =   0

     PseudoPot. # 4 for O  read from file:
     /home/549/hxw549/Short/pseudopotentials/O.pbe-van_gipaw.UPF
     MD5 check sum: 5ce2a047509d4f331db576c963e74b29
     Pseudo is Ultrasoft, Zval =  6.0
     Generated by new atomic code, or converted to UPF format
     Using radial grid of 1095 points,  4 beta functions with: 
                l(1) =   0
                l(2) =   0
                l(3) =   1
                l(4) =   1
     Q(r) pseudized with 0 coefficients 


     PseudoPot. # 5 for H  read from file:
     /home/549/hxw549/Short/pseudopotentials/H.pbe-van_ak.UPF
     MD5 check sum: 077eb6d537518a38cb46c6de387227b7
     Pseudo is Ultrasoft, Zval =  1.0
     Generated by new atomic code, or converted to UPF format
     Using radial grid of  615 points,  1 beta functions with: 
                l(1) =   0
     Q(r) pseudized with  8 coefficients,  rinner =    0.800

     atomic species   valence    mass     pseudopotential
        Cu            11.00    63.54600     Cu( 1.00)
        C_h            5.00    12.01070     C ( 1.00)
        C              4.00    12.01070     C ( 1.00)
        O              6.00    15.99940     O ( 1.00)
        H              1.00     1.00783     H ( 1.00)

     No symmetry found



   Cartesian axes

     site n.     atom                  positions (alat units)
         1           Cu  tau(   1) = (   0.0000796  -0.0010194   0.9996711  )
         2           Cu  tau(   2) = (   0.2500655   0.2302525   0.9998070  )
         3           Cu  tau(   3) = (   0.5000782  -0.0009871   0.9997096  )
         4           Cu  tau(   4) = (   0.7500925   0.2302455   0.9998059  )
         5           Cu  tau(   5) = (   0.0000785   0.4612871   0.9997269  )
         6           Cu  tau(   6) = (   0.2500641   0.6920697   0.9993800  )
         7           Cu  tau(   7) = (   0.5000814   0.4612918   0.9996504  )
         8           Cu  tau(   8) = (   0.7500985   0.6920755   0.9993862  )
         9           Cu  tau(   9) = (   0.0000831   0.9226495   0.9992261  )
        10           Cu  tau(  10) = (   0.2501082   1.1530621   0.9994448  )
        11           Cu  tau(  11) = (   0.5000823   0.9225993   0.9992402  )
        12           Cu  tau(  12) = (   0.7500588   1.1530635   0.9994423  )
        13           Cu  tau(  13) = (   0.0000837   1.3835599   0.9997329  )
        14           Cu  tau(  14) = (   0.2500624   1.6144357   0.9998048  )
        15           Cu  tau(  15) = (   0.5000842   1.3836349   0.9997726  )
        16           Cu  tau(  16) = (   0.7501032   1.6144320   0.9998040  )
        17           Cu  tau(  17) = (   0.0000797   1.8456347   0.9996583  )
        18           Cu  tau(  18) = (   0.2500996   2.0770019   0.9995635  )
        19           Cu  tau(  19) = (   0.5000828   1.8455838   0.9996249  )
        20           Cu  tau(  20) = (   0.7500601   2.0770024   0.9995695  )
        21           Cu  tau(  21) = (   0.0000762   0.2300880   1.2478020  )
        22           Cu  tau(  22) = (   0.2500749  -0.0011159   1.2475204  )
        23           Cu  tau(  23) = (   0.5000774   0.2302010   1.2477392  )
        24           Cu  tau(  24) = (   0.7500776  -0.0011076   1.2475295  )
        25           Cu  tau(  25) = (   0.0000791   0.6922011   1.2480278  )
        26           Cu  tau(  26) = (   0.2500708   0.4613499   1.2479295  )
        27           Cu  tau(  27) = (   0.5000781   0.6921136   1.2479976  )
        28           Cu  tau(  28) = (   0.7500843   0.4613461   1.2479221  )
        29           Cu  tau(  29) = (   0.0000792   1.1528664   1.2482450  )
        30           Cu  tau(  30) = (   0.2500767   0.9225201   1.2481436  )
        31           Cu  tau(  31) = (   0.5000811   1.1528467   1.2482331  )
        32           Cu  tau(  32) = (   0.7500827   0.9225211   1.2481488  )
        33           Cu  tau(  33) = (   0.0000796   1.6146638   1.2478472  )
        34           Cu  tau(  34) = (   0.2500780   1.3835920   1.2481526  )
        35           Cu  tau(  35) = (   0.5000826   1.6147432   1.2478907  )
        36           Cu  tau(  36) = (   0.7500845   1.3835882   1.2481608  )
        37           Cu  tau(  37) = (   0.0000753   2.0771625   1.2473394  )
        38           Cu  tau(  38) = (   0.2500797   1.8459518   1.2474804  )
        39           Cu  tau(  39) = (   0.5000788   2.0770921   1.2473374  )
        40           Cu  tau(  40) = (   0.7500786   1.8459481   1.2474855  )
        41           Cu  tau(  41) = (   0.0000736  -0.0014157   1.4968003  )
        42           Cu  tau(  42) = (   0.2501054   0.2298053   1.4967075  )
        43           Cu  tau(  43) = (   0.5000753  -0.0013072   1.4965172  )
        44           Cu  tau(  44) = (   0.7500440   0.2298195   1.4967296  )
        45           Cu  tau(  45) = (   0.0000715   0.4610974   1.4969703  )
        46           Cu  tau(  46) = (   0.2500888   0.6919294   1.4977424  )
        47           Cu  tau(  47) = (   0.5000768   0.4610199   1.4971307  )
        48           Cu  tau(  48) = (   0.7500576   0.6919217   1.4977398  )
        49           Cu  tau(  49) = (   0.0000730   0.9224488   1.4981802  )
        50           Cu  tau(  50) = (   0.2499887   1.1529644   1.4978341  )
        51           Cu  tau(  51) = (   0.5000709   0.9223233   1.4980553  )
        52           Cu  tau(  52) = (   0.7501545   1.1529594   1.4978490  )
        53           Cu  tau(  53) = (   0.0000770   1.3839580   1.4973583  )
        54           Cu  tau(  54) = (   0.2500530   1.6153014   1.4967700  )
        55           Cu  tau(  55) = (   0.5000690   1.3839959   1.4971714  )
        56           Cu  tau(  56) = (   0.7500984   1.6153015   1.4967707  )
        57           Cu  tau(  57) = (   0.0000733   1.8464668   1.4964703  )
        58           Cu  tau(  58) = (   0.2500842   2.0772456   1.4966335  )
        59           Cu  tau(  59) = (   0.5000792   1.8465124   1.4966717  )
        60           Cu  tau(  60) = (   0.7500644   2.0772510   1.4966332  )
        61           Cu  tau(  61) = (   0.0000638   0.2297751   1.7451486  )
        62           Cu  tau(  62) = (   0.2501701  -0.0014366   1.7457736  )
        63           Cu  tau(  63) = (   0.5000844   0.2291468   1.7456708  )
        64           Cu  tau(  64) = (   0.7499824  -0.0014424   1.7457830  )
        65           Cu  tau(  65) = (   0.0000602   0.6911029   1.7467899  )
        66           Cu  tau(  66) = (   0.2504221   0.4603267   1.7458317  )
        67           Cu  tau(  67) = (   0.5000727   0.6914519   1.7472561  )
        68           Cu  tau(  68) = (   0.7497202   0.4603534   1.7458865  )
        69           Cu  tau(  69) = (   0.0000719   1.1535755   1.7474669  )
        70           Cu  tau(  70) = (   0.2500072   0.9224186   1.7476215  )
        71           Cu  tau(  71) = (   0.5000490   1.1535692   1.7465697  )
        72           Cu  tau(  72) = (   0.7501153   0.9223864   1.7476191  )
        73           Cu  tau(  73) = (   0.0000638   1.6160732   1.7455026  )
        74           Cu  tau(  74) = (   0.2497330   1.3847176   1.7458671  )
        75           Cu  tau(  75) = (   0.5000631   1.6156467   1.7451393  )
        76           Cu  tau(  76) = (   0.7503862   1.3847369   1.7458435  )
        77           Cu  tau(  77) = (   0.0000770   2.0769447   1.7462625  )
        78           Cu  tau(  78) = (   0.2499949   1.8466574   1.7457450  )
        79           Cu  tau(  79) = (   0.5000721   2.0775977   1.7461689  )
        80           Cu  tau(  80) = (   0.7501471   1.8466631   1.7457456  )
        81           Cu  tau(  81) = (   0.0000732  -0.0004834   1.9909889  )
        82           Cu  tau(  82) = (   0.2501819   0.2294912   1.9912558  )
        83           Cu  tau(  83) = (   0.5000861  -0.0013523   1.9930947  )
        84           Cu  tau(  84) = (   0.7499715   0.2294701   1.9913129  )
        85           Cu  tau(  85) = (   0.0000570   0.4600464   1.9913092  )
        86           Cu  tau(  86) = (   0.2514505   0.6901905   1.9922810  )
        87           Cu  tau(  87) = (   0.5000863   0.4587665   1.9928792  )
        88           Cu  tau(  88) = (   0.7486661   0.6902270   1.9924293  )
        89           Cu  tau(  89) = (   0.0000432   0.9207000   1.9928486  )
        90           Cu  tau(  90) = (   0.2487672   1.1547418   1.9923022  )
        91           Cu  tau(  91) = (   0.5000624   0.9240642   1.9932645  )
        92           Cu  tau(  92) = (   0.7513422   1.1547327   1.9922105  )
        93           Cu  tau(  93) = (   0.0000302   1.3866843   1.9926055  )
        94           Cu  tau(  94) = (   0.2503901   1.6157236   1.9912853  )
        95           Cu  tau(  95) = (   0.5000722   1.3850823   1.9909882  )
        96           Cu  tau(  96) = (   0.7497148   1.6157477   1.9912993  )
        97           Cu  tau(  97) = (   0.0000745   1.8457983   1.9931296  )
        98           Cu  tau(  98) = (   0.2496101   2.0772360   1.9921726  )
        99           Cu  tau(  99) = (   0.5000544   1.8462656   1.9910722  )
       100           Cu  tau( 100) = (   0.7505374   2.0772188   1.9921776  )
       101           C   tau( 101) = (   0.0003514   0.0996206   2.3875980  )
       102           C   tau( 102) = (   0.0003701   0.2920050   2.3890198  )
       103           C   tau( 103) = (   0.1669612   0.0033417   2.3866707  )
       104           C   tau( 104) = (   0.1668783   0.3881831   2.3878569  )
       105           C   tau( 105) = (   0.3334610   0.0995345   2.3840961  )
       106           C   tau( 106) = (   0.3334624   0.2919976   2.3846407  )
       107           C   tau( 107) = (   0.5003433   0.0032210   2.3815949  )
       108           C   tau( 108) = (   0.5003848   0.3882447   2.3835900  )
       109           C   tau( 109) = (   0.6672318   0.0995321   2.3842977  )
       110           C   tau( 110) = (   0.6672623   0.2919796   2.3848652  )
       111           C   tau( 111) = (   0.8337338   0.0033419   2.3867885  )
       112           C   tau( 112) = (   0.8338733   0.3881847   2.3880842  )
       113           C   tau( 113) = (   0.0003755   0.6768170   2.3872017  )
       114           C   tau( 114) = (   0.0003705   0.8692143   2.3829758  )
       115           C   tau( 115) = (   0.1668213   0.5806199   2.3868163  )
       116           C   tau( 116) = (   0.1671458   0.9654808   2.3827998  )
       117           C   tau( 117) = (   0.3336031   0.6768600   2.3840505  )
       118           C   tau( 118) = (   0.3335861   0.8693009   2.3828900  )
       119           C   tau( 119) = (   0.5003895   0.5806735   2.3843175  )
       120           C   tau( 120) = (   0.5004091   0.9655913   2.3819279  )
       121           C   tau( 121) = (   0.6671518   0.6768504   2.3841477  )
       122           C   tau( 122) = (   0.6671644   0.8692819   2.3832393  )
       123           C   tau( 123) = (   0.8339022   0.5806086   2.3869446  )
       124           C   tau( 124) = (   0.8336023   0.9654704   2.3831168  )
       125           C   tau( 125) = (   0.0004181   1.2541496   2.3826128  )
       126           C   tau( 126) = (   0.0003993   1.4466513   2.3825401  )
       127           C   tau( 127) = (   0.1671589   1.1579558   2.3821526  )
       128           C   tau( 128) = (   0.1673137   1.5428735   2.3850149  )
       129           C   tau( 129) = (   0.3339620   1.2542045   2.3853071  )
       130           C   tau( 130) = (   0.3338989   1.4466168   2.3880294  )
       131           C   tau( 131) = (   0.5004018   1.1580276   2.3849937  )
       132           C   tau( 132) = (   0.5004021   1.5428398   2.3904590  )
       133           C   tau( 133) = (   0.6668434   1.2542120   2.3856468  )
       134           C   tau( 134) = (   0.6668966   1.4466375   2.3882526  )
       135           C   tau( 135) = (   0.8336471   1.1579389   2.3824963  )
       136           C   tau( 136) = (   0.8335007   1.5428799   2.3852986  )
       137           C   tau( 137) = (   0.0003615   1.8316508   2.3835264  )
       138           C   tau( 138) = (   0.0003333   2.0241360   2.3864695  )
       139           C   tau( 139) = (   0.1672436   1.7353275   2.3855411  )
       140           C   tau( 140) = (   0.1669289   2.1203047   2.3860356  )
       141           C   tau( 141) = (   0.3337845   1.8314735   2.3877347  )
       142           C   tau( 142) = (   0.3337475   2.0239656   2.3853679  )
       143           C   tau( 143) = (   0.5003620   1.7352461   2.3894686  )
       144           C   tau( 144) = (   0.5003277   2.1201495   2.3841265  )
       145           C   tau( 145) = (   0.6669386   1.8314724   2.3878035  )
       146           C   tau( 146) = (   0.6669171   2.0239714   2.3854075  )
       147           C   tau( 147) = (   0.8334847   1.7353460   2.3856745  )
       148           C   tau( 148) = (   0.8337301   2.1203065   2.3860703  )
       149           C_h tau( 149) = (   0.4817526   0.9548742   3.3884182  )
       150           O   tau( 150) = (   0.3804061   1.0742193   3.3884182  )

     number of k points=     6  gaussian smearing, width (Ry)=  0.1000
                       cart. coord. in units 2pi/alat
        k(    1) = (   0.0000000   0.0000000   0.0000000), wk =   0.2500000
        k(    2) = (   0.0000000  -0.2165064   0.0000000), wk =   0.2500000
        k(    3) = (   0.2500000   0.0000000   0.0000000), wk =   0.5000000
        k(    4) = (   0.2500000  -0.2165064   0.0000000), wk =   0.5000000
        k(    5) = (  -0.5000000   0.0000000   0.0000000), wk =   0.2500000
        k(    6) = (  -0.5000000  -0.2165064   0.0000000), wk =   0.2500000

     Dense  grid:  2050409 G-vectors     FFT dimensions: (  80, 192, 270)

     Largest allocated arrays     est. size (Mb)     dimensions
        Kohn-Sham Wavefunctions       109.29 Mb     (    9171,  781)
        NL pseudopotentials           259.87 Mb     (    9171, 1857)
        Each V/rho on FFT grid          2.34 Mb     (  153600)
        Each G-vector array             0.56 Mb     (   73230)
        G-vector shells                 0.27 Mb     (   35784)
     Largest temporary arrays     est. size (Mb)     dimensions
        Auxiliary wavefunctions       437.17 Mb     (    9171, 3124)
        Each subspace H/S matrix       16.54 Mb     (    1041, 1041)
        Each <psi_i|beta_j> matrix     22.13 Mb     (    1857,  781)
        Arrays for rho mixing          18.75 Mb     (  153600,    8)

     Initial potential from superposition of free atoms
     Check: negative starting charge=   -0.001301

     starting charge 1276.31751, renormalised to 1302.00000

     negative rho (up, down):  1.327E-03 0.000E+00
     Starting wfc are 1296 randomized atomic wfcs

     total cpu time spent up to now is      200.5 secs

     Self-consistent Calculation

     iteration #  1     ecut=    80.00 Ry     beta=0.70
     Davidson diagonalization with overlap
     ethr =  1.00E-04,  avg # of iterations = 21.8

     negative rho (up, down):  3.538E+01 0.000E+00

     total cpu time spent up to now is     3890.7 secs

     total energy              =   -8986.08625193 Ry
     Harris-Foulkes estimate   =  -17264.01945256 Ry
     estimated scf accuracy    <  181725.18471523 Ry

     iteration #  2     ecut=    80.00 Ry     beta=0.70
     Davidson diagonalization with overlap
     ethr =  1.00E-02,  avg # of iterations = 14.5

     negative rho (up, down):  3.886E+01 0.000E+00

     total cpu time spent up to now is     5814.2 secs

     total energy              =  -12304.27127289 Ry
     Harris-Foulkes estimate   =  -13788.30778205 Ry
     estimated scf accuracy    <   20575.31991624 Ry

     iteration #  3     ecut=    80.00 Ry     beta=0.70
     Davidson diagonalization with overlap
     ethr =  1.00E-02,  avg # of iterations =  7.0

     negative rho (up, down):  4.129E+01 0.000E+00

     total cpu time spent up to now is     6914.7 secs

     total energy              =  -12577.41259361 Ry
     Harris-Foulkes estimate   =  -13516.11779284 Ry
     estimated scf accuracy    <    6778.07853715 Ry

     iteration #  4     ecut=    80.00 Ry     beta=0.70
     Davidson diagonalization with overlap
     ethr =  1.00E-02,  avg # of iterations =  5.7

     negative rho (up, down):  3.429E+01 0.000E+00

     total cpu time spent up to now is     7859.5 secs

     total energy              =  -12912.85068734 Ry
     Harris-Foulkes estimate   =  -13265.33312031 Ry
     estimated scf accuracy    <    4092.32704811 Ry

     iteration #  5     ecut=    80.00 Ry     beta=0.70
     Davidson diagonalization with overlap
     ethr =  1.00E-02,  avg # of iterations =  5.0

     negative rho (up, down):  2.276E+01 0.000E+00

     total cpu time spent up to now is     8494.1 secs

     total energy              =  -12958.25809540 Ry
     Harris-Foulkes estimate   =  -13130.30752244 Ry
     estimated scf accuracy    <    1197.59604634 Ry

     iteration #  6     ecut=    80.00 Ry     beta=0.70
     Davidson diagonalization with overlap
     ethr =  1.00E-02,  avg # of iterations =  2.0

     negative rho (up, down):  1.574E+01 0.000E+00

     total cpu time spent up to now is     8901.2 secs

     total energy              =  -12914.99310997 Ry
     Harris-Foulkes estimate   =  -12989.06856823 Ry
     estimated scf accuracy    <     600.71374662 Ry

     iteration #  7     ecut=    80.00 Ry     beta=0.70
     Davidson diagonalization with overlap
     ethr =  1.00E-02,  avg # of iterations =  2.0

     negative rho (up, down):  1.062E+01 0.000E+00

     total cpu time spent up to now is     9245.1 secs

     total energy              =  -12882.29556823 Ry
     Harris-Foulkes estimate   =  -12935.74770802 Ry
     estimated scf accuracy    <     566.92837787 Ry

     iteration #  8     ecut=    80.00 Ry     beta=0.70
     Davidson diagonalization with overlap
     ethr =  1.00E-02,  avg # of iterations =  2.3

     negative rho (up, down):  9.614E+00 0.000E+00

     total cpu time spent up to now is     9590.6 secs

     total energy              =  -12875.28136457 Ry
     Harris-Foulkes estimate   =  -12890.24868633 Ry
     estimated scf accuracy    <     331.85149311 Ry

     iteration #  9     ecut=    80.00 Ry     beta=0.70
     Davidson diagonalization with overlap
     ethr =  1.00E-02,  avg # of iterations =  1.0

     negative rho (up, down):  5.619E+00 0.000E+00

     total cpu time spent up to now is     9909.8 secs

     total energy              =  -12833.69779481 Ry
     Harris-Foulkes estimate   =  -12878.66974786 Ry
     estimated scf accuracy    <     262.80079524 Ry

     iteration # 10     ecut=    80.00 Ry     beta=0.70
     Davidson diagonalization with overlap
     ethr =  1.00E-02,  avg # of iterations =  1.0

     negative rho (up, down):  1.899E+00 0.000E+00

     total cpu time spent up to now is    10228.5 secs

     total energy              =  -12782.30385205 Ry
     Harris-Foulkes estimate   =  -12836.65067667 Ry
     estimated scf accuracy    <     226.34602122 Ry

     iteration # 11     ecut=    80.00 Ry     beta=0.70
     Davidson diagonalization with overlap
     ethr =  1.00E-02,  avg # of iterations =  2.7

     negative rho (up, down):  1.465E+00 0.000E+00

     total cpu time spent up to now is    10586.7 secs

     total energy              =  -12756.61468887 Ry
     Harris-Foulkes estimate   =  -12795.23884065 Ry
     estimated scf accuracy    <     233.03099850 Ry

     iteration # 12     ecut=    80.00 Ry     beta=0.70
     Davidson diagonalization with overlap
     ethr =  1.00E-02,  avg # of iterations =  3.5

     negative rho (up, down):  5.434E+00 0.000E+00

     total cpu time spent up to now is    10970.5 secs

     total energy              =  -12764.19197302 Ry
     Harris-Foulkes estimate   =  -12783.92464056 Ry
     estimated scf accuracy    <     126.76683152 Ry

     iteration # 13     ecut=    80.00 Ry     beta=0.70
     Davidson diagonalization with overlap
     ethr =  9.74E-03,  avg # of iterations =  2.0

     negative rho (up, down):  7.154E+00 0.000E+00

     total cpu time spent up to now is    11310.4 secs

     total energy              =  -12761.27459219 Ry
     Harris-Foulkes estimate   =  -12771.52548841 Ry
     estimated scf accuracy    <      88.72343092 Ry

     iteration # 14     ecut=    80.00 Ry     beta=0.70
     Davidson diagonalization with overlap
     ethr =  6.81E-03,  avg # of iterations =  1.8

     negative rho (up, down):  6.576E+00 0.000E+00

     total cpu time spent up to now is    11647.2 secs

     total energy              =  -12760.63994416 Ry
     Harris-Foulkes estimate   =  -12765.37298801 Ry
     estimated scf accuracy    <      68.48679847 Ry

     iteration # 15     ecut=    80.00 Ry     beta=0.70
     Davidson diagonalization with overlap
     ethr =  5.26E-03,  avg # of iterations =  1.7

     negative rho (up, down):  5.333E+00 0.000E+00

     total cpu time spent up to now is    11979.4 secs

     total energy              =  -12756.25860470 Ry
     Harris-Foulkes estimate   =  -12761.36717432 Ry
     estimated scf accuracy    <      38.20678678 Ry

     iteration # 16     ecut=    80.00 Ry     beta=0.70
     Davidson diagonalization with overlap
     ethr =  2.93E-03,  avg # of iterations =  3.2

     negative rho (up, down):  4.261E+00 0.000E+00

     total cpu time spent up to now is    12344.5 secs

     total energy              =  -12754.37910390 Ry
     Harris-Foulkes estimate   =  -12757.44708265 Ry
     estimated scf accuracy    <      20.70800642 Ry

     iteration # 17     ecut=    80.00 Ry     beta=0.70
     Davidson diagonalization with overlap
     ethr =  1.59E-03,  avg # of iterations =  8.2

     negative rho (up, down):  3.426E+00 0.000E+00

     total cpu time spent up to now is    12839.7 secs

     total energy              =  -12754.03327605 Ry
     Harris-Foulkes estimate   =  -12755.33652517 Ry
     estimated scf accuracy    <      10.55269048 Ry

     iteration # 18     ecut=    80.00 Ry     beta=0.70
     Davidson diagonalization with overlap
     ethr =  8.10E-04,  avg # of iterations =  6.2

     negative rho (up, down):  3.958E+00 0.000E+00

     total cpu time spent up to now is    13269.2 secs

     total energy              =  -12753.86707451 Ry
     Harris-Foulkes estimate   =  -12754.61948415 Ry
     estimated scf accuracy    <      10.80268898 Ry

     iteration # 19     ecut=    80.00 Ry     beta=0.70
     Davidson diagonalization with overlap
     ethr =  8.10E-04,  avg # of iterations =  4.7

     negative rho (up, down):  2.675E+00 0.000E+00

     total cpu time spent up to now is    13670.3 secs

     total energy              =  -12752.91021800 Ry
     Harris-Foulkes estimate   =  -12754.34596894 Ry
     estimated scf accuracy    <       6.16901650 Ry

     iteration # 20     ecut=    80.00 Ry     beta=0.70
     Davidson diagonalization with overlap
     ethr =  4.74E-04,  avg # of iterations =  3.0

     negative rho (up, down):  2.122E+00 0.000E+00

     total cpu time spent up to now is    14033.1 secs

     total energy              =  -12752.58377727 Ry
     Harris-Foulkes estimate   =  -12753.08116640 Ry
     estimated scf accuracy    <       6.25856351 Ry

     iteration # 21     ecut=    80.00 Ry     beta=0.70
     Davidson diagonalization with overlap
     ethr =  4.74E-04,  avg # of iterations =  5.5

     negative rho (up, down):  1.217E+00 0.000E+00

     total cpu time spent up to now is    14449.2 secs

     total energy              =  -12751.64458325 Ry
     Harris-Foulkes estimate   =  -12752.79866656 Ry
     estimated scf accuracy    <       4.34430103 Ry

     iteration # 22     ecut=    80.00 Ry     beta=0.70
     Davidson diagonalization with overlap
     ethr =  3.34E-04,  avg # of iterations =  7.0

     negative rho (up, down):  5.444E-01 0.000E+00

     total cpu time spent up to now is    14910.3 secs

     total energy              =  -12750.77243266 Ry
     Harris-Foulkes estimate   =  -12751.75100784 Ry
     estimated scf accuracy    <       3.79204756 Ry

     iteration # 23     ecut=    80.00 Ry     beta=0.70
     Davidson diagonalization with overlap
     ethr =  2.91E-04,  avg # of iterations =  7.8

     negative rho (up, down):  6.061E-01 0.000E+00

     total cpu time spent up to now is    15387.0 secs

     total energy              =  -12750.28049281 Ry
     Harris-Foulkes estimate   =  -12750.86874842 Ry
     estimated scf accuracy    <       5.09810948 Ry

     iteration # 24     ecut=    80.00 Ry     beta=0.70
     Davidson diagonalization with overlap
     ethr =  2.91E-04,  avg # of iterations =  7.3

     negative rho (up, down):  2.894E-01 0.000E+00

     total cpu time spent up to now is    15849.2 secs

     total energy              =  -12750.30019538 Ry
     Harris-Foulkes estimate   =  -12750.56896972 Ry
     estimated scf accuracy    <       2.92526093 Ry

     iteration # 25     ecut=    80.00 Ry     beta=0.70
     Davidson diagonalization with overlap
     ethr =  2.25E-04,  avg # of iterations =  9.0

     negative rho (up, down):  3.748E-01 0.000E+00

     total cpu time spent up to now is    16343.7 secs

     total energy              =  -12750.27410129 Ry
     Harris-Foulkes estimate   =  -12750.45235074 Ry
     estimated scf accuracy    <       0.63938813 Ry

     iteration # 26     ecut=    80.00 Ry     beta=0.70
     Davidson diagonalization with overlap
     ethr =  4.91E-05,  avg # of iterations =  9.7

     negative rho (up, down):  2.476E-01 0.000E+00

     total cpu time spent up to now is    16878.9 secs

     total energy              =  -12750.24929123 Ry
     Harris-Foulkes estimate   =  -12750.31574107 Ry
     estimated scf accuracy    <       0.41121644 Ry

     iteration # 27     ecut=    80.00 Ry     beta=0.70
     Davidson diagonalization with overlap
     ethr =  3.16E-05,  avg # of iterations =  6.3

     negative rho (up, down):  1.690E-01 0.000E+00

     total cpu time spent up to now is    17319.5 secs

     total energy              =  -12750.24204345 Ry
     Harris-Foulkes estimate   =  -12750.27101254 Ry
     estimated scf accuracy    <       0.17101095 Ry

     iteration # 28     ecut=    80.00 Ry     beta=0.70
     Davidson diagonalization with overlap
     ethr =  1.31E-05,  avg # of iterations =  9.5

     negative rho (up, down):  8.330E-02 0.000E+00

     total cpu time spent up to now is    17857.4 secs

     total energy              =  -12750.24336596 Ry
     Harris-Foulkes estimate   =  -12750.24964175 Ry
     estimated scf accuracy    <       0.09525045 Ry

     iteration # 29     ecut=    80.00 Ry     beta=0.70
     Davidson diagonalization with overlap
     ethr =  7.32E-06,  avg # of iterations =  7.5

     negative rho (up, down):  5.983E-02 0.000E+00

     total cpu time spent up to now is    18344.1 secs

     total energy              =  -12750.24357817 Ry
     Harris-Foulkes estimate   =  -12750.24829951 Ry
     estimated scf accuracy    <       0.03003837 Ry

     iteration # 30     ecut=    80.00 Ry     beta=0.70
     Davidson diagonalization with overlap
     ethr =  2.31E-06,  avg # of iterations =  9.7

     negative rho (up, down):  5.836E-02 0.000E+00

     total cpu time spent up to now is    18886.0 secs

     total energy              =  -12750.24508402 Ry
     Harris-Foulkes estimate   =  -12750.24703065 Ry
     estimated scf accuracy    <       0.01587571 Ry

     iteration # 31     ecut=    80.00 Ry     beta=0.70
     Davidson diagonalization with overlap
     ethr =  1.22E-06,  avg # of iterations =  7.0

     negative rho (up, down):  3.870E-02 0.000E+00

     total cpu time spent up to now is    19358.4 secs

     total energy              =  -12750.24516922 Ry
     Harris-Foulkes estimate   =  -12750.24692706 Ry
     estimated scf accuracy    <       0.01574891 Ry

     iteration # 32     ecut=    80.00 Ry     beta=0.70
     Davidson diagonalization with overlap
     ethr =  1.21E-06,  avg # of iterations =  8.0

     negative rho (up, down):  1.815E-02 0.000E+00

     total cpu time spent up to now is    19848.7 secs

     total energy              =  -12750.24546146 Ry
     Harris-Foulkes estimate   =  -12750.24586002 Ry
     estimated scf accuracy    <       0.00153567 Ry

     iteration # 33     ecut=    80.00 Ry     beta=0.70
     Davidson diagonalization with overlap
     c_bands:  1 eigenvalues not converged
     c_bands:  1 eigenvalues not converged
     ethr =  1.18E-07,  avg # of iterations = 12.8

     negative rho (up, down):  6.405E-03 0.000E+00

     total cpu time spent up to now is    20463.7 secs

     total energy              =  -12750.24526700 Ry
     Harris-Foulkes estimate   =  -12750.24558842 Ry
     estimated scf accuracy    <       0.00108648 Ry

     iteration # 34     ecut=    80.00 Ry     beta=0.70
     Davidson diagonalization with overlap
     c_bands:  1 eigenvalues not converged
     ethr =  8.34E-08,  avg # of iterations =  9.8

     negative rho (up, down):  3.864E-03 0.000E+00

     total cpu time spent up to now is    20995.9 secs

     total energy              =  -12750.24527051 Ry
     Harris-Foulkes estimate   =  -12750.24538370 Ry
     estimated scf accuracy    <       0.00046177 Ry

     iteration # 35     ecut=    80.00 Ry     beta=0.70
     Davidson diagonalization with overlap
     ethr =  3.55E-08,  avg # of iterations =  3.3

     negative rho (up, down):  1.875E-03 0.000E+00

     total cpu time spent up to now is    21381.1 secs

     total energy              =  -12750.24530489 Ry
     Harris-Foulkes estimate   =  -12750.24530991 Ry
     estimated scf accuracy    <       0.00011937 Ry

     iteration # 36     ecut=    80.00 Ry     beta=0.70
     Davidson diagonalization with overlap
     ethr =  9.17E-09,  avg # of iterations =  5.3

     negative rho (up, down):  1.578E-03 0.000E+00

     total cpu time spent up to now is    21831.1 secs

     total energy              =  -12750.24531122 Ry
     Harris-Foulkes estimate   =  -12750.24530915 Ry
     estimated scf accuracy    <       0.00003938 Ry

     iteration # 37     ecut=    80.00 Ry     beta=0.70
     Davidson diagonalization with overlap
     ethr =  3.02E-09,  avg # of iterations =  6.7

     negative rho (up, down):  1.495E-03 0.000E+00

     total cpu time spent up to now is    22313.1 secs

     total energy              =  -12750.24531392 Ry
     Harris-Foulkes estimate   =  -12750.24531378 Ry
     estimated scf accuracy    <       0.00001385 Ry

     iteration # 38     ecut=    80.00 Ry     beta=0.70
     Davidson diagonalization with overlap
     ethr =  1.06E-09,  avg # of iterations =  2.0

     negative rho (up, down):  1.399E-03 0.000E+00

     total cpu time spent up to now is    22667.7 secs

     total energy              =  -12750.24531466 Ry
     Harris-Foulkes estimate   =  -12750.24531473 Ry
     estimated scf accuracy    <       0.00000470 Ry

     iteration # 39     ecut=    80.00 Ry     beta=0.70
     Davidson diagonalization with overlap
     ethr =  3.61E-10,  avg # of iterations =  2.0

     negative rho (up, down):  1.290E-03 0.000E+00

     total cpu time spent up to now is    23020.9 secs

     total energy              =  -12750.24531562 Ry
     Harris-Foulkes estimate   =  -12750.24531490 Ry
     estimated scf accuracy    <       0.00000193 Ry

     iteration # 40     ecut=    80.00 Ry     beta=0.70
     Davidson diagonalization with overlap
     ethr =  1.48E-10,  avg # of iterations =  3.0

     negative rho (up, down):  1.319E-03 0.000E+00

     total cpu time spent up to now is    23401.9 secs

     total energy              =  -12750.24531579 Ry
     Harris-Foulkes estimate   =  -12750.24531580 Ry
     estimated scf accuracy    <       0.00000033 Ry

     iteration # 41     ecut=    80.00 Ry     beta=0.70
     Davidson diagonalization with overlap
     ethr =  2.54E-11,  avg # of iterations =  3.0

     negative rho (up, down):  1.332E-03 0.000E+00

     total cpu time spent up to now is    23844.2 secs

     total energy              =  -12750.24531584 Ry
     Harris-Foulkes estimate   =  -12750.24531586 Ry
     estimated scf accuracy    <       0.00000020 Ry

     iteration # 42     ecut=    80.00 Ry     beta=0.70
     Davidson diagonalization with overlap
     ethr =  1.50E-11,  avg # of iterations =  3.0

     negative rho (up, down):  1.366E-03 0.000E+00

     total cpu time spent up to now is    24225.1 secs

     total energy              =  -12750.24531586 Ry
     Harris-Foulkes estimate   =  -12750.24531586 Ry
     estimated scf accuracy    <       0.00000003 Ry

     iteration # 43     ecut=    80.00 Ry     beta=0.70
     Davidson diagonalization with overlap
     ethr =  2.15E-12,  avg # of iterations =  3.0

     negative rho (up, down):  1.378E-03 0.000E+00

     total cpu time spent up to now is    24618.1 secs

     End of self-consistent calculation

          k = 0.0000 0.0000 0.0000 (256287 PWs)   bands (ev):

   -22.7238 -16.2987 -15.9283 -15.9243 -14.8204 -14.8199 -14.3358 -14.3340
   -13.9748 -13.9734 -13.9714 -13.9692 -13.0212 -13.0188 -12.9043 -12.9040
   -12.9026 -12.9019 -11.2109 -11.2097 -11.2090 -11.2071 -11.0012 -10.0061
    -9.3242  -9.3235  -9.3219  -9.3213  -8.4466  -8.4452  -8.4440  -8.4413
    -7.4555  -7.4532  -7.3807  -7.3801  -7.3781  -7.3772  -7.3642  -7.3638
    -7.1866  -5.9698  -5.8250  -5.8226  -5.8212  -5.8185  -5.6607  -5.6599
    -5.6597  -5.6587  -5.4367  -5.4342  -5.0342  -4.5739  -4.5700  -4.5523
    -4.5418  -4.5165  -4.5107  -4.5104  -4.1820  -4.1817  -4.0549  -4.0535
    -3.9388  -3.9387  -3.3706  -3.3699  -3.3689  -3.3683  -3.3582  -3.3575
    -3.2217  -3.2080  -3.2064  -3.1725  -3.1723  -3.1211  -2.9596  -2.9590
    -2.9572  -2.9566  -2.8589  -2.8564  -2.7593  -2.7592  -2.7229  -2.6825
    -2.6779  -2.6167  -2.6159  -2.5527  -2.5514  -2.5514  -2.5501  -2.3148
    -2.3139  -2.3119  -2.3115  -2.2526  -2.2524  -2.1431  -2.1430  -2.1035
    -2.1033  -2.1029  -2.1027  -1.9862  -1.9844  -1.9788  -1.9786  -1.9710
    -1.9710  -1.9700  -1.9700  -1.9020  -1.8464  -1.8458  -1.7883  -1.7269
    -1.6871  -1.6869  -1.6862  -1.6861  -1.6324  -1.6322  -1.6215  -1.6087
    -1.6064  -1.5457  -1.5375  -1.5130  -1.5125  -1.5106  -1.5088  -1.4765
    -1.4762  -1.4751  -1.4749  -1.4655  -1.4636  -1.3837  -1.3831  -1.3635
    -1.3198  -1.3183  -1.3180  -1.3164  -1.3017  -1.2478  -1.2117  -1.2100
    -1.2005  -1.1970  -1.1933  -1.1607  -1.1599  -1.1409  -1.1384  -1.1160
    -1.1126  -1.0689  -1.0623  -1.0416  -1.0413  -1.0401  -1.0393  -0.9958
    -0.9929  -0.9804  -0.9718  -0.9711  -0.9696  -0.9695  -0.9681  -0.9678
    -0.9634  -0.9632  -0.9448  -0.9091  -0.9077  -0.8995  -0.8747  -0.8742
    -0.8707  -0.8655  -0.8650  -0.8640  -0.8064  -0.8051  -0.8042  -0.8040
    -0.8028  -0.8021  -0.8014  -0.7987  -0.7981  -0.7972  -0.7971  -0.7948
    -0.7924  -0.7911  -0.7911  -0.7742  -0.7742  -0.7334  -0.7257  -0.7250
    -0.7223  -0.7216  -0.6376  -0.6376  -0.6330  -0.6327  -0.6054  -0.6042
    -0.5898  -0.5898  -0.5660  -0.5659  -0.5505  -0.5502  -0.5494  -0.5489
    -0.5347  -0.5321  -0.5309  -0.5118  -0.5114  -0.5092  -0.5087  -0.5004
    -0.4995  -0.4875  -0.4869  -0.4398  -0.4396  -0.3866  -0.3864  -0.3744
    -0.3727  -0.3721  -0.3711  -0.3550  -0.3549  -0.3513  -0.3513  -0.3510
    -0.3509  -0.3481  -0.3480  -0.3323  -0.3323  -0.3175  -0.3173  -0.3171
    -0.3168  -0.3002  -0.2995  -0.2469  -0.2444  -0.2440  -0.2373  -0.2371
    -0.2103  -0.2102  -0.2093  -0.2092  -0.1919  -0.1916  -0.1903  -0.1903
    -0.1893  -0.1652  -0.1648  -0.1640  -0.1634  -0.1585  -0.1583  -0.1577
    -0.1575  -0.1560  -0.1526  -0.1359  -0.1352  -0.1349  -0.1337  -0.1332
    -0.1143  -0.0656  -0.0655  -0.0632  -0.0630  -0.0567  -0.0140  -0.0136
    -0.0121  -0.0115  -0.0092  -0.0090  -0.0087  -0.0085  -0.0083   0.0089
     0.0098   0.0448   0.0457   0.0502   0.0506   0.0520   0.0763   0.0764
     0.0799   0.0801   0.0810   0.0845   0.0999   0.1007   0.1010   0.1012
     0.1023   0.1030   0.1182   0.1184   0.1188   0.1188   0.1311   0.1315
     0.1316   0.1324   0.1553   0.1562   0.1712   0.1734   0.1896   0.1904
     0.2215   0.2215   0.2233   0.2238   0.2479   0.2514   0.2908   0.2912
     0.2921   0.2929   0.2938   0.2972   0.3274   0.3295   0.3298   0.3306
     0.3312   0.3330   0.3403   0.3413   0.3789   0.3983   0.3983   0.4028
     0.4029   0.4046   0.4064   0.4064   0.4305   0.4402   0.4411   0.4413
     0.4414   0.4752   0.4775   0.4778   0.4786   0.4791   0.4943   0.4955
     0.4962   0.4969   0.5363   0.5366   0.5499   0.5505   0.5511   0.5527
     0.5530   0.5652   0.5825   0.5847   0.5874   0.5895   0.5905   0.5921
     0.5923   0.5925   0.5990   0.6017   0.6022   0.6107   0.6118   0.6121
     0.6130   0.6214   0.6216   0.6497   0.6630   0.6631   0.6722   0.6740
     0.7053   0.7058   0.7061   0.7065   0.7090   0.7091   0.7092   0.7093
     0.7205   0.7215   0.7317   0.7355   0.7360   0.7374   0.7399   0.7451
     0.7452   0.7566   0.7573   0.7635   0.7772   0.7776   0.7778   0.7782
     0.7888   0.7893   0.8007   0.8043   0.8060   0.8060   0.8098   0.8112
     0.8112   0.8141   0.8249   0.8529   0.8576   0.8594   0.8627   0.8629
     0.8679   0.8755   0.8765   0.8810   0.8813   0.8815   0.8822   0.9129
     0.9136   0.9291   0.9299   0.9333   0.9335   0.9479   0.9480   0.9566
     0.9579   0.9592   0.9598   0.9643   0.9793   0.9930   0.9955   0.9961
     0.9978   0.9983   0.9996   1.0178   1.0237   1.0331   1.0426   1.0426
     1.0519   1.0681   1.0685   1.0696   1.0698   1.0704   1.0747   1.0762
     1.0806   1.0807   1.0855   1.0864   1.0866   1.0868   1.0879   1.0956
     1.1017   1.1021   1.1210   1.1211   1.1239   1.1244   1.1299   1.1326
     1.1617   1.1628   1.1683   1.1695   1.1698   1.1703   1.1710   1.1712
     1.1772   1.1773   1.1775   1.1779   1.1805   1.1810   1.1936   1.1937
     1.2356   1.2395   1.2420   1.2438   1.2589   1.2613   1.2620   1.2628
     1.2656   1.2663   1.2788   1.2873   1.2884   1.2955   1.2974   1.2977
     1.2985   1.3022   1.3028   1.3033   1.3043   1.3045   1.3110   1.3317
     1.3329   1.3344   1.3349   1.3350   1.3353   1.3364   1.3369   1.3521
     1.3524   1.3531   1.3601   1.3682   1.3683   1.3693   1.3695   1.3727
     1.3784   1.3835   1.3849   1.4023   1.4110   1.4126   1.4139   1.4146
     1.4182   1.4233   1.4243   1.4301   1.4407   1.4428   1.4435   1.4478
     1.4505   1.4609   1.4743   1.4746   1.4818   1.4819   1.4932   1.4935
     1.4936   1.4939   1.4940   1.4949   1.4954   1.4956   1.4963   1.4974
     1.5067   1.5069   1.5079   1.5251   1.5253   1.5262   1.5263   1.5283
     1.5395   1.5400   1.5734   1.5746   1.5767   1.5779   1.5785   1.6166
     1.6173   1.6203   1.6210   1.6346   1.6415   1.6419   1.6443   1.6485
     1.6614   1.6881   1.6914   1.6920   1.6937   1.6940   1.6988   1.7020
     1.7021   1.9555   2.0135   2.1724   2.1725   2.2209   2.2227   2.2634
     2.2637   2.2640   2.2643   2.2851   2.2857   2.2859   2.2866   2.4669
     2.4670   2.5297   2.5301   2.5323   2.5325   2.5426   2.5435   2.7840
     2.7842   2.7853   2.7856   3.1548   3.1787   3.1796   3.1824   3.2499
     3.5944   3.5945   3.8828   3.8847   3.9134   3.9149   3.9155   3.9172
     3.9580   4.0223   4.0551   4.0574   4.0597   4.0642   4.0643   4.0645
     4.0660   4.0719   4.0847   4.0877   4.3188   4.3196   4.3236   4.3258
     4.4944   4.6608   4.8171   5.0403   5.0423   5.0690   5.0725   5.3656
     5.4834   5.4899   5.4991   5.7908   5.7922   5.7936   5.8017   5.9846
     5.9884   6.4276   6.4299   6.4472   6.4687   6.5480   6.5497   6.5516
     6.5557   6.7142   6.7148   6.7162   6.7182   6.8745   6.8789   6.8807
     6.8837   6.9595   6.9793   7.1157   7.1527   7.1555   7.1576   7.1585
     7.1638   7.4155   7.4197   7.5890   7.6375   7.6380   7.7571   7.7573
     7.7714   7.7734   8.0705   8.1204   8.1944   8.2063   8.2762   8.2964
     8.3895   8.3898   8.3959   8.3961   8.4455   8.4480   8.4988   8.5075
     8.6130   8.6763   8.6823   8.6847   8.6860   8.7248   8.7470   8.7491
     8.7500   8.7523   8.7789   8.9093   8.9104   8.9129   8.9165   9.0096
     9.1907   9.1926   9.1937   9.1955   9.1955   9.2157   9.4075   9.4113
     9.4696   9.5404   9.5817   9.5883   9.6185   9.6254   9.6374   9.6376
     9.8875  10.0998  10.1003  10.1985  10.2094

          k = 0.0000-0.2165 0.0000 (256176 PWs)   bands (ev):

   -22.7238 -16.2097 -16.2011 -15.4636 -15.4633 -14.2492 -14.2472 -14.2405
   -14.2389 -14.0027 -14.0017 -13.5287 -13.5267 -13.5194 -13.5179 -12.1330
   -12.1309 -12.1170 -12.1158 -11.9034 -11.9008 -10.2163 -10.2155 -10.2154
   -10.2137  -8.9720  -8.9688  -8.8134  -8.8118  -8.8091  -8.8071  -7.9834
    -7.9828  -7.9798  -7.9794  -7.1866  -6.8066  -6.8062  -6.8013  -6.8007
    -6.6520  -6.6488  -6.6468  -6.6424  -5.8351  -5.8350  -5.8330  -5.8321
    -4.9964  -4.9921  -4.9917  -4.9876  -4.9144  -4.9061  -4.7893  -4.7892
    -4.5739  -4.5700  -4.4367  -4.4360  -4.4298  -4.4293  -4.4032  -4.3975
    -3.9548  -3.9533  -3.4935  -3.4932  -3.2542  -3.2540  -3.2537  -3.2532
    -3.1332  -3.1256  -3.0079  -3.0077  -2.9821  -2.9817  -2.8798  -2.8781
    -2.8754  -2.8737  -2.7229  -2.6937  -2.6929  -2.6910  -2.6897  -2.5916
    -2.5899  -2.5352  -2.5349  -2.5310  -2.5301  -2.5297  -2.5296  -2.5271
    -2.5267  -2.4207  -2.4201  -2.2722  -2.2714  -2.1872  -2.1864  -2.1862
    -2.1856  -2.1796  -2.1794  -2.0924  -2.0924  -2.0919  -2.0919  -1.9365
    -1.9365  -1.9326  -1.9321  -1.9112  -1.9111  -1.8083  -1.8073  -1.7151
    -1.7148  -1.7069  -1.7067  -1.7059  -1.7040  -1.7002  -1.6999  -1.6902
    -1.6902  -1.6729  -1.6721  -1.5957  -1.5949  -1.4847  -1.4840  -1.4838
    -1.4830  -1.4079  -1.4076  -1.4073  -1.4071  -1.3245  -1.3238  -1.3185
    -1.3181  -1.2657  -1.2654  -1.2270  -1.2265  -1.2242  -1.2236  -1.2217
    -1.2207  -1.1903  -1.1895  -1.1883  -1.1861  -1.1788  -1.1774  -1.1702
    -1.1702  -1.1555  -1.1553  -1.0875  -1.0872  -1.0854  -1.0854  -1.0798
    -1.0795  -1.0372  -1.0370  -0.9996  -0.9995  -0.9964  -0.9961  -0.9516
    -0.9497  -0.9334  -0.9324  -0.9323  -0.9312  -0.9248  -0.9247  -0.8750
    -0.8748  -0.8680  -0.8674  -0.8576  -0.8574  -0.8430  -0.8427  -0.8425
    -0.8421  -0.7746  -0.7728  -0.7659  -0.7657  -0.7613  -0.7607  -0.7576
    -0.7575  -0.7425  -0.7421  -0.7285  -0.7275  -0.7028  -0.7027  -0.6952
    -0.6949  -0.6045  -0.6040  -0.6031  -0.6027  -0.5825  -0.5823  -0.5545
    -0.5540  -0.5529  -0.5525  -0.5501  -0.5500  -0.5201  -0.5196  -0.4889
    -0.4888  -0.4879  -0.4878  -0.4872  -0.4869  -0.4813  -0.4801  -0.4501
    -0.4500  -0.4291  -0.4291  -0.4274  -0.4257  -0.3938  -0.3933  -0.3929
    -0.3924  -0.3832  -0.3829  -0.3827  -0.3823  -0.3722  -0.3713  -0.3060
    -0.3057  -0.3040  -0.3036  -0.2745  -0.2727  -0.2487  -0.2486  -0.2429
    -0.2428  -0.2399  -0.2395  -0.2160  -0.2156  -0.2144  -0.2136  -0.2020
    -0.1975  -0.1952  -0.1944  -0.1938  -0.1929  -0.1928  -0.1920  -0.1909
    -0.1896  -0.1895  -0.1890  -0.1764  -0.1761  -0.1524  -0.1524  -0.1504
    -0.1503  -0.0863  -0.0861  -0.0860  -0.0857  -0.0818  -0.0775  -0.0768
    -0.0722  -0.0713  -0.0712  -0.0527  -0.0475  -0.0315  -0.0308  -0.0295
    -0.0293  -0.0288  -0.0284  -0.0274  -0.0223  -0.0220  -0.0218  -0.0199
    -0.0190  -0.0183  -0.0161   0.0369   0.0376   0.0419   0.0432   0.0594
     0.0597   0.0614   0.0629   0.0633   0.0635   0.0806   0.0817   0.0825
     0.0834   0.0837   0.0883   0.1108   0.1130   0.1139   0.1220   0.1301
     0.1303   0.1305   0.1307   0.1467   0.1501   0.1644   0.1647   0.1793
     0.1797   0.1920   0.1928   0.1928   0.1937   0.2331   0.2339   0.2370
     0.2377   0.2515   0.2531   0.2537   0.2542   0.2846   0.2851   0.3177
     0.3182   0.3218   0.3235   0.3520   0.3540   0.4109   0.4113   0.4402
     0.4405   0.4410   0.4414   0.4691   0.4699   0.4701   0.4704   0.4883
     0.4917   0.5098   0.5111   0.5121   0.5126   0.5131   0.5136   0.5138
     0.5157   0.5174   0.5221   0.5325   0.5334   0.5356   0.5359   0.5389
     0.5401   0.5402   0.5431   0.5718   0.5719   0.5844   0.5845   0.5846
     0.5855   0.5935   0.5935   0.6098   0.6113   0.6150   0.6153   0.6158
     0.6162   0.6165   0.6172   0.6284   0.6331   0.6351   0.6365   0.6377
     0.6384   0.6384   0.6392   0.6428   0.6429   0.6577   0.6596   0.7010
     0.7013   0.7142   0.7144   0.7249   0.7252   0.7256   0.7259   0.7330
     0.7339   0.7343   0.7353   0.7397   0.7398   0.7400   0.7401   0.7802
     0.7805   0.7820   0.7827   0.7978   0.7980   0.7994   0.8001   0.8010
     0.8022   0.8174   0.8181   0.8304   0.8310   0.8380   0.8383   0.8391
     0.8393   0.8913   0.8920   0.9432   0.9433   0.9472   0.9496   0.9501
     0.9525   0.9603   0.9606   0.9668   0.9671   0.9744   0.9750   0.9821
     0.9824   0.9836   0.9837   0.9954   0.9961   0.9988   0.9989   0.9991
     1.0011   1.0109   1.0125   1.0237   1.0238   1.0238   1.0240   1.0263
     1.0269   1.0317   1.0330   1.0362   1.0367   1.0465   1.0466   1.0506
     1.0510   1.0512   1.0518   1.0682   1.0684   1.0815   1.0825   1.0842
     1.0848   1.0863   1.0867   1.0953   1.0958   1.0963   1.0967   1.0968
     1.0969   1.1459   1.1475   1.1783   1.1830   1.1837   1.1838   1.2032
     1.2035   1.2119   1.2141   1.2145   1.2160   1.2262   1.2271   1.2432
     1.2445   1.2504   1.2506   1.2555   1.2563   1.2576   1.2578   1.2586
     1.2589   1.2599   1.2605   1.2607   1.2609   1.2672   1.2676   1.2814
     1.2840   1.2888   1.2898   1.2900   1.2908   1.2980   1.2992   1.3270
     1.3272   1.3283   1.3289   1.3344   1.3348   1.3374   1.3384   1.3551
     1.3553   1.3559   1.3562   1.3688   1.3688   1.3707   1.3714   1.3742
     1.3743   1.3898   1.3903   1.3913   1.3916   1.4090   1.4094   1.4126
     1.4130   1.4310   1.4311   1.4374   1.4379   1.4386   1.4391   1.4527
     1.4530   1.4536   1.4539   1.4706   1.4712   1.4841   1.4842   1.4843
     1.4850   1.5039   1.5048   1.5069   1.5074   1.5084   1.5085   1.5087
     1.5091   1.5378   1.5378   1.5450   1.5453   1.5518   1.5521   1.5661
     1.5671   1.5786   1.5791   1.5795   1.5798   1.5831   1.5849   1.5956
     1.5981   1.6473   1.6477   1.6478   1.6481   1.7511   1.7512   1.7791
     1.7800   1.7946   1.7946   1.7948   1.7954   1.8466   1.8483   1.8484
     1.8515   1.8720   1.8723   1.8726   1.8731   1.9090   1.9126   2.2345
     2.2372   2.2400   2.2438   2.4818   2.4818   2.4821   2.4822   2.5536
     2.5544   2.6264   2.6265   2.6301   2.6303   2.6379   2.6382   2.7665
     2.7683   2.8302   2.8310   2.8454   2.8456   2.9793   2.9802   3.2261
     3.2261   3.2535   3.2536   3.4855   3.4892   3.7303   3.7319   4.0554
     4.0575   4.0749   4.0766   4.0861   4.0880   4.1993   4.2018   4.2131
     4.2153   4.3943   4.3943   4.3945   4.3959   4.5708   4.5729   4.7720
     4.7758   4.8480   4.8526   5.1501   5.1555   5.1564   5.1623   5.4146
     5.4157   5.4161   5.4171   5.5003   5.5023   5.7385   5.7464   5.8979
     5.9126   5.9582   5.9700   6.4752   6.4773   6.5131   6.5142   6.5169
     6.5228   6.6239   6.6259   6.7252   6.7260   6.8911   6.8926   7.0815
     7.0936   7.1129   7.1221   7.1402   7.1434   7.1857   7.1870   7.1970
     7.1971   7.4136   7.4145   7.4777   7.4816   7.5197   7.5233   7.6701
     7.7718   7.8518   7.8530   7.8975   7.9057   8.2155   8.2159   8.2469
     8.4160   8.4165   8.4513   8.5249   8.5250   8.5274   8.5278   8.6479
     8.6523   8.7063   8.7248   8.7784   8.7816   8.7866   8.7888   8.8258
     8.8264   9.0081   9.0100   9.0397   9.0926   9.0965   9.2241   9.2259
     9.2719   9.3132   9.3257   9.3274   9.3311   9.4024   9.4219   9.4385
     9.4386   9.4422   9.4426   9.5695   9.5716   9.5757   9.5794   9.7470
     9.7477   9.8405   9.8412  10.0639  10.1735

          k = 0.2500 0.0000 0.0000 (256240 PWs)   bands (ev):

   -22.7238 -16.1744 -15.8046 -15.8007 -15.1873 -14.8221 -14.8182 -14.6987
   -14.6982 -13.7335 -13.7330 -13.2582 -12.9052 -12.9044 -12.9021 -12.9012
   -11.9835 -11.9812 -11.8740 -11.8734 -10.8958 -10.5821 -10.5798 -10.5684
   -10.0543  -9.9012  -9.6016  -9.6010  -9.2010  -8.9463  -8.9457  -8.3889
    -7.3807  -7.3805  -7.3785  -7.3775  -7.2639  -7.2624  -7.1866  -6.7995
    -6.5270  -5.9603  -5.7900  -5.7608  -5.7600  -5.7486  -5.7467  -5.2636
    -5.2610  -5.0196  -5.0183  -4.8690  -4.5739  -4.5701  -4.5160  -4.4172
    -4.3912  -4.3830  -4.3610  -4.2034  -4.2028  -4.1820  -4.1799  -3.9521
    -3.9498  -3.9072  -3.9056  -3.7915  -3.7915  -3.7407  -3.6101  -3.4537
    -3.4530  -3.3711  -3.3701  -3.3689  -3.3680  -3.2654  -3.2647  -3.2011
    -3.1952  -3.1687  -3.0432  -3.0431  -2.9816  -2.9714  -2.8080  -2.8058
    -2.7502  -2.7502  -2.7227  -2.6526  -2.6525  -2.5637  -2.5593  -2.3516
    -2.3154  -2.3149  -2.2831  -2.2830  -2.0503  -2.0503  -2.0343  -2.0322
    -1.9469  -1.9379  -1.8853  -1.8852  -1.8475  -1.8459  -1.8388  -1.8364
    -1.7799  -1.7515  -1.7514  -1.7440  -1.7439  -1.7239  -1.6932  -1.6753
    -1.6598  -1.6595  -1.6393  -1.6390  -1.5958  -1.5950  -1.5531  -1.5333
    -1.5313  -1.5279  -1.5279  -1.5267  -1.5266  -1.4937  -1.4919  -1.4714
    -1.4639  -1.4542  -1.4519  -1.4380  -1.4364  -1.3202  -1.2826  -1.2820
    -1.2616  -1.2346  -1.2174  -1.2172  -1.1924  -1.1916  -1.1868  -1.1722
    -1.1720  -1.1617  -1.1611  -1.1576  -1.1341  -1.1327  -1.1264  -1.1161
    -1.0850  -1.0827  -1.0791  -1.0776  -1.0757  -1.0751  -1.0608  -1.0590
    -1.0303  -1.0210  -0.9959  -0.9952  -0.9951  -0.9946  -0.9932  -0.9886
    -0.9652  -0.9606  -0.9587  -0.9494  -0.9423  -0.9422  -0.9288  -0.9285
    -0.9274  -0.9274  -0.9239  -0.9236  -0.9115  -0.8935  -0.8906  -0.8899
    -0.8585  -0.8532  -0.8518  -0.8481  -0.8451  -0.8439  -0.8426  -0.8313
    -0.8301  -0.8001  -0.7992  -0.7652  -0.7652  -0.7458  -0.7446  -0.7303
    -0.7187  -0.7183  -0.7063  -0.7021  -0.7000  -0.6979  -0.6893  -0.6882
    -0.6694  -0.5477  -0.5464  -0.5450  -0.5435  -0.5160  -0.5128  -0.5128
    -0.4977  -0.4976  -0.4964  -0.4943  -0.4744  -0.4743  -0.4739  -0.4738
    -0.4599  -0.4596  -0.4316  -0.4309  -0.4301  -0.4297  -0.4287  -0.4285
    -0.4073  -0.4072  -0.4072  -0.3466  -0.3462  -0.3462  -0.3432  -0.3394
    -0.3374  -0.3267  -0.3196  -0.3194  -0.3071  -0.3034  -0.3033  -0.2816
    -0.2769  -0.2769  -0.2740  -0.2401  -0.2400  -0.2398  -0.2397  -0.2262
    -0.2262  -0.2154  -0.2121  -0.2119  -0.2011  -0.2010  -0.1805  -0.1795
    -0.1741  -0.1485  -0.1442  -0.1428  -0.1422  -0.1412  -0.1277  -0.1262
    -0.1259  -0.1259  -0.0985  -0.0979  -0.0961  -0.0953  -0.0948  -0.0827
    -0.0805  -0.0613  -0.0555  -0.0554  -0.0440  -0.0430  -0.0119  -0.0099
    -0.0052  -0.0013  -0.0001   0.0084   0.0375   0.0376   0.0446   0.0450
     0.0459   0.0507   0.0509   0.0559   0.0580   0.0590   0.0593   0.0637
     0.0647   0.0681   0.0859   0.0861   0.0906   0.0909   0.0969   0.0970
     0.1155   0.1158   0.1281   0.1293   0.1459   0.1681   0.1692   0.1698
     0.1714   0.1719   0.1740   0.1749   0.1939   0.1956   0.1959   0.1969
     0.1970   0.1979   0.2343   0.2344   0.2766   0.2770   0.3088   0.3106
     0.3108   0.3237   0.3252   0.3297   0.3299   0.3326   0.3352   0.3357
     0.3375   0.3405   0.3423   0.3534   0.3544   0.3545   0.3611   0.3613
     0.3659   0.3660   0.3777   0.3779   0.3814   0.3841   0.3872   0.3932
     0.4131   0.4160   0.4168   0.4563   0.4564   0.4621   0.4707   0.4747
     0.4813   0.4814   0.4987   0.4991   0.5012   0.5045   0.5157   0.5180
     0.5346   0.5365   0.5369   0.5388   0.5403   0.5486   0.5488   0.5502
     0.5504   0.5726   0.5820   0.5822   0.5979   0.5981   0.6034   0.6036
     0.6076   0.6078   0.6091   0.6126   0.6128   0.6334   0.6348   0.6348
     0.6481   0.6489   0.6499   0.6504   0.6523   0.6670   0.6673   0.6706
     0.6734   0.6738   0.6924   0.6928   0.7140   0.7145   0.7214   0.7224
     0.7270   0.7271   0.7306   0.7468   0.7583   0.7616   0.7810   0.7844
     0.7911   0.7962   0.7963   0.7995   0.7999   0.8088   0.8221   0.8286
     0.8314   0.8352   0.8356   0.8482   0.8492   0.8582   0.8605   0.8610
     0.8713   0.8797   0.8799   0.8805   0.8885   0.9090   0.9125   0.9128
     0.9133   0.9182   0.9358   0.9392   0.9475   0.9482   0.9492   0.9511
     0.9579   0.9592   0.9599   0.9608   0.9677   1.0053   1.0086   1.0091
     1.0121   1.0122   1.0142   1.0191   1.0256   1.0275   1.0465   1.0479
     1.0492   1.0494   1.0568   1.0571   1.0598   1.0733   1.0740   1.0750
     1.0763   1.0780   1.0787   1.0828   1.0856   1.0861   1.0883   1.0892
     1.0917   1.0983   1.1034   1.1177   1.1183   1.1188   1.1263   1.1264
     1.1284   1.1334   1.1338   1.1351   1.1475   1.1477   1.1621   1.1652
     1.1657   1.1667   1.1684   1.1796   1.1919   1.1948   1.1953   1.2042
     1.2043   1.2127   1.2136   1.2184   1.2197   1.2269   1.2368   1.2416
     1.2467   1.2497   1.2505   1.2714   1.2884   1.2919   1.2959   1.3023
     1.3034   1.3036   1.3106   1.3106   1.3121   1.3126   1.3200   1.3310
     1.3351   1.3352   1.3373   1.3374   1.3545   1.3556   1.3573   1.3581
     1.3590   1.3637   1.3697   1.3717   1.3722   1.3745   1.3757   1.3804
     1.3810   1.3851   1.3857   1.3903   1.3986   1.4064   1.4086   1.4133
     1.4152   1.4153   1.4173   1.4185   1.4377   1.4380   1.4386   1.4467
     1.4487   1.4618   1.4622   1.4685   1.4758   1.4771   1.4800   1.4806
     1.4838   1.4855   1.4855   1.4891   1.4919   1.4929   1.4995   1.5001
     1.5092   1.5220   1.5221   1.5236   1.5254   1.5258   1.5277   1.5282
     1.5409   1.5414   1.5516   1.5537   1.5643   1.5647   1.5703   1.5710
     1.5712   1.5768   1.5860   1.6055   1.6082   1.6407   1.6422   1.6472
     1.6821   1.6833   1.6870   1.7222   1.7406   1.7507   1.8115   1.8185
     1.8198   1.8199   1.8378   1.8586   1.8943   1.9423   2.0644   2.0868
     2.1333   2.1334   2.1494   2.1495   2.2365   2.2526   2.3202   2.3221
     2.6203   2.6243   2.6251   2.6280   3.0306   3.0307   3.0805   3.2498
     3.2500   3.2737   3.2738   3.3433   3.3490   3.5294   3.5474   3.6515
     3.6516   3.6894   3.6898   3.7613   3.7618   3.7787   3.7820   3.8064
     3.9335   3.9354   4.0370   4.0375   4.0551   4.0597   4.1160   4.2513
     4.2641   4.2712   4.3341   4.4515   4.5076   4.5236   4.7153   4.8504
     4.8906   4.8911   5.2374   5.2762   5.2765   5.2885   5.4123   5.4130
     5.4305   5.5321   5.5358   5.5662   5.6347   5.6615   5.6810   5.7657
     5.7716   5.8023   5.8086   5.9032   5.9035   5.9497   5.9607   6.0638
     6.0659   6.1230   6.1235   6.6901   6.7631   6.7644   6.7828   6.8104
     6.8745   6.8869   6.9015   6.9564   7.0517   7.0785   7.0997   7.1113
     7.1120   7.1364   7.3258   7.3278   7.3886   7.3914   7.5874   7.6028
     7.6155   7.6304   7.7348   7.7551   7.8531   7.8538   7.8777   8.0664
     8.0754   8.1250   8.1254   8.2346   8.2857   8.3084   8.3246   8.3757
     8.3825   8.3842   8.3973   8.4028   8.4774   8.4912   8.5188   8.7123
     8.7137   8.8914   8.9484   8.9996   9.0133   9.0774   9.1647   9.1951
     9.2427   9.2580   9.2802   9.3133   9.3153   9.3319   9.3470   9.4888
     9.4901   9.4974   9.5007   9.5464   9.5904   9.6530   9.6891   9.7573
     9.7857   9.7859   9.7962   9.8030  10.0337

          k = 0.2500-0.2165 0.0000 (256316 PWs)   bands (ev):

   -22.7238 -16.0856 -16.0770 -15.3407 -15.3404 -15.0995 -15.0910 -14.3647
   -14.3644 -13.8830 -13.8819 -13.1733 -13.1649 -12.9346 -12.9335 -12.4670
   -12.4668 -11.7916 -11.7890 -11.1693 -11.1681 -10.9124 -10.9099 -10.5308
   -10.5229  -9.4790  -9.4785  -8.9584  -8.9547  -8.8774  -8.8743  -8.3164
    -8.3129  -8.2257  -8.2244  -7.1866  -6.4993  -6.4952  -6.4729  -6.4722
    -6.3584  -6.3509  -6.1297  -6.1251  -5.7928  -5.7922  -5.6568  -5.6566
    -4.9971  -4.9955  -4.7515  -4.7429  -4.6702  -4.6696  -4.6259  -4.6259
    -4.5739  -4.5701  -4.2984  -4.2981  -4.2495  -4.2441  -4.0343  -4.0297
    -3.9856  -3.9850  -3.8085  -3.8068  -3.6509  -3.6433  -3.5094  -3.5000
    -3.4097  -3.4096  -3.4069  -3.4024  -3.3590  -3.3574  -3.0777  -3.0733
    -3.0498  -3.0489  -2.9191  -2.9185  -2.8650  -2.8648  -2.8604  -2.8600
    -2.7418  -2.7410  -2.7227  -2.7198  -2.7183  -2.4318  -2.4297  -2.3959
    -2.3955  -2.2659  -2.2653  -2.1895  -2.1892  -2.1207  -2.1204  -2.1198
    -2.1196  -1.9593  -1.9591  -1.9127  -1.9126  -1.8569  -1.8560  -1.7874
    -1.7832  -1.7646  -1.7643  -1.7619  -1.7617  -1.6964  -1.6953  -1.6720
    -1.6719  -1.6601  -1.6595  -1.6429  -1.6413  -1.6258  -1.6257  -1.6251
    -1.6247  -1.6182  -1.6179  -1.5972  -1.5953  -1.5326  -1.5317  -1.4178
    -1.4177  -1.3099  -1.3093  -1.3027  -1.3018  -1.2780  -1.2777  -1.2261
    -1.2260  -1.2132  -1.2125  -1.2124  -1.2054  -1.1973  -1.1971  -1.1865
    -1.1862  -1.1691  -1.1689  -1.1625  -1.1614  -1.1475  -1.1472  -1.1448
    -1.1445  -1.1374  -1.1360  -1.0803  -1.0785  -1.0761  -1.0752  -1.0628
    -1.0628  -1.0587  -1.0537  -1.0273  -1.0263  -1.0216  -1.0213  -0.9869
    -0.9868  -0.9751  -0.9750  -0.9709  -0.9699  -0.9456  -0.9455  -0.9217
    -0.9195  -0.9095  -0.9094  -0.9035  -0.9029  -0.8959  -0.8957  -0.8711
    -0.8709  -0.8494  -0.8494  -0.8180  -0.8167  -0.8112  -0.8107  -0.7254
    -0.7243  -0.7239  -0.7234  -0.7225  -0.7218  -0.7051  -0.7043  -0.6688
    -0.6682  -0.6599  -0.6598  -0.6572  -0.6565  -0.6520  -0.6509  -0.6414
    -0.6409  -0.5996  -0.5994  -0.5978  -0.5973  -0.5624  -0.5620  -0.5143
    -0.5138  -0.5130  -0.5125  -0.4948  -0.4946  -0.4786  -0.4782  -0.4681
    -0.4669  -0.4483  -0.4473  -0.4353  -0.4350  -0.4022  -0.4020  -0.3965
    -0.3958  -0.3924  -0.3918  -0.3542  -0.3542  -0.3428  -0.3426  -0.3240
    -0.3238  -0.3139  -0.3139  -0.3132  -0.3130  -0.3079  -0.3071  -0.3033
    -0.3029  -0.2969  -0.2966  -0.2813  -0.2800  -0.2719  -0.2702  -0.2639
    -0.2639  -0.2353  -0.2345  -0.2180  -0.2176  -0.2024  -0.2017  -0.1862
    -0.1861  -0.1731  -0.1729  -0.1623  -0.1619  -0.1577  -0.1564  -0.1238
    -0.1235  -0.0987  -0.0986  -0.0613  -0.0612  -0.0528  -0.0526  -0.0505
    -0.0496  -0.0317  -0.0316  -0.0274  -0.0255  -0.0144  -0.0143  -0.0012
    -0.0011   0.0050   0.0056   0.0147   0.0152   0.0161   0.0170   0.0382
     0.0386   0.0480   0.0491   0.0501   0.0515   0.0537   0.0544   0.0549
     0.0550   0.0631   0.0638   0.0871   0.0872   0.0874   0.0876   0.1211
     0.1214   0.1289   0.1292   0.1343   0.1349   0.1535   0.1540   0.1701
     0.1713   0.1892   0.1894   0.1935   0.1951   0.1999   0.2031   0.2091
     0.2093   0.2115   0.2125   0.2231   0.2235   0.2313   0.2315   0.2595
     0.2600   0.3261   0.3261   0.3337   0.3338   0.3374   0.3377   0.3418
     0.3422   0.3433   0.3435   0.3475   0.3485   0.3693   0.3712   0.3756
     0.3765   0.3866   0.3870   0.3883   0.3885   0.3891   0.3893   0.4243
     0.4256   0.4371   0.4379   0.4482   0.4490   0.4603   0.4606   0.5003
     0.5009   0.5070   0.5076   0.5112   0.5114   0.5172   0.5186   0.5229
     0.5231   0.5347   0.5347   0.5368   0.5370   0.5371   0.5382   0.5690
     0.5696   0.5733   0.5734   0.5918   0.5919   0.6210   0.6211   0.6219
     0.6231   0.6559   0.6566   0.6617   0.6624   0.6639   0.6645   0.6676
     0.6700   0.6706   0.6711   0.6813   0.6831   0.6859   0.6873   0.6917
     0.6921   0.7043   0.7055   0.7164   0.7172   0.7226   0.7227   0.7271
     0.7272   0.7378   0.7383   0.7442   0.7446   0.7451   0.7454   0.7626
     0.7633   0.7673   0.7675   0.7723   0.7725   0.7754   0.7766   0.7779
     0.7790   0.8131   0.8132   0.8245   0.8255   0.8445   0.8506   0.8636
     0.8647   0.8781   0.8782   0.8812   0.8814   0.8861   0.8865   0.9092
     0.9097   0.9112   0.9113   0.9124   0.9126   0.9234   0.9239   0.9386
     0.9389   0.9399   0.9409   0.9507   0.9511   0.9605   0.9610   0.9845
     0.9846   1.0098   1.0101   1.0163   1.0166   1.0177   1.0184   1.0213
     1.0214   1.0259   1.0268   1.0550   1.0554   1.0596   1.0603   1.0751
     1.0752   1.0872   1.0875   1.0935   1.0942   1.1203   1.1223   1.1251
     1.1269   1.1363   1.1370   1.1439   1.1440   1.1463   1.1468   1.1469
     1.1475   1.1520   1.1529   1.1623   1.1629   1.1740   1.1744   1.1766
     1.1771   1.1951   1.1952   1.2220   1.2222   1.2287   1.2291   1.2325
     1.2329   1.2347   1.2353   1.2408   1.2427   1.2477   1.2478   1.2536
     1.2539   1.2598   1.2599   1.2606   1.2607   1.2686   1.2701   1.2788
     1.2792   1.2806   1.2808   1.2826   1.2829   1.2963   1.2967   1.3022
     1.3026   1.3275   1.3277   1.3353   1.3357   1.3511   1.3512   1.3552
     1.3558   1.3677   1.3680   1.3788   1.3797   1.3805   1.3812   1.3886
     1.3890   1.3925   1.3942   1.4049   1.4052   1.4055   1.4060   1.4175
     1.4177   1.4313   1.4314   1.4391   1.4391   1.4393   1.4395   1.4428
     1.4433   1.4504   1.4505   1.4624   1.4625   1.4674   1.4676   1.4782
     1.4807   1.4845   1.4850   1.4914   1.4916   1.4947   1.4948   1.4989
     1.5000   1.5013   1.5014   1.5109   1.5111   1.5112   1.5132   1.5362
     1.5362   1.5418   1.5430   1.5587   1.5587   1.5788   1.5795   1.5856
     1.5859   1.6082   1.6087   1.6151   1.6154   1.6397   1.6403   1.7063
     1.7077   1.7098   1.7110   1.7250   1.7252   1.8078   1.8107   1.8265
     1.8287   1.8454   1.8457   1.8473   1.8478   1.8955   1.8972   1.9083
     1.9088   2.1823   2.1827   2.2162   2.2162   2.3464   2.3466   2.6392
     2.6393   2.8420   2.8427   2.8490   2.8491   2.8622   2.8625   2.9012
     2.9021   3.0405   3.0407   3.1460   3.1466   3.5987   3.5995   3.6754
     3.6765   3.7456   3.7487   3.8948   3.8962   3.9051   3.9056   4.0518
     4.0529   4.0551   4.0597   4.1144   4.1145   4.2163   4.2170   4.4291
     4.4295   4.4580   4.4651   4.6165   4.6184   4.7222   4.7253   4.7969
     4.7995   4.8676   4.8710   5.0042   5.0046   5.0997   5.1072   5.2128
     5.2240   5.3523   5.3539   5.5049   5.5052   5.5185   5.5190   5.5485
     5.5496   5.8159   5.8163   5.9577   5.9579   6.0072   6.0156   6.1144
     6.1171   6.6511   6.6527   6.7000   6.7018   6.8120   6.8141   6.9292
     6.9329   7.1225   7.1243   7.1531   7.1567   7.1573   7.1605   7.2427
     7.2441   7.2767   7.2776   7.3852   7.3891   7.4055   7.4061   7.4781
     7.4859   7.4966   7.4970   7.7360   7.7395   7.8352   7.8616   7.8625
     7.9385   8.0608   8.0630   8.2488   8.2496   8.3134   8.3168   8.4141
     8.5586   8.5612   8.6229   8.6516   8.6527   8.7156   8.7171   8.7760
     8.7768   8.8683   8.8888   8.9936   8.9957   9.0185   9.0195   9.1419
     9.1974   9.2084   9.2101   9.2402   9.2407   9.2590   9.2793   9.2802
     9.3318   9.3335   9.4192   9.4216   9.4250   9.4287   9.4361   9.5389
     9.5429   9.5672   9.5879   9.7697   9.9902

          k =-0.5000 0.0000 0.0000 (256496 PWs)   bands (ev):

   -22.7238 -15.8032 -15.8024 -15.4353 -15.4341 -15.4308 -15.4306 -14.3356
   -14.3348 -14.3346 -14.3341 -12.5568 -12.5557 -12.5539 -12.5535 -11.9821
   -11.9818 -11.6534 -11.6518 -11.6497 -11.6488 -11.0018 -11.0011 -10.5801
   -10.5793 -10.0059 -10.0053  -9.6021  -9.6012  -8.7643  -8.7632  -8.7607
    -8.7597  -7.2629  -7.2626  -7.1970  -7.1961  -7.1944  -7.1936  -7.1867
    -5.7485  -5.7481  -5.2605  -5.2604  -5.0194  -5.0190  -4.7552  -4.7550
    -4.7527  -4.7526  -4.6020  -4.6014  -4.5988  -4.5986  -4.5739  -4.5702
    -4.5145  -4.5132  -4.5130  -4.5123  -4.3853  -4.3843  -4.2224  -4.2210
    -4.2186  -4.2175  -3.9314  -3.9300  -3.9252  -3.9244  -3.8989  -3.8988
    -3.4765  -3.4761  -3.4747  -3.4746  -3.3707  -3.3705  -3.3703  -3.3702
    -3.2212  -3.2205  -3.2079  -3.2072  -3.2066  -3.2058  -2.7224  -2.6954
    -2.6947  -2.6935  -2.6931  -2.6177  -2.6172  -2.6159  -2.6154  -2.5478
    -2.5476  -2.3479  -2.3474  -2.3469  -2.3467  -2.2453  -2.2445  -2.2417
    -2.2405  -1.8302  -1.8302  -1.8295  -1.8295  -1.8273  -1.8272  -1.6977
    -1.6976  -1.6970  -1.6968  -1.5999  -1.5997  -1.5996  -1.5995  -1.5535
    -1.5532  -1.5515  -1.5512  -1.4954  -1.4949  -1.4498  -1.4497  -1.4351
    -1.4351  -1.3747  -1.3746  -1.3742  -1.3740  -1.3565  -1.3564  -1.3077
    -1.3076  -1.3043  -1.3042  -1.3018  -1.3005  -1.2997  -1.2996  -1.2893
    -1.2891  -1.2862  -1.2858  -1.2808  -1.2802  -1.2394  -1.2393  -1.2378
    -1.2375  -1.2173  -1.2172  -1.2168  -1.2167  -1.1528  -1.1528  -1.1319
    -1.1316  -1.1313  -1.1309  -1.0987  -1.0986  -1.0982  -1.0980  -1.0978
    -1.0977  -1.0973  -1.0972  -1.0556  -1.0555  -1.0545  -1.0544  -1.0359
    -1.0358  -1.0048  -1.0047  -0.9569  -0.9567  -0.9307  -0.9307  -0.9290
    -0.9288  -0.8994  -0.8991  -0.8987  -0.8987  -0.8917  -0.8916  -0.8908
    -0.8906  -0.8793  -0.8790  -0.8769  -0.8767  -0.8493  -0.8492  -0.8460
    -0.8452  -0.7881  -0.7880  -0.7854  -0.7854  -0.7418  -0.7416  -0.6609
    -0.6609  -0.6604  -0.6603  -0.6235  -0.6233  -0.6206  -0.6204  -0.6192
    -0.6191  -0.6112  -0.6092  -0.6030  -0.6017  -0.5786  -0.5783  -0.5762
    -0.5756  -0.5619  -0.5616  -0.5444  -0.5442  -0.5426  -0.5425  -0.4459
    -0.4451  -0.4444  -0.4441  -0.4140  -0.4133  -0.4120  -0.4112  -0.4023
    -0.4021  -0.3521  -0.3519  -0.3515  -0.3514  -0.3512  -0.3511  -0.3492
    -0.3489  -0.3199  -0.3198  -0.3133  -0.3131  -0.3128  -0.3128  -0.2758
    -0.2756  -0.2742  -0.2741  -0.2423  -0.2423  -0.2421  -0.2421  -0.2320
    -0.2319  -0.1982  -0.1982  -0.1966  -0.1966  -0.1794  -0.1793  -0.1786
    -0.1785  -0.1514  -0.1513  -0.1408  -0.1406  -0.0807  -0.0807  -0.0795
    -0.0794  -0.0740  -0.0739  -0.0729  -0.0728  -0.0343  -0.0341  -0.0320
    -0.0318   0.0010   0.0013   0.0313   0.0317   0.0336   0.0336   0.0348
     0.0348   0.0351   0.0353   0.0357   0.0358   0.0363   0.0363   0.0917
     0.0921   0.1152   0.1158   0.1205   0.1207   0.1225   0.1226   0.1244
     0.1245   0.1250   0.1251   0.1327   0.1330   0.1347   0.1347   0.1402
     0.1416   0.1475   0.1480   0.1594   0.1594   0.1734   0.1736   0.1744
     0.1745   0.1746   0.1747   0.1827   0.1827   0.1831   0.1832   0.1975
     0.1975   0.2099   0.2099   0.2101   0.2103   0.2129   0.2129   0.2364
     0.2365   0.3273   0.3314   0.3420   0.3420   0.3445   0.3448   0.3474
     0.3507   0.3738   0.3740   0.3754   0.3759   0.3888   0.3890   0.3936
     0.3938   0.3970   0.3973   0.4006   0.4008   0.4053   0.4055   0.4063
     0.4064   0.4080   0.4082   0.4210   0.4211   0.4414   0.4425   0.4431
     0.4435   0.4469   0.4476   0.4488   0.4492   0.4601   0.4604   0.5147
     0.5149   0.5458   0.5459   0.5492   0.5499   0.5600   0.5604   0.5789
     0.5791   0.5822   0.5823   0.5847   0.5848   0.5853   0.5856   0.5895
     0.5900   0.5910   0.5912   0.5922   0.5926   0.6010   0.6011   0.6015
     0.6016   0.6259   0.6260   0.6402   0.6404   0.6609   0.6613   0.6738
     0.6747   0.6783   0.6785   0.6791   0.6799   0.6856   0.6860   0.6866
     0.6867   0.6901   0.6904   0.7062   0.7064   0.7093   0.7094   0.7250
     0.7253   0.7261   0.7265   0.7608   0.7610   0.7620   0.7620   0.7635
     0.7640   0.7818   0.7819   0.8179   0.8181   0.8222   0.8229   0.8239
     0.8246   0.8246   0.8251   0.8712   0.8715   0.8933   0.8935   0.8960
     0.8962   0.8976   0.8977   0.9050   0.9053   0.9081   0.9082   0.9112
     0.9116   0.9218   0.9223   0.9413   0.9415   0.9430   0.9432   0.9611
     0.9613   0.9621   0.9623   0.9633   0.9635   0.9667   0.9673   1.0034
     1.0036   1.0045   1.0045   1.0667   1.0670   1.0693   1.0694   1.0702
     1.0703   1.1030   1.1030   1.1034   1.1035   1.1157   1.1157   1.1235
     1.1235   1.1337   1.1337   1.1493   1.1496   1.1592   1.1603   1.1708
     1.1711   1.1736   1.1738   1.1744   1.1748   1.1800   1.1801   1.1831
     1.1832   1.1919   1.1921   1.1933   1.1934   1.1940   1.1941   1.1979
     1.1980   1.2324   1.2324   1.2335   1.2336   1.2634   1.2636   1.2700
     1.2701   1.2702   1.2704   1.2750   1.2751   1.2882   1.2883   1.2980
     1.2981   1.2986   1.2988   1.3090   1.3092   1.3106   1.3107   1.3189
     1.3193   1.3371   1.3374   1.3423   1.3425   1.3561   1.3563   1.3708
     1.3709   1.3730   1.3730   1.3732   1.3734   1.3764   1.3764   1.3863
     1.3864   1.3868   1.3870   1.3894   1.3895   1.3906   1.3910   1.3988
     1.3990   1.3992   1.3997   1.3999   1.4000   1.4068   1.4069   1.4213
     1.4214   1.4432   1.4436   1.4458   1.4467   1.4490   1.4490   1.4506
     1.4507   1.4671   1.4672   1.4703   1.4703   1.4858   1.4859   1.4931
     1.4931   1.5060   1.5061   1.5064   1.5064   1.5257   1.5259   1.5294
     1.5295   1.5363   1.5363   1.5369   1.5372   1.5382   1.5383   1.5536
     1.5540   1.5563   1.5564   1.5705   1.5706   1.5710   1.5710   1.5829
     1.5833   1.5947   1.5947   1.6362   1.6363   1.6649   1.6649   1.6690
     1.6691   1.7071   1.7078   2.0926   2.0926   2.0930   2.0933   2.2910
     2.2910   2.3185   2.3189   2.3395   2.3395   2.3470   2.3471   2.6839
     2.6842   2.6860   2.6864   2.8875   2.8876   2.8928   2.8933   3.2375
     3.2382   3.2414   3.2422   3.5297   3.5299   3.8243   3.8245   3.8249
     3.8250   3.9799   3.9808   3.9843   3.9852   4.0548   4.0619   4.1256
     4.1275   4.1318   4.1334   4.2604   4.2608   4.5211   4.5217   4.6410
     4.6414   4.8222   4.8222   4.8270   4.8279   4.8786   4.8790   4.9288
     4.9290   5.0731   5.0737   5.1001   5.1003   5.1083   5.1095   5.1362
     5.1363   5.1575   5.1586   5.2455   5.2495   5.2632   5.2683   5.6060
     5.6070   5.6152   5.6154   5.7515   5.7526   5.9807   5.9814   6.0493
     6.0513   6.0614   6.0643   6.1092   6.1095   6.1202   6.1204   6.5129
     6.5144   6.5476   6.5482   6.5821   6.5830   6.5949   6.5960   7.1626
     7.1640   7.1779   7.1791   7.1974   7.1974   7.6552   7.6560   7.6569
     7.6572   7.6582   7.6583   7.7039   7.7042   7.8682   7.8683   7.9523
     7.9529   7.9551   7.9559   8.1222   8.1234   8.1287   8.1305   8.2062
     8.2077   8.2149   8.2152   8.2322   8.2716   8.7048   8.7438   8.7672
     8.7924   8.8525   8.8945   8.8951   8.8992   8.8996   8.9185   9.1440
     9.1441   9.1492   9.1495   9.3173   9.3174   9.3677   9.4002   9.4311
     9.4934   9.5710   9.5728   9.5745   9.5753   9.5925   9.5992   9.5997
     9.6075   9.6114   9.6120   9.6185   9.6748

          k =-0.5000-0.2165 0.0000 (256328 PWs)   bands (ev):

   -22.7238 -15.7152 -15.7143 -15.7056 -15.7051 -14.9735 -14.9732 -14.9730
   -14.9722 -13.5259 -13.5249 -13.5245 -13.5240 -11.9019 -11.9016 -11.8937
   -11.8932 -11.4586 -11.4579 -11.4559 -11.4551 -11.2795 -11.2789 -11.2747
   -11.2741  -9.5811  -9.5802  -9.5763  -9.5753  -8.6177  -8.6161  -8.6074
    -8.6073  -7.8498  -7.8492  -7.8455  -7.8453  -7.1867  -5.7725  -5.7715
    -5.7712  -5.7709  -5.1502  -5.1498  -5.1460  -5.1457  -5.1312  -5.1310
    -5.1307  -5.1304  -4.9232  -4.9227  -4.9084  -4.9083  -4.5739  -4.5702
    -4.2762  -4.2753  -4.2603  -4.2595  -4.1493  -4.1492  -4.1490  -4.1489
    -4.0480  -4.0475  -4.0471  -4.0468  -3.7972  -3.7970  -3.7899  -3.7896
    -3.5013  -3.5009  -3.4979  -3.4975  -3.4965  -3.4959  -3.4945  -3.4934
    -3.3825  -3.3819  -3.3810  -3.3798  -2.9772  -2.9770  -2.9768  -2.9762
    -2.7224  -2.5305  -2.5304  -2.5301  -2.5300  -2.4656  -2.4655  -2.4645
    -2.4642  -2.1741  -2.1731  -2.1718  -2.1716  -2.0433  -2.0431  -2.0430
    -2.0430  -1.9595  -1.9589  -1.9583  -1.9582  -1.8704  -1.8693  -1.8647
    -1.8634  -1.7539  -1.7538  -1.7526  -1.7523  -1.6515  -1.6508  -1.6504
    -1.6495  -1.4439  -1.4438  -1.4437  -1.4436  -1.4275  -1.4271  -1.4269
    -1.4266  -1.4008  -1.4002  -1.3975  -1.3971  -1.3815  -1.3815  -1.3789
    -1.3789  -1.3347  -1.3344  -1.3343  -1.3341  -1.3323  -1.3321  -1.3315
    -1.3311  -1.3074  -1.3073  -1.3071  -1.3069  -1.2564  -1.2560  -1.2554
    -1.2553  -1.1778  -1.1777  -1.1765  -1.1764  -1.1392  -1.1392  -1.1391
    -1.1389  -1.1207  -1.1207  -1.1205  -1.1203  -1.0684  -1.0683  -1.0682
    -1.0681  -1.0627  -1.0627  -1.0627  -1.0626  -1.0307  -1.0306  -1.0304
    -1.0303  -1.0069  -1.0068  -1.0058  -1.0055  -0.9897  -0.9897  -0.9887
    -0.9885  -0.9847  -0.9846  -0.9840  -0.9839  -0.8872  -0.8862  -0.8716
    -0.8708  -0.8297  -0.8296  -0.8288  -0.8286  -0.8025  -0.8025  -0.8020
    -0.8020  -0.7171  -0.7170  -0.7167  -0.7164  -0.7121  -0.7118  -0.7116
    -0.7114  -0.7086  -0.7085  -0.7082  -0.7080  -0.6484  -0.6484  -0.6481
    -0.6479  -0.6363  -0.6361  -0.6348  -0.6346  -0.6152  -0.6151  -0.6140
    -0.6137  -0.5193  -0.5191  -0.5187  -0.5186  -0.5136  -0.5136  -0.5125
    -0.5124  -0.4452  -0.4450  -0.4447  -0.4447  -0.3948  -0.3947  -0.3945
    -0.3943  -0.3739  -0.3738  -0.3735  -0.3733  -0.3477  -0.3475  -0.3456
    -0.3454  -0.3353  -0.3353  -0.3347  -0.3344  -0.2951  -0.2948  -0.2940
    -0.2937  -0.2218  -0.2217  -0.2205  -0.2204  -0.2043  -0.2043  -0.2036
    -0.2035  -0.1870  -0.1868  -0.1861  -0.1861  -0.1031  -0.1030  -0.1027
    -0.1026  -0.0989  -0.0989  -0.0982  -0.0981  -0.0960  -0.0959  -0.0956
    -0.0955  -0.0560  -0.0559  -0.0558  -0.0558  -0.0440  -0.0439  -0.0433
    -0.0433  -0.0415  -0.0414  -0.0412  -0.0412   0.0282   0.0283   0.0293
     0.0295   0.0525   0.0525   0.0534   0.0535   0.1047   0.1051   0.1093
     0.1094   0.1222   0.1228   0.1277   0.1280   0.1377   0.1379   0.1387
     0.1387   0.1433   0.1434   0.1455   0.1457   0.1461   0.1466   0.1479
     0.1480   0.1562   0.1563   0.1579   0.1581   0.1630   0.1631   0.1653
     0.1654   0.1789   0.1789   0.1794   0.1796   0.2077   0.2078   0.2082
     0.2083   0.2171   0.2172   0.2177   0.2179   0.2645   0.2648   0.2656
     0.2657   0.2976   0.2976   0.2977   0.2979   0.3665   0.3680   0.3733
     0.3738   0.3815   0.3816   0.3834   0.3835   0.3978   0.3983   0.3984
     0.3987   0.4135   0.4137   0.4151   0.4154   0.4157   0.4160   0.4171
     0.4173   0.4236   0.4243   0.4252   0.4254   0.4344   0.4354   0.4367
     0.4376   0.4586   0.4595   0.4620   0.4628   0.5100   0.5104   0.5108
     0.5113   0.5138   0.5139   0.5154   0.5156   0.5261   0.5262   0.5266
     0.5266   0.5625   0.5628   0.5644   0.5645   0.5648   0.5651   0.5658
     0.5659   0.6102   0.6104   0.6105   0.6108   0.6219   0.6220   0.6228
     0.6228   0.6284   0.6285   0.6296   0.6299   0.6311   0.6312   0.6313
     0.6319   0.6475   0.6477   0.6483   0.6484   0.6645   0.6645   0.6651
     0.6651   0.7331   0.7337   0.7358   0.7363   0.7373   0.7376   0.7381
     0.7389   0.7483   0.7484   0.7490   0.7494   0.7680   0.7681   0.7723
     0.7724   0.7851   0.7851   0.7861   0.7861   0.7879   0.7881   0.7884
     0.7885   0.8392   0.8393   0.8410   0.8412   0.8676   0.8679   0.8687
     0.8689   0.8940   0.8941   0.8959   0.8962   0.9030   0.9034   0.9037
     0.9039   0.9281   0.9285   0.9306   0.9308   0.9804   0.9805   0.9816
     0.9817   1.0145   1.0146   1.0157   1.0159   1.0677   1.0679   1.0689
     1.0691   1.0834   1.0837   1.0853   1.0861   1.0962   1.0964   1.0972
     1.0976   1.1012   1.1013   1.1017   1.1017   1.1046   1.1048   1.1061
     1.1063   1.1334   1.1337   1.1338   1.1339   1.1372   1.1374   1.1386
     1.1389   1.1414   1.1421   1.1423   1.1428   1.1564   1.1570   1.1572
     1.1579   1.1802   1.1803   1.1810   1.1813   1.1917   1.1923   1.1925
     1.1925   1.2012   1.2014   1.2015   1.2017   1.2501   1.2503   1.2516
     1.2520   1.2524   1.2525   1.2583   1.2586   1.2791   1.2791   1.2792
     1.2792   1.2952   1.2954   1.2996   1.2999   1.3179   1.3179   1.3182
     1.3182   1.3272   1.3273   1.3276   1.3277   1.3360   1.3362   1.3374
     1.3376   1.3442   1.3443   1.3446   1.3446   1.4096   1.4098   1.4105
     1.4105   1.4115   1.4115   1.4122   1.4123   1.4224   1.4225   1.4232
     1.4234   1.4307   1.4309   1.4319   1.4320   1.4392   1.4393   1.4402
     1.4403   1.4449   1.4452   1.4465   1.4469   1.4519   1.4519   1.4525
     1.4526   1.4644   1.4645   1.4659   1.4659   1.4729   1.4730   1.4741
     1.4741   1.5060   1.5060   1.5063   1.5063   1.5210   1.5211   1.5223
     1.5224   1.5366   1.5371   1.5383   1.5385   1.5583   1.5584   1.5585
     1.5585   1.6141   1.6142   1.6163   1.6165   1.6309   1.6309   1.6315
     1.6316   1.6612   1.6618   1.6630   1.6632   1.6704   1.6706   1.6712
     1.6712   1.6733   1.6734   1.6742   1.6746   1.8930   1.8931   1.8936
     1.8937   2.4064   2.4064   2.4099   2.4106   2.6128   2.6129   2.6154
     2.6154   2.8568   2.8569   2.8569   2.8570   3.1582   3.1589   3.1594
     3.1598   3.5065   3.5067   3.5071   3.5072   3.6989   3.6992   3.7017
     3.7018   3.9820   3.9821   3.9833   3.9834   4.0548   4.0619   4.2819
     4.2820   4.2852   4.2857   4.4031   4.4050   4.4110   4.4137   4.6237
     4.6245   4.6264   4.6272   4.6560   4.6564   4.6637   4.6646   4.9605
     4.9621   4.9640   4.9654   5.1292   5.1305   5.1576   5.1577   5.2361
     5.2367   5.2411   5.2416   5.3734   5.3762   5.3962   5.3975   5.4233
     5.4255   5.4270   5.4285   5.7990   5.8010   5.8017   5.8018   5.8115
     5.8126   5.8229   5.8233   5.9672   5.9693   5.9759   5.9768   6.8333
     6.8336   6.8393   6.8395   7.1860   7.1870   7.1896   7.1909   7.2205
     7.2207   7.2219   7.2220   7.3561   7.3574   7.3594   7.3595   7.4255
     7.4257   7.4261   7.4262   7.6910   7.6917   7.6954   7.6961   8.0373
     8.0420   8.0474   8.0481   8.1185   8.1203   8.1276   8.1306   8.3016
     8.3043   8.3050   8.3118   8.3129   8.3583   8.4312   8.4412   8.8732
     8.9550   8.9618   8.9619   8.9622   8.9625   8.9780   8.9809   8.9819
     8.9849   9.0318   9.0320   9.0323   9.0326   9.1246   9.1502   9.3610
     9.3865   9.4013   9.4263   9.6030   9.6040   9.6145   9.6242   9.6246
     9.6542   9.6547   9.6550   9.6554   9.7005

     the Fermi energy is     3.3791 ev

!    total energy              =  -12750.24531582 Ry
     Harris-Foulkes estimate   =  -12750.24531586 Ry
     estimated scf accuracy    <          9.1E-09 Ry

     The total energy is the sum of the following terms:

     one-electron contribution = -107362.05310740 Ry
     hartree contribution      =   55050.29945282 Ry
     xc contribution           =   -4457.98962989 Ry
     ewald contribution        =   44025.90527102 Ry
     Dispersion Correction     =      -2.99632571 Ry
     smearing contrib. (-TS)   =      -3.41097666 Ry

     convergence has been achieved in  43 iterations

     Writing output data file gc.save
 
     init_run     :    187.11s CPU    199.58s WALL (       1 calls)
     electrons    :  22960.50s CPU  24417.79s WALL (       1 calls)

     Called by init_run:
     wfcinit      :    184.15s CPU    195.71s WALL (       1 calls)
     potinit      :      0.98s CPU      1.07s WALL (       1 calls)

     Called by electrons:
     c_bands      :  20905.85s CPU  22187.49s WALL (      43 calls)
     sum_band     :   1631.01s CPU   1746.70s WALL (      43 calls)
     v_of_rho     :      5.07s CPU      6.44s WALL (      44 calls)
     newd         :     14.60s CPU     27.35s WALL (      44 calls)
     mix_rho      :    403.91s CPU    449.94s WALL (      43 calls)

     Called by c_bands:
     init_us_2    :     77.72s CPU     79.38s WALL (     522 calls)
     cegterg      :  20584.39s CPU  21851.27s WALL (     264 calls)

     Called by sum_band:
     sum_band:bec :      4.66s CPU      5.26s WALL (     258 calls)
     addusdens    :     20.90s CPU     32.30s WALL (      43 calls)

     Called by *egterg:
     h_psi        :   7522.38s CPU   8077.79s WALL (    1755 calls)
     s_psi        :   1879.89s CPU   1891.94s WALL (    1755 calls)
     g_psi        :     19.92s CPU     20.00s WALL (    1485 calls)
     cdiaghg      :   5809.27s CPU   6094.17s WALL (    1743 calls)

     Called by h_psi:
     add_vuspsi   :   1883.99s CPU   1897.92s WALL (    1755 calls)

     General routines
     calbec       :   2560.87s CPU   2580.72s WALL (    2013 calls)
     fft          :      4.15s CPU      5.29s WALL (     571 calls)
     ffts         :    170.11s CPU    202.29s WALL (   26372 calls)
     fftw         :   3679.59s CPU   4179.07s WALL ( 1268566 calls)
     davcio       :      0.32s CPU      6.74s WALL (       6 calls)
 
     Parallel routines
     fft_scatter  :   1843.36s CPU   2123.04s WALL ( 1295509 calls)
 
     PWSCF        :     6h25m CPU        6h50m WALL

 
   This run was terminated on:  18:10:44   6Oct2017            

=------------------------------------------------------------------------------=
   JOB DONE.
=------------------------------------------------------------------------------=
