mpirun: INFO: switching to OpenMPI runtime version 1.10.2

     Program PWSCF v.5.4.0 starts on  7Nov2017 at 13:25:29 

     This program is part of the open-source Quantum ESPRESSO suite
     for quantum simulation of materials; please cite
         "P. Giannozzi et al., J. Phys.:Condens. Matter 21 395502 (2009);
          URL http://www.quantum-espresso.org", 
     in publications or presentations arising from this work. More details at
     http://www.quantum-espresso.org/quote

     Parallel version (MPI & OpenMP), running on      28 processor cores
     Number of MPI processes:                28
     Threads/MPI process:                     1
     R & G space division:  proc/nbgrp/npool/nimage =      28
     Waiting for input...
     Reading input from standard input
Warning: card &IONS ignored
Warning: card / ignored

     Current dimensions of program PWSCF are:
     Max number of different atomic species (ntypx) = 10
     Max number of k-points (npk) =  40000
     Max angular momentum in pseudopotentials (lmaxx) =  3
     WARNING: atomic wfc #  2 for atom type 4 has zero norm
     WARNING: atomic wfc #  4 for atom type 4 has zero norm
     WARNING: atomic wfc #  5 for atom type 4 has zero norm

     -------------------------------------
     Parameters for Dispersion Correction:
     -------------------------------------
       atom      VdW radius       C_6     

        Cu         2.952        374.666
        C_h        2.744         60.710
        C          2.744         60.710
        O          2.536         24.284
        H          1.892          4.857

     Subspace diagonalization in iterative solution of the eigenvalue problem:
     one sub-group per band group will be used
     scalapack distributed-memory algorithm (size of sub-group:  3*  3 procs)

 
     Parallelization info
     --------------------
     sticks:   dense  smooth     PW     G-vecs:    dense   smooth      PW
     Min         408     408    108                73226    73226    9928
     Max         410     410    109                73231    73231    9931
     Sum       11433   11433   3039              2050409  2050409  278033
 


     bravais-lattice index     =            0
     lattice parameter (alat)  =      13.9425  a.u.
     unit-cell volume          =   21209.0878 (a.u.)^3
     number of atoms/cell      =          102
     number of atomic types    =            5
     number of electrons       =      1110.00
     number of Kohn-Sham states=          666
     kinetic-energy cutoff     =      80.0000  Ry
     charge density cutoff     =     320.0000  Ry
     convergence threshold     =      1.0E-08
     mixing beta               =       0.7000
     number of iterations used =            8  local-TF  mixing
     Exchange-correlation      =  SLA  PW   PBE  PBE ( 1  4  3  4 0 0)

     celldm(1)=  13.942539  celldm(2)=   0.000000  celldm(3)=   0.000000
     celldm(4)=   0.000000  celldm(5)=   0.000000  celldm(6)=   0.000000

     crystal axes: (cart. coord. in units of alat)
               a(1) = (   1.000000   0.000000   0.000000 )  
               a(2) = (   0.000000   2.309401   0.000000 )  
               a(3) = (   0.000000   0.000000   3.388418 )  

     reciprocal axes: (cart. coord. in units 2 pi/alat)
               b(1) = (  1.000000  0.000000  0.000000 )  
               b(2) = (  0.000000  0.433013  0.000000 )  
               b(3) = (  0.000000  0.000000  0.295123 )  


     PseudoPot. # 1 for Cu read from file:
     /home/549/hxw549/Short/pseudopotentials/Cu.pbe-n-van_ak.UPF
     MD5 check sum: 601f7c30f7467666bec936e0661ce3e1
     Pseudo is Ultrasoft + core correction, Zval = 11.0
     Generated by new atomic code, or converted to UPF format
     Using radial grid of  867 points,  6 beta functions with: 
                l(1) =   0
                l(2) =   0
                l(3) =   1
                l(4) =   1
                l(5) =   2
                l(6) =   2
     Q(r) pseudized with  8 coefficients,  rinner =    1.400   1.400   1.400
                                                       1.400   1.400

     PseudoPot. # 2 for C  read from file:
     /home/549/hxw549/Short/pseudopotentials/C.star1s-pbe-mt_gipaw.UPF
     MD5 check sum: ef0cb3dee31bd9e4ba2a832a2c716264
     Pseudo is Norm-conserving, Zval =  5.0
     Generated by new atomic code, or converted to UPF format
     Using radial grid of 1073 points,  1 beta functions with: 
                l(1) =   0

     PseudoPot. # 3 for C  read from file:
     /home/549/hxw549/Short/pseudopotentials/C.pbe-mt_gipaw.UPF
     MD5 check sum: 5ac2f21f2c440b14befe521540822c15
     Pseudo is Norm-conserving, Zval =  4.0
     Generated by new atomic code, or converted to UPF format
     Using radial grid of 1073 points,  1 beta functions with: 
                l(1) =   0

     PseudoPot. # 4 for O  read from file:
     /home/549/hxw549/Short/pseudopotentials/O.pbe-van_gipaw.UPF
     MD5 check sum: 5ce2a047509d4f331db576c963e74b29
     Pseudo is Ultrasoft, Zval =  6.0
     Generated by new atomic code, or converted to UPF format
     Using radial grid of 1095 points,  4 beta functions with: 
                l(1) =   0
                l(2) =   0
                l(3) =   1
                l(4) =   1
     Q(r) pseudized with 0 coefficients 


     PseudoPot. # 5 for H  read from file:
     /home/549/hxw549/Short/pseudopotentials/H.pbe-van_ak.UPF
     MD5 check sum: 077eb6d537518a38cb46c6de387227b7
     Pseudo is Ultrasoft, Zval =  1.0
     Generated by new atomic code, or converted to UPF format
     Using radial grid of  615 points,  1 beta functions with: 
                l(1) =   0
     Q(r) pseudized with  8 coefficients,  rinner =    0.800

     atomic species   valence    mass     pseudopotential
        Cu            11.00    63.54600     Cu( 1.00)
        C_h            5.00    12.01070     C ( 1.00)
        C              4.00    12.01070     C ( 1.00)
        O              6.00    15.99940     O ( 1.00)
        H              1.00     1.00783     H ( 1.00)

     No symmetry found



   Cartesian axes

     site n.     atom                  positions (alat units)
         1           Cu  tau(   1) = (   0.0000796  -0.0010194   0.9996711  )
         2           Cu  tau(   2) = (   0.2500655   0.2302525   0.9998070  )
         3           Cu  tau(   3) = (   0.5000782  -0.0009871   0.9997096  )
         4           Cu  tau(   4) = (   0.7500925   0.2302455   0.9998059  )
         5           Cu  tau(   5) = (   0.0000785   0.4612871   0.9997269  )
         6           Cu  tau(   6) = (   0.2500641   0.6920697   0.9993800  )
         7           Cu  tau(   7) = (   0.5000814   0.4612918   0.9996504  )
         8           Cu  tau(   8) = (   0.7500985   0.6920755   0.9993862  )
         9           Cu  tau(   9) = (   0.0000831   0.9226495   0.9992261  )
        10           Cu  tau(  10) = (   0.2501082   1.1530621   0.9994448  )
        11           Cu  tau(  11) = (   0.5000823   0.9225993   0.9992402  )
        12           Cu  tau(  12) = (   0.7500588   1.1530635   0.9994423  )
        13           Cu  tau(  13) = (   0.0000837   1.3835599   0.9997329  )
        14           Cu  tau(  14) = (   0.2500624   1.6144357   0.9998048  )
        15           Cu  tau(  15) = (   0.5000842   1.3836349   0.9997726  )
        16           Cu  tau(  16) = (   0.7501032   1.6144320   0.9998040  )
        17           Cu  tau(  17) = (   0.0000797   1.8456347   0.9996583  )
        18           Cu  tau(  18) = (   0.2500996   2.0770019   0.9995635  )
        19           Cu  tau(  19) = (   0.5000828   1.8455838   0.9996249  )
        20           Cu  tau(  20) = (   0.7500601   2.0770024   0.9995695  )
        21           Cu  tau(  21) = (   0.0000762   0.2300880   1.2478020  )
        22           Cu  tau(  22) = (   0.2500749  -0.0011159   1.2475204  )
        23           Cu  tau(  23) = (   0.5000774   0.2302010   1.2477392  )
        24           Cu  tau(  24) = (   0.7500776  -0.0011076   1.2475295  )
        25           Cu  tau(  25) = (   0.0000791   0.6922011   1.2480278  )
        26           Cu  tau(  26) = (   0.2500708   0.4613499   1.2479295  )
        27           Cu  tau(  27) = (   0.5000781   0.6921136   1.2479976  )
        28           Cu  tau(  28) = (   0.7500843   0.4613461   1.2479221  )
        29           Cu  tau(  29) = (   0.0000792   1.1528664   1.2482450  )
        30           Cu  tau(  30) = (   0.2500767   0.9225201   1.2481436  )
        31           Cu  tau(  31) = (   0.5000811   1.1528467   1.2482331  )
        32           Cu  tau(  32) = (   0.7500827   0.9225211   1.2481488  )
        33           Cu  tau(  33) = (   0.0000796   1.6146638   1.2478472  )
        34           Cu  tau(  34) = (   0.2500780   1.3835920   1.2481526  )
        35           Cu  tau(  35) = (   0.5000826   1.6147432   1.2478907  )
        36           Cu  tau(  36) = (   0.7500845   1.3835882   1.2481608  )
        37           Cu  tau(  37) = (   0.0000753   2.0771625   1.2473394  )
        38           Cu  tau(  38) = (   0.2500797   1.8459518   1.2474804  )
        39           Cu  tau(  39) = (   0.5000788   2.0770921   1.2473374  )
        40           Cu  tau(  40) = (   0.7500786   1.8459481   1.2474855  )
        41           Cu  tau(  41) = (   0.0000736  -0.0014157   1.4968003  )
        42           Cu  tau(  42) = (   0.2501054   0.2298053   1.4967075  )
        43           Cu  tau(  43) = (   0.5000753  -0.0013072   1.4965172  )
        44           Cu  tau(  44) = (   0.7500440   0.2298195   1.4967296  )
        45           Cu  tau(  45) = (   0.0000715   0.4610974   1.4969703  )
        46           Cu  tau(  46) = (   0.2500888   0.6919294   1.4977424  )
        47           Cu  tau(  47) = (   0.5000768   0.4610199   1.4971307  )
        48           Cu  tau(  48) = (   0.7500576   0.6919217   1.4977398  )
        49           Cu  tau(  49) = (   0.0000730   0.9224488   1.4981802  )
        50           Cu  tau(  50) = (   0.2499887   1.1529644   1.4978341  )
        51           Cu  tau(  51) = (   0.5000709   0.9223233   1.4980553  )
        52           Cu  tau(  52) = (   0.7501545   1.1529594   1.4978490  )
        53           Cu  tau(  53) = (   0.0000770   1.3839580   1.4973583  )
        54           Cu  tau(  54) = (   0.2500530   1.6153014   1.4967700  )
        55           Cu  tau(  55) = (   0.5000690   1.3839959   1.4971714  )
        56           Cu  tau(  56) = (   0.7500984   1.6153015   1.4967707  )
        57           Cu  tau(  57) = (   0.0000733   1.8464668   1.4964703  )
        58           Cu  tau(  58) = (   0.2500842   2.0772456   1.4966335  )
        59           Cu  tau(  59) = (   0.5000792   1.8465124   1.4966717  )
        60           Cu  tau(  60) = (   0.7500644   2.0772510   1.4966332  )
        61           Cu  tau(  61) = (   0.0000638   0.2297751   1.7451486  )
        62           Cu  tau(  62) = (   0.2501701  -0.0014366   1.7457736  )
        63           Cu  tau(  63) = (   0.5000844   0.2291468   1.7456708  )
        64           Cu  tau(  64) = (   0.7499824  -0.0014424   1.7457830  )
        65           Cu  tau(  65) = (   0.0000602   0.6911029   1.7467899  )
        66           Cu  tau(  66) = (   0.2504221   0.4603267   1.7458317  )
        67           Cu  tau(  67) = (   0.5000727   0.6914519   1.7472561  )
        68           Cu  tau(  68) = (   0.7497202   0.4603534   1.7458865  )
        69           Cu  tau(  69) = (   0.0000719   1.1535755   1.7474669  )
        70           Cu  tau(  70) = (   0.2500072   0.9224186   1.7476215  )
        71           Cu  tau(  71) = (   0.5000490   1.1535692   1.7465697  )
        72           Cu  tau(  72) = (   0.7501153   0.9223864   1.7476191  )
        73           Cu  tau(  73) = (   0.0000638   1.6160732   1.7455026  )
        74           Cu  tau(  74) = (   0.2497330   1.3847176   1.7458671  )
        75           Cu  tau(  75) = (   0.5000631   1.6156467   1.7451393  )
        76           Cu  tau(  76) = (   0.7503862   1.3847369   1.7458435  )
        77           Cu  tau(  77) = (   0.0000770   2.0769447   1.7462625  )
        78           Cu  tau(  78) = (   0.2499949   1.8466574   1.7457450  )
        79           Cu  tau(  79) = (   0.5000721   2.0775977   1.7461689  )
        80           Cu  tau(  80) = (   0.7501471   1.8466631   1.7457456  )
        81           Cu  tau(  81) = (   0.0000732  -0.0004834   1.9909889  )
        82           Cu  tau(  82) = (   0.2501819   0.2294912   1.9912558  )
        83           Cu  tau(  83) = (   0.5000861  -0.0013523   1.9930947  )
        84           Cu  tau(  84) = (   0.7499715   0.2294701   1.9913129  )
        85           Cu  tau(  85) = (   0.0000570   0.4600464   1.9913092  )
        86           Cu  tau(  86) = (   0.2514505   0.6901905   1.9922810  )
        87           Cu  tau(  87) = (   0.5000863   0.4587665   1.9928792  )
        88           Cu  tau(  88) = (   0.7486661   0.6902270   1.9924293  )
        89           Cu  tau(  89) = (   0.0000432   0.9207000   1.9928486  )
        90           Cu  tau(  90) = (   0.2487672   1.1547418   1.9923022  )
        91           Cu  tau(  91) = (   0.5000624   0.9240642   1.9932645  )
        92           Cu  tau(  92) = (   0.7513422   1.1547327   1.9922105  )
        93           Cu  tau(  93) = (   0.0000302   1.3866843   1.9926055  )
        94           Cu  tau(  94) = (   0.2503901   1.6157236   1.9912853  )
        95           Cu  tau(  95) = (   0.5000722   1.3850823   1.9909882  )
        96           Cu  tau(  96) = (   0.7497148   1.6157477   1.9912993  )
        97           Cu  tau(  97) = (   0.0000745   1.8457983   1.9931296  )
        98           Cu  tau(  98) = (   0.2496101   2.0772360   1.9921726  )
        99           Cu  tau(  99) = (   0.5000544   1.8462656   1.9910722  )
       100           Cu  tau( 100) = (   0.7505374   2.0772188   1.9921776  )
       101           C_h tau( 101) = (   0.4817526   0.9548742   3.3884182  )
       102           O   tau( 102) = (   0.3804061   1.0742193   3.3884182  )

     number of k points=     6  gaussian smearing, width (Ry)=  0.1000
                       cart. coord. in units 2pi/alat
        k(    1) = (   0.0000000   0.0000000   0.0000000), wk =   0.2500000
        k(    2) = (   0.0000000  -0.2165064   0.0000000), wk =   0.2500000
        k(    3) = (   0.2500000   0.0000000   0.0000000), wk =   0.5000000
        k(    4) = (   0.2500000  -0.2165064   0.0000000), wk =   0.5000000
        k(    5) = (  -0.5000000   0.0000000   0.0000000), wk =   0.2500000
        k(    6) = (  -0.5000000  -0.2165064   0.0000000), wk =   0.2500000

     Dense  grid:  2050409 G-vectors     FFT dimensions: (  80, 192, 270)

     Largest allocated arrays     est. size (Mb)     dimensions
        Kohn-Sham Wavefunctions        93.20 Mb     (    9171,  666)
        NL pseudopotentials           253.15 Mb     (    9171, 1809)
        Each V/rho on FFT grid          2.34 Mb     (  153600)
        Each G-vector array             0.56 Mb     (   73230)
        G-vector shells                 0.27 Mb     (   35784)
     Largest temporary arrays     est. size (Mb)     dimensions
        Auxiliary wavefunctions       372.80 Mb     (    9171, 2664)
        Each subspace H/S matrix       12.03 Mb     (     888,  888)
        Each <psi_i|beta_j> matrix     18.38 Mb     (    1809,  666)
        Arrays for rho mixing          18.75 Mb     (  153600,    8)

     Initial potential from superposition of free atoms
     Check: negative starting charge=   -0.001999

     starting charge 1108.31757, renormalised to 1110.00000

     negative rho (up, down):  2.002E-03 0.000E+00
     Starting wfc are  912 randomized atomic wfcs

     total cpu time spent up to now is      134.7 secs

     Self-consistent Calculation

     iteration #  1     ecut=    80.00 Ry     beta=0.70
     Davidson diagonalization with overlap
     ethr =  1.00E-04,  avg # of iterations = 16.3

     negative rho (up, down):  3.545E-01 0.000E+00

     total cpu time spent up to now is     1056.1 secs

     total energy              =  -12194.07647135 Ry
     Harris-Foulkes estimate   =  -12211.50873197 Ry
     estimated scf accuracy    <      89.02459930 Ry

     iteration #  2     ecut=    80.00 Ry     beta=0.70
     Davidson diagonalization with overlap
     ethr =  8.02E-03,  avg # of iterations =  3.7

     negative rho (up, down):  3.745E-01 0.000E+00

     total cpu time spent up to now is     1366.6 secs

     total energy              =  -12200.34416158 Ry
     Harris-Foulkes estimate   =  -12204.53762353 Ry
     estimated scf accuracy    <      18.06297901 Ry

     iteration #  3     ecut=    80.00 Ry     beta=0.70
     Davidson diagonalization with overlap
     ethr =  1.63E-03,  avg # of iterations =  5.3

     negative rho (up, down):  3.745E-01 0.000E+00

     total cpu time spent up to now is     1709.2 secs

     total energy              =  -12201.95827154 Ry
     Harris-Foulkes estimate   =  -12202.49866155 Ry
     estimated scf accuracy    <       4.84921405 Ry

     iteration #  4     ecut=    80.00 Ry     beta=0.70
     Davidson diagonalization with overlap
     ethr =  4.37E-04,  avg # of iterations =  7.0

     negative rho (up, down):  3.910E-01 0.000E+00

     total cpu time spent up to now is     2077.1 secs

     total energy              =  -12202.03423152 Ry
     Harris-Foulkes estimate   =  -12202.20355503 Ry
     estimated scf accuracy    <       0.78465030 Ry

     iteration #  5     ecut=    80.00 Ry     beta=0.70
     Davidson diagonalization with overlap
     ethr =  7.07E-05,  avg # of iterations =  9.2

     negative rho (up, down):  3.253E-01 0.000E+00

     total cpu time spent up to now is     2485.7 secs

     total energy              =  -12202.04082119 Ry
     Harris-Foulkes estimate   =  -12202.11665379 Ry
     estimated scf accuracy    <       0.53291584 Ry

     iteration #  6     ecut=    80.00 Ry     beta=0.70
     Davidson diagonalization with overlap
     ethr =  4.80E-05,  avg # of iterations =  5.8

     negative rho (up, down):  2.472E-01 0.000E+00

     total cpu time spent up to now is     2835.3 secs

     total energy              =  -12202.04925290 Ry
     Harris-Foulkes estimate   =  -12202.07208203 Ry
     estimated scf accuracy    <       0.17294989 Ry

     iteration #  7     ecut=    80.00 Ry     beta=0.70
     Davidson diagonalization with overlap
     c_bands:  1 eigenvalues not converged
     ethr =  1.56E-05,  avg # of iterations = 10.7

     negative rho (up, down):  1.210E-01 0.000E+00

     total cpu time spent up to now is     3263.2 secs

     total energy              =  -12202.04654000 Ry
     Harris-Foulkes estimate   =  -12202.05789610 Ry
     estimated scf accuracy    <       0.04650233 Ry

     iteration #  8     ecut=    80.00 Ry     beta=0.70
     Davidson diagonalization with overlap
     c_bands:  1 eigenvalues not converged
     ethr =  4.19E-06,  avg # of iterations = 13.8

     negative rho (up, down):  2.876E-02 0.000E+00

     total cpu time spent up to now is     3765.2 secs

     total energy              =  -12202.04347938 Ry
     Harris-Foulkes estimate   =  -12202.04903929 Ry
     estimated scf accuracy    <       0.02239054 Ry

     iteration #  9     ecut=    80.00 Ry     beta=0.70
     Davidson diagonalization with overlap
     c_bands:  1 eigenvalues not converged
     ethr =  2.02E-06,  avg # of iterations = 12.0

     negative rho (up, down):  1.115E-03 0.000E+00

     total cpu time spent up to now is     4235.6 secs

     total energy              =  -12202.04414707 Ry
     Harris-Foulkes estimate   =  -12202.04548981 Ry
     estimated scf accuracy    <       0.02089106 Ry

     iteration # 10     ecut=    80.00 Ry     beta=0.70
     Davidson diagonalization with overlap
     ethr =  1.88E-06,  avg # of iterations =  9.7

     negative rho (up, down):  3.091E-04 0.000E+00

     total cpu time spent up to now is     4653.3 secs

     total energy              =  -12202.04448520 Ry
     Harris-Foulkes estimate   =  -12202.04479905 Ry
     estimated scf accuracy    <       0.00851069 Ry

     iteration # 11     ecut=    80.00 Ry     beta=0.70
     Davidson diagonalization with overlap
     ethr =  7.67E-07,  avg # of iterations =  7.0

     negative rho (up, down):  9.471E-04 0.000E+00

     total cpu time spent up to now is     5024.9 secs

     total energy              =  -12202.04448814 Ry
     Harris-Foulkes estimate   =  -12202.04471609 Ry
     estimated scf accuracy    <       0.00231128 Ry

     iteration # 12     ecut=    80.00 Ry     beta=0.70
     Davidson diagonalization with overlap
     ethr =  2.08E-07,  avg # of iterations =  5.7

     negative rho (up, down):  3.621E-03 0.000E+00

     total cpu time spent up to now is     5371.6 secs

     total energy              =  -12202.04449523 Ry
     Harris-Foulkes estimate   =  -12202.04463379 Ry
     estimated scf accuracy    <       0.00313943 Ry

     iteration # 13     ecut=    80.00 Ry     beta=0.70
     Davidson diagonalization with overlap
     ethr =  2.08E-07,  avg # of iterations =  6.7

     negative rho (up, down):  9.703E-03 0.000E+00

     total cpu time spent up to now is     5743.1 secs

     total energy              =  -12202.04488971 Ry
     Harris-Foulkes estimate   =  -12202.04453930 Ry
     estimated scf accuracy    <       0.00131084 Ry

     iteration # 14     ecut=    80.00 Ry     beta=0.70
     Davidson diagonalization with overlap
     ethr =  1.18E-07,  avg # of iterations =  6.2

     negative rho (up, down):  8.962E-03 0.000E+00

     total cpu time spent up to now is     6121.6 secs

     total energy              =  -12202.04504343 Ry
     Harris-Foulkes estimate   =  -12202.04495850 Ry
     estimated scf accuracy    <       0.00061503 Ry

     iteration # 15     ecut=    80.00 Ry     beta=0.70
     Davidson diagonalization with overlap
     ethr =  5.54E-08,  avg # of iterations =  4.5

     negative rho (up, down):  5.298E-03 0.000E+00

     total cpu time spent up to now is     6461.2 secs

     total energy              =  -12202.04508126 Ry
     Harris-Foulkes estimate   =  -12202.04506256 Ry
     estimated scf accuracy    <       0.00034946 Ry

     iteration # 16     ecut=    80.00 Ry     beta=0.70
     Davidson diagonalization with overlap
     ethr =  3.15E-08,  avg # of iterations =  5.7

     negative rho (up, down):  4.616E-03 0.000E+00

     total cpu time spent up to now is     6815.6 secs

     total energy              =  -12202.04509445 Ry
     Harris-Foulkes estimate   =  -12202.04508896 Ry
     estimated scf accuracy    <       0.00019579 Ry

     iteration # 17     ecut=    80.00 Ry     beta=0.70
     Davidson diagonalization with overlap
     ethr =  1.76E-08,  avg # of iterations =  7.2

     negative rho (up, down):  4.279E-03 0.000E+00

     total cpu time spent up to now is     7196.2 secs

     total energy              =  -12202.04510048 Ry
     Harris-Foulkes estimate   =  -12202.04510086 Ry
     estimated scf accuracy    <       0.00007131 Ry

     iteration # 18     ecut=    80.00 Ry     beta=0.70
     Davidson diagonalization with overlap
     ethr =  6.42E-09,  avg # of iterations =  3.5

     negative rho (up, down):  3.216E-03 0.000E+00

     total cpu time spent up to now is     7523.1 secs

     total energy              =  -12202.04509596 Ry
     Harris-Foulkes estimate   =  -12202.04510329 Ry
     estimated scf accuracy    <       0.00001653 Ry

     iteration # 19     ecut=    80.00 Ry     beta=0.70
     Davidson diagonalization with overlap
     ethr =  1.49E-09,  avg # of iterations =  3.3

     negative rho (up, down):  2.427E-03 0.000E+00

     total cpu time spent up to now is     7835.7 secs

     total energy              =  -12202.04509560 Ry
     Harris-Foulkes estimate   =  -12202.04509796 Ry
     estimated scf accuracy    <       0.00001040 Ry

     iteration # 20     ecut=    80.00 Ry     beta=0.70
     Davidson diagonalization with overlap
     ethr =  9.37E-10,  avg # of iterations =  3.2

     negative rho (up, down):  2.394E-03 0.000E+00

     total cpu time spent up to now is     8147.3 secs

     total energy              =  -12202.04509619 Ry
     Harris-Foulkes estimate   =  -12202.04509638 Ry
     estimated scf accuracy    <       0.00000069 Ry

     iteration # 21     ecut=    80.00 Ry     beta=0.70
     Davidson diagonalization with overlap
     ethr =  6.23E-11,  avg # of iterations =  3.0

     negative rho (up, down):  2.311E-03 0.000E+00

     total cpu time spent up to now is     8488.5 secs

     total energy              =  -12202.04509628 Ry
     Harris-Foulkes estimate   =  -12202.04509629 Ry
     estimated scf accuracy    <       0.00000035 Ry

     iteration # 22     ecut=    80.00 Ry     beta=0.70
     Davidson diagonalization with overlap
     ethr =  3.12E-11,  avg # of iterations =  3.0

     negative rho (up, down):  2.234E-03 0.000E+00

     total cpu time spent up to now is     8796.1 secs

     total energy              =  -12202.04509625 Ry
     Harris-Foulkes estimate   =  -12202.04509631 Ry
     estimated scf accuracy    <       0.00000015 Ry

     iteration # 23     ecut=    80.00 Ry     beta=0.70
     Davidson diagonalization with overlap
     ethr =  1.39E-11,  avg # of iterations =  3.0

     negative rho (up, down):  2.261E-03 0.000E+00

     total cpu time spent up to now is     9112.8 secs

     total energy              =  -12202.04509622 Ry
     Harris-Foulkes estimate   =  -12202.04509626 Ry
     estimated scf accuracy    <       0.00000005 Ry

     iteration # 24     ecut=    80.00 Ry     beta=0.70
     Davidson diagonalization with overlap
     ethr =  4.27E-12,  avg # of iterations =  3.0

     negative rho (up, down):  2.262E-03 0.000E+00

     total cpu time spent up to now is     9436.2 secs

     total energy              =  -12202.04509624 Ry
     Harris-Foulkes estimate   =  -12202.04509622 Ry
     estimated scf accuracy    <       0.00000002 Ry

     iteration # 25     ecut=    80.00 Ry     beta=0.70
     Davidson diagonalization with overlap
     ethr =  2.22E-12,  avg # of iterations =  2.0

     negative rho (up, down):  2.273E-03 0.000E+00

     total cpu time spent up to now is     9711.1 secs

     End of self-consistent calculation

          k = 0.0000 0.0000 0.0000 (256287 PWs)   bands (ev):

   -24.5847  -9.0094  -7.8158  -7.2826  -7.2799  -6.6850  -6.4073  -6.4042
    -6.1801  -6.1769  -5.7856  -5.7856  -5.2068  -5.2061  -5.0542  -4.8117
    -4.8112  -4.8092  -4.8087  -4.8075  -4.8074  -4.6071  -4.6040  -4.5378
    -4.3008  -4.2999  -4.0922  -4.0914  -4.0896  -4.0892  -3.9986  -3.9985
    -3.9656  -3.9654  -3.9650  -3.9648  -3.8285  -3.8285  -3.8277  -3.8277
    -3.7842  -3.6537  -3.5882  -3.5355  -3.5355  -3.5347  -3.5346  -3.5342
    -3.5342  -3.4829  -3.4699  -3.4668  -3.4223  -3.4146  -3.3760  -3.3758
    -3.3746  -3.3745  -3.3742  -3.3727  -3.3384  -3.3382  -3.3267  -3.3247
    -3.2738  -3.2733  -3.2240  -3.1632  -3.1098  -3.1029  -3.1026  -3.1023
    -3.1021  -3.0703  -3.0696  -3.0612  -3.0224  -3.0214  -3.0029  -3.0003
    -2.9767  -2.9743  -2.8580  -2.8580  -2.8494  -2.8494  -2.8489  -2.8486
    -2.8310  -2.8299  -2.8245  -2.8244  -2.8192  -2.8191  -2.8172  -2.8169
    -2.8162  -2.8159  -2.8107  -2.8004  -2.7527  -2.7490  -2.7489  -2.7215
    -2.7203  -2.7040  -2.6975  -2.6668  -2.6664  -2.6660  -2.6655  -2.6634
    -2.6625  -2.6604  -2.6598  -2.6597  -2.6578  -2.6531  -2.6531  -2.6521
    -2.6495  -2.6476  -2.6400  -2.6399  -2.5883  -2.4961  -2.4959  -2.4946
    -2.4944  -2.4468  -2.4468  -2.4456  -2.4404  -2.4210  -2.4205  -2.4191
    -2.4189  -2.4179  -2.4176  -2.3823  -2.3734  -2.3729  -2.3709  -2.3703
    -2.3553  -2.3543  -2.3387  -2.3383  -2.2928  -2.2927  -2.2448  -2.2445
    -2.2271  -2.2255  -2.2243  -2.2231  -2.2202  -2.2201  -2.2124  -2.2122
    -2.2120  -2.2118  -2.2020  -2.2019  -2.1923  -2.1923  -2.1811  -2.1811
    -2.1800  -2.1799  -2.1554  -2.1548  -2.0985  -2.0982  -2.0931  -2.0899
    -2.0871  -2.0737  -2.0737  -2.0729  -2.0728  -2.0513  -2.0512  -2.0465
    -2.0463  -2.0324  -2.0320  -2.0318  -2.0314  -2.0310  -2.0173  -2.0170
    -2.0164  -2.0162  -2.0022  -1.9991  -1.9918  -1.9912  -1.9900  -1.9894
    -1.9551  -1.9544  -1.9193  -1.9190  -1.9149  -1.9148  -1.9106  -1.8700
    -1.8700  -1.8696  -1.8695  -1.8612  -1.8608  -1.8527  -1.8515  -1.8513
    -1.8512  -1.8511  -1.8205  -1.8195  -1.8095  -1.8020  -1.8009  -1.7783
    -1.7781  -1.7774  -1.7769  -1.7763  -1.7720  -1.7663  -1.7656  -1.7484
    -1.7483  -1.7458  -1.7455  -1.7371  -1.7371  -1.7362  -1.7360  -1.7223
    -1.7217  -1.7214  -1.7209  -1.7102  -1.7091  -1.6684  -1.6682  -1.6291
    -1.6288  -1.6287  -1.6283  -1.6232  -1.6192  -1.5637  -1.5619  -1.5614
    -1.5613  -1.5597  -1.5588  -1.5546  -1.5544  -1.5131  -1.5130  -1.5126
    -1.5124  -1.4856  -1.4854  -1.4830  -1.4558  -1.4557  -1.4554  -1.4552
    -1.4382  -1.4357  -1.4240  -1.4079  -1.4068  -1.4060  -1.4058  -1.3966
    -1.3740  -1.3735  -1.3731  -1.3727  -1.3545  -1.3538  -1.3536  -1.3525
    -1.3262  -1.3261  -1.3059  -1.3057  -1.3044  -1.3042  -1.2808  -1.2784
    -1.2644  -1.2629  -1.2626  -1.2609  -1.2601  -1.2598  -1.2587  -1.2538
    -1.2532  -1.2522  -1.2507  -1.2505  -1.2501  -1.2495  -1.2493  -1.2492
    -1.2261  -1.2244  -1.2066  -1.1911  -1.1900  -1.1668  -1.1654  -1.1607
    -1.1606  -1.1527  -1.1526  -1.1415  -1.1413  -1.1410  -1.1407  -1.1288
    -1.1148  -1.1147  -1.1141  -1.1141  -1.1138  -1.1125  -1.1004  -1.0968
    -1.0846  -1.0843  -1.0837  -1.0829  -1.0808  -1.0808  -1.0686  -1.0674
    -1.0591  -1.0583  -1.0582  -1.0559  -1.0497  -1.0496  -1.0323  -1.0311
    -1.0148  -0.9975  -0.9974  -0.9908  -0.9906  -0.9693  -0.9688  -0.9686
    -0.9680  -0.9418  -0.9413  -0.9301  -0.9301  -0.9273  -0.9268  -0.9024
    -0.9023  -0.9013  -0.9008  -0.9003  -0.8990  -0.8830  -0.8725  -0.8724
    -0.8717  -0.8714  -0.8713  -0.8712  -0.8652  -0.8623  -0.8616  -0.8504
    -0.8500  -0.8263  -0.8250  -0.8166  -0.8151  -0.8146  -0.8105  -0.8061
    -0.8057  -0.7881  -0.7757  -0.7756  -0.7721  -0.7720  -0.7661  -0.7660
    -0.7503  -0.7502  -0.7497  -0.7496  -0.7484  -0.7450  -0.7450  -0.7081
    -0.7080  -0.7049  -0.7039  -0.7025  -0.7016  -0.6994  -0.6986  -0.6961
    -0.6960  -0.6960  -0.6955  -0.6951  -0.6707  -0.6699  -0.6692  -0.6686
    -0.6681  -0.6658  -0.6641  -0.6641  -0.6311  -0.6299  -0.6265  -0.6262
    -0.6258  -0.6255  -0.6062  -0.6058  -0.5896  -0.5894  -0.5871  -0.5864
    -0.5771  -0.5575  -0.5569  -0.5567  -0.5564  -0.5502  -0.5386  -0.5385
    -0.5179  -0.5179  -0.5176  -0.5174  -0.5133  -0.5130  -0.5119  -0.5109
    -0.5081  -0.5011  -0.4930  -0.4917  -0.4875  -0.4871  -0.4871  -0.4868
    -0.4864  -0.4861  -0.4747  -0.4745  -0.4739  -0.4738  -0.4601  -0.4600
    -0.4586  -0.4569  -0.4563  -0.4532  -0.4494  -0.4258  -0.4251  -0.4234
    -0.4203  -0.4003  -0.3904  -0.3804  -0.3791  -0.3790  -0.3771  -0.3768
    -0.3766  -0.3762  -0.3723  -0.3718  -0.3717  -0.3711  -0.3711  -0.3710
    -0.3692  -0.3689  -0.3577  -0.3569  -0.3446  -0.3270  -0.3265  -0.3216
    -0.3215  -0.3208  -0.3206  -0.3116  -0.3115  -0.3112  -0.3112  -0.2941
    -0.2861  -0.2533  -0.2533  -0.2397  -0.2395  -0.2372  -0.2364  -0.2292
    -0.2026  -0.1901  -0.1879  -0.1719  -0.1710  -0.1704  -0.1692  -0.1659
    -0.1645  -0.1536  -0.1519   0.1391   0.1490   0.2773   0.2774   0.2843
     0.2863   0.3975   0.3979   0.3981   0.3983   0.4126   0.4127   0.4129
     0.4131   0.5752   0.5755   0.6371   0.6375   0.6380   0.6382   0.6636
     0.6638   0.8955   0.8959   0.8959   0.8960   1.1867   1.6640   1.6642
     1.9991   1.9993   2.0285   2.0324   2.0331   2.0340   2.0344   2.0349
     2.1581   2.1636   2.1646   2.1655   2.1969   2.1971   2.1977   2.1977
     2.2310   2.2321   2.3593   2.3942   2.3944   2.3952   2.3962   2.9483
     3.4054   3.4093   3.4952   3.5018   3.7884   3.7886   3.9163   3.9165
     4.1062   4.1086   4.4258   4.4263   4.5988   4.5996   4.6004   4.6012
     4.6196   4.6649   4.8793   4.8807   4.8818   4.8829   5.1236   5.1252
     5.1268   5.1283   5.2397   5.2468   5.5536   5.5566   5.5836   5.5842
     5.8713   5.8715   5.8741   5.8745   6.2682   6.2687   6.3018   6.3302
     6.3327   6.3881   6.5194   6.5195   6.5526   6.5536   6.5543   6.5562
     6.6978   6.7794   6.7953   6.7956   6.7981   6.7983   6.9051   6.9440
     7.0183   7.0191   7.0192   7.0198   7.2255   7.2262   7.2281   7.2291
     7.2381   7.2525   7.2725   7.3017   7.3053   7.5658   7.5688   7.7737
     7.7739   7.8112   7.8821   8.0264   8.2374   8.2380   8.3496   8.3702
     8.3932   8.4031

          k = 0.0000-0.2165 0.0000 (256176 PWs)   bands (ev):

   -24.5847  -9.0094  -7.6812  -7.6805  -6.6353  -6.6352  -6.5566  -6.5565
    -6.4073  -6.4042  -5.5762  -5.5760  -5.1039  -5.1033  -5.1031  -5.1024
    -4.9393  -4.9382  -4.8323  -4.8318  -4.5378  -4.3878  -4.3872  -4.3868
    -4.3865  -4.2404  -4.2403  -4.2397  -4.2395  -4.1021  -4.1019  -3.9951
    -3.9942  -3.9318  -3.9315  -3.9307  -3.9305  -3.7960  -3.7959  -3.7740
    -3.7740  -3.6889  -3.6883  -3.5802  -3.5795  -3.5594  -3.5592  -3.5478
    -3.5478  -3.5343  -3.5334  -3.4693  -3.4692  -3.4676  -3.4676  -3.4571
    -3.4562  -3.2995  -3.2991  -3.2990  -3.2987  -3.1789  -3.1786  -3.1409
    -3.1404  -3.1271  -3.1268  -3.0896  -3.0892  -3.0852  -3.0847  -3.0835
    -3.0825  -3.0796  -3.0790  -3.0404  -3.0389  -3.0258  -3.0256  -3.0201
    -3.0200  -2.9982  -2.9977  -2.9963  -2.9962  -2.9061  -2.9058  -2.8996
    -2.8995  -2.8617  -2.8617  -2.8582  -2.8579  -2.7935  -2.7925  -2.7923
    -2.7912  -2.7808  -2.7806  -2.7788  -2.7771  -2.7285  -2.7284  -2.7281
    -2.7279  -2.7140  -2.7137  -2.7137  -2.7135  -2.7131  -2.7128  -2.6509
    -2.6505  -2.6493  -2.6489  -2.6253  -2.6243  -2.6229  -2.6228  -2.5908
    -2.5904  -2.5735  -2.5733  -2.5648  -2.5646  -2.5578  -2.5576  -2.4663
    -2.4659  -2.4649  -2.4644  -2.4467  -2.4466  -2.4160  -2.4155  -2.4151
    -2.4150  -2.4145  -2.4141  -2.3705  -2.3700  -2.3408  -2.3406  -2.3397
    -2.3390  -2.3345  -2.3332  -2.3304  -2.3294  -2.3028  -2.3027  -2.2940
    -2.2940  -2.2485  -2.2481  -2.2476  -2.2471  -2.2455  -2.2454  -2.2441
    -2.2438  -2.2432  -2.2431  -2.1662  -2.1661  -2.1651  -2.1650  -2.1636
    -2.1631  -2.1228  -2.1226  -2.1087  -2.1087  -2.1004  -2.1003  -2.0865
    -2.0861  -2.0777  -2.0774  -2.0759  -2.0755  -2.0466  -2.0461  -2.0458
    -2.0451  -2.0437  -2.0436  -2.0206  -2.0201  -2.0195  -2.0193  -2.0154
    -2.0152  -2.0130  -2.0129  -1.9587  -1.9585  -1.9566  -1.9565  -1.9564
    -1.9564  -1.9432  -1.9430  -1.9292  -1.9281  -1.8877  -1.8867  -1.8838
    -1.8828  -1.8775  -1.8774  -1.8753  -1.8748  -1.8746  -1.8740  -1.8690
    -1.8688  -1.8066  -1.8062  -1.8045  -1.8040  -1.8025  -1.8016  -1.8002
    -1.7999  -1.7991  -1.7972  -1.7790  -1.7780  -1.7769  -1.7755  -1.7753
    -1.7753  -1.7488  -1.7477  -1.7329  -1.7326  -1.7325  -1.7321  -1.7106
    -1.7106  -1.6959  -1.6957  -1.6668  -1.6664  -1.6513  -1.6509  -1.6507
    -1.6505  -1.6220  -1.6213  -1.6180  -1.6172  -1.6121  -1.6104  -1.6094
    -1.6087  -1.5650  -1.5643  -1.5598  -1.5593  -1.5478  -1.5463  -1.5459
    -1.5458  -1.5093  -1.5071  -1.4521  -1.4517  -1.4150  -1.4145  -1.4142
    -1.4137  -1.3764  -1.3762  -1.3760  -1.3758  -1.3750  -1.3745  -1.3433
    -1.3414  -1.3341  -1.3335  -1.3330  -1.3327  -1.3222  -1.3210  -1.3088
    -1.3077  -1.3064  -1.3063  -1.3062  -1.3045  -1.3001  -1.2996  -1.2823
    -1.2818  -1.2813  -1.2776  -1.2707  -1.2706  -1.2651  -1.2648  -1.2647
    -1.2639  -1.2526  -1.2524  -1.2416  -1.2412  -1.2410  -1.2408  -1.2393
    -1.2378  -1.2208  -1.2193  -1.2168  -1.2163  -1.2162  -1.2156  -1.2062
    -1.2060  -1.2013  -1.1994  -1.1680  -1.1677  -1.1464  -1.1461  -1.1285
    -1.1283  -1.1280  -1.1277  -1.1245  -1.1230  -1.1182  -1.1179  -1.1179
    -1.1178  -1.1088  -1.1084  -1.0801  -1.0800  -1.0773  -1.0764  -1.0651
    -1.0641  -1.0622  -1.0616  -1.0388  -1.0387  -1.0365  -1.0365  -1.0197
    -1.0191  -1.0156  -1.0154  -1.0152  -1.0149  -0.9684  -0.9678  -0.9268
    -0.9268  -0.9053  -0.9051  -0.9019  -0.9018  -0.8820  -0.8819  -0.8801
    -0.8799  -0.8791  -0.8789  -0.8786  -0.8783  -0.8721  -0.8720  -0.8506
    -0.8494  -0.8404  -0.8404  -0.8383  -0.8368  -0.8363  -0.8349  -0.8331
    -0.8317  -0.8304  -0.8298  -0.8290  -0.8277  -0.8272  -0.8266  -0.8259
    -0.8254  -0.8145  -0.8143  -0.8123  -0.8120  -0.8115  -0.8108  -0.7901
    -0.7898  -0.7812  -0.7806  -0.7693  -0.7692  -0.7677  -0.7674  -0.7668
    -0.7660  -0.7579  -0.7578  -0.7573  -0.7572  -0.7224  -0.7215  -0.7153
    -0.7153  -0.6804  -0.6804  -0.6804  -0.6801  -0.6348  -0.6346  -0.6154
    -0.6147  -0.6111  -0.6107  -0.6106  -0.6103  -0.6048  -0.6048  -0.5947
    -0.5939  -0.5927  -0.5924  -0.5896  -0.5896  -0.5891  -0.5886  -0.5885
    -0.5878  -0.5779  -0.5772  -0.5770  -0.5762  -0.5592  -0.5588  -0.5582
    -0.5581  -0.5479  -0.5467  -0.5408  -0.5407  -0.5253  -0.5251  -0.5137
    -0.5136  -0.5059  -0.5056  -0.5053  -0.5051  -0.5049  -0.5046  -0.4936
    -0.4936  -0.4864  -0.4863  -0.4661  -0.4660  -0.4543  -0.4540  -0.4532
    -0.4530  -0.4433  -0.4431  -0.4243  -0.4242  -0.4220  -0.4219  -0.4210
    -0.4210  -0.4102  -0.4094  -0.4018  -0.4014  -0.3945  -0.3943  -0.3834
    -0.3826  -0.3689  -0.3688  -0.3565  -0.3562  -0.3484  -0.3479  -0.3471
    -0.3468  -0.3458  -0.3454  -0.3438  -0.3436  -0.3156  -0.3152  -0.3149
    -0.3147  -0.3098  -0.3097  -0.3066  -0.3063  -0.2839  -0.2837  -0.2835
    -0.2834  -0.2806  -0.2787  -0.2684  -0.2662  -0.2239  -0.2238  -0.2232
    -0.2230  -0.1388  -0.1387  -0.1351  -0.1339  -0.0333  -0.0333  -0.0312
    -0.0311  -0.0308  -0.0308   0.0241   0.0247   0.0258   0.0259   0.0280
     0.0293   0.0508   0.0522   0.5888   0.5890   0.5905   0.5908   0.6890
     0.6893   0.7328   0.7330   0.7353   0.7358   0.7635   0.7637   0.8956
     0.8960   0.9099   0.9118   0.9501   0.9504   1.1196   1.1207   1.3506
     1.3510   1.3627   1.3627   1.4320   1.4381   1.8730   1.8731   2.2275
     2.2283   2.2311   2.2315   2.2320   2.2321   2.4847   2.4852   2.4863
     2.4871   2.6504   2.6515   2.6568   2.6657   2.8270   2.8274   3.2808
     3.2812   3.4572   3.4577   3.5409   3.5412   3.5419   3.5422   3.7789
     3.7862   4.4061   4.4068   4.5126   4.5129   4.5193   4.5200   4.6970
     4.6984   4.8704   4.8713   4.9277   4.9281   5.0965   5.0986   5.2177
     5.2179   5.2663   5.2677   5.3079   5.3081   5.3198   5.3203   5.4785
     5.4788   5.5741   5.5749   5.5859   5.5874   6.3406   6.3408   6.4338
     6.4634   6.4655   6.4733   6.4754   6.5509   6.5511   6.6340   6.8004
     6.9041   6.9169   6.9191   6.9263   6.9270   6.9293   6.9295   6.9832
     6.9854   7.1907   7.1916   7.2402   7.2756   7.2763   7.4920   7.5500
     7.5628   7.5638   7.5667   7.5688   7.5768   7.5774   7.5814   7.5817
     7.6435   7.7916   7.7922   7.8979   7.9160   7.9747   7.9754   8.0846
     8.0847   8.3574

          k = 0.2500 0.0000 0.0000 (256240 PWs)   bands (ev):

   -24.5847  -9.0094  -7.6360  -7.1095  -7.1068  -6.5136  -6.4073  -6.4043
    -6.2632  -6.0216  -6.0184  -5.8001  -5.7974  -5.6393  -5.6392  -5.2325
    -4.9017  -4.8721  -4.8692  -4.7070  -4.7069  -4.6068  -4.6067  -4.5376
    -4.4855  -4.4825  -4.2063  -4.1168  -4.1168  -3.9072  -3.9071  -3.8922
    -3.8900  -3.8546  -3.7416  -3.7398  -3.6608  -3.6109  -3.6109  -3.6071
    -3.6070  -3.6021  -3.6020  -3.5848  -3.5617  -3.5607  -3.5570  -3.4936
    -3.4432  -3.4418  -3.4145  -3.3946  -3.3916  -3.3848  -3.3848  -3.3661
    -3.3660  -3.3474  -3.3403  -3.3148  -3.3125  -3.3015  -3.3001  -3.1797
    -3.1256  -3.1235  -3.1232  -3.0819  -3.0818  -3.0515  -3.0513  -3.0489
    -3.0470  -3.0467  -3.0189  -2.9981  -2.9980  -2.9960  -2.9946  -2.9940
    -2.9886  -2.9535  -2.9517  -2.9469  -2.9445  -2.9209  -2.9200  -2.9094
    -2.8992  -2.8986  -2.8898  -2.8489  -2.8472  -2.8316  -2.8288  -2.8287
    -2.8231  -2.8213  -2.8112  -2.8110  -2.8080  -2.8079  -2.7916  -2.7915
    -2.7891  -2.7891  -2.7822  -2.7820  -2.7780  -2.7778  -2.7777  -2.7668
    -2.7487  -2.7132  -2.6861  -2.6804  -2.6563  -2.6554  -2.6288  -2.6287
    -2.6101  -2.6088  -2.5789  -2.5789  -2.5739  -2.5687  -2.5578  -2.5571
    -2.5555  -2.5407  -2.5405  -2.5213  -2.4165  -2.4148  -2.3780  -2.3753
    -2.3727  -2.3687  -2.3685  -2.3612  -2.3612  -2.3510  -2.3449  -2.3366
    -2.3365  -2.3298  -2.3297  -2.3099  -2.3095  -2.2851  -2.2846  -2.2821
    -2.2818  -2.2805  -2.2802  -2.2695  -2.2695  -2.2623  -2.2077  -2.2076
    -2.1973  -2.1954  -2.1945  -2.1944  -2.1853  -2.1842  -2.1812  -2.1579
    -2.1577  -2.1390  -2.1364  -2.1363  -2.1138  -2.1042  -2.1040  -2.1023
    -2.1022  -2.0799  -2.0776  -2.0775  -2.0587  -2.0587  -2.0575  -2.0530
    -2.0519  -2.0517  -2.0214  -2.0190  -1.9954  -1.9951  -1.9950  -1.9926
    -1.9900  -1.9870  -1.9798  -1.9795  -1.9579  -1.9578  -1.9453  -1.9431
    -1.9135  -1.9090  -1.9090  -1.9073  -1.9072  -1.8741  -1.8718  -1.8568
    -1.8474  -1.8381  -1.8378  -1.8239  -1.8238  -1.8170  -1.8168  -1.8134
    -1.8115  -1.8105  -1.8013  -1.7993  -1.7935  -1.7932  -1.7928  -1.7910
    -1.7847  -1.7731  -1.7730  -1.7660  -1.7639  -1.7539  -1.7537  -1.7357
    -1.7356  -1.7327  -1.7320  -1.7279  -1.7189  -1.7188  -1.6902  -1.6824
    -1.6823  -1.6765  -1.6748  -1.6741  -1.6725  -1.6606  -1.6599  -1.6529
    -1.6528  -1.6254  -1.6253  -1.5535  -1.5383  -1.5382  -1.5292  -1.5291
    -1.5235  -1.5231  -1.5220  -1.5210  -1.5204  -1.5201  -1.5189  -1.5181
    -1.5164  -1.5110  -1.5080  -1.5078  -1.4993  -1.4992  -1.4838  -1.4768
    -1.4758  -1.4751  -1.4729  -1.4707  -1.4661  -1.4431  -1.4426  -1.4409
    -1.4407  -1.4394  -1.3986  -1.3603  -1.3593  -1.3538  -1.3534  -1.3447
    -1.3443  -1.3440  -1.3321  -1.3318  -1.3253  -1.3212  -1.3198  -1.3176
    -1.3164  -1.3111  -1.3110  -1.3078  -1.3078  -1.2917  -1.2916  -1.2801
    -1.2800  -1.2607  -1.2584  -1.2545  -1.2543  -1.2484  -1.2400  -1.2327
    -1.2314  -1.2210  -1.2209  -1.2195  -1.2194  -1.2086  -1.2081  -1.2076
    -1.1840  -1.1832  -1.1785  -1.1754  -1.1750  -1.1744  -1.1734  -1.1593
    -1.1590  -1.1501  -1.1491  -1.1418  -1.1319  -1.1314  -1.1296  -1.1283
    -1.1016  -1.0942  -1.0938  -1.0663  -1.0590  -1.0589  -1.0551  -1.0547
    -1.0545  -1.0469  -1.0347  -1.0346  -1.0335  -1.0307  -1.0278  -1.0159
    -1.0159  -0.9998  -0.9998  -0.9771  -0.9707  -0.9696  -0.9694  -0.9578
    -0.9559  -0.9496  -0.9496  -0.9319  -0.9318  -0.9287  -0.9230  -0.9228
    -0.9136  -0.9111  -0.9102  -0.9083  -0.9069  -0.9060  -0.9058  -0.9014
    -0.8990  -0.8985  -0.8693  -0.8635  -0.8424  -0.8424  -0.8264  -0.8247
    -0.8135  -0.8131  -0.8113  -0.8110  -0.7942  -0.7929  -0.7927  -0.7915
    -0.7913  -0.7867  -0.7828  -0.7813  -0.7811  -0.7727  -0.7726  -0.7669
    -0.7511  -0.7511  -0.7476  -0.7474  -0.7421  -0.7389  -0.7381  -0.7349
    -0.7348  -0.7192  -0.7175  -0.7173  -0.7171  -0.7170  -0.7075  -0.6980
    -0.6974  -0.6870  -0.6869  -0.6860  -0.6857  -0.6791  -0.6783  -0.6782
    -0.6724  -0.6689  -0.6674  -0.6642  -0.6636  -0.6484  -0.6414  -0.6409
    -0.6385  -0.6384  -0.6087  -0.6070  -0.6063  -0.6061  -0.6047  -0.6047
    -0.5781  -0.5772  -0.5765  -0.5753  -0.5469  -0.5465  -0.5465  -0.5459
    -0.5457  -0.5425  -0.5362  -0.5361  -0.5265  -0.5265  -0.5109  -0.5108
    -0.5088  -0.4999  -0.4998  -0.4961  -0.4959  -0.4933  -0.4931  -0.4914
    -0.4907  -0.4786  -0.4773  -0.4762  -0.4758  -0.4731  -0.4688  -0.4687
    -0.4587  -0.4586  -0.4519  -0.4515  -0.4506  -0.4504  -0.4262  -0.4201
    -0.4198  -0.4174  -0.4023  -0.3894  -0.3875  -0.3768  -0.3766  -0.3754
    -0.3749  -0.3721  -0.3684  -0.3683  -0.3675  -0.3673  -0.3664  -0.3664
    -0.3632  -0.3541  -0.3540  -0.3499  -0.3498  -0.3385  -0.3379  -0.3378
    -0.3186  -0.3184  -0.3146  -0.3138  -0.3098  -0.3096  -0.3065  -0.3062
    -0.2993  -0.2993  -0.2964  -0.2961  -0.2931  -0.2565  -0.2489  -0.2488
    -0.2471  -0.2124  -0.2058  -0.1709  -0.1684  -0.1683  -0.1673  -0.1661
    -0.0776  -0.0770  -0.0401  -0.0399  -0.0291   0.0161   0.0332   0.2229
     0.2230   0.2321   0.2331   0.2532   0.2533   0.3699   0.3770   0.3791
     0.7495   0.7496   0.7550   0.7567   1.1528   1.1689   1.1690   1.3991
     1.3992   1.4096   1.4097   1.4102   1.4121   1.4970   1.6394   1.7199
     1.7201   1.8205   1.8206   1.8929   1.8931   1.8971   1.8986   1.9571
     2.0493   2.0494   2.1175   2.1176   2.2302   2.2333   2.2341   2.2365
     2.4719   2.4773   2.7386   3.0000   3.0019   3.2129   3.3936   3.3937
     3.4243   3.5293   3.6472   3.6480   3.6526   3.6530   3.6854   3.6897
     3.6984   3.7039   3.9079   3.9082   3.9136   3.9139   4.2004   4.2035
     4.2037   4.2064   4.8470   4.8472   4.8815   4.9316   4.9317   5.0345
     5.2073   5.2143   5.2276   5.2278   5.2705   5.3412   5.3418   5.3649
     5.3652   5.5241   5.5295   5.7428   5.7444   5.7744   5.7750   5.9014
     6.1868   6.1883   6.2516   6.2517   6.3434   6.3458   6.4711   6.4714
     6.5086   6.5086   6.5481   6.6120   6.8457   6.8458   6.8706   7.0640
     7.1025   7.1379   7.1397   7.3005   7.3009   7.3390   7.3878   7.4020
     7.4083   7.4099   7.4167   7.4308   7.4325   7.4454   7.5380   7.5380
     7.6351   7.6352   7.8301   7.9177   7.9179   7.9679   7.9918   8.0384
     8.2215   8.2398

          k = 0.2500-0.2165 0.0000 (256316 PWs)   bands (ev):

   -24.5847  -9.0094  -7.5030  -7.5022  -6.4721  -6.4720  -6.4073  -6.4043
    -6.3882  -6.3881  -6.1450  -6.1442  -5.4379  -5.4378  -5.2607  -5.2606
    -5.1371  -5.1370  -4.7937  -4.7926  -4.7122  -4.7118  -4.5376  -4.4967
    -4.4965  -4.1214  -4.1206  -4.0334  -4.0332  -3.9818  -3.9816  -3.9566
    -3.9558  -3.8195  -3.8188  -3.8161  -3.8159  -3.6666  -3.6664  -3.6260
    -3.6258  -3.5760  -3.5752  -3.5211  -3.5204  -3.5185  -3.5184  -3.4899
    -3.4891  -3.4839  -3.4839  -3.4774  -3.4772  -3.4698  -3.4697  -3.3940
    -3.3930  -3.2713  -3.2712  -3.2041  -3.2038  -3.1377  -3.1375  -3.0878
    -3.0877  -3.0861  -3.0856  -3.0725  -3.0725  -3.0537  -3.0534  -3.0524
    -3.0523  -3.0372  -3.0371  -3.0306  -3.0303  -3.0242  -3.0232  -2.9988
    -2.9973  -2.9899  -2.9895  -2.9786  -2.9784  -2.9426  -2.9406  -2.9361
    -2.9349  -2.9227  -2.9226  -2.8982  -2.8968  -2.8462  -2.8461  -2.8450
    -2.8444  -2.8134  -2.8133  -2.8079  -2.8078  -2.7914  -2.7909  -2.7686
    -2.7683  -2.7655  -2.7653  -2.7636  -2.7629  -2.7470  -2.7460  -2.7274
    -2.7271  -2.7240  -2.7239  -2.6791  -2.6777  -2.6721  -2.6715  -2.5863
    -2.5849  -2.5775  -2.5764  -2.5657  -2.5657  -2.5182  -2.5182  -2.5156
    -2.5156  -2.5079  -2.5076  -2.4946  -2.4941  -2.4475  -2.4475  -2.4267
    -2.4263  -2.3976  -2.3975  -2.3752  -2.3750  -2.3719  -2.3712  -2.3296
    -2.3292  -2.3260  -2.3248  -2.3039  -2.3029  -2.2993  -2.2990  -2.2865
    -2.2864  -2.2498  -2.2490  -2.2369  -2.2368  -2.2073  -2.2072  -2.1963
    -2.1962  -2.1885  -2.1881  -2.1840  -2.1838  -2.1722  -2.1721  -2.1710
    -2.1709  -2.1537  -2.1536  -2.1417  -2.1414  -2.1378  -2.1366  -2.1205
    -2.1204  -2.0980  -2.0959  -2.0746  -2.0742  -2.0739  -2.0731  -2.0481
    -2.0481  -2.0444  -2.0443  -2.0208  -2.0194  -2.0102  -2.0099  -1.9821
    -1.9818  -1.9608  -1.9606  -1.9302  -1.9301  -1.9145  -1.9144  -1.9005
    -1.8994  -1.8880  -1.8878  -1.8786  -1.8785  -1.8606  -1.8603  -1.8429
    -1.8420  -1.8364  -1.8354  -1.8328  -1.8326  -1.8310  -1.8303  -1.8230
    -1.8217  -1.8149  -1.8143  -1.8079  -1.8074  -1.7993  -1.7990  -1.7947
    -1.7939  -1.7938  -1.7935  -1.7657  -1.7655  -1.7645  -1.7643  -1.7312
    -1.7310  -1.7241  -1.7239  -1.7234  -1.7232  -1.7054  -1.7047  -1.6674
    -1.6662  -1.6620  -1.6616  -1.6513  -1.6500  -1.6415  -1.6410  -1.6383
    -1.6381  -1.6361  -1.6355  -1.6340  -1.6336  -1.5948  -1.5943  -1.5251
    -1.5250  -1.5166  -1.5159  -1.5153  -1.5142  -1.5134  -1.5134  -1.5116
    -1.5113  -1.4986  -1.4984  -1.4925  -1.4905  -1.4797  -1.4797  -1.4731
    -1.4724  -1.4692  -1.4692  -1.4680  -1.4680  -1.4415  -1.4397  -1.4131
    -1.4123  -1.4056  -1.4051  -1.3954  -1.3949  -1.3745  -1.3741  -1.3547
    -1.3539  -1.3455  -1.3453  -1.3429  -1.3425  -1.3340  -1.3339  -1.3220
    -1.3219  -1.3099  -1.3085  -1.3016  -1.3015  -1.2799  -1.2798  -1.2750
    -1.2746  -1.2579  -1.2577  -1.2350  -1.2349  -1.2281  -1.2267  -1.2064
    -1.2055  -1.2041  -1.2035  -1.1972  -1.1971  -1.1775  -1.1772  -1.1648
    -1.1640  -1.1572  -1.1569  -1.1560  -1.1546  -1.1465  -1.1463  -1.1314
    -1.1313  -1.1285  -1.1274  -1.1262  -1.1255  -1.1242  -1.1240  -1.1135
    -1.1134  -1.1104  -1.1103  -1.1004  -1.1003  -1.0894  -1.0893  -1.0811
    -1.0809  -1.0670  -1.0661  -1.0503  -1.0501  -1.0491  -1.0485  -1.0360
    -1.0354  -0.9907  -0.9906  -0.9775  -0.9771  -0.9759  -0.9754  -0.9637
    -0.9633  -0.9604  -0.9596  -0.9532  -0.9531  -0.9479  -0.9472  -0.9463
    -0.9455  -0.9416  -0.9415  -0.9246  -0.9239  -0.9097  -0.9096  -0.8995
    -0.8993  -0.8851  -0.8850  -0.8797  -0.8791  -0.8769  -0.8767  -0.8631
    -0.8630  -0.8568  -0.8567  -0.8375  -0.8373  -0.8360  -0.8350  -0.8349
    -0.8342  -0.7832  -0.7820  -0.7777  -0.7776  -0.7490  -0.7490  -0.7325
    -0.7324  -0.7177  -0.7174  -0.7166  -0.7163  -0.7139  -0.7136  -0.7093
    -0.7091  -0.6967  -0.6960  -0.6946  -0.6941  -0.6936  -0.6926  -0.6706
    -0.6705  -0.6630  -0.6629  -0.6623  -0.6615  -0.6597  -0.6594  -0.6458
    -0.6452  -0.6398  -0.6394  -0.6376  -0.6375  -0.6259  -0.6259  -0.6150
    -0.6150  -0.6137  -0.6134  -0.6063  -0.6060  -0.6033  -0.6025  -0.5937
    -0.5936  -0.5899  -0.5898  -0.5682  -0.5679  -0.5642  -0.5639  -0.5632
    -0.5629  -0.5593  -0.5592  -0.5488  -0.5487  -0.5317  -0.5316  -0.5253
    -0.5248  -0.5183  -0.5181  -0.5146  -0.5134  -0.4962  -0.4958  -0.4877
    -0.4875  -0.4728  -0.4728  -0.4667  -0.4665  -0.4613  -0.4611  -0.4498
    -0.4486  -0.4405  -0.4404  -0.4322  -0.4321  -0.4260  -0.4259  -0.4256
    -0.4254  -0.4183  -0.4182  -0.4092  -0.4085  -0.3844  -0.3842  -0.3822
    -0.3818  -0.3790  -0.3789  -0.3759  -0.3755  -0.3750  -0.3749  -0.3685
    -0.3682  -0.3647  -0.3646  -0.3463  -0.3452  -0.3450  -0.3449  -0.3419
    -0.3418  -0.3406  -0.3404  -0.3213  -0.3202  -0.3165  -0.3165  -0.2963
    -0.2963  -0.2772  -0.2771  -0.2661  -0.2656  -0.2448  -0.2445  -0.2428
    -0.2424  -0.2172  -0.2171  -0.1648  -0.1648  -0.0944  -0.0939  -0.0790
    -0.0788  -0.0431  -0.0420  -0.0385  -0.0382  -0.0321  -0.0313  -0.0311
    -0.0298   0.3204   0.3207   0.3514   0.3515   0.4687   0.4696   0.7766
     0.7766   0.9533   0.9536   0.9631   0.9633   0.9751   0.9756   0.9811
     0.9812   1.1780   1.1781   1.2142   1.2176   1.6988   1.7046   1.7099
     1.7119   1.7411   1.7413   2.0373   2.0375   2.0397   2.0397   2.1730
     2.1742   2.2307   2.2340   2.2721   2.2724   2.3522   2.3529   2.5671
     2.5672   2.6970   2.6981   2.8692   2.8693   2.9816   2.9855   3.0027
     3.0073   3.3268   3.3333   3.5243   3.5247   3.5979   3.6019   3.6361
     3.6370   3.9382   3.9383   3.9857   3.9857   4.1163   4.1233   4.6383
     4.6391   4.7841   4.7842   4.8933   4.8944   4.9511   4.9516   5.0475
     5.0572   5.1968   5.1983   5.2311   5.2314   5.4176   5.4197   5.4678
     5.4680   5.5241   5.5256   5.6026   5.6027   5.7851   5.7915   5.9408
     5.9410   6.0351   6.0357   6.3668   6.3668   6.3967   6.4025   6.5950
     6.7561   6.7565   6.7816   6.7817   6.7939   6.8705   6.8707   6.9466
     6.9489   6.9751   7.0824   7.1108   7.1114   7.2736   7.2740   7.3791
     7.3798   7.3872   7.3880   7.3898   7.4555   7.4561   7.5547   7.5585
     7.5836   7.5840   7.6431   7.7005   7.8000   7.8781   8.0474   8.0710
     8.0913   8.1495

          k =-0.5000 0.0000 0.0000 (256496 PWs)   bands (ev):

   -24.5848  -9.0095  -7.1062  -7.1061  -6.6015  -6.6014  -6.5989  -6.5987
    -6.4073  -6.4044  -6.0130  -6.0127  -5.5641  -5.5638  -5.5611  -5.5603
    -5.2214  -5.2212  -5.2211  -5.2210  -4.5374  -4.4697  -4.4697  -4.4433
    -4.4432  -4.4431  -4.4426  -4.1589  -4.1585  -4.1564  -4.1557  -3.6907
    -3.6907  -3.6903  -3.6902  -3.6865  -3.6864  -3.6000  -3.5999  -3.5999
    -3.5997  -3.4563  -3.4562  -3.4558  -3.4556  -3.4137  -3.4133  -3.4115
    -3.4113  -3.3250  -3.3249  -3.2988  -3.2987  -3.2256  -3.2255  -3.2251
    -3.2251  -3.2178  -3.2176  -3.1681  -3.1681  -3.1645  -3.1644  -3.1610
    -3.1605  -3.1561  -3.1557  -3.1414  -3.1412  -3.1027  -3.1026  -3.1014
    -3.1012  -3.0753  -3.0752  -3.0748  -3.0747  -3.0153  -3.0152  -2.9902
    -2.9899  -2.9896  -2.9892  -2.9806  -2.9804  -2.9798  -2.9797  -2.9336
    -2.9335  -2.9326  -2.9325  -2.9152  -2.9151  -2.9146  -2.9145  -2.8971
    -2.8970  -2.8668  -2.8667  -2.8114  -2.8112  -2.7929  -2.7928  -2.7911
    -2.7910  -2.7668  -2.7666  -2.7662  -2.7662  -2.7383  -2.7380  -2.7370
    -2.7368  -2.7259  -2.7259  -2.7248  -2.7248  -2.6919  -2.6917  -2.6338
    -2.6337  -2.6308  -2.6308  -2.5985  -2.5982  -2.5242  -2.5241  -2.5238
    -2.5237  -2.4758  -2.4757  -2.4744  -2.4743  -2.4716  -2.4713  -2.4221
    -2.4221  -2.4206  -2.4205  -2.4126  -2.4125  -2.4120  -2.4119  -2.3861
    -2.3860  -2.3790  -2.3789  -2.3785  -2.3784  -2.2542  -2.2540  -2.2346
    -2.2344  -2.2337  -2.2335  -2.2083  -2.2082  -2.2069  -2.2066  -2.2062
    -2.2060  -2.1991  -2.1979  -2.1708  -2.1707  -2.1686  -2.1684  -2.1298
    -2.1294  -2.1272  -2.1270  -2.1255  -2.1254  -2.1015  -2.1015  -2.1012
    -2.1012  -2.0986  -2.0985  -2.0969  -2.0966  -2.0904  -2.0903  -2.0589
    -2.0588  -2.0570  -2.0570  -2.0104  -2.0102  -2.0102  -2.0100  -1.9374
    -1.9374  -1.9364  -1.9363  -1.9334  -1.9333  -1.9324  -1.9324  -1.8852
    -1.8850  -1.8826  -1.8823  -1.8486  -1.8484  -1.8342  -1.8339  -1.8318
    -1.8317  -1.8252  -1.8251  -1.8240  -1.8240  -1.8181  -1.8181  -1.8179
    -1.8177  -1.7261  -1.7260  -1.7259  -1.7257  -1.7187  -1.7174  -1.7154
    -1.7152  -1.7150  -1.7149  -1.7140  -1.7134  -1.7133  -1.7132  -1.7030
    -1.7020  -1.7009  -1.7004  -1.6984  -1.6982  -1.6950  -1.6950  -1.6856
    -1.6852  -1.6831  -1.6827  -1.6760  -1.6759  -1.6757  -1.6757  -1.6595
    -1.6594  -1.6453  -1.6452  -1.6445  -1.6445  -1.6176  -1.6176  -1.6168
    -1.6166  -1.5412  -1.5412  -1.4998  -1.4997  -1.4995  -1.4995  -1.4875
    -1.4875  -1.4874  -1.4873  -1.4655  -1.4653  -1.4647  -1.4646  -1.4611
    -1.4609  -1.4537  -1.4537  -1.4519  -1.4519  -1.4507  -1.4506  -1.4498
    -1.4494  -1.4403  -1.4403  -1.4131  -1.4129  -1.4088  -1.4086  -1.3964
    -1.3963  -1.3948  -1.3948  -1.3159  -1.3158  -1.2905  -1.2901  -1.2892
    -1.2887  -1.2781  -1.2781  -1.2768  -1.2765  -1.2721  -1.2721  -1.2695
    -1.2693  -1.2618  -1.2618  -1.2615  -1.2612  -1.2598  -1.2596  -1.2581
    -1.2581  -1.2575  -1.2575  -1.2413  -1.2413  -1.2401  -1.2400  -1.2150
    -1.2150  -1.1758  -1.1757  -1.1729  -1.1728  -1.1678  -1.1675  -1.1670
    -1.1668  -1.1645  -1.1643  -1.1633  -1.1633  -1.1543  -1.1542  -1.1535
    -1.1535  -1.1334  -1.1334  -1.1326  -1.1324  -1.0988  -1.0984  -1.0970
    -1.0969  -1.0775  -1.0771  -1.0704  -1.0704  -1.0701  -1.0700  -1.0293
    -1.0291  -0.9957  -0.9956  -0.9952  -0.9951  -0.9787  -0.9786  -0.9750
    -0.9745  -0.9737  -0.9736  -0.9667  -0.9667  -0.9660  -0.9659  -0.9566
    -0.9566  -0.9563  -0.9562  -0.9391  -0.9389  -0.9389  -0.9389  -0.9156
    -0.9154  -0.9139  -0.9138  -0.8937  -0.8936  -0.8931  -0.8931  -0.8925
    -0.8923  -0.8675  -0.8674  -0.8662  -0.8662  -0.7992  -0.7992  -0.7921
    -0.7919  -0.7910  -0.7909  -0.7630  -0.7629  -0.7607  -0.7606  -0.7319
    -0.7319  -0.7315  -0.7313  -0.7260  -0.7259  -0.6958  -0.6958  -0.6954
    -0.6953  -0.6886  -0.6886  -0.6885  -0.6885  -0.6739  -0.6739  -0.6659
    -0.6658  -0.6650  -0.6649  -0.6601  -0.6601  -0.6600  -0.6597  -0.6564
    -0.6563  -0.6555  -0.6555  -0.6505  -0.6505  -0.6422  -0.6420  -0.6307
    -0.6307  -0.5888  -0.5887  -0.5882  -0.5881  -0.5794  -0.5793  -0.5722
    -0.5721  -0.5670  -0.5668  -0.5661  -0.5660  -0.5599  -0.5598  -0.5594
    -0.5592  -0.5556  -0.5552  -0.5539  -0.5536  -0.5042  -0.5040  -0.5033
    -0.5033  -0.4941  -0.4941  -0.4938  -0.4938  -0.4936  -0.4934  -0.4924
    -0.4922  -0.4912  -0.4911  -0.4749  -0.4748  -0.4745  -0.4744  -0.4593
    -0.4592  -0.4589  -0.4588  -0.4498  -0.4497  -0.4487  -0.4485  -0.4441
    -0.4440  -0.4438  -0.4438  -0.4351  -0.4350  -0.4336  -0.4335  -0.3923
    -0.3923  -0.3916  -0.3915  -0.3878  -0.3876  -0.3871  -0.3870  -0.3672
    -0.3671  -0.3664  -0.3664  -0.3531  -0.3530  -0.3524  -0.3523  -0.3462
    -0.3462  -0.3360  -0.3360  -0.3357  -0.3356  -0.3048  -0.3047  -0.3047
    -0.3047  -0.3035  -0.3035  -0.3030  -0.3030  -0.2879  -0.2877  -0.2874
    -0.2873  -0.2593  -0.2590  -0.2243  -0.2241  -0.2232  -0.2229  -0.1883
    -0.1883  -0.1826  -0.1823   0.1907   0.1908   0.1917   0.1918   0.3878
     0.3879   0.4155   0.4156   0.4849   0.4850   0.4850   0.4851   0.7396
     0.7397   0.7415   0.7417   1.0253   1.0253   1.0265   1.0268   1.3789
     1.3794   1.3809   1.3814   1.6558   1.6561   1.8915   1.8918   1.8928
     1.8929   2.1062   2.1063   2.1072   2.1073   2.2284   2.2296   2.2315
     2.2360   2.2749   2.2758   2.2783   2.2788   2.8023   2.8027   2.8038
     2.8045   3.0143   3.0143   3.0146   3.0147   3.2104   3.2104   3.2161
     3.2162   3.2359   3.2364   3.2381   3.2381   3.2588   3.2589   3.6522
     3.6530   3.6563   3.6572   3.6581   3.6588   4.1235   4.1240   4.1254
     4.1256   4.1749   4.1766   4.1835   4.1847   4.4398   4.4407   4.4451
     4.4457   5.2416   5.2419   5.2432   5.2435   5.2894   5.2898   5.7282
     5.7282   5.7311   5.7315   5.7637   5.7639   5.7667   5.7668   5.9972
     5.9973   6.0470   6.0471   6.0487   6.0490   6.1503   6.1515   6.1572
     6.1575   6.2222   6.2232   6.2298   6.2311   6.9903   6.9992   7.0008
     7.0020   7.0026   7.0634   7.2103   7.2106   7.2135   7.2137   7.3652
     7.4054   7.4620   7.4622   7.5238   7.5460   7.5561   7.5881   7.6674
     7.6676   7.6860   7.6863   7.6896   7.6897   7.8211   7.8896   7.9237
     7.9603   7.9811

          k =-0.5000-0.2165 0.0000 (256328 PWs)   bands (ev):

   -24.5847  -9.0095  -6.9783  -6.9783  -6.9777  -6.9774  -6.4073  -6.4044
    -5.9969  -5.9967  -5.9965  -5.9965  -5.8976  -5.8973  -5.8972  -5.8970
    -5.0494  -5.0490  -5.0488  -5.0486  -4.5374  -4.3868  -4.3867  -4.3866
    -4.3865  -4.3856  -4.3853  -4.3842  -4.3841  -3.8776  -3.8774  -3.8770
    -3.8769  -3.8654  -3.8651  -3.8644  -3.8644  -3.6133  -3.6132  -3.6120
    -3.6117  -3.3930  -3.3930  -3.3929  -3.3927  -3.3063  -3.3062  -3.3061
    -3.3060  -3.2754  -3.2751  -3.2728  -3.2725  -3.2449  -3.2448  -3.2426
    -3.2426  -3.1943  -3.1940  -3.1932  -3.1929  -3.1904  -3.1901  -3.1899
    -3.1898  -3.1711  -3.1710  -3.1707  -3.1706  -3.1094  -3.1090  -3.1084
    -3.1083  -3.0540  -3.0538  -3.0529  -3.0528  -3.0018  -3.0018  -3.0016
    -3.0015  -2.9670  -2.9670  -2.9665  -2.9663  -2.9357  -2.9357  -2.9353
    -2.9350  -2.9328  -2.9328  -2.9325  -2.9324  -2.9232  -2.9232  -2.9231
    -2.9230  -2.8679  -2.8679  -2.8668  -2.8665  -2.8518  -2.8518  -2.8507
    -2.8505  -2.8422  -2.8421  -2.8416  -2.8414  -2.6743  -2.6742  -2.6734
    -2.6731  -2.6647  -2.6647  -2.6643  -2.6642  -2.5964  -2.5962  -2.5959
    -2.5956  -2.5732  -2.5731  -2.5729  -2.5725  -2.5580  -2.5579  -2.5577
    -2.5576  -2.5111  -2.5111  -2.5108  -2.5106  -2.4868  -2.4865  -2.4856
    -2.4854  -2.4663  -2.4662  -2.4651  -2.4648  -2.3565  -2.3564  -2.3549
    -2.3549  -2.3324  -2.3320  -2.3316  -2.3314  -2.2998  -2.2995  -2.2992
    -2.2991  -2.2504  -2.2503  -2.2500  -2.2498  -2.2259  -2.2258  -2.2254
    -2.2251  -2.1899  -2.1898  -2.1893  -2.1891  -2.1704  -2.1702  -2.1688
    -2.1684  -2.1084  -2.1083  -2.1074  -2.1070  -2.0807  -2.0805  -2.0793
    -2.0792  -2.0633  -2.0632  -2.0625  -2.0625  -2.0381  -2.0377  -2.0371
    -2.0371  -1.9776  -1.9774  -1.9774  -1.9773  -1.9518  -1.9517  -1.9515
    -1.9514  -1.9500  -1.9498  -1.9497  -1.9495  -1.9203  -1.9202  -1.9201
    -1.9201  -1.9032  -1.9030  -1.9021  -1.9020  -1.8984  -1.8983  -1.8980
    -1.8979  -1.8222  -1.8222  -1.8213  -1.8211  -1.7947  -1.7947  -1.7937
    -1.7936  -1.7419  -1.7417  -1.7397  -1.7392  -1.7240  -1.7239  -1.7228
    -1.7228  -1.7115  -1.7113  -1.7078  -1.7072  -1.6987  -1.6983  -1.6962
    -1.6960  -1.6900  -1.6900  -1.6885  -1.6884  -1.6873  -1.6871  -1.6861
    -1.6861  -1.6784  -1.6784  -1.6783  -1.6781  -1.6455  -1.6454  -1.6450
    -1.6449  -1.6289  -1.6288  -1.6283  -1.6282  -1.5952  -1.5949  -1.5939
    -1.5938  -1.5773  -1.5770  -1.5754  -1.5751  -1.5576  -1.5575  -1.5573
    -1.5572  -1.4739  -1.4734  -1.4719  -1.4717  -1.4628  -1.4624  -1.4622
    -1.4618  -1.4484  -1.4482  -1.4461  -1.4460  -1.4364  -1.4363  -1.4362
    -1.4361  -1.4237  -1.4236  -1.4232  -1.4232  -1.3474  -1.3473  -1.3465
    -1.3465  -1.3351  -1.3351  -1.3342  -1.3342  -1.3336  -1.3334  -1.3329
    -1.3327  -1.2971  -1.2969  -1.2964  -1.2960  -1.2942  -1.2941  -1.2936
    -1.2935  -1.2929  -1.2927  -1.2913  -1.2911  -1.2413  -1.2412  -1.2404
    -1.2401  -1.2353  -1.2353  -1.2340  -1.2338  -1.2232  -1.2231  -1.2230
    -1.2229  -1.2048  -1.2047  -1.2035  -1.2034  -1.1743  -1.1741  -1.1734
    -1.1734  -1.1654  -1.1653  -1.1649  -1.1649  -1.1221  -1.1220  -1.1214
    -1.1211  -1.1196  -1.1196  -1.1183  -1.1182  -1.1042  -1.1039  -1.1020
    -1.1015  -1.0706  -1.0704  -1.0683  -1.0680  -1.0659  -1.0659  -1.0654
    -1.0652  -1.0456  -1.0455  -1.0442  -1.0442  -1.0289  -1.0288  -1.0285
    -1.0283  -0.9894  -0.9892  -0.9890  -0.9890  -0.9559  -0.9558  -0.9556
    -0.9555  -0.9403  -0.9402  -0.9397  -0.9396  -0.8746  -0.8745  -0.8734
    -0.8734  -0.8308  -0.8308  -0.8305  -0.8304  -0.8136  -0.8134  -0.8132
    -0.8131  -0.8066  -0.8065  -0.8058  -0.8057  -0.7710  -0.7710  -0.7705
    -0.7702  -0.7620  -0.7620  -0.7612  -0.7612  -0.7603  -0.7602  -0.7601
    -0.7600  -0.7599  -0.7597  -0.7596  -0.7592  -0.7323  -0.7322  -0.7318
    -0.7318  -0.7226  -0.7224  -0.7207  -0.7206  -0.7033  -0.7030  -0.7029
    -0.7026  -0.6884  -0.6884  -0.6876  -0.6876  -0.6763  -0.6762  -0.6747
    -0.6747  -0.6635  -0.6634  -0.6628  -0.6627  -0.6032  -0.6031  -0.6018
    -0.6018  -0.5983  -0.5982  -0.5974  -0.5972  -0.5939  -0.5938  -0.5936
    -0.5936  -0.5870  -0.5869  -0.5863  -0.5861  -0.5737  -0.5736  -0.5735
    -0.5735  -0.5201  -0.5199  -0.5195  -0.5193  -0.5185  -0.5184  -0.5184
    -0.5183  -0.5134  -0.5133  -0.5127  -0.5126  -0.4753  -0.4753  -0.4752
    -0.4751  -0.4434  -0.4433  -0.4428  -0.4426  -0.4416  -0.4416  -0.4413
    -0.4411  -0.4391  -0.4390  -0.4389  -0.4388  -0.4372  -0.4371  -0.4364
    -0.4362  -0.4206  -0.4206  -0.4199  -0.4198  -0.4077  -0.4077  -0.4073
    -0.4071  -0.4055  -0.4054  -0.4052  -0.4051  -0.3828  -0.3828  -0.3822
    -0.3822  -0.3510  -0.3510  -0.3509  -0.3509  -0.3404  -0.3403  -0.3402
    -0.3402  -0.3269  -0.3268  -0.3251  -0.3250  -0.3046  -0.3046  -0.3044
    -0.3044  -0.2715  -0.2715  -0.2711  -0.2710  -0.2228  -0.2228  -0.2222
    -0.2220  -0.2206  -0.2204  -0.2196  -0.2196  -0.1929  -0.1926  -0.1905
    -0.1904  -0.1807  -0.1806  -0.1802  -0.1801   0.0281   0.0282   0.0288
     0.0289   0.4696   0.4698   0.4729   0.4731   0.7480   0.7481   0.7493
     0.7494   0.9617   0.9618   0.9620   0.9621   1.2163   1.2164   1.2167
     1.2170   1.6464   1.6465   1.6466   1.6467   1.8305   1.8310   1.8331
     1.8331   2.1264   2.1264   2.1271   2.1272   2.2304   2.2360   2.3765
     2.3771   2.3830   2.3836   2.4284   2.4285   2.4305   2.4307   2.7137
     2.7140   2.7150   2.7152   2.8976   2.8979   2.9013   2.9013   3.3648
     3.3650   3.3652   3.3657   3.3742   3.3745   3.3764   3.3771   3.4342
     3.4347   3.4352   3.4356   3.8618   3.8623   3.8719   3.8730   3.9239
     3.9240   3.9248   3.9248   4.9712   4.9717   4.9774   4.9777   5.2799
     5.2800   5.2808   5.2821   5.2983   5.2992   5.3033   5.3049   5.3096
     5.3099   5.3137   5.3137   5.5425   5.5427   5.5429   5.5430   5.6678
     5.6683   5.6689   5.6694   6.1014   6.1015   6.1016   6.1020   6.4210
     6.4212   6.4243   6.4248   7.0283   7.0847   7.0849   7.0856   7.0858
     7.1022   7.1064   7.1084   7.1105   7.1250   7.1607   7.1608   7.1611
     7.1611   7.2636   7.2771   7.4723   7.5172   7.6066   7.6194   7.6323
     7.6332   7.6345   7.6348   7.6858   7.6859   7.6928   7.6931   7.7998
     7.8963   8.1118

     the Fermi energy is     1.5142 ev

!    total energy              =  -12202.04509625 Ry
     Harris-Foulkes estimate   =  -12202.04509624 Ry
     estimated scf accuracy    <          4.0E-09 Ry

     The total energy is the sum of the following terms:

     one-electron contribution = -109314.75811586 Ry
     hartree contribution      =   55882.68695429 Ry
     xc contribution           =   -4288.66446872 Ry
     ewald contribution        =   45524.29323328 Ry
     Dispersion Correction     =      -2.37245620 Ry
     smearing contrib. (-TS)   =      -3.23024303 Ry

     convergence has been achieved in  25 iterations

     Writing output data file gc.save
 
     init_run     :    123.93s CPU    133.70s WALL (       1 calls)
     electrons    :   8872.66s CPU   9576.72s WALL (       1 calls)

     Called by init_run:
     wfcinit      :    121.09s CPU    129.78s WALL (       1 calls)
     potinit      :      0.94s CPU      1.02s WALL (       1 calls)

     Called by electrons:
     c_bands      :   7618.27s CPU   8207.42s WALL (      25 calls)
     sum_band     :    821.12s CPU    879.00s WALL (      25 calls)
     v_of_rho     :      3.16s CPU      3.89s WALL (      26 calls)
     newd         :      8.59s CPU     16.97s WALL (      26 calls)
     mix_rho      :    421.64s CPU    469.81s WALL (      25 calls)

     Called by c_bands:
     init_us_2    :     45.13s CPU     46.58s WALL (     306 calls)
     cegterg      :   7435.11s CPU   8015.36s WALL (     150 calls)

     Called by sum_band:
     sum_band:bec :      2.23s CPU      2.65s WALL (     150 calls)
     addusdens    :     12.53s CPU     19.86s WALL (      25 calls)

     Called by *egterg:
     h_psi        :   3191.63s CPU   3432.89s WALL (    1118 calls)
     s_psi        :    799.64s CPU    804.97s WALL (    1118 calls)
     g_psi        :      7.67s CPU      7.73s WALL (     962 calls)
     cdiaghg      :   1854.34s CPU   1980.17s WALL (    1112 calls)

     Called by h_psi:
     add_vuspsi   :    800.57s CPU    806.58s WALL (    1118 calls)

     General routines
     calbec       :   1132.83s CPU   1142.08s WALL (    1268 calls)
     fft          :      2.57s CPU      3.30s WALL (     337 calls)
     ffts         :    179.20s CPU    213.94s WALL (   26936 calls)
     fftw         :   1608.63s CPU   1827.72s WALL (  545850 calls)
     davcio       :      0.28s CPU      5.77s WALL (       6 calls)
 
     Parallel routines
     fft_scatter  :    883.35s CPU   1020.41s WALL (  573123 calls)
 
     PWSCF        :     2h30m CPU        2h42m WALL

 
   This run was terminated on:  16: 7:39   7Nov2017            

=------------------------------------------------------------------------------=
   JOB DONE.
=------------------------------------------------------------------------------=
