mpirun: INFO: switching to OpenMPI runtime version 1.10.2

     Program PWSCF v.5.4.0 starts on 28Feb2018 at  8:27:22 

     This program is part of the open-source Quantum ESPRESSO suite
     for quantum simulation of materials; please cite
         "P. Giannozzi et al., J. Phys.:Condens. Matter 21 395502 (2009);
          URL http://www.quantum-espresso.org", 
     in publications or presentations arising from this work. More details at
     http://www.quantum-espresso.org/quote

     Parallel version (MPI & OpenMP), running on      28 processor cores
     Number of MPI processes:                28
     Threads/MPI process:                     1
     R & G space division:  proc/nbgrp/npool/nimage =      28
     Waiting for input...
     Reading input from standard input
Warning: card &IONS ignored
Warning: card / ignored

     Current dimensions of program PWSCF are:
     Max number of different atomic species (ntypx) = 10
     Max number of k-points (npk) =  40000
     Max angular momentum in pseudopotentials (lmaxx) =  3
     WARNING: atomic wfc #  2 for atom type 4 has zero norm
     WARNING: atomic wfc #  4 for atom type 4 has zero norm
     WARNING: atomic wfc #  5 for atom type 4 has zero norm

     -------------------------------------
     Parameters for Dispersion Correction:
     -------------------------------------
       atom      VdW radius       C_6     

        Cu         2.952        374.666
        C_h        2.744         60.710
        C          2.744         60.710
        O          2.536         24.284
        H          1.892          4.857

     Subspace diagonalization in iterative solution of the eigenvalue problem:
     one sub-group per band group will be used
     scalapack distributed-memory algorithm (size of sub-group:  3*  3 procs)

 
     Parallelization info
     --------------------
     sticks:   dense  smooth     PW     G-vecs:    dense   smooth      PW
     Min         408     408    108                73226    73226    9928
     Max         410     410    109                73231    73231    9931
     Sum       11433   11433   3039              2050409  2050409  278033
 


     bravais-lattice index     =            0
     lattice parameter (alat)  =      13.9425  a.u.
     unit-cell volume          =   21209.0878 (a.u.)^3
     number of atoms/cell      =          148
     number of atomic types    =            5
     number of electrons       =      1292.00
     number of Kohn-Sham states=          775
     kinetic-energy cutoff     =      80.0000  Ry
     charge density cutoff     =     320.0000  Ry
     convergence threshold     =      1.0E-08
     mixing beta               =       0.7000
     number of iterations used =            8  local-TF  mixing
     Exchange-correlation      =  SLA  PW   PBE  PBE ( 1  4  3  4 0 0)

     celldm(1)=  13.942539  celldm(2)=   0.000000  celldm(3)=   0.000000
     celldm(4)=   0.000000  celldm(5)=   0.000000  celldm(6)=   0.000000

     crystal axes: (cart. coord. in units of alat)
               a(1) = (   1.000000   0.000000   0.000000 )  
               a(2) = (   0.000000   2.309401   0.000000 )  
               a(3) = (   0.000000   0.000000   3.388418 )  

     reciprocal axes: (cart. coord. in units 2 pi/alat)
               b(1) = (  1.000000  0.000000  0.000000 )  
               b(2) = (  0.000000  0.433013  0.000000 )  
               b(3) = (  0.000000  0.000000  0.295123 )  


     PseudoPot. # 1 for Cu read from file:
     /home/549/hxw549/Short/pseudopotentials/Cu.pbe-n-van_ak.UPF
     MD5 check sum: 601f7c30f7467666bec936e0661ce3e1
     Pseudo is Ultrasoft + core correction, Zval = 11.0
     Generated by new atomic code, or converted to UPF format
     Using radial grid of  867 points,  6 beta functions with: 
                l(1) =   0
                l(2) =   0
                l(3) =   1
                l(4) =   1
                l(5) =   2
                l(6) =   2
     Q(r) pseudized with  8 coefficients,  rinner =    1.400   1.400   1.400
                                                       1.400   1.400

     PseudoPot. # 2 for C  read from file:
     /home/549/hxw549/Short/pseudopotentials/C.star1s-pbe-mt_gipaw.UPF
     MD5 check sum: ef0cb3dee31bd9e4ba2a832a2c716264
     Pseudo is Norm-conserving, Zval =  5.0
     Generated by new atomic code, or converted to UPF format
     Using radial grid of 1073 points,  1 beta functions with: 
                l(1) =   0

     PseudoPot. # 3 for C  read from file:
     /home/549/hxw549/Short/pseudopotentials/C.pbe-mt_gipaw.UPF
     MD5 check sum: 5ac2f21f2c440b14befe521540822c15
     Pseudo is Norm-conserving, Zval =  4.0
     Generated by new atomic code, or converted to UPF format
     Using radial grid of 1073 points,  1 beta functions with: 
                l(1) =   0

     PseudoPot. # 4 for O  read from file:
     /home/549/hxw549/Short/pseudopotentials/O.pbe-van_gipaw.UPF
     MD5 check sum: 5ce2a047509d4f331db576c963e74b29
     Pseudo is Ultrasoft, Zval =  6.0
     Generated by new atomic code, or converted to UPF format
     Using radial grid of 1095 points,  4 beta functions with: 
                l(1) =   0
                l(2) =   0
                l(3) =   1
                l(4) =   1
     Q(r) pseudized with 0 coefficients 


     PseudoPot. # 5 for H  read from file:
     /home/549/hxw549/Short/pseudopotentials/H.pbe-van_ak.UPF
     MD5 check sum: 077eb6d537518a38cb46c6de387227b7
     Pseudo is Ultrasoft, Zval =  1.0
     Generated by new atomic code, or converted to UPF format
     Using radial grid of  615 points,  1 beta functions with: 
                l(1) =   0
     Q(r) pseudized with  8 coefficients,  rinner =    0.800

     atomic species   valence    mass     pseudopotential
        Cu            11.00    63.54600     Cu( 1.00)
        C_h            5.00    12.01070     C ( 1.00)
        C              4.00    12.01070     C ( 1.00)
        O              6.00    15.99940     O ( 1.00)
        H              1.00     1.00783     H ( 1.00)

     No symmetry found



   Cartesian axes

     site n.     atom                  positions (alat units)
         1           Cu  tau(   1) = (   0.0000842  -0.0003681   0.9999582  )
         2           Cu  tau(   2) = (   0.2500548   0.2313457   0.9998843  )
         3           Cu  tau(   3) = (   0.5000576  -0.0002607   0.9999865  )
         4           Cu  tau(   4) = (   0.7500833   0.2313139   0.9998641  )
         5           Cu  tau(   5) = (   0.0000630   0.4624576   0.9996374  )
         6           Cu  tau(   6) = (   0.2500574   0.6931393   0.9991054  )
         7           Cu  tau(   7) = (   0.5000697   0.4624370   0.9995248  )
         8           Cu  tau(   8) = (   0.7500716   0.6931484   0.9991088  )
         9           Cu  tau(   9) = (   0.0000622   0.9236166   0.9988218  )
        10           Cu  tau(  10) = (   0.2500643   1.1539091   0.9989623  )
        11           Cu  tau(  11) = (   0.5000640   0.9235821   0.9987715  )
        12           Cu  tau(  12) = (   0.7500634   1.1539179   0.9989606  )
        13           Cu  tau(  13) = (   0.0000687   1.3841458   0.9994650  )
        14           Cu  tau(  14) = (   0.2500837   1.6145936   0.9999104  )
        15           Cu  tau(  15) = (   0.5000627   1.3841804   0.9994855  )
        16           Cu  tau(  16) = (   0.7500522   1.6145705   0.9999235  )
        17           Cu  tau(  17) = (   0.0000612   1.8455769   1.0000095  )
        18           Cu  tau(  18) = (   0.2500741   2.0771549   1.0000108  )
        19           Cu  tau(  19) = (   0.5000791   1.8455049   1.0000850  )
        20           Cu  tau(  20) = (   0.7500687   2.0771896   1.0000020  )
        21           Cu  tau(  21) = (   0.0000704   0.2315434   1.2478653  )
        22           Cu  tau(  22) = (   0.2500664  -0.0002381   1.2475273  )
        23           Cu  tau(  23) = (   0.5000670   0.2316783   1.2479035  )
        24           Cu  tau(  24) = (   0.7500740  -0.0002273   1.2475423  )
        25           Cu  tau(  25) = (   0.0000692   0.6936868   1.2480512  )
        26           Cu  tau(  26) = (   0.2500874   0.4630175   1.2481231  )
        27           Cu  tau(  27) = (   0.5000643   0.6936369   1.2480478  )
        28           Cu  tau(  28) = (   0.7500461   0.4629896   1.2480760  )
        29           Cu  tau(  29) = (   0.0000655   1.1534501   1.2482728  )
        30           Cu  tau(  30) = (   0.2500957   0.9236477   1.2480367  )
        31           Cu  tau(  31) = (   0.5000669   1.1533940   1.2482530  )
        32           Cu  tau(  32) = (   0.7500350   0.9236609   1.2480361  )
        33           Cu  tau(  33) = (   0.0000688   1.6141455   1.2484967  )
        34           Cu  tau(  34) = (   0.2500811   1.3834824   1.2485944  )
        35           Cu  tau(  35) = (   0.5000677   1.6141108   1.2487066  )
        36           Cu  tau(  36) = (   0.7500538   1.3834640   1.2486243  )
        37           Cu  tau(  37) = (   0.0000721   2.0771959   1.2475848  )
        38           Cu  tau(  38) = (   0.2500753   1.8454353   1.2480641  )
        39           Cu  tau(  39) = (   0.5000696   2.0772392   1.2474654  )
        40           Cu  tau(  40) = (   0.7500644   1.8454540   1.2480357  )
        41           Cu  tau(  41) = (   0.0000552  -0.0003437   1.4963069  )
        42           Cu  tau(  42) = (   0.2501594   0.2316922   1.4966729  )
        43           Cu  tau(  43) = (   0.5000801  -0.0003239   1.4961498  )
        44           Cu  tau(  44) = (   0.7499692   0.2317424   1.4967073  )
        45           Cu  tau(  45) = (   0.0000623   0.4634405   1.4974589  )
        46           Cu  tau(  46) = (   0.2501391   0.6941193   1.4986964  )
        47           Cu  tau(  47) = (   0.5000667   0.4635838   1.4978574  )
        48           Cu  tau(  48) = (   0.7499975   0.6940653   1.4985995  )
        49           Cu  tau(  49) = (   0.0000719   0.9236097   1.4991718  )
        50           Cu  tau(  50) = (   0.2500634   1.1527743   1.4992825  )
        51           Cu  tau(  51) = (   0.5000695   0.9235140   1.4993108  )
        52           Cu  tau(  52) = (   0.7500770   1.1527397   1.4993345  )
        53           Cu  tau(  53) = (   0.0000750   1.3828780   1.4988430  )
        54           Cu  tau(  54) = (   0.2500890   1.6138847   1.4980387  )
        55           Cu  tau(  55) = (   0.5000679   1.3824979   1.4990271  )
        56           Cu  tau(  56) = (   0.7500488   1.6139412   1.4979863  )
        57           Cu  tau(  57) = (   0.0000808   1.8455483   1.4970029  )
        58           Cu  tau(  58) = (   0.2499997   2.0773826   1.4963591  )
        59           Cu  tau(  59) = (   0.5000580   1.8459184   1.4969695  )
        60           Cu  tau(  60) = (   0.7501390   2.0773614   1.4963585  )
        61           Cu  tau(  61) = (   0.0000295   0.2315309   1.7444207  )
        62           Cu  tau(  62) = (   0.2502029  -0.0002994   1.7446931  )
        63           Cu  tau(  63) = (   0.5000678   0.2311869   1.7451939  )
        64           Cu  tau(  64) = (   0.7499079  -0.0002989   1.7446971  )
        65           Cu  tau(  65) = (   0.0000435   0.6936173   1.7489464  )
        66           Cu  tau(  66) = (   0.2505725   0.4629719   1.7465844  )
        67           Cu  tau(  67) = (   0.5000601   0.6943936   1.7503369  )
        68           Cu  tau(  68) = (   0.7495268   0.4630920   1.7467012  )
        69           Cu  tau(  69) = (   0.0000924   1.1527931   1.7508173  )
        70           Cu  tau(  70) = (   0.2502615   0.9234581   1.7512347  )
        71           Cu  tau(  71) = (   0.5000542   1.1517041   1.7514155  )
        72           Cu  tau(  72) = (   0.7499023   0.9232312   1.7511647  )
        73           Cu  tau(  73) = (   0.0000949   1.6141779   1.7468887  )
        74           Cu  tau(  74) = (   0.2500008   1.3824766   1.7488313  )
        75           Cu  tau(  75) = (   0.5000403   1.6144221   1.7459068  )
        76           Cu  tau(  76) = (   0.7501499   1.3826237   1.7486353  )
        77           Cu  tau(  77) = (   0.0000597   2.0774819   1.7453209  )
        78           Cu  tau(  78) = (   0.2497908   1.8462237   1.7455670  )
        79           Cu  tau(  79) = (   0.5000663   2.0778525   1.7452871  )
        80           Cu  tau(  80) = (   0.7503417   1.8461915   1.7455604  )
        81           Cu  tau(  81) = (   0.0000293   0.0005630   1.9893151  )
        82           Cu  tau(  82) = (   0.2503945   0.2305317   1.9904370  )
        83           Cu  tau(  83) = (   0.5000451  -0.0001654   1.9914204  )
        84           Cu  tau(  84) = (   0.7496550   0.2306286   1.9903824  )
        85           Cu  tau(  85) = (   0.0001352   0.4606957   1.9911783  )
        86           Cu  tau(  86) = (   0.2509809   0.6915100   1.9960722  )
        87           Cu  tau(  87) = (   0.4999039   0.4602277   1.9939597  )
        88           Cu  tau(  88) = (   0.7490330   0.6914184   1.9964879  )
        89           Cu  tau(  89) = (   0.0000790   0.9223187   1.9982276  )
        90           Cu  tau(  90) = (   0.2509422   1.1535728   1.9995783  )
        91           Cu  tau(  91) = (   0.5001296   0.9227220   2.0050881  )
        92           Cu  tau(  92) = (   0.7492111   1.1536228   1.9988463  )
        93           Cu  tau(  93) = (   0.0000122   1.3841067   1.9962199  )
        94           Cu  tau(  94) = (   0.2491204   1.6154633   1.9915726  )
        95           Cu  tau(  95) = (   0.5001393   1.3858631   1.9939386  )
        96           Cu  tau(  96) = (   0.7510023   1.6154462   1.9916054  )
        97           Cu  tau(  97) = (   0.0000452   1.8467905   1.9920833  )
        98           Cu  tau(  98) = (   0.2500174   2.0780821   1.9906638  )
        99           Cu  tau(  99) = (   0.5000701   1.8458323   1.9897529  )
       100           Cu  tau( 100) = (   0.7500815   2.0780660   1.9906233  )
       101           C   tau( 101) = (   0.0000064   0.0982753   2.3856156  )
       102           C   tau( 102) = (   0.0000439   0.2906318   2.3863779  )
       103           C   tau( 103) = (   0.1666622   0.0021375   2.3846841  )
       104           C   tau( 104) = (   0.1665525   0.3867349   2.3858861  )
       105           C   tau( 105) = (   0.3332165   0.0983228   2.3831609  )
       106           C   tau( 106) = (   0.3332256   0.2906221   2.3844894  )
       107           C   tau( 107) = (   0.5000598   0.0019732   2.3803645  )
       108           C   tau( 108) = (   0.5000831   0.3875023   2.3852626  )
       109           C   tau( 109) = (   0.6668708   0.0983910   2.3827119  )
       110           C   tau( 110) = (   0.6669726   0.2907066   2.3839420  )
       111           C   tau( 111) = (   0.8333707   0.0021311   2.3842294  )
       112           C   tau( 112) = (   0.8335622   0.3868739   2.3852090  )
       113           C   tau( 113) = (  -0.0000664   0.6753953   2.3854927  )
       114           C   tau( 114) = (  -0.0000530   0.8677380   2.3850831  )
       115           C   tau( 115) = (   0.1662822   0.5790995   2.3858133  )
       116           C   tau( 116) = (   0.1669701   0.9636455   2.3943290  )
       117           C   tau( 117) = (   0.3328676   0.6759619   2.3925700  )
       118           C   tau( 118) = (   0.3306870   0.8664276   2.4033686  )
       119           C   tau( 119) = (   0.5000557   0.5791262   2.3918876  )
       120           C_h tau( 120) = (   0.5005703   0.9642771   2.4585553  )
       121           C   tau( 121) = (   0.6669877   0.6763032   2.3895459  )
       122           C   tau( 122) = (   0.6689183   0.8667870   2.4013501  )
       123           C   tau( 123) = (   0.8335215   0.5793055   2.3841319  )
       124           C   tau( 124) = (   0.8327639   0.9636664   2.3937551  )
       125           C   tau( 125) = (   0.0001775   1.2524267   2.3940154  )
       126           C   tau( 126) = (   0.0002058   1.4454123   2.3866222  )
       127           C   tau( 127) = (   0.1666178   1.1567825   2.3964067  )
       128           C   tau( 128) = (   0.1669769   1.5416877   2.3844312  )
       129           C   tau( 129) = (   0.3342788   1.2531476   2.3945734  )
       130           C   tau( 130) = (   0.3337672   1.4457448   2.3873535  )
       131           C   tau( 131) = (   0.5000705   1.1600103   2.4042867  )
       132           C   tau( 132) = (   0.5001390   1.5419263   2.3875286  )
       133           C   tau( 133) = (   0.6659113   1.2532485   2.3961466  )
       134           C   tau( 134) = (   0.6665638   1.4459311   2.3883803  )
       135           C   tau( 135) = (   0.8334444   1.1567853   2.3980193  )
       136           C   tau( 136) = (   0.8334256   1.5416843   2.3850458  )
       137           C   tau( 137) = (   0.0000818   1.8305645   2.3801465  )
       138           C   tau( 138) = (   0.0000178   2.0230047   2.3827294  )
       139           C   tau( 139) = (   0.1669767   1.7342100   2.3821412  )
       140           C   tau( 140) = (   0.1666234   2.1191650   2.3827717  )
       141           C   tau( 141) = (   0.3334727   1.8304533   2.3834572  )
       142           C   tau( 142) = (   0.3334464   2.0228704   2.3818320  )
       143           C   tau( 143) = (   0.5000638   1.7343864   2.3850919  )
       144           C   tau( 144) = (   0.5000445   2.1189962   2.3815734  )
       145           C   tau( 145) = (   0.6666800   1.8303624   2.3835727  )
       146           C   tau( 146) = (   0.6666154   2.0227865   2.3818160  )
       147           C   tau( 147) = (   0.8332512   1.7341954   2.3822333  )
       148           C   tau( 148) = (   0.8333765   2.1191374   2.3825846  )

     number of k points=     6  gaussian smearing, width (Ry)=  0.1000
                       cart. coord. in units 2pi/alat
        k(    1) = (   0.0000000   0.0000000   0.0000000), wk =   0.2500000
        k(    2) = (   0.0000000  -0.2165064   0.0000000), wk =   0.2500000
        k(    3) = (   0.2500000   0.0000000   0.0000000), wk =   0.5000000
        k(    4) = (   0.2500000  -0.2165064   0.0000000), wk =   0.5000000
        k(    5) = (  -0.5000000   0.0000000   0.0000000), wk =   0.2500000
        k(    6) = (  -0.5000000  -0.2165064   0.0000000), wk =   0.2500000

     Dense  grid:  2050409 G-vectors     FFT dimensions: (  80, 192, 270)

     Largest allocated arrays     est. size (Mb)     dimensions
        Kohn-Sham Wavefunctions       108.45 Mb     (    9171,  775)
        NL pseudopotentials           258.61 Mb     (    9171, 1848)
        Each V/rho on FFT grid          2.34 Mb     (  153600)
        Each G-vector array             0.56 Mb     (   73230)
        G-vector shells                 0.27 Mb     (   35784)
     Largest temporary arrays     est. size (Mb)     dimensions
        Auxiliary wavefunctions       433.81 Mb     (    9171, 3100)
        Each subspace H/S matrix       16.28 Mb     (    1033, 1033)
        Each <psi_i|beta_j> matrix     21.85 Mb     (    1848,  775)
        Arrays for rho mixing          18.75 Mb     (  153600,    8)

     Initial potential from superposition of free atoms
     Check: negative starting charge=   -0.001848

     starting charge 1266.81751, renormalised to 1292.00000

     negative rho (up, down):  1.885E-03 0.000E+00
     Starting wfc are 1284 randomized atomic wfcs

     total cpu time spent up to now is      201.8 secs

     Self-consistent Calculation

     iteration #  1     ecut=    80.00 Ry     beta=0.70
     Davidson diagonalization with overlap
     c_bands:  3 eigenvalues not converged
     c_bands:  3 eigenvalues not converged
     c_bands:  4 eigenvalues not converged
     c_bands:  2 eigenvalues not converged
     ethr =  1.00E-04,  avg # of iterations = 37.5

     negative rho (up, down):  2.796E+01 0.000E+00

     total cpu time spent up to now is     4153.2 secs

     total energy              =   -9393.22995585 Ry
     Harris-Foulkes estimate   =  -17320.43889911 Ry
     estimated scf accuracy    <  180758.20686669 Ry

     iteration #  2     ecut=    80.00 Ry     beta=0.70
     Davidson diagonalization with overlap
     ethr =  1.00E-02,  avg # of iterations = 12.7

     negative rho (up, down):  3.217E+01 0.000E+00

     total cpu time spent up to now is     6000.9 secs

     total energy              =  -12204.49916751 Ry
     Harris-Foulkes estimate   =  -13679.32392129 Ry
     estimated scf accuracy    <   24115.88411509 Ry

     iteration #  3     ecut=    80.00 Ry     beta=0.70
     Davidson diagonalization with overlap
     ethr =  1.00E-02,  avg # of iterations =  7.3

     negative rho (up, down):  3.261E+01 0.000E+00

     total cpu time spent up to now is     7089.7 secs

     total energy              =  -12470.31996535 Ry
     Harris-Foulkes estimate   =  -13417.67783753 Ry
     estimated scf accuracy    <    5841.84842778 Ry

     iteration #  4     ecut=    80.00 Ry     beta=0.70
     Davidson diagonalization with overlap
     ethr =  1.00E-02,  avg # of iterations =  5.7

     negative rho (up, down):  2.406E+01 0.000E+00

     total cpu time spent up to now is     8107.4 secs

     total energy              =  -12863.47827240 Ry
     Harris-Foulkes estimate   =  -13094.44440055 Ry
     estimated scf accuracy    <    1716.52272933 Ry

     iteration #  5     ecut=    80.00 Ry     beta=0.70
     Davidson diagonalization with overlap
     ethr =  1.00E-02,  avg # of iterations =  3.5

     negative rho (up, down):  1.715E+01 0.000E+00

     total cpu time spent up to now is     8638.1 secs

     total energy              =  -12856.30395547 Ry
     Harris-Foulkes estimate   =  -12960.92277567 Ry
     estimated scf accuracy    <     900.21945723 Ry

     iteration #  6     ecut=    80.00 Ry     beta=0.70
     Davidson diagonalization with overlap
     ethr =  1.00E-02,  avg # of iterations =  2.7

     negative rho (up, down):  1.216E+01 0.000E+00

     total cpu time spent up to now is     9003.9 secs

     total energy              =  -12829.94033072 Ry
     Harris-Foulkes estimate   =  -12892.61599910 Ry
     estimated scf accuracy    <     557.99623854 Ry

     iteration #  7     ecut=    80.00 Ry     beta=0.70
     Davidson diagonalization with overlap
     ethr =  1.00E-02,  avg # of iterations =  2.0

     negative rho (up, down):  8.596E+00 0.000E+00

     total cpu time spent up to now is     9355.1 secs

     total energy              =  -12806.58109983 Ry
     Harris-Foulkes estimate   =  -12852.03678146 Ry
     estimated scf accuracy    <     436.86791437 Ry

     iteration #  8     ecut=    80.00 Ry     beta=0.70
     Davidson diagonalization with overlap
     ethr =  1.00E-02,  avg # of iterations =  2.3

     negative rho (up, down):  7.404E+00 0.000E+00

     total cpu time spent up to now is     9704.4 secs

     total energy              =  -12797.71937375 Ry
     Harris-Foulkes estimate   =  -12816.18627374 Ry
     estimated scf accuracy    <     267.82871775 Ry

     iteration #  9     ecut=    80.00 Ry     beta=0.70
     Davidson diagonalization with overlap
     ethr =  1.00E-02,  avg # of iterations =  2.0

     negative rho (up, down):  5.218E+00 0.000E+00

     total cpu time spent up to now is    10046.8 secs

     total energy              =  -12778.66517804 Ry
     Harris-Foulkes estimate   =  -12802.78881650 Ry
     estimated scf accuracy    <     201.83421507 Ry

     iteration # 10     ecut=    80.00 Ry     beta=0.70
     Davidson diagonalization with overlap
     ethr =  1.00E-02,  avg # of iterations =  1.3

     negative rho (up, down):  1.222E+00 0.000E+00

     total cpu time spent up to now is    10375.2 secs

     total energy              =  -12737.84893549 Ry
     Harris-Foulkes estimate   =  -12781.21250565 Ry
     estimated scf accuracy    <     168.09064208 Ry

     iteration # 11     ecut=    80.00 Ry     beta=0.70
     Davidson diagonalization with overlap
     ethr =  1.00E-02,  avg # of iterations =  3.2

     negative rho (up, down):  1.033E+00 0.000E+00

     total cpu time spent up to now is    10741.6 secs

     total energy              =  -12736.85019276 Ry
     Harris-Foulkes estimate   =  -12747.04097912 Ry
     estimated scf accuracy    <     311.39784700 Ry

     iteration # 12     ecut=    80.00 Ry     beta=0.70
     Davidson diagonalization with overlap
     ethr =  1.00E-02,  avg # of iterations =  1.3

     negative rho (up, down):  1.446E+00 0.000E+00

     total cpu time spent up to now is    11069.4 secs

     total energy              =  -12723.27128567 Ry
     Harris-Foulkes estimate   =  -12742.00632223 Ry
     estimated scf accuracy    <      66.99569737 Ry

     iteration # 13     ecut=    80.00 Ry     beta=0.70
     Davidson diagonalization with overlap
     ethr =  5.19E-03,  avg # of iterations =  3.7

     negative rho (up, down):  6.084E+00 0.000E+00

     total cpu time spent up to now is    11455.2 secs

     total energy              =  -12718.55379576 Ry
     Harris-Foulkes estimate   =  -12731.07099783 Ry
     estimated scf accuracy    <      62.11318601 Ry

     iteration # 14     ecut=    80.00 Ry     beta=0.70
     Davidson diagonalization with overlap
     ethr =  4.81E-03,  avg # of iterations =  2.2

     negative rho (up, down):  7.361E+00 0.000E+00

     total cpu time spent up to now is    11799.2 secs

     total energy              =  -12717.09207981 Ry
     Harris-Foulkes estimate   =  -12720.67804593 Ry
     estimated scf accuracy    <      30.91933248 Ry

     iteration # 15     ecut=    80.00 Ry     beta=0.70
     Davidson diagonalization with overlap
     ethr =  2.39E-03,  avg # of iterations =  3.8

     negative rho (up, down):  6.154E+00 0.000E+00

     total cpu time spent up to now is    12179.5 secs

     total energy              =  -12714.39858449 Ry
     Harris-Foulkes estimate   =  -12717.89142116 Ry
     estimated scf accuracy    <      20.93978770 Ry

     iteration # 16     ecut=    80.00 Ry     beta=0.70
     Davidson diagonalization with overlap
     ethr =  1.62E-03,  avg # of iterations =  6.3

     negative rho (up, down):  5.650E+00 0.000E+00

     total cpu time spent up to now is    12618.1 secs

     total energy              =  -12714.10809631 Ry
     Harris-Foulkes estimate   =  -12715.39281281 Ry
     estimated scf accuracy    <      13.25463611 Ry

     iteration # 17     ecut=    80.00 Ry     beta=0.70
     Davidson diagonalization with overlap
     ethr =  1.03E-03,  avg # of iterations =  6.7

     negative rho (up, down):  2.487E+00 0.000E+00

     total cpu time spent up to now is    13058.8 secs

     total energy              =  -12712.27002155 Ry
     Harris-Foulkes estimate   =  -12714.54041913 Ry
     estimated scf accuracy    <      10.43744542 Ry

     iteration # 18     ecut=    80.00 Ry     beta=0.70
     Davidson diagonalization with overlap
     ethr =  8.08E-04,  avg # of iterations =  5.8

     negative rho (up, down):  2.221E+00 0.000E+00

     total cpu time spent up to now is    13484.5 secs

     total energy              =  -12711.81130734 Ry
     Harris-Foulkes estimate   =  -12713.15957542 Ry
     estimated scf accuracy    <      28.36300376 Ry

     iteration # 19     ecut=    80.00 Ry     beta=0.70
     Davidson diagonalization with overlap
     ethr =  8.08E-04,  avg # of iterations =  1.5

     negative rho (up, down):  2.506E+00 0.000E+00

     total cpu time spent up to now is    13815.8 secs

     total energy              =  -12711.53888185 Ry
     Harris-Foulkes estimate   =  -12712.68341162 Ry
     estimated scf accuracy    <      33.16661646 Ry

     iteration # 20     ecut=    80.00 Ry     beta=0.70
     Davidson diagonalization with overlap
     ethr =  8.08E-04,  avg # of iterations =  1.0

     negative rho (up, down):  3.934E+00 0.000E+00

     total cpu time spent up to now is    14135.6 secs

     total energy              =  -12712.29548004 Ry
     Harris-Foulkes estimate   =  -12712.22460240 Ry
     estimated scf accuracy    <      15.24502725 Ry

     iteration # 21     ecut=    80.00 Ry     beta=0.70
     Davidson diagonalization with overlap
     ethr =  8.08E-04,  avg # of iterations =  1.7

     negative rho (up, down):  2.916E+00 0.000E+00

     total cpu time spent up to now is    14469.5 secs

     total energy              =  -12711.69166391 Ry
     Harris-Foulkes estimate   =  -12713.09212533 Ry
     estimated scf accuracy    <       7.78219189 Ry

     iteration # 22     ecut=    80.00 Ry     beta=0.70
     Davidson diagonalization with overlap
     ethr =  6.02E-04,  avg # of iterations =  3.3

     negative rho (up, down):  4.346E-01 0.000E+00

     total cpu time spent up to now is    14840.8 secs

     total energy              =  -12709.41913349 Ry
     Harris-Foulkes estimate   =  -12711.92857162 Ry
     estimated scf accuracy    <       8.95501275 Ry

     iteration # 23     ecut=    80.00 Ry     beta=0.70
     Davidson diagonalization with overlap
     ethr =  6.02E-04,  avg # of iterations =  3.8

     negative rho (up, down):  1.603E+00 0.000E+00

     total cpu time spent up to now is    15228.4 secs

     total energy              =  -12709.29345576 Ry
     Harris-Foulkes estimate   =  -12710.35532202 Ry
     estimated scf accuracy    <      61.38344950 Ry

     iteration # 24     ecut=    80.00 Ry     beta=0.70
     Davidson diagonalization with overlap
     ethr =  6.02E-04,  avg # of iterations =  5.0

     negative rho (up, down):  1.306E+00 0.000E+00

     total cpu time spent up to now is    15635.0 secs

     total energy              =  -12708.67662583 Ry
     Harris-Foulkes estimate   =  -12710.22444423 Ry
     estimated scf accuracy    <      11.66665269 Ry

     iteration # 25     ecut=    80.00 Ry     beta=0.70
     Davidson diagonalization with overlap
     ethr =  6.02E-04,  avg # of iterations =  4.0

     negative rho (up, down):  1.304E+00 0.000E+00

     total cpu time spent up to now is    16024.0 secs

     total energy              =  -12707.67051429 Ry
     Harris-Foulkes estimate   =  -12709.03078371 Ry
     estimated scf accuracy    <      18.47725529 Ry

     iteration # 26     ecut=    80.00 Ry     beta=0.70
     Davidson diagonalization with overlap
     ethr =  6.02E-04,  avg # of iterations =  3.0

     negative rho (up, down):  1.450E+00 0.000E+00

     total cpu time spent up to now is    16390.8 secs

     total energy              =  -12707.65956908 Ry
     Harris-Foulkes estimate   =  -12708.46316538 Ry
     estimated scf accuracy    <       9.32700724 Ry

     iteration # 27     ecut=    80.00 Ry     beta=0.70
     Davidson diagonalization with overlap
     ethr =  6.02E-04,  avg # of iterations =  5.3

     negative rho (up, down):  1.489E+00 0.000E+00

     total cpu time spent up to now is    16810.0 secs

     total energy              =  -12707.62183906 Ry
     Harris-Foulkes estimate   =  -12707.96122860 Ry
     estimated scf accuracy    <       4.27855403 Ry

     iteration # 28     ecut=    80.00 Ry     beta=0.70
     Davidson diagonalization with overlap
     ethr =  3.31E-04,  avg # of iterations =  4.3

     negative rho (up, down):  1.537E+00 0.000E+00

     total cpu time spent up to now is    17202.2 secs

     total energy              =  -12707.57174446 Ry
     Harris-Foulkes estimate   =  -12707.76390656 Ry
     estimated scf accuracy    <       2.86649985 Ry

     iteration # 29     ecut=    80.00 Ry     beta=0.70
     Davidson diagonalization with overlap
     ethr =  2.22E-04,  avg # of iterations =  5.7

     negative rho (up, down):  1.261E+00 0.000E+00

     total cpu time spent up to now is    17629.4 secs

     total energy              =  -12707.41223974 Ry
     Harris-Foulkes estimate   =  -12707.63156749 Ry
     estimated scf accuracy    <       2.16277903 Ry

     iteration # 30     ecut=    80.00 Ry     beta=0.70
     Davidson diagonalization with overlap
     ethr =  1.67E-04,  avg # of iterations =  3.0

     negative rho (up, down):  1.242E+00 0.000E+00

     total cpu time spent up to now is    17993.6 secs

     total energy              =  -12707.16340662 Ry
     Harris-Foulkes estimate   =  -12707.45682257 Ry
     estimated scf accuracy    <       1.96897393 Ry

     iteration # 31     ecut=    80.00 Ry     beta=0.70
     Davidson diagonalization with overlap
     ethr =  1.52E-04,  avg # of iterations =  7.0

     negative rho (up, down):  9.451E-01 0.000E+00

     total cpu time spent up to now is    18488.7 secs

     total energy              =  -12707.14027996 Ry
     Harris-Foulkes estimate   =  -12707.27942756 Ry
     estimated scf accuracy    <       0.93979131 Ry

     iteration # 32     ecut=    80.00 Ry     beta=0.70
     Davidson diagonalization with overlap
     ethr =  7.27E-05,  avg # of iterations =  9.5

     negative rho (up, down):  8.195E-01 0.000E+00

     total cpu time spent up to now is    19003.7 secs

     total energy              =  -12707.09238508 Ry
     Harris-Foulkes estimate   =  -12707.20101212 Ry
     estimated scf accuracy    <       0.52066817 Ry

     iteration # 33     ecut=    80.00 Ry     beta=0.70
     Davidson diagonalization with overlap
     ethr =  4.03E-05,  avg # of iterations = 13.5

     negative rho (up, down):  6.005E-01 0.000E+00

     total cpu time spent up to now is    19627.6 secs

     total energy              =  -12707.09908756 Ry
     Harris-Foulkes estimate   =  -12707.13299397 Ry
     estimated scf accuracy    <       0.17593210 Ry

     iteration # 34     ecut=    80.00 Ry     beta=0.70
     Davidson diagonalization with overlap
     ethr =  1.36E-05,  avg # of iterations =  7.3

     negative rho (up, down):  3.930E-01 0.000E+00

     total cpu time spent up to now is    20101.3 secs

     total energy              =  -12707.08563824 Ry
     Harris-Foulkes estimate   =  -12707.11415022 Ry
     estimated scf accuracy    <       0.09626114 Ry

     iteration # 35     ecut=    80.00 Ry     beta=0.70
     Davidson diagonalization with overlap
     c_bands:  1 eigenvalues not converged
     c_bands:  5 eigenvalues not converged
     c_bands:  3 eigenvalues not converged
     ethr =  7.45E-06,  avg # of iterations = 18.7

     negative rho (up, down):  1.356E-01 0.000E+00

     total cpu time spent up to now is    20863.7 secs

     total energy              =  -12707.07680247 Ry
     Harris-Foulkes estimate   =  -12707.09229188 Ry
     estimated scf accuracy    <       0.03575414 Ry

     iteration # 36     ecut=    80.00 Ry     beta=0.70
     Davidson diagonalization with overlap
     c_bands:  1 eigenvalues not converged
     c_bands:  1 eigenvalues not converged
     ethr =  2.77E-06,  avg # of iterations = 14.2

     negative rho (up, down):  2.872E-02 0.000E+00

     total cpu time spent up to now is    21574.5 secs

     total energy              =  -12707.07700350 Ry
     Harris-Foulkes estimate   =  -12707.07947808 Ry
     estimated scf accuracy    <       0.01022280 Ry

     iteration # 37     ecut=    80.00 Ry     beta=0.70
     Davidson diagonalization with overlap
     c_bands:  1 eigenvalues not converged
     ethr =  7.91E-07,  avg # of iterations =  9.3

     negative rho (up, down):  1.115E-02 0.000E+00

     total cpu time spent up to now is    22131.1 secs

     total energy              =  -12707.07799477 Ry
     Harris-Foulkes estimate   =  -12707.07865981 Ry
     estimated scf accuracy    <       0.00731403 Ry

     iteration # 38     ecut=    80.00 Ry     beta=0.70
     Davidson diagonalization with overlap
     c_bands:  2 eigenvalues not converged
     ethr =  5.66E-07,  avg # of iterations =  9.7

     negative rho (up, down):  2.461E-03 0.000E+00

     total cpu time spent up to now is    22664.8 secs

     total energy              =  -12707.07870906 Ry
     Harris-Foulkes estimate   =  -12707.07862198 Ry
     estimated scf accuracy    <       0.00106838 Ry

     iteration # 39     ecut=    80.00 Ry     beta=0.70
     Davidson diagonalization with overlap
     c_bands:  1 eigenvalues not converged
     ethr =  8.27E-08,  avg # of iterations = 10.7

     negative rho (up, down):  7.634E-04 0.000E+00

     total cpu time spent up to now is    23230.8 secs

     total energy              =  -12707.07895855 Ry
     Harris-Foulkes estimate   =  -12707.07880049 Ry
     estimated scf accuracy    <       0.00059143 Ry

     iteration # 40     ecut=    80.00 Ry     beta=0.70
     Davidson diagonalization with overlap
     ethr =  4.58E-08,  avg # of iterations =  7.0

     negative rho (up, down):  1.446E-03 0.000E+00

     total cpu time spent up to now is    23700.4 secs

     total energy              =  -12707.07909552 Ry
     Harris-Foulkes estimate   =  -12707.07898910 Ry
     estimated scf accuracy    <       0.00016674 Ry

     iteration # 41     ecut=    80.00 Ry     beta=0.70
     Davidson diagonalization with overlap
     c_bands:  1 eigenvalues not converged
     ethr =  1.29E-08,  avg # of iterations =  8.7

     negative rho (up, down):  2.599E-03 0.000E+00

     total cpu time spent up to now is    24230.7 secs

     total energy              =  -12707.07913083 Ry
     Harris-Foulkes estimate   =  -12707.07910753 Ry
     estimated scf accuracy    <       0.00004844 Ry

     iteration # 42     ecut=    80.00 Ry     beta=0.70
     Davidson diagonalization with overlap
     ethr =  3.75E-09,  avg # of iterations =  4.7

     negative rho (up, down):  2.393E-03 0.000E+00

     total cpu time spent up to now is    24650.4 secs

     total energy              =  -12707.07914288 Ry
     Harris-Foulkes estimate   =  -12707.07913680 Ry
     estimated scf accuracy    <       0.00001754 Ry

     iteration # 43     ecut=    80.00 Ry     beta=0.70
     Davidson diagonalization with overlap
     ethr =  1.36E-09,  avg # of iterations =  2.8

     negative rho (up, down):  2.045E-03 0.000E+00

     total cpu time spent up to now is    25039.7 secs

     total energy              =  -12707.07914993 Ry
     Harris-Foulkes estimate   =  -12707.07914503 Ry
     estimated scf accuracy    <       0.00000567 Ry

     iteration # 44     ecut=    80.00 Ry     beta=0.70
     Davidson diagonalization with overlap
     c_bands:  1 eigenvalues not converged
     ethr =  4.39E-10,  avg # of iterations =  7.7

     negative rho (up, down):  2.079E-03 0.000E+00

     total cpu time spent up to now is    25540.6 secs

     total energy              =  -12707.07915091 Ry
     Harris-Foulkes estimate   =  -12707.07915056 Ry
     estimated scf accuracy    <       0.00000175 Ry

     iteration # 45     ecut=    80.00 Ry     beta=0.70
     Davidson diagonalization with overlap
     ethr =  1.35E-10,  avg # of iterations =  3.3

     negative rho (up, down):  2.107E-03 0.000E+00

     total cpu time spent up to now is    25927.4 secs

     total energy              =  -12707.07915139 Ry
     Harris-Foulkes estimate   =  -12707.07915109 Ry
     estimated scf accuracy    <       0.00000115 Ry

     iteration # 46     ecut=    80.00 Ry     beta=0.70
     Davidson diagonalization with overlap
     ethr =  8.89E-11,  avg # of iterations =  3.0

     negative rho (up, down):  2.167E-03 0.000E+00

     total cpu time spent up to now is    26303.0 secs

     total energy              =  -12707.07915103 Ry
     Harris-Foulkes estimate   =  -12707.07915148 Ry
     estimated scf accuracy    <       0.00000047 Ry

     iteration # 47     ecut=    80.00 Ry     beta=0.70
     Davidson diagonalization with overlap
     ethr =  3.65E-11,  avg # of iterations =  3.2

     negative rho (up, down):  2.146E-03 0.000E+00

     total cpu time spent up to now is    26696.0 secs

     total energy              =  -12707.07915108 Ry
     Harris-Foulkes estimate   =  -12707.07915108 Ry
     estimated scf accuracy    <       0.00000021 Ry

     iteration # 48     ecut=    80.00 Ry     beta=0.70
     Davidson diagonalization with overlap
     ethr =  1.63E-11,  avg # of iterations =  2.7

     negative rho (up, down):  2.155E-03 0.000E+00

     total cpu time spent up to now is    27069.0 secs

     total energy              =  -12707.07915114 Ry
     Harris-Foulkes estimate   =  -12707.07915111 Ry
     estimated scf accuracy    <       0.00000006 Ry

     iteration # 49     ecut=    80.00 Ry     beta=0.70
     Davidson diagonalization with overlap
     ethr =  4.37E-12,  avg # of iterations =  3.0

     negative rho (up, down):  2.140E-03 0.000E+00

     total cpu time spent up to now is    27479.2 secs

     total energy              =  -12707.07915114 Ry
     Harris-Foulkes estimate   =  -12707.07915115 Ry
     estimated scf accuracy    <       0.00000003 Ry

     iteration # 50     ecut=    80.00 Ry     beta=0.70
     Davidson diagonalization with overlap
     ethr =  2.47E-12,  avg # of iterations =  2.3

     negative rho (up, down):  2.109E-03 0.000E+00

     total cpu time spent up to now is    27828.5 secs

     End of self-consistent calculation

          k = 0.0000 0.0000 0.0000 (256287 PWs)   bands (ev):

   -16.7068 -16.2063 -16.0797 -15.1989 -15.0102 -14.6999 -14.5642 -14.2542
   -14.1867 -14.1260 -14.1163 -13.3905 -13.2263 -13.1191 -13.1168 -13.0759
   -13.0646 -11.5958 -11.4292 -11.4187 -11.3779 -11.2029 -10.2549  -9.7188
    -9.5445  -9.5333  -9.5221  -8.7769  -8.7315  -8.6228  -8.6002  -7.7716
    -7.7249  -7.6863  -7.6393  -7.5805  -7.5643  -7.5318  -7.5174  -6.1668
    -6.1577  -6.0847  -6.0430  -6.0156  -5.9336  -5.8786  -5.8579  -5.8345
    -5.5105  -5.5078  -5.1487  -4.7834  -4.7797  -4.7047  -4.6573  -4.6172
    -4.5240  -4.4212  -4.2008  -4.1629  -4.0133  -4.0125  -3.8527  -3.7824
    -3.6025  -3.5523  -3.5122  -3.4360  -3.4305  -3.4247  -3.3992  -3.3329
    -3.2668  -3.2090  -3.1411  -3.0345  -3.0322  -3.0321  -3.0299  -3.0139
    -2.9366  -2.8916  -2.8107  -2.8094  -2.7855  -2.7642  -2.7508  -2.7156
    -2.7128  -2.7014  -2.4970  -2.4171  -2.4007  -2.3977  -2.3683  -2.3587
    -2.2173  -2.2170  -2.1965  -2.1825  -2.1781  -2.1777  -2.1756  -2.1756
    -2.0970  -2.0911  -2.0555  -2.0481  -2.0479  -2.0442  -2.0440  -2.0109
    -1.9851  -1.8672  -1.8023  -1.7674  -1.7644  -1.7635  -1.7630  -1.7273
    -1.7168  -1.6986  -1.6844  -1.6792  -1.6321  -1.6264  -1.6045  -1.5981
    -1.5895  -1.5882  -1.5766  -1.5643  -1.5602  -1.5574  -1.5421  -1.5411
    -1.5391  -1.4733  -1.4652  -1.4422  -1.4358  -1.4078  -1.4032  -1.3999
    -1.3784  -1.3707  -1.3248  -1.2898  -1.2889  -1.2761  -1.2663  -1.2375
    -1.2366  -1.2179  -1.2146  -1.1931  -1.1890  -1.1617  -1.1476  -1.1464
    -1.1291  -1.1265  -1.0751  -1.0716  -1.0622  -1.0555  -1.0548  -1.0486
    -1.0483  -1.0464  -1.0464  -1.0432  -1.0419  -1.0246  -1.0138  -0.9974
    -0.9780  -0.9635  -0.9579  -0.9527  -0.9520  -0.9452  -0.9438  -0.9426
    -0.9080  -0.8856  -0.8844  -0.8826  -0.8822  -0.8820  -0.8815  -0.8803
    -0.8757  -0.8748  -0.8736  -0.8735  -0.8715  -0.8712  -0.8677  -0.8673
    -0.8556  -0.8537  -0.8324  -0.8285  -0.8096  -0.7875  -0.7161  -0.7157
    -0.7093  -0.7085  -0.6868  -0.6860  -0.6858  -0.6671  -0.6668  -0.6468
    -0.6455  -0.6338  -0.6310  -0.6267  -0.6258  -0.6150  -0.5911  -0.5905
    -0.5866  -0.5856  -0.5804  -0.5791  -0.5694  -0.5684  -0.5189  -0.5178
    -0.4651  -0.4647  -0.4544  -0.4534  -0.4521  -0.4484  -0.4373  -0.4368
    -0.4321  -0.4314  -0.4300  -0.4293  -0.4258  -0.4256  -0.4112  -0.4109
    -0.4093  -0.4059  -0.4042  -0.3967  -0.3767  -0.3758  -0.3270  -0.3256
    -0.3210  -0.3179  -0.3177  -0.2947  -0.2945  -0.2878  -0.2877  -0.2760
    -0.2747  -0.2738  -0.2681  -0.2678  -0.2509  -0.2499  -0.2489  -0.2448
    -0.2426  -0.2417  -0.2385  -0.2374  -0.2367  -0.2353  -0.2222  -0.2175
    -0.2161  -0.2135  -0.2131  -0.1940  -0.1492  -0.1470  -0.1452  -0.1441
    -0.1440  -0.1033  -0.1002  -0.0951  -0.0938  -0.0909  -0.0889  -0.0884
    -0.0870  -0.0859  -0.0858  -0.0737  -0.0669  -0.0507  -0.0384  -0.0365
    -0.0347  -0.0333  -0.0265  -0.0104  -0.0096  -0.0045  -0.0022  -0.0003
     0.0073   0.0188   0.0196   0.0199   0.0207   0.0245   0.0246   0.0352
     0.0366   0.0373   0.0378   0.0426   0.0466   0.0552   0.0566   0.0718
     0.0774   0.0899   0.1093   0.1102   0.1334   0.1405   0.1414   0.1604
     0.1692   0.2018   0.2026   0.2097   0.2158   0.2167   0.2213   0.2265
     0.2452   0.2457   0.2469   0.2472   0.2478   0.2551   0.2580   0.2729
     0.3039   0.3133   0.3141   0.3218   0.3241   0.3245   0.3255   0.3514
     0.3546   0.3559   0.3569   0.3580   0.3863   0.3912   0.3952   0.3963
     0.3965   0.4084   0.4104   0.4127   0.4160   0.4465   0.4538   0.4610
     0.4636   0.4686   0.4770   0.4772   0.4825   0.4876   0.4980   0.4992
     0.5014   0.5074   0.5078   0.5091   0.5114   0.5116   0.5185   0.5207
     0.5238   0.5288   0.5292   0.5321   0.5379   0.5380   0.5562   0.5724
     0.5784   0.5786   0.5831   0.5941   0.6208   0.6221   0.6231   0.6231
     0.6265   0.6267   0.6281   0.6294   0.6363   0.6388   0.6456   0.6519
     0.6521   0.6540   0.6556   0.6598   0.6603   0.6698   0.6724   0.6883
     0.6934   0.6948   0.6961   0.7001   0.7051   0.7077   0.7154   0.7201
     0.7214   0.7214   0.7265   0.7280   0.7288   0.7330   0.7412   0.7465
     0.7592   0.7641   0.7784   0.7791   0.7908   0.7932   0.7944   0.7951
     0.7995   0.8017   0.8286   0.8292   0.8428   0.8445   0.8489   0.8493
     0.8632   0.8640   0.8724   0.8732   0.8734   0.8738   0.8849   0.8941
     0.9098   0.9117   0.9127   0.9151   0.9153   0.9161   0.9348   0.9391
     0.9516   0.9581   0.9591   0.9673   0.9722   0.9781   0.9839   0.9852
     0.9856   0.9866   0.9867   0.9902   0.9942   0.9950   1.0003   1.0009
     1.0014   1.0020   1.0028   1.0170   1.0174   1.0330   1.0365   1.0381
     1.0398   1.0426   1.0481   1.0768   1.0769   1.0775   1.0820   1.0833
     1.0846   1.0873   1.0888   1.0919   1.0929   1.0930   1.0938   1.0939
     1.0961   1.1088   1.1090   1.1342   1.1456   1.1569   1.1584   1.1708
     1.1748   1.1754   1.1774   1.1786   1.1796   1.1866   1.1869   1.1991
     1.2073   1.2106   1.2122   1.2126   1.2137   1.2161   1.2174   1.2184
     1.2190   1.2280   1.2457   1.2464   1.2473   1.2478   1.2497   1.2504
     1.2519   1.2530   1.2667   1.2675   1.2686   1.2762   1.2828   1.2832
     1.2834   1.2841   1.2854   1.2939   1.2940   1.2983   1.3079   1.3169
     1.3268   1.3281   1.3294   1.3297   1.3298   1.3327   1.3340   1.3480
     1.3553   1.3605   1.3607   1.3654   1.3755   1.3849   1.3861   1.3925
     1.3969   1.3976   1.4017   1.4044   1.4061   1.4071   1.4074   1.4082
     1.4090   1.4096   1.4119   1.4202   1.4217   1.4238   1.4388   1.4397
     1.4404   1.4416   1.4442   1.4529   1.4548   1.4666   1.4825   1.4844
     1.4874   1.4935   1.5287   1.5296   1.5350   1.5368   1.5530   1.5536
     1.5539   1.5596   1.5637   1.5797   1.6012   1.6054   1.6065   1.6067
     1.6079   1.6155   1.6166   1.6181   1.8717   1.9288   2.0714   2.0829
     2.1187   2.1357   2.1668   2.1772   2.1813   2.1817   2.1915   2.1989
     2.1997   2.2003   2.3512   2.3740   2.4228   2.4416   2.4447   2.4451
     2.4509   2.4561   2.5730   2.6978   2.6992   2.6998   2.7094   3.0012
     3.0129   3.0207   3.1555   3.4963   3.4985   3.7799   3.7912   3.8084
     3.8286   3.8290   3.8312   3.8692   3.9303   3.9428   3.9730   3.9808
     3.9811   3.9824   3.9841   3.9891   3.9919   4.1307   4.2251   4.2305
     4.2319   4.2918   4.4115   4.6510   4.7391   4.8622   4.8913   4.9025
     5.2725   5.3528   5.3938   5.4018   5.6546   5.6828   5.7109   5.7151
     5.9058   5.9076   5.9256   6.3167   6.3376   6.3753   6.3851   6.4556
     6.4587   6.4626   6.4759   6.5602   6.5798   6.5822   6.6799   6.7549
     6.7574   6.7721   6.7737   6.8035   6.9892   7.0286   7.0315   7.0686
     7.0703   7.0735   7.3323   7.3342   7.5339   7.5359   7.5741   7.6597
     7.6739   7.6802   7.6838   7.8519   8.0644   8.0990   8.1125   8.1864
     8.2032   8.2720   8.2925   8.2928   8.3108   8.3131   8.3168   8.3772
     8.3934   8.4032   8.4462   8.5281   8.5568   8.5600   8.6360   8.6385
     8.6445   8.6545   8.8046   8.8096   8.8099   8.8122   8.8207   8.8211
     9.0446   9.0878   9.0983   9.0987   9.1025   9.1129   9.1855   9.2718
     9.3162   9.3213   9.3406   9.3508   9.5238   9.5523   9.5545   9.5726
     9.6830   9.7113   9.8027   9.8340  10.0168  10.0175  10.1270

          k = 0.0000-0.2165 0.0000 (256176 PWs)   bands (ev):

   -16.6971 -16.3233 -15.7749 -15.6389 -14.8216 -14.5318 -14.3648 -14.3606
   -14.2484 -14.1857 -13.8049 -13.7406 -13.6998 -13.6759 -12.5242 -12.3371
   -12.3243 -12.2938 -12.1353 -12.0667 -10.5998 -10.4394 -10.4292 -10.3882
    -9.3611  -9.1734  -9.1090  -9.0921  -8.9791  -8.9615  -8.2753  -8.2361
    -8.1675  -8.1595  -7.1572  -7.1268  -7.0146  -6.9640  -6.9130  -6.8766
    -6.8377  -6.8316  -6.0915  -6.0812  -5.9103  -5.9068  -5.3673  -5.3379
    -5.1886  -5.1450  -5.0393  -5.0051  -4.8652  -4.8638  -4.8085  -4.7029
    -4.6516  -4.6036  -4.5498  -4.4910  -4.0890  -4.0667  -3.6628  -3.6418
    -3.6406  -3.4707  -3.3298  -3.3290  -3.3259  -3.3249  -3.2513  -3.2246
    -3.1207  -3.0833  -3.0635  -3.0598  -3.0559  -3.0519  -2.9105  -2.8904
    -2.8883  -2.8449  -2.8208  -2.7850  -2.7348  -2.7283  -2.6280  -2.6213
    -2.6106  -2.6060  -2.6046  -2.6017  -2.6001  -2.5853  -2.4565  -2.3625
    -2.3496  -2.2955  -2.2754  -2.2748  -2.2704  -2.2689  -2.1718  -2.1713
    -2.1700  -2.1689  -2.0859  -2.0336  -2.0119  -2.0117  -1.9862  -1.9862
    -1.9025  -1.8859  -1.8604  -1.8307  -1.8031  -1.7982  -1.7942  -1.7918
    -1.7758  -1.7751  -1.7661  -1.7661  -1.7502  -1.7445  -1.6734  -1.6675
    -1.6383  -1.6306  -1.5848  -1.5830  -1.4971  -1.4961  -1.4840  -1.4837
    -1.4669  -1.4051  -1.4021  -1.3976  -1.3954  -1.3644  -1.3424  -1.3420
    -1.3072  -1.3049  -1.3019  -1.3001  -1.2999  -1.2940  -1.2781  -1.2732
    -1.2604  -1.2509  -1.2489  -1.2468  -1.2394  -1.2367  -1.1921  -1.1738
    -1.1721  -1.1705  -1.1576  -1.1570  -1.1142  -1.1140  -1.0764  -1.0761
    -1.0732  -1.0728  -1.0359  -1.0258  -1.0124  -1.0118  -1.0066  -1.0059
    -1.0044  -1.0027  -0.9545  -0.9516  -0.9459  -0.9454  -0.9365  -0.9360
    -0.9323  -0.9294  -0.9179  -0.9177  -0.8591  -0.8535  -0.8508  -0.8454
    -0.8448  -0.8435  -0.8419  -0.8339  -0.8227  -0.8222  -0.8123  -0.8017
    -0.7806  -0.7803  -0.7783  -0.7766  -0.6863  -0.6859  -0.6742  -0.6730
    -0.6590  -0.6587  -0.6395  -0.6337  -0.6322  -0.6314  -0.6269  -0.6268
    -0.6263  -0.6050  -0.6001  -0.5694  -0.5690  -0.5680  -0.5645  -0.5641
    -0.5624  -0.5621  -0.5594  -0.5397  -0.5307  -0.5294  -0.5102  -0.5102
    -0.5060  -0.4981  -0.4890  -0.4751  -0.4744  -0.4734  -0.4709  -0.4679
    -0.4662  -0.4538  -0.4529  -0.4097  -0.3983  -0.3915  -0.3908  -0.3752
    -0.3744  -0.3521  -0.3509  -0.3300  -0.3298  -0.3246  -0.3238  -0.3218
    -0.3199  -0.3182  -0.3018  -0.3012  -0.2894  -0.2886  -0.2863  -0.2848
    -0.2823  -0.2729  -0.2725  -0.2703  -0.2703  -0.2697  -0.2687  -0.2637
    -0.2620  -0.2573  -0.2334  -0.2329  -0.2303  -0.2301  -0.1816  -0.1688
    -0.1673  -0.1659  -0.1658  -0.1599  -0.1578  -0.1544  -0.1535  -0.1467
    -0.1399  -0.1290  -0.1249  -0.1224  -0.1178  -0.1139  -0.1136  -0.1075
    -0.1057  -0.1045  -0.1027  -0.1016  -0.0995  -0.0971  -0.0529  -0.0441
    -0.0437  -0.0422  -0.0415  -0.0228  -0.0216  -0.0216  -0.0206  -0.0186
    -0.0139  -0.0090  -0.0001   0.0011   0.0087   0.0096   0.0182   0.0228
     0.0329   0.0341   0.0488   0.0490   0.0499   0.0508   0.0683   0.0707
     0.0847   0.0849   0.0932   0.0951   0.1062   0.1080   0.1081   0.1089
     0.1503   0.1510   0.1578   0.1595   0.1630   0.1753   0.1757   0.1768
     0.2005   0.2018   0.2376   0.2393   0.2398   0.2428   0.2616   0.2887
     0.3098   0.3191   0.3564   0.3569   0.3618   0.3630   0.3679   0.3843
     0.3844   0.3867   0.3878   0.4031   0.4163   0.4239   0.4255   0.4261
     0.4269   0.4275   0.4292   0.4336   0.4363   0.4366   0.4484   0.4493
     0.4499   0.4513   0.4546   0.4574   0.4581   0.4635   0.4877   0.4902
     0.4990   0.4995   0.5008   0.5029   0.5078   0.5088   0.5088   0.5291
     0.5299   0.5311   0.5313   0.5319   0.5326   0.5338   0.5344   0.5377
     0.5470   0.5535   0.5545   0.5565   0.5580   0.5598   0.5620   0.5664
     0.5680   0.5849   0.6182   0.6185   0.6292   0.6298   0.6378   0.6398
     0.6418   0.6418   0.6425   0.6467   0.6512   0.6551   0.6552   0.6560
     0.6568   0.6580   0.6954   0.6976   0.6983   0.6985   0.7083   0.7151
     0.7153   0.7164   0.7174   0.7175   0.7270   0.7379   0.7473   0.7479
     0.7531   0.7546   0.7558   0.7574   0.8068   0.8079   0.8584   0.8598
     0.8639   0.8668   0.8671   0.8674   0.8756   0.8775   0.8824   0.8838
     0.8889   0.8898   0.8960   0.8974   0.8982   0.8990   0.9052   0.9102
     0.9142   0.9146   0.9148   0.9152   0.9235   0.9298   0.9372   0.9389
     0.9392   0.9393   0.9403   0.9407   0.9461   0.9463   0.9503   0.9612
     0.9625   0.9632   0.9640   0.9642   0.9671   0.9675   0.9823   0.9853
     0.9925   0.9959   0.9996   1.0000   1.0034   1.0040   1.0106   1.0114
     1.0121   1.0123   1.0125   1.0158   1.0580   1.0635   1.0826   1.0946
     1.0999   1.1005   1.1157   1.1181   1.1257   1.1273   1.1278   1.1299
     1.1427   1.1441   1.1533   1.1614   1.1618   1.1650   1.1665   1.1679
     1.1690   1.1730   1.1735   1.1743   1.1748   1.1752   1.1753   1.1760
     1.1826   1.1832   1.1952   1.1974   1.2030   1.2035   1.2041   1.2058
     1.2124   1.2132   1.2396   1.2420   1.2423   1.2431   1.2471   1.2476
     1.2506   1.2559   1.2658   1.2685   1.2712   1.2712   1.2816   1.2833
     1.2856   1.2860   1.2871   1.2879   1.3026   1.3043   1.3058   1.3065
     1.3227   1.3237   1.3245   1.3262   1.3428   1.3472   1.3517   1.3518
     1.3525   1.3532   1.3652   1.3665   1.3689   1.3695   1.3828   1.3833
     1.3981   1.3992   1.3999   1.4012   1.4176   1.4191   1.4196   1.4218
     1.4235   1.4238   1.4241   1.4247   1.4508   1.4523   1.4542   1.4605
     1.4622   1.4627   1.4767   1.4793   1.4906   1.4915   1.4917   1.4928
     1.4950   1.5075   1.5093   1.5209   1.5475   1.5580   1.5634   1.5639
     1.6190   1.6642   1.6717   1.6918   1.6983   1.7046   1.7079   1.7081
     1.7526   1.7609   1.7611   1.7688   1.7740   1.7856   1.7873   1.7882
     1.8228   1.8291   1.8586   2.0784   2.0825   2.0999   2.3780   2.3818
     2.4022   2.4028   2.4679   2.4745   2.5346   2.5409   2.5416   2.5435
     2.5554   2.5556   2.6822   2.6836   2.7264   2.7338   2.7586   2.7595
     2.8962   2.8971   3.1426   3.1428   3.1473   3.1683   3.2926   3.4133
     3.4596   3.6455   3.6500   3.9218   3.9353   3.9497   4.0550   4.0729
     4.0983   4.1044   4.2976   4.3005   4.3092   4.3108   4.4695   4.4729
     4.6065   4.7049   4.7436   4.7555   4.8865   5.0372   5.0757   5.0792
     5.2334   5.3325   5.3334   5.3353   5.3363   5.4022   5.4620   5.6284
     5.6815   5.7136   5.7473   5.7960   6.3286   6.3780   6.3854   6.3889
     6.4402   6.4427   6.5166   6.5352   6.6354   6.6472   6.7711   6.7925
     6.8079   6.9962   7.0138   7.0331   7.0350   7.0707   7.0876   7.0945
     7.1100   7.1119   7.1609   7.3153   7.3357   7.3537   7.3810   7.3897
     7.5016   7.6607   7.7025   7.7099   7.7429   7.7663   8.1149   8.1150
     8.1710   8.3311   8.3324   8.3844   8.3932   8.4198   8.4266   8.4513
     8.4554   8.4561   8.6751   8.6802   8.6840   8.6875   8.6913   8.7023
     8.7237   8.7481   8.7736   8.9128   8.9349   8.9644   8.9760   9.0035
     9.1220   9.1299   9.1992   9.2158   9.2939   9.3167   9.3378   9.3402
     9.3801   9.3834   9.3983   9.4535   9.4540   9.4686   9.4747   9.4832
     9.5636   9.6474   9.6773   9.7615   9.7627   9.8619   9.8630

          k = 0.2500 0.0000 0.0000 (256240 PWs)   bands (ev):

   -16.6045 -16.0930 -15.9567 -15.5133 -15.1138 -14.9793 -14.9256 -14.8727
   -14.0250 -13.9232 -13.5895 -13.2247 -13.1165 -13.0751 -13.0477 -12.2904
   -12.1783 -12.0943 -12.0623 -11.1626 -10.9928 -10.7695 -10.6892 -10.2998
   -10.1271  -9.8517  -9.8104  -9.4367  -9.1949  -9.1330  -8.6280  -7.7678
    -7.6625  -7.6025  -7.5538  -7.5125  -7.4432  -7.0275  -6.7990  -6.2126
    -6.1313  -5.9783  -5.9582  -5.9201  -5.8635  -5.3401  -5.3362  -5.3194
    -5.2671  -4.9864  -4.8255  -4.6086  -4.5187  -4.4993  -4.4889  -4.4693
    -4.4632  -4.4487  -4.3592  -4.1448  -4.0519  -4.0259  -4.0222  -4.0189
    -3.8683  -3.8653  -3.8271  -3.8026  -3.7082  -3.6354  -3.5972  -3.5659
    -3.5231  -3.4305  -3.4229  -3.3620  -3.2984  -3.2673  -3.2239  -3.1716
    -3.1368  -3.0592  -2.9528  -2.9103  -2.8237  -2.8236  -2.7908  -2.7602
    -2.6492  -2.6451  -2.6181  -2.5044  -2.4254  -2.3673  -2.3645  -2.3358
    -2.1246  -2.1242  -2.1074  -2.1068  -2.0830  -2.0568  -2.0209  -2.0147
    -1.9843  -1.9214  -1.9186  -1.8660  -1.8271  -1.8269  -1.8194  -1.8192
    -1.7992  -1.7902  -1.7794  -1.7713  -1.7547  -1.7432  -1.7412  -1.7165
    -1.7066  -1.6731  -1.6723  -1.6298  -1.6091  -1.6071  -1.6046  -1.6036
    -1.6034  -1.6021  -1.5553  -1.5519  -1.5296  -1.5272  -1.5173  -1.5166
    -1.4485  -1.3984  -1.3622  -1.3571  -1.3387  -1.3002  -1.2964  -1.2780
    -1.2704  -1.2691  -1.2642  -1.2603  -1.2500  -1.2428  -1.2342  -1.2184
    -1.2110  -1.2076  -1.2039  -1.1852  -1.1687  -1.1620  -1.1612  -1.1588
    -1.1561  -1.1461  -1.1389  -1.1366  -1.1290  -1.1149  -1.1020  -1.0846
    -1.0763  -1.0748  -1.0743  -1.0717  -1.0474  -1.0396  -1.0391  -1.0369
    -1.0301  -1.0270  -1.0215  -1.0114  -1.0090  -1.0072  -1.0055  -1.0025
    -1.0011  -0.9989  -0.9904  -0.9732  -0.9710  -0.9698  -0.9604  -0.9457
    -0.9299  -0.9290  -0.9272  -0.9209  -0.8803  -0.8778  -0.8414  -0.8412
    -0.8232  -0.8218  -0.8133  -0.7971  -0.7966  -0.7828  -0.7811  -0.7793
    -0.7744  -0.7692  -0.7637  -0.7488  -0.6303  -0.6294  -0.6259  -0.6251
    -0.5949  -0.5935  -0.5931  -0.5772  -0.5762  -0.5755  -0.5748  -0.5645
    -0.5564  -0.5533  -0.5525  -0.5482  -0.5450  -0.5223  -0.5208  -0.5120
    -0.5117  -0.5089  -0.5085  -0.5056  -0.4872  -0.4871  -0.4839  -0.4285
    -0.4262  -0.4257  -0.4242  -0.4182  -0.4140  -0.4122  -0.4067  -0.4002
    -0.3833  -0.3825  -0.3684  -0.3608  -0.3606  -0.3543  -0.3427  -0.3296
    -0.3219  -0.3204  -0.3169  -0.3162  -0.3086  -0.3055  -0.2975  -0.2929
    -0.2908  -0.2830  -0.2749  -0.2639  -0.2572  -0.2452  -0.2262  -0.2257
    -0.2256  -0.2228  -0.2147  -0.2084  -0.2073  -0.2060  -0.2004  -0.1848
    -0.1797  -0.1795  -0.1666  -0.1635  -0.1492  -0.1421  -0.1391  -0.1376
    -0.1371  -0.0951  -0.0925  -0.0892  -0.0861  -0.0842  -0.0698  -0.0588
    -0.0467  -0.0453  -0.0405  -0.0386  -0.0363  -0.0343  -0.0287  -0.0269
    -0.0208  -0.0205  -0.0197  -0.0176  -0.0173  -0.0133   0.0044   0.0062
     0.0066   0.0091   0.0131   0.0165   0.0311   0.0328   0.0485   0.0520
     0.0646   0.0690   0.0866   0.0874   0.0898   0.0905   0.0938   0.1069
     0.1128   0.1146   0.1151   0.1160   0.1166   0.1500   0.1512   0.1744
     0.1782   0.2251   0.2253   0.2282   0.2411   0.2428   0.2435   0.2452
     0.2456   0.2478   0.2555   0.2576   0.2581   0.2626   0.2658   0.2696
     0.2711   0.2786   0.2801   0.2809   0.2834   0.2931   0.2947   0.3012
     0.3057   0.3087   0.3124   0.3268   0.3306   0.3401   0.3461   0.3694
     0.3751   0.3783   0.3867   0.3968   0.3974   0.4151   0.4159   0.4164
     0.4201   0.4282   0.4363   0.4486   0.4526   0.4539   0.4595   0.4608
     0.4640   0.4658   0.4693   0.4699   0.4902   0.4947   0.4984   0.5075
     0.5118   0.5196   0.5212   0.5232   0.5243   0.5247   0.5282   0.5294
     0.5472   0.5536   0.5542   0.5570   0.5661   0.5678   0.5697   0.5731
     0.5822   0.5823   0.5865   0.5906   0.5943   0.6104   0.6118   0.6209
     0.6310   0.6315   0.6367   0.6377   0.6427   0.6461   0.6508   0.6643
     0.6753   0.6787   0.6966   0.7015   0.7134   0.7141   0.7178   0.7198
     0.7236   0.7383   0.7431   0.7474   0.7496   0.7520   0.7536   0.7611
     0.7658   0.7755   0.7762   0.7870   0.7894   0.7957   0.7984   0.7986
     0.8192   0.8272   0.8289   0.8298   0.8318   0.8524   0.8534   0.8629
     0.8659   0.8669   0.8673   0.8696   0.8756   0.8758   0.8799   0.8826
     0.9098   0.9162   0.9222   0.9245   0.9264   0.9277   0.9293   0.9413
     0.9430   0.9620   0.9644   0.9647   0.9666   0.9725   0.9732   0.9754
     0.9887   0.9906   0.9913   0.9915   0.9937   0.9940   0.9975   0.9988
     0.9994   1.0047   1.0056   1.0067   1.0132   1.0182   1.0288   1.0317
     1.0344   1.0383   1.0409   1.0420   1.0433   1.0485   1.0492   1.0631
     1.0640   1.0759   1.0797   1.0803   1.0811   1.0845   1.0942   1.0998
     1.1091   1.1097   1.1137   1.1192   1.1259   1.1281   1.1289   1.1315
     1.1369   1.1442   1.1534   1.1573   1.1623   1.1650   1.1665   1.2002
     1.2045   1.2094   1.2141   1.2177   1.2179   1.2245   1.2258   1.2262
     1.2269   1.2344   1.2398   1.2458   1.2492   1.2515   1.2520   1.2563
     1.2675   1.2708   1.2726   1.2729   1.2781   1.2800   1.2835   1.2865
     1.2872   1.2893   1.2900   1.2958   1.2966   1.2979   1.3056   1.3107
     1.3204   1.3213   1.3242   1.3284   1.3297   1.3307   1.3320   1.3388
     1.3523   1.3526   1.3540   1.3546   1.3751   1.3754   1.3840   1.3872
     1.3921   1.3949   1.3954   1.3965   1.3995   1.4006   1.4057   1.4070
     1.4087   1.4118   1.4136   1.4170   1.4325   1.4362   1.4371   1.4385
     1.4391   1.4420   1.4426   1.4550   1.4554   1.4631   1.4673   1.4696
     1.4787   1.4795   1.4841   1.4875   1.4896   1.4912   1.5180   1.5257
     1.5276   1.5496   1.5536   1.5953   1.5976   1.5994   1.6074   1.6341
     1.6427   1.7186   1.7299   1.7353   1.7365   1.7536   1.7694   1.7830
     1.8094   1.9415   2.0033   2.0360   2.0449   2.0567   2.0606   2.0781
     2.1634   2.2241   2.2345   2.5339   2.5354   2.5379   2.5401   2.9482
     2.9486   2.9798   3.1646   3.1665   3.1908   3.1910   3.2191   3.2607
     3.3244   3.4445   3.4869   3.5553   3.5722   3.6041   3.6144   3.6740
     3.6808   3.6922   3.6999   3.7539   3.8427   3.8504   3.9463   3.9523
     4.0448   4.1691   4.1736   4.1873   4.2518   4.3462   4.3782   4.5420
     4.7364   4.7895   4.8033   4.9843   5.1601   5.1924   5.1959   5.2026
     5.2483   5.3253   5.4287   5.4458   5.4701   5.4949   5.5581   5.5720
     5.6208   5.6679   5.6810   5.7041   5.7142   5.7946   5.8095   5.8205
     5.9811   5.9857   6.0085   6.0227   6.2801   6.5719   6.6702   6.6760
     6.6810   6.7203   6.7351   6.7802   6.8545   6.8917   6.9896   7.0144
     7.0225   7.0269   7.0412   7.1641   7.2260   7.2766   7.3012   7.4395
     7.4981   7.5167   7.5320   7.5481   7.7231   7.7448   7.7513   7.7688
     7.9268   7.9768   7.9940   8.0371   8.0665   8.1890   8.2265   8.2328
     8.2496   8.2674   8.2845   8.2847   8.3540   8.3850   8.4155   8.4658
     8.6163   8.6194   8.9212   8.9295   8.9801   8.9809   9.0408   9.0899
     9.1142   9.1585   9.1664   9.1849   9.2110   9.2323   9.2470   9.3379
     9.3660   9.3902   9.4122   9.4225   9.4955   9.5014   9.5558   9.6735
     9.6929   9.6970   9.7189   9.7592   9.8334   9.8474   9.8752

          k = 0.2500-0.2165 0.0000 (256316 PWs)   bands (ev):

   -16.5962 -16.1993 -15.7123 -15.5199 -15.3987 -15.2126 -14.6478 -14.5403
   -14.1674 -14.0724 -13.5694 -13.2871 -13.1988 -13.1168 -12.7265 -12.6421
   -12.0926 -11.9696 -11.4551 -11.3761 -11.1960 -11.0856 -10.8611 -10.6473
    -9.7643  -9.6791  -9.2995  -9.1571  -9.0956  -9.0518  -8.6171  -8.5242
    -8.4455  -8.4127  -6.9271  -6.8345  -6.6993  -6.6737  -6.5905  -6.4768
    -6.4330  -6.3098  -6.0358  -6.0294  -5.7322  -5.7288  -5.3161  -5.2153
    -4.9801  -4.9290  -4.8639  -4.8378  -4.7003  -4.6998  -4.4580  -4.4271
    -4.3805  -4.3736  -4.3471  -4.3263  -4.1799  -4.1598  -4.1043  -3.9449
    -3.9128  -3.7713  -3.7282  -3.6629  -3.6048  -3.5782  -3.4974  -3.4836
    -3.4829  -3.4705  -3.3260  -3.3020  -3.2250  -3.1687  -3.1639  -3.0952
    -3.0167  -2.9704  -2.9470  -2.9400  -2.9335  -2.9322  -2.8453  -2.8274
    -2.6793  -2.6505  -2.5616  -2.5071  -2.3410  -2.3376  -2.3121  -2.2797
    -2.2111  -2.2041  -2.1937  -2.1936  -2.0965  -2.0487  -2.0355  -2.0349
    -2.0054  -1.9886  -1.9770  -1.9445  -1.8934  -1.8506  -1.8417  -1.8381
    -1.8376  -1.7863  -1.7779  -1.7741  -1.7501  -1.7490  -1.7370  -1.7334
    -1.7262  -1.7208  -1.7058  -1.7022  -1.7019  -1.7013  -1.6928  -1.6924
    -1.6109  -1.6034  -1.4973  -1.4947  -1.4717  -1.3929  -1.3906  -1.3886
    -1.3663  -1.3567  -1.3550  -1.3043  -1.3022  -1.3021  -1.2885  -1.2882
    -1.2754  -1.2747  -1.2671  -1.2647  -1.2518  -1.2506  -1.2430  -1.2377
    -1.2340  -1.2294  -1.2245  -1.2232  -1.2188  -1.2068  -1.1901  -1.1594
    -1.1573  -1.1555  -1.1469  -1.1448  -1.1402  -1.1394  -1.1326  -1.1163
    -1.1098  -1.1034  -1.0660  -1.0657  -1.0626  -1.0552  -1.0541  -1.0486
    -1.0223  -1.0219  -1.0050  -0.9961  -0.9879  -0.9876  -0.9831  -0.9817
    -0.9784  -0.9762  -0.9625  -0.9525  -0.9486  -0.9394  -0.9325  -0.9228
    -0.8998  -0.8885  -0.8876  -0.8873  -0.8675  -0.8102  -0.8066  -0.8065
    -0.8006  -0.7952  -0.7929  -0.7895  -0.7506  -0.7464  -0.7393  -0.7388
    -0.7317  -0.7312  -0.7235  -0.7204  -0.7160  -0.6912  -0.6791  -0.6782
    -0.6413  -0.6397  -0.6043  -0.5961  -0.5914  -0.5897  -0.5889  -0.5832
    -0.5620  -0.5592  -0.5539  -0.5395  -0.5289  -0.5272  -0.5161  -0.5150
    -0.5110  -0.4940  -0.4835  -0.4818  -0.4750  -0.4719  -0.4633  -0.4627
    -0.4372  -0.4351  -0.4334  -0.4211  -0.4188  -0.4091  -0.4050  -0.4036
    -0.3945  -0.3942  -0.3896  -0.3892  -0.3832  -0.3826  -0.3787  -0.3780
    -0.3645  -0.3556  -0.3438  -0.3437  -0.3179  -0.3172  -0.3026  -0.3005
    -0.2889  -0.2819  -0.2668  -0.2664  -0.2607  -0.2555  -0.2462  -0.2448
    -0.2437  -0.2348  -0.2157  -0.2070  -0.1830  -0.1828  -0.1619  -0.1455
    -0.1433  -0.1349  -0.1346  -0.1322  -0.1301  -0.1156  -0.1147  -0.1142
    -0.0964  -0.0960  -0.0886  -0.0844  -0.0828  -0.0781  -0.0685  -0.0672
    -0.0634  -0.0626  -0.0459  -0.0425  -0.0357  -0.0313  -0.0298  -0.0293
    -0.0278  -0.0256  -0.0245  -0.0238  -0.0199  -0.0187   0.0001   0.0041
     0.0044   0.0051   0.0066   0.0375   0.0387   0.0459   0.0476   0.0524
     0.0535   0.0732   0.0740   0.0795   0.0989   0.1028   0.1042   0.1049
     0.1119   0.1194   0.1238   0.1241   0.1249   0.1338   0.1393   0.1450
     0.1498   0.1511   0.1750   0.1805   0.2397   0.2410   0.2472   0.2479
     0.2540   0.2546   0.2580   0.2595   0.2653   0.2670   0.2711   0.2716
     0.2813   0.2886   0.2905   0.2953   0.3009   0.3009   0.3023   0.3044
     0.3141   0.3143   0.3330   0.3467   0.3507   0.3540   0.3595   0.3661
     0.3693   0.3764   0.3849   0.4147   0.4176   0.4206   0.4273   0.4275
     0.4287   0.4333   0.4446   0.4447   0.4457   0.4490   0.4532   0.4550
     0.4582   0.4603   0.4784   0.4871   0.4876   0.4927   0.5006   0.5071
     0.5086   0.5396   0.5407   0.5421   0.5429   0.5500   0.5701   0.5761
     0.5784   0.5790   0.5800   0.5833   0.5856   0.5864   0.5971   0.5985
     0.6006   0.6040   0.6076   0.6118   0.6148   0.6268   0.6294   0.6325
     0.6405   0.6417   0.6439   0.6440   0.6496   0.6553   0.6586   0.6594
     0.6610   0.6636   0.6740   0.6812   0.6823   0.6841   0.6892   0.6899
     0.6905   0.6936   0.6943   0.6951   0.7283   0.7292   0.7389   0.7415
     0.7562   0.7636   0.7766   0.7803   0.7958   0.7961   0.7981   0.7986
     0.8023   0.8038   0.8187   0.8259   0.8264   0.8270   0.8273   0.8290
     0.8299   0.8383   0.8455   0.8505   0.8570   0.8576   0.8660   0.8686
     0.8740   0.8779   0.9008   0.9010   0.9058   0.9218   0.9256   0.9265
     0.9309   0.9337   0.9358   0.9383   0.9389   0.9495   0.9516   0.9663
     0.9750   0.9757   0.9878   0.9906   0.9927   1.0015   1.0056   1.0099
     1.0207   1.0333   1.0365   1.0390   1.0523   1.0528   1.0593   1.0600
     1.0613   1.0631   1.0641   1.0644   1.0658   1.0696   1.0773   1.0780
     1.0837   1.0884   1.0898   1.0918   1.1076   1.1104   1.1320   1.1369
     1.1394   1.1430   1.1457   1.1475   1.1484   1.1490   1.1522   1.1575
     1.1611   1.1620   1.1628   1.1660   1.1731   1.1748   1.1763   1.1773
     1.1795   1.1827   1.1900   1.1955   1.1959   1.1963   1.1969   1.1983
     1.2094   1.2110   1.2169   1.2180   1.2386   1.2420   1.2485   1.2493
     1.2510   1.2654   1.2668   1.2710   1.2756   1.2824   1.2826   1.2883
     1.2941   1.2958   1.3029   1.3033   1.3063   1.3084   1.3149   1.3187
     1.3201   1.3203   1.3316   1.3319   1.3367   1.3439   1.3492   1.3536
     1.3539   1.3548   1.3570   1.3600   1.3623   1.3645   1.3670   1.3766
     1.3772   1.3815   1.3823   1.3918   1.3945   1.3964   1.4004   1.4085
     1.4091   1.4099   1.4103   1.4161   1.4164   1.4170   1.4197   1.4223
     1.4257   1.4260   1.4503   1.4504   1.4540   1.4634   1.4692   1.4734
     1.4791   1.4932   1.4960   1.4997   1.5028   1.5210   1.5223   1.5279
     1.5309   1.5560   1.5574   1.5890   1.6018   1.6218   1.6374   1.6383
     1.6897   1.7246   1.7279   1.7419   1.7484   1.7571   1.7596   1.7616
     1.7657   1.7904   1.8076   1.8292   2.0973   2.0982   2.1300   2.1312
     2.2502   2.2655   2.5554   2.5562   2.7369   2.7542   2.7635   2.7637
     2.7731   2.7761   2.8055   2.8115   2.9546   2.9554   3.0279   3.0699
     3.3890   3.5197   3.5229   3.5824   3.5936   3.6726   3.6895   3.8113
     3.8143   3.8191   3.8257   3.9660   3.9740   4.0314   4.0445   4.1342
     4.1368   4.3251   4.3452   4.3486   4.4211   4.5189   4.5241   4.6099
     4.6379   4.6690   4.6976   4.7115   4.8924   4.9109   4.9636   5.0302
     5.0340   5.0945   5.2181   5.2782   5.3594   5.3942   5.4182   5.4324
     5.4369   5.4594   5.6977   5.7311   5.7572   5.8650   5.8835   5.8962
     5.9502   5.9649   6.4662   6.5584   6.5734   6.6026   6.6203   6.7226
     6.7434   6.8326   6.8521   6.9928   7.0189   7.0521   7.0586   7.0670
     7.0806   7.1124   7.1734   7.1849   7.2018   7.2804   7.3095   7.3200
     7.3259   7.3620   7.4130   7.4156   7.6126   7.6626   7.7425   7.7686
     7.8627   7.8697   7.9361   7.9756   8.1006   8.1665   8.1789   8.2078
     8.2534   8.3544   8.5590   8.5610   8.5904   8.5984   8.6071   8.6098
     8.6831   8.6856   8.8008   8.8460   8.8787   8.8980   8.9003   8.9197
     8.9908   9.1073   9.1140   9.1463   9.1548   9.1747   9.1841   9.2048
     9.2106   9.2277   9.2403   9.2467   9.2967   9.3463   9.3940   9.4132
     9.4712   9.4802   9.6210   9.6217   9.7028   9.9292   9.9488

          k =-0.5000 0.0000 0.0000 (256496 PWs)   bands (ev):

   -16.4285 -15.9756 -15.7382 -15.6111 -15.6040 -15.5620 -14.7098 -14.5529
   -14.5058 -14.4787 -13.0283 -12.7936 -12.7317 -12.7015 -12.3659 -12.2237
   -11.9228 -11.8681 -11.8025 -11.7983 -11.2355 -11.1934 -10.8949 -10.7442
   -10.2541 -10.2052  -9.9015  -9.7557  -9.0921  -8.9988  -8.9407  -8.9395
    -7.6352  -7.5226  -7.4911  -7.4161  -7.3636  -7.3455  -6.0450  -5.9902
    -5.5792  -5.3352  -5.3342  -5.2605  -4.9664  -4.9499  -4.9000  -4.8296
    -4.8276  -4.8269  -4.8228  -4.7940  -4.7654  -4.7452  -4.6996  -4.6677
    -4.5466  -4.5327  -4.5054  -4.4661  -4.3932  -4.3685  -4.1463  -4.0510
    -4.0272  -4.0196  -4.0003  -3.9974  -3.6531  -3.6524  -3.6122  -3.5733
    -3.5470  -3.5252  -3.4447  -3.4445  -3.4438  -3.4420  -3.4253  -3.4030
    -3.3746  -3.3632  -2.9229  -2.9025  -2.8960  -2.8169  -2.8159  -2.7870
    -2.7704  -2.7658  -2.6442  -2.6308  -2.5464  -2.4625  -2.4586  -2.4505
    -2.3302  -2.3266  -2.3258  -2.3241  -1.9045  -1.9044  -1.9040  -1.9035
    -1.9023  -1.9008  -1.8494  -1.8046  -1.7950  -1.7789  -1.7757  -1.7342
    -1.7033  -1.6766  -1.6764  -1.6762  -1.6751  -1.6283  -1.6273  -1.6263
    -1.6258  -1.5383  -1.5306  -1.5146  -1.5144  -1.4895  -1.4861  -1.4592
    -1.4523  -1.4513  -1.4509  -1.4507  -1.4332  -1.4321  -1.3841  -1.3835
    -1.3791  -1.3782  -1.3767  -1.3687  -1.3679  -1.3662  -1.3649  -1.3632
    -1.3190  -1.3184  -1.3182  -1.3170  -1.2944  -1.2936  -1.2935  -1.2933
    -1.2308  -1.2304  -1.2162  -1.2104  -1.2083  -1.2074  -1.2072  -1.1828
    -1.1822  -1.1819  -1.1766  -1.1753  -1.1745  -1.1721  -1.1345  -1.1339
    -1.1328  -1.1323  -1.1116  -1.1104  -1.0976  -1.0823  -1.0817  -1.0364
    -1.0353  -1.0202  -1.0114  -1.0079  -1.0064  -1.0050  -1.0036  -0.9796
    -0.9794  -0.9785  -0.9733  -0.9707  -0.9678  -0.9670  -0.9586  -0.9580
    -0.9553  -0.9539  -0.9299  -0.9284  -0.8678  -0.8672  -0.8658  -0.8642
    -0.8602  -0.8216  -0.8207  -0.7378  -0.7372  -0.7366  -0.7358  -0.7108
    -0.7054  -0.7018  -0.6997  -0.6993  -0.6978  -0.6971  -0.6886  -0.6851
    -0.6603  -0.6590  -0.6560  -0.6543  -0.6486  -0.6438  -0.6401  -0.6268
    -0.6258  -0.6244  -0.5954  -0.5380  -0.5352  -0.5344  -0.4974  -0.4966
    -0.4940  -0.4922  -0.4835  -0.4832  -0.4567  -0.4382  -0.4365  -0.4358
    -0.4339  -0.4336  -0.4315  -0.4288  -0.4131  -0.4023  -0.3955  -0.3951
    -0.3944  -0.3939  -0.3567  -0.3566  -0.3561  -0.3551  -0.3389  -0.3225
    -0.3224  -0.3217  -0.3215  -0.3105  -0.3100  -0.2777  -0.2776  -0.2752
    -0.2746  -0.2671  -0.2661  -0.2627  -0.2475  -0.2368  -0.2286  -0.2250
    -0.1661  -0.1642  -0.1627  -0.1626  -0.1568  -0.1566  -0.1544  -0.1544
    -0.1427  -0.1166  -0.1163  -0.1128  -0.1064  -0.0796  -0.0791  -0.0536
    -0.0528  -0.0517  -0.0504  -0.0503  -0.0499  -0.0489  -0.0477  -0.0468
    -0.0458  -0.0456  -0.0440  -0.0213   0.0217   0.0288   0.0329   0.0356
     0.0383   0.0390   0.0428   0.0444   0.0455   0.0461   0.0488   0.0510
     0.0533   0.0540   0.0569   0.0579   0.0612   0.0628   0.0719   0.0720
     0.0818   0.0880   0.0884   0.0915   0.0919   0.0921   0.0925   0.1004
     0.1008   0.1011   0.1012   0.1137   0.1141   0.1244   0.1260   0.1265
     0.1271   0.1293   0.1424   0.1563   0.1586   0.1996   0.2354   0.2405
     0.2574   0.2577   0.2604   0.2606   0.2911   0.2914   0.2923   0.2932
     0.3045   0.3047   0.3082   0.3102   0.3143   0.3146   0.3182   0.3194
     0.3206   0.3210   0.3292   0.3294   0.3306   0.3356   0.3388   0.3469
     0.3476   0.3488   0.3541   0.3586   0.3613   0.3615   0.3696   0.3697
     0.3757   0.3761   0.4054   0.4142   0.4581   0.4614   0.4657   0.4671
     0.4769   0.4796   0.4929   0.4935   0.4980   0.4984   0.5011   0.5029
     0.5043   0.5051   0.5070   0.5074   0.5079   0.5108   0.5129   0.5133
     0.5181   0.5193   0.5198   0.5227   0.5382   0.5401   0.5565   0.5569
     0.5716   0.5723   0.5785   0.5862   0.5906   0.5907   0.5933   0.5947
     0.6036   0.6039   0.6047   0.6068   0.6070   0.6107   0.6197   0.6216
     0.6255   0.6255   0.6398   0.6415   0.6418   0.6442   0.6734   0.6762
     0.6785   0.6799   0.6840   0.6883   0.6970   0.6995   0.7259   0.7315
     0.7370   0.7389   0.7393   0.7398   0.7405   0.7430   0.7561   0.7827
     0.8082   0.8083   0.8122   0.8128   0.8133   0.8140   0.8180   0.8187
     0.8245   0.8260   0.8262   0.8270   0.8373   0.8388   0.8559   0.8581
     0.8594   0.8609   0.8671   0.8744   0.8775   0.8783   0.8785   0.8798
     0.8806   0.8811   0.9185   0.9188   0.9191   0.9199   0.9594   0.9687
     0.9846   0.9849   0.9856   0.9865   1.0067   1.0184   1.0191   1.0193
     1.0209   1.0251   1.0379   1.0383   1.0490   1.0497   1.0534   1.0634
     1.0637   1.0659   1.0820   1.0831   1.0878   1.0884   1.0897   1.0900
     1.0961   1.0966   1.0975   1.0991   1.1073   1.1076   1.1082   1.1086
     1.1097   1.1111   1.1114   1.1133   1.1471   1.1483   1.1483   1.1486
     1.1625   1.1740   1.1799   1.1825   1.1826   1.1844   1.1851   1.1866
     1.2022   1.2032   1.2061   1.2128   1.2132   1.2140   1.2161   1.2230
     1.2248   1.2250   1.2265   1.2293   1.2396   1.2445   1.2457   1.2515
     1.2707   1.2718   1.2812   1.2858   1.2863   1.2865   1.2869   1.2871
     1.2877   1.2879   1.2989   1.3012   1.3015   1.3027   1.3030   1.3031
     1.3046   1.3048   1.3102   1.3122   1.3139   1.3143   1.3144   1.3151
     1.3211   1.3217   1.3358   1.3372   1.3525   1.3579   1.3580   1.3611
     1.3622   1.3637   1.3648   1.3651   1.3789   1.3820   1.3863   1.3869
     1.3993   1.4008   1.4039   1.4082   1.4128   1.4203   1.4205   1.4208
     1.4242   1.4388   1.4416   1.4435   1.4439   1.4476   1.4502   1.4507
     1.4508   1.4511   1.4584   1.4647   1.4708   1.4727   1.4845   1.4850
     1.4853   1.4856   1.4895   1.4957   1.5005   1.5021   1.5485   1.5506
     1.5644   1.5777   1.5782   1.5818   1.5836   1.6049   1.9968   2.0038
     2.0054   2.0062   2.2001   2.2094   2.2225   2.2288   2.2564   2.2567
     2.2638   2.2643   2.5719   2.5897   2.5963   2.6004   2.7945   2.8020
     2.8067   2.8081   3.1554   3.1569   3.1571   3.1606   3.3841   3.4445
     3.5250   3.7235   3.7306   3.7346   3.7695   3.8930   3.8954   3.8999
     3.9199   4.0393   4.0425   4.0462   4.0487   4.1657   4.1715   4.3851
     4.4299   4.4913   4.6968   4.7192   4.7321   4.7408   4.7789   4.7982
     4.7984   4.8330   4.8855   4.9900   4.9917   5.0141   5.0161   5.0209
     5.0228   5.0367   5.0462   5.0496   5.0684   5.0955   5.1345   5.1350
     5.4344   5.4914   5.5121   5.5183   5.5881   5.6567   5.7025   5.8128
     5.9570   5.9578   5.9670   5.9817   6.0001   6.0191   6.0198   6.0297
     6.1428   6.3869   6.4100   6.4199   6.4239   6.4396   6.4469   6.4734
     7.0540   7.0673   7.0683   7.0909   7.0969   7.0974   7.5060   7.5599
     7.5617   7.5748   7.5770   7.5777   7.5869   7.6156   7.7765   7.7892
     7.8368   7.8568   7.8633   7.8661   7.9565   8.0297   8.0326   8.0353
     8.0778   8.1173   8.1216   8.1317   8.2291   8.2459   8.6410   8.7153
     8.7219   8.7279   8.7891   8.8015   8.8039   8.8061   8.8711   8.9799
     8.9801   9.0373   9.0405   9.0512   9.0613   9.2116   9.2385   9.2652
     9.2826   9.4165   9.4762   9.4864   9.4885   9.4891   9.4913   9.4943
     9.5009   9.5014   9.5062   9.5186   9.7871   9.8448   9.8849

          k =-0.5000-0.2165 0.0000 (256328 PWs)   bands (ev):

   -16.4255 -15.9247 -15.8341 -15.8207 -15.3214 -15.1755 -15.1462 -15.1118
   -13.9286 -13.7522 -13.6953 -13.6722 -12.4861 -12.2036 -12.0171 -12.0152
   -11.8520 -11.6723 -11.6456 -11.5948 -11.5308 -11.5063 -11.4205 -11.4156
    -9.9461  -9.8263  -9.7360  -9.7350  -9.0080  -8.8519  -8.7840  -8.7589
    -8.1857  -8.1232  -8.0043  -7.9995  -6.1857  -6.1173  -5.9830  -5.9459
    -5.6098  -5.5099  -5.3638  -5.3347  -5.3040  -5.2079  -5.2073  -5.2065
    -5.2039  -5.1710  -5.0398  -5.0297  -4.4858  -4.4728  -4.3668  -4.3622
    -4.3505  -4.2851  -4.2561  -4.2253  -4.2236  -4.2227  -4.2220  -4.2086
    -4.0341  -3.9854  -3.9374  -3.8834  -3.8773  -3.8120  -3.7644  -3.7367
    -3.6895  -3.6832  -3.6189  -3.6118  -3.5224  -3.4880  -3.4756  -3.4701
    -3.1493  -3.0881  -3.0863  -3.0733  -2.6059  -2.6051  -2.6041  -2.6040
    -2.5880  -2.5749  -2.5513  -2.5437  -2.5399  -2.5256  -2.3989  -2.3451
    -2.1589  -2.1512  -2.1237  -2.1226  -2.1216  -2.1064  -2.0687  -2.0600
    -2.0426  -2.0398  -2.0361  -2.0153  -1.8608  -1.8302  -1.8291  -1.8270
    -1.8244  -1.7534  -1.7496  -1.7466  -1.5826  -1.5345  -1.5256  -1.5228
    -1.5195  -1.5189  -1.5187  -1.5184  -1.4846  -1.4818  -1.4785  -1.4785
    -1.4609  -1.4607  -1.4569  -1.4567  -1.4129  -1.4117  -1.4113  -1.4112
    -1.4090  -1.4084  -1.4027  -1.3993  -1.3843  -1.3842  -1.3838  -1.3835
    -1.3366  -1.3349  -1.3323  -1.3320  -1.2822  -1.2647  -1.2585  -1.2570
    -1.2562  -1.2184  -1.2182  -1.2154  -1.2151  -1.1981  -1.1978  -1.1963
    -1.1961  -1.1530  -1.1478  -1.1477  -1.1471  -1.1428  -1.1421  -1.1420
    -1.1419  -1.1326  -1.1166  -1.1131  -1.1116  -1.0885  -1.0881  -1.0774
    -1.0756  -1.0749  -1.0712  -1.0711  -1.0651  -1.0636  -1.0619  -1.0615
    -1.0609  -1.0594  -1.0475  -1.0315  -0.9113  -0.9105  -0.9073  -0.9055
    -0.8788  -0.8786  -0.8784  -0.8780  -0.8150  -0.7997  -0.7986  -0.7958
    -0.7951  -0.7916  -0.7911  -0.7887  -0.7883  -0.7879  -0.7869  -0.7847
    -0.7266  -0.7261  -0.7259  -0.7253  -0.7162  -0.7155  -0.7152  -0.7144
    -0.6997  -0.6996  -0.6878  -0.6844  -0.6141  -0.6042  -0.6040  -0.6006
    -0.5941  -0.5926  -0.5926  -0.5910  -0.5267  -0.5260  -0.5243  -0.5223
    -0.4871  -0.4759  -0.4755  -0.4751  -0.4654  -0.4562  -0.4560  -0.4530
    -0.4527  -0.4288  -0.4285  -0.4270  -0.4168  -0.4158  -0.4155  -0.4140
    -0.3937  -0.3772  -0.3745  -0.3730  -0.3629  -0.3035  -0.3033  -0.2972
    -0.2967  -0.2838  -0.2835  -0.2828  -0.2821  -0.2675  -0.2671  -0.2670
    -0.2657  -0.1865  -0.1850  -0.1845  -0.1826  -0.1811  -0.1798  -0.1788
    -0.1778  -0.1773  -0.1766  -0.1759  -0.1726  -0.1400  -0.1399  -0.1397
    -0.1388  -0.1275  -0.1272  -0.1269  -0.1264  -0.1228  -0.1217  -0.1217
    -0.1204  -0.0546  -0.0537  -0.0529  -0.0511  -0.0362  -0.0311  -0.0221
    -0.0202  -0.0017   0.0185   0.0210   0.0244   0.0296   0.0322   0.0334
     0.0511   0.0521   0.0523   0.0526   0.0560   0.0583   0.0614   0.0617
     0.0636   0.0640   0.0659   0.0678   0.0726   0.0729   0.0734   0.0737
     0.0787   0.0790   0.0813   0.0819   0.0937   0.0957   0.0957   0.0963
     0.1103   0.1229   0.1232   0.1239   0.1239   0.1338   0.1348   0.1352
     0.1387   0.1833   0.1834   0.1843   0.1846   0.2134   0.2168   0.2176
     0.2190   0.2561   0.2850   0.2853   0.2967   0.2982   0.2996   0.3011
     0.3041   0.3051   0.3113   0.3141   0.3167   0.3174   0.3205   0.3217
     0.3290   0.3296   0.3355   0.3361   0.3373   0.3385   0.3417   0.3457
     0.3474   0.3498   0.3521   0.3530   0.3580   0.3587   0.3659   0.3662
     0.4217   0.4225   0.4244   0.4266   0.4303   0.4305   0.4309   0.4351
     0.4417   0.4420   0.4429   0.4438   0.4709   0.4730   0.4811   0.4821
     0.4829   0.4837   0.4936   0.4940   0.5223   0.5234   0.5279   0.5296
     0.5332   0.5358   0.5392   0.5396   0.5410   0.5417   0.5430   0.5442
     0.5477   0.5479   0.5497   0.5522   0.5630   0.5640   0.5662   0.5666
     0.5712   0.5769   0.5826   0.5842   0.6399   0.6480   0.6489   0.6531
     0.6538   0.6560   0.6564   0.6581   0.6585   0.6598   0.6650   0.6660
     0.6723   0.6776   0.6817   0.6837   0.7004   0.7016   0.7023   0.7032
     0.7034   0.7041   0.7048   0.7090   0.7455   0.7531   0.7563   0.7573
     0.7819   0.7830   0.7842   0.7860   0.7894   0.7958   0.8057   0.8058
     0.8190   0.8190   0.8221   0.8245   0.8448   0.8450   0.8468   0.8472
     0.8972   0.8982   0.8988   0.8993   0.9293   0.9297   0.9330   0.9334
     0.9678   0.9817   0.9823   0.9845   0.9909   0.9993   1.0002   1.0011
     1.0078   1.0108   1.0112   1.0118   1.0163   1.0167   1.0169   1.0170
     1.0190   1.0193   1.0224   1.0227   1.0235   1.0337   1.0370   1.0474
     1.0487   1.0499   1.0520   1.0522   1.0538   1.0545   1.0565   1.0574
     1.0636   1.0679   1.0714   1.0730   1.0904   1.0917   1.0969   1.0978
     1.0997   1.1028   1.1058   1.1071   1.1141   1.1151   1.1155   1.1164
     1.1607   1.1638   1.1649   1.1654   1.1668   1.1675   1.1704   1.1716
     1.1925   1.1934   1.1942   1.1944   1.2014   1.2092   1.2119   1.2139
     1.2153   1.2233   1.2308   1.2318   1.2411   1.2426   1.2432   1.2440
     1.2505   1.2508   1.2534   1.2542   1.2574   1.2584   1.2592   1.2599
     1.3128   1.3233   1.3248   1.3250   1.3253   1.3263   1.3264   1.3268
     1.3269   1.3321   1.3349   1.3371   1.3374   1.3444   1.3446   1.3449
     1.3478   1.3507   1.3549   1.3570   1.3571   1.3576   1.3617   1.3634
     1.3652   1.3660   1.3679   1.3683   1.3702   1.3765   1.3793   1.3797
     1.3868   1.3876   1.3882   1.3890   1.4197   1.4205   1.4205   1.4209
     1.4335   1.4355   1.4372   1.4373   1.4447   1.4492   1.4518   1.4565
     1.4678   1.4729   1.4733   1.4739   1.5040   1.5237   1.5281   1.5284
     1.5441   1.5444   1.5449   1.5458   1.5723   1.5747   1.5747   1.5781
     1.5815   1.5835   1.5837   1.5844   1.5880   1.5882   1.5895   1.5896
     1.8054   1.8069   1.8076   1.8079   2.2881   2.3064   2.3304   2.3306
     2.5227   2.5312   2.5344   2.5350   2.7491   2.7661   2.7690   2.7703
     3.0390   3.0637   3.0669   3.0699   3.4150   3.4252   3.4257   3.4270
     3.5190   3.6101   3.6205   3.6206   3.6904   3.9005   3.9009   3.9021
     3.9061   4.1971   4.1988   4.1996   4.2034   4.2908   4.3049   4.3332
     4.3338   4.5186   4.5206   4.5355   4.5363   4.5543   4.5602   4.5633
     4.6133   4.7887   4.8538   4.8615   4.8979   5.0080   5.0167   5.0335
     5.1351   5.1387   5.1526   5.1567   5.2201   5.2533   5.2700   5.2766
     5.3214   5.3218   5.3341   5.3351   5.4381   5.6121   5.7030   5.7119
     5.7206   5.7210   5.7252   5.7289   5.7887   5.8516   5.8935   5.8983
     6.7220   6.7247   6.7913   6.7916   6.9320   7.0719   7.0859   7.1156
     7.1190   7.1236   7.1270   7.1309   7.1819   7.2571   7.2618   7.2679
     7.3289   7.3396   7.3421   7.3424   7.4092   7.5942   7.5951   7.6074
     7.6655   7.8649   7.8756   7.9533   7.9589   7.9639   7.9682   8.0165
     8.2070   8.2090   8.2203   8.2290   8.3396   8.3662   8.3678   8.3926
     8.8541   8.8557   8.8591   8.8659   8.8859   8.8995   8.9021   8.9037
     8.9404   8.9406   8.9428   8.9440   9.1027   9.1034   9.1131   9.1133
     9.2843   9.3543   9.3588   9.3627   9.4178   9.4871   9.5104   9.5351
     9.5385   9.5551   9.5565   9.5641   9.7933   9.8679   9.9698

     the Fermi energy is     3.2932 ev

!    total energy              =  -12707.07915118 Ry
     Harris-Foulkes estimate   =  -12707.07915114 Ry
     estimated scf accuracy    <          9.5E-09 Ry

     The total energy is the sum of the following terms:

     one-electron contribution = -109243.31244570 Ry
     hartree contribution      =   55982.27399489 Ry
     xc contribution           =   -4447.63148962 Ry
     ewald contribution        =   45007.93601313 Ry
     Dispersion Correction     =      -2.98822579 Ry
     smearing contrib. (-TS)   =      -3.35699810 Ry

     convergence has been achieved in  50 iterations

     Writing output data file gc.save
 
     init_run     :    186.48s CPU    200.24s WALL (       1 calls)
     electrons    :  25890.44s CPU  27627.02s WALL (       1 calls)

     Called by init_run:
     wfcinit      :    183.56s CPU    196.22s WALL (       1 calls)
     potinit      :      0.97s CPU      1.10s WALL (       1 calls)

     Called by electrons:
     c_bands      :  23539.93s CPU  25080.55s WALL (      50 calls)
     sum_band     :   1912.23s CPU   2043.90s WALL (      50 calls)
     v_of_rho     :      5.99s CPU      7.61s WALL (      51 calls)
     newd         :     17.40s CPU     32.11s WALL (      51 calls)
     mix_rho      :    414.76s CPU    462.84s WALL (      50 calls)

     Called by c_bands:
     init_us_2    :     93.52s CPU     94.91s WALL (     606 calls)
     cegterg      :  23158.96s CPU  24684.38s WALL (     306 calls)

     Called by sum_band:
     sum_band:bec :      5.20s CPU      6.02s WALL (     300 calls)
     addusdens    :     25.42s CPU     38.74s WALL (      50 calls)

     Called by *egterg:
     h_psi        :   8400.46s CPU   9063.61s WALL (    2111 calls)
     s_psi        :   2060.69s CPU   2074.81s WALL (    2111 calls)
     g_psi        :     22.47s CPU     22.59s WALL (    1799 calls)
     cdiaghg      :   6646.15s CPU   7000.18s WALL (    2099 calls)

     Called by h_psi:
     add_vuspsi   :   2066.43s CPU   2081.98s WALL (    2111 calls)

     General routines
     calbec       :   2892.74s CPU   2915.97s WALL (    2411 calls)
     fft          :      5.02s CPU      6.24s WALL (     662 calls)
     ffts         :    177.14s CPU    211.30s WALL (   26715 calls)
     fftw         :   4161.62s CPU   4753.13s WALL ( 1420830 calls)
     davcio       :      0.57s CPU     14.41s WALL (       6 calls)
 
     Parallel routines
     fft_scatter  :   2084.66s CPU   2419.17s WALL ( 1448207 calls)
 
     PWSCF        :     7h14m CPU        7h44m WALL

 
   This run was terminated on:  16:11:30  28Feb2018            

=------------------------------------------------------------------------------=
   JOB DONE.
=------------------------------------------------------------------------------=
