
     Program PWSCF v.5.4.0 starts on 13Dec2016 at  6:16:38 

     This program is part of the open-source Quantum ESPRESSO suite
     for quantum simulation of materials; please cite
         "P. Giannozzi et al., J. Phys.:Condens. Matter 21 395502 (2009);
          URL http://www.quantum-espresso.org", 
     in publications or presentations arising from this work. More details at
     http://www.quantum-espresso.org/quote

     Parallel version (MPI & OpenMP), running on      64 processor cores
     Number of MPI processes:                64
     Threads/MPI process:                     1
     R & G space division:  proc/nbgrp/npool/nimage =      64
     Waiting for input...
     Reading input from standard input
Warning: card &IONS ignored
Warning: card / ignored

     Current dimensions of program PWSCF are:
     Max number of different atomic species (ntypx) = 10
     Max number of k-points (npk) =  40000
     Max angular momentum in pseudopotentials (lmaxx) =  3

     -------------------------------------
     Parameters for Dispersion Correction:
     -------------------------------------
       atom      VdW radius       C_6     

        Cu         2.952        374.666
        C_h        2.744         60.710
        C          2.744         60.710

     Subspace diagonalization in iterative solution of the eigenvalue problem:
     one sub-group per band group will be used
     scalapack distributed-memory algorithm (size of sub-group:  5*  5 procs)

 
     Parallelization info
     --------------------
     sticks:   dense  smooth     PW     G-vecs:    dense   smooth      PW
     Min         178     178     47                32032    32032    4341
     Max         179     179     48                32043    32043    4347
     Sum       11433   11433   3039              2050409  2050409  278033
 


     bravais-lattice index     =            0
     lattice parameter (alat)  =      13.9425  a.u.
     unit-cell volume          =   21209.0878 (a.u.)^3
     number of atoms/cell      =          148
     number of atomic types    =            3
     number of electrons       =      1292.00
     number of Kohn-Sham states=          775
     kinetic-energy cutoff     =      80.0000  Ry
     charge density cutoff     =     320.0000  Ry
     convergence threshold     =      1.0E-08
     mixing beta               =       0.7000
     number of iterations used =            8  local-TF  mixing
     Exchange-correlation      =  SLA  PW   PBX  PBC ( 1  4  3  4 0 0)

     celldm(1)=  13.942539  celldm(2)=   0.000000  celldm(3)=   0.000000
     celldm(4)=   0.000000  celldm(5)=   0.000000  celldm(6)=   0.000000

     crystal axes: (cart. coord. in units of alat)
               a(1) = (   1.000000   0.000000   0.000000 )  
               a(2) = (   0.000000   2.309401   0.000000 )  
               a(3) = (   0.000000   0.000000   3.388418 )  

     reciprocal axes: (cart. coord. in units 2 pi/alat)
               b(1) = (  1.000000  0.000000  0.000000 )  
               b(2) = (  0.000000  0.433013  0.000000 )  
               b(3) = (  0.000000  0.000000  0.295123 )  


     PseudoPot. # 1 for Cu read from file:
     /home/549/hxw549/Short/pseudopotentials/Cu.pbe-n-van_ak.UPF
     MD5 check sum: 601f7c30f7467666bec936e0661ce3e1
     Pseudo is Ultrasoft + core correction, Zval = 11.0
     Generated by new atomic code, or converted to UPF format
     Using radial grid of  867 points,  6 beta functions with: 
                l(1) =   0
                l(2) =   0
                l(3) =   1
                l(4) =   1
                l(5) =   2
                l(6) =   2
     Q(r) pseudized with  8 coefficients,  rinner =    1.400   1.400   1.400
                                                       1.400   1.400

     PseudoPot. # 2 for C  read from file:
     /home/549/hxw549/Short/pseudopotentials/C.star1s-pbe-mt_gipaw.UPF
     MD5 check sum: ef0cb3dee31bd9e4ba2a832a2c716264
     Pseudo is Norm-conserving, Zval =  5.0
     Generated by new atomic code, or converted to UPF format
     Using radial grid of 1073 points,  1 beta functions with: 
                l(1) =   0

     PseudoPot. # 3 for C  read from file:
     /home/549/hxw549/Short/pseudopotentials/C.pbe-mt_gipaw.UPF
     MD5 check sum: 5ac2f21f2c440b14befe521540822c15
     Pseudo is Norm-conserving, Zval =  4.0
     Generated by new atomic code, or converted to UPF format
     Using radial grid of 1073 points,  1 beta functions with: 
                l(1) =   0

     atomic species   valence    mass     pseudopotential
        Cu            11.00    63.54600     Cu( 1.00)
        C_h            5.00    12.01070     C ( 1.00)
        C              4.00    12.01070     C ( 1.00)

      2 Sym. Ops. (no inversion) found



   Cartesian axes

     site n.     atom                  positions (alat units)
         1           Cu  tau(   1) = (   0.0000000   0.0000567   0.9971194  )
         2           Cu  tau(   2) = (   0.2499927   0.2309760   0.9972946  )
         3           Cu  tau(   3) = (   0.5000000   0.0000313   0.9971490  )
         4           Cu  tau(   4) = (   0.7500073   0.2309760   0.9972946  )
         5           Cu  tau(   5) = (   0.0000000   0.4618437   0.9973425  )
         6           Cu  tau(   6) = (   0.2499840   0.6927701   0.9971914  )
         7           Cu  tau(   7) = (   0.5000000   0.4618722   0.9973119  )
         8           Cu  tau(   8) = (   0.7500160   0.6927701   0.9971914  )
         9           Cu  tau(   9) = (   0.0000000   0.9237521   0.9970621  )
        10           Cu  tau(  10) = (   0.2500157   1.1547420   0.9971373  )
        11           Cu  tau(  11) = (   0.5000000   0.9237453   0.9970727  )
        12           Cu  tau(  12) = (   0.7499843   1.1547420   0.9971373  )
        13           Cu  tau(  13) = (   0.0000000   1.3856555   0.9972830  )
        14           Cu  tau(  14) = (   0.2500029   1.6165618   0.9973242  )
        15           Cu  tau(  15) = (   0.5000000   1.3857014   0.9973005  )
        16           Cu  tau(  16) = (   0.7499971   1.6165618   0.9973242  )
        17           Cu  tau(  17) = (   0.0000000   1.8474941   0.9971969  )
        18           Cu  tau(  18) = (   0.2500043   2.0784518   0.9970745  )
        19           Cu  tau(  19) = (   0.5000000   1.8474499   0.9971773  )
        20           Cu  tau(  20) = (   0.7499957   2.0784518   0.9970745  )
        21           Cu  tau(  21) = (   0.0000000   0.2308065   1.2457643  )
        22           Cu  tau(  22) = (   0.2499892  -0.0001010   1.2455764  )
        23           Cu  tau(  23) = (   0.5000000   0.2308938   1.2456746  )
        24           Cu  tau(  24) = (   0.7500108  -0.0001010   1.2455764  )
        25           Cu  tau(  25) = (   0.0000000   0.6929786   1.2456406  )
        26           Cu  tau(  26) = (   0.2499874   0.4619293   1.2457459  )
        27           Cu  tau(  27) = (   0.5000000   0.6929012   1.2456074  )
        28           Cu  tau(  28) = (   0.7500126   0.4619293   1.2457459  )
        29           Cu  tau(  29) = (   0.0000000   1.1546142   1.2455676  )
        30           Cu  tau(  30) = (   0.2499981   0.9237849   1.2455149  )
        31           Cu  tau(  31) = (   0.5000000   1.1545763   1.2455800  )
        32           Cu  tau(  32) = (   0.7500019   0.9237849   1.2455149  )
        33           Cu  tau(  33) = (   0.0000000   1.6166029   1.2456910  )
        34           Cu  tau(  34) = (   0.2500161   1.3855492   1.2457134  )
        35           Cu  tau(  35) = (   0.5000000   1.6166555   1.2458019  )
        36           Cu  tau(  36) = (   0.7499839   1.3855492   1.2457134  )
        37           Cu  tau(  37) = (   0.0000000   2.0784993   1.2455162  )
        38           Cu  tau(  38) = (   0.2500161   1.8476387   1.2456210  )
        39           Cu  tau(  39) = (   0.5000000   2.0784755   1.2455152  )
        40           Cu  tau(  40) = (   0.7499839   1.8476387   1.2456210  )
        41           Cu  tau(  41) = (   0.0000000  -0.0003182   1.4954305  )
        42           Cu  tau(  42) = (   0.2500224   0.2307186   1.4951678  )
        43           Cu  tau(  43) = (   0.5000000  -0.0002059   1.4952775  )
        44           Cu  tau(  44) = (   0.7499776   0.2307186   1.4951678  )
        45           Cu  tau(  45) = (   0.0000000   0.4620254   1.4950571  )
        46           Cu  tau(  46) = (   0.2500339   0.6931225   1.4952807  )
        47           Cu  tau(  47) = (   0.5000000   0.4619896   1.4952144  )
        48           Cu  tau(  48) = (   0.7499661   0.6931225   1.4952807  )
        49           Cu  tau(  49) = (   0.0000000   0.9238798   1.4954544  )
        50           Cu  tau(  50) = (   0.2499708   1.1544329   1.4953374  )
        51           Cu  tau(  51) = (   0.5000000   0.9237633   1.4954072  )
        52           Cu  tau(  52) = (   0.7500292   1.1544329   1.4953374  )
        53           Cu  tau(  53) = (   0.0000000   1.3854453   1.4952066  )
        54           Cu  tau(  54) = (   0.2499861   1.6167017   1.4951298  )
        55           Cu  tau(  55) = (   0.5000000   1.3853760   1.4951346  )
        56           Cu  tau(  56) = (   0.7500139   1.6167017   1.4951298  )
        57           Cu  tau(  57) = (   0.0000000   1.8477718   1.4952308  )
        58           Cu  tau(  58) = (   0.2499930   2.0785254   1.4954090  )
        59           Cu  tau(  59) = (   0.5000000   1.8478762   1.4953503  )
        60           Cu  tau(  60) = (   0.7500070   2.0785254   1.4954090  )
        61           Cu  tau(  61) = (   0.0000000   0.2310733   1.7440777  )
        62           Cu  tau(  62) = (   0.2501089  -0.0001294   1.7450479  )
        63           Cu  tau(  63) = (   0.5000000   0.2306045   1.7445985  )
        64           Cu  tau(  64) = (   0.7498911  -0.0001294   1.7450479  )
        65           Cu  tau(  65) = (   0.0000000   0.6927994   1.7446059  )
        66           Cu  tau(  66) = (   0.2502918   0.4619532   1.7441197  )
        67           Cu  tau(  67) = (   0.5000000   0.6931011   1.7451318  )
        68           Cu  tau(  68) = (   0.7497082   0.4619532   1.7441197  )
        69           Cu  tau(  69) = (   0.0000000   1.1545789   1.7453503  )
        70           Cu  tau(  70) = (   0.2500220   0.9237908   1.7453835  )
        71           Cu  tau(  71) = (   0.5000000   1.1545999   1.7449118  )
        72           Cu  tau(  72) = (   0.7499780   0.9237908   1.7453835  )
        73           Cu  tau(  73) = (   0.0000000   1.6167791   1.7444075  )
        74           Cu  tau(  74) = (   0.2497438   1.3855115   1.7442733  )
        75           Cu  tau(  75) = (   0.5000000   1.6164906   1.7439233  )
        76           Cu  tau(  76) = (   0.7502562   1.3855115   1.7442733  )
        77           Cu  tau(  77) = (   0.0000000   2.0782721   1.7455014  )
        78           Cu  tau(  78) = (   0.2498426   1.8476765   1.7447807  )
        79           Cu  tau(  79) = (   0.5000000   2.0787016   1.7454002  )
        80           Cu  tau(  80) = (   0.7501574   1.8476765   1.7447807  )
        81           Cu  tau(  81) = (   0.0000000   0.0010732   1.9906710  )
        82           Cu  tau(  82) = (   0.2503054   0.2314650   1.9904877  )
        83           Cu  tau(  83) = (   0.5000000   0.0001335   1.9924670  )
        84           Cu  tau(  84) = (   0.7496946   0.2314650   1.9904877  )
        85           Cu  tau(  85) = (   0.0000000   0.4618379   1.9901778  )
        86           Cu  tau(  86) = (   0.2508441   0.6921348   1.9910282  )
        87           Cu  tau(  87) = (   0.5000000   0.4613052   1.9913358  )
        88           Cu  tau(  88) = (   0.7491559   0.6921348   1.9910282  )
        89           Cu  tau(  89) = (   0.0000000   0.9224699   1.9915918  )
        90           Cu  tau(  90) = (   0.2491275   1.1552920   1.9912642  )
        91           Cu  tau(  91) = (   0.5000000   0.9247757   1.9920574  )
        92           Cu  tau(  92) = (   0.7508725   1.1552920   1.9912642  )
        93           Cu  tau(  93) = (   0.0000000   1.3865904   1.9916296  )
        94           Cu  tau(  94) = (   0.2499532   1.6162906   1.9903050  )
        95           Cu  tau(  95) = (   0.5000000   1.3858063   1.9901800  )
        96           Cu  tau(  96) = (   0.7500468   1.6162906   1.9903050  )
        97           Cu  tau(  97) = (   0.0000000   1.8468318   1.9923212  )
        98           Cu  tau(  98) = (   0.2497561   2.0783183   1.9915134  )
        99           Cu  tau(  99) = (   0.5000000   1.8467805   1.9903847  )
       100           Cu  tau( 100) = (   0.7502439   2.0783183   1.9915134  )
       101           C   tau( 101) = (   0.0000000   0.0962962   2.3888871  )
       102           C   tau( 102) = (   0.0000000   0.2886925   2.3900713  )
       103           C   tau( 103) = (   0.1666323   0.0000435   2.3878440  )
       104           C   tau( 104) = (   0.1664900   0.3848966   2.3886743  )
       105           C   tau( 105) = (   0.3331238   0.0962174   2.3860158  )
       106           C   tau( 106) = (   0.3331280   0.2886629   2.3856823  )
       107           C   tau( 107) = (   0.5000000  -0.0000818   2.3845687  )
       108           C   tau( 108) = (   0.5000000   0.3849277   2.3842391  )
       109           C   tau( 109) = (   0.6668762   0.0962174   2.3860158  )
       110           C   tau( 110) = (   0.6668720   0.2886629   2.3856823  )
       111           C   tau( 111) = (   0.8333677   0.0000435   2.3878440  )
       112           C   tau( 112) = (   0.8335100   0.3848966   2.3886743  )
       113           C   tau( 113) = (   0.0000000   0.6735163   2.3892509  )
       114           C   tau( 114) = (   0.0000000   0.8659398   2.3870960  )
       115           C   tau( 115) = (   0.1664759   0.5773226   2.3882842  )
       116           C   tau( 116) = (   0.1667428   0.9622141   2.3870264  )
       117           C   tau( 117) = (   0.3332094   0.6735984   2.3858047  )
       118           C   tau( 118) = (   0.3332031   0.8660537   2.3866148  )
       119           C   tau( 119) = (   0.5000000   0.5773685   2.3848465  )
       120           C_h tau( 120) = (   0.5000000   0.9623380   2.3860825  )
       121           C   tau( 121) = (   0.6667906   0.6735984   2.3858047  )
       122           C   tau( 122) = (   0.6667969   0.8660537   2.3866148  )
       123           C   tau( 123) = (   0.8335241   0.5773226   2.3882842  )
       124           C   tau( 124) = (   0.8332572   0.9622141   2.3870264  )
       125           C   tau( 125) = (   0.0000000   1.2508867   2.3852683  )
       126           C   tau( 126) = (   0.0000000   1.4433300   2.3840871  )
       127           C   tau( 127) = (   0.1667360   1.1546708   2.3859697  )
       128           C   tau( 128) = (   0.1668939   1.5396104   2.3857176  )
       129           C   tau( 129) = (   0.3335095   1.2509657   2.3878953  )
       130           C   tau( 130) = (   0.3334866   1.4433958   2.3886602  )
       131           C   tau( 131) = (   0.5000000   1.1547731   2.3885512  )
       132           C   tau( 132) = (   0.5000000   1.5396099   2.3901428  )
       133           C   tau( 133) = (   0.6664905   1.2509657   2.3878953  )
       134           C   tau( 134) = (   0.6665134   1.4433958   2.3886602  )
       135           C   tau( 135) = (   0.8332640   1.1546708   2.3859697  )
       136           C   tau( 136) = (   0.8331061   1.5396104   2.3857176  )
       137           C   tau( 137) = (   0.0000000   1.8283510   2.3842019  )
       138           C   tau( 138) = (   0.0000000   2.0207949   2.3863399  )
       139           C   tau( 139) = (   0.1668959   1.7320513   2.3858703  )
       140           C   tau( 140) = (   0.1666186   2.1169980   2.3865340  )
       141           C   tau( 141) = (   0.3334155   1.8282368   2.3882160  )
       142           C   tau( 142) = (   0.3334352   2.0206763   2.3869561  )
       143           C   tau( 143) = (   0.5000000   1.7319961   2.3895398  )
       144           C   tau( 144) = (   0.5000000   2.1168754   2.3870198  )
       145           C   tau( 145) = (   0.6665845   1.8282368   2.3882160  )
       146           C   tau( 146) = (   0.6665648   2.0206763   2.3869561  )
       147           C   tau( 147) = (   0.8331041   1.7320513   2.3858703  )
       148           C   tau( 148) = (   0.8333814   2.1169980   2.3865340  )

     number of k points=     6  gaussian smearing, width (Ry)=  0.1000
                       cart. coord. in units 2pi/alat
        k(    1) = (   0.0000000   0.0000000   0.0000000), wk =   0.2500000
        k(    2) = (   0.0000000  -0.2165064   0.0000000), wk =   0.2500000
        k(    3) = (   0.2500000   0.0000000   0.0000000), wk =   0.5000000
        k(    4) = (   0.2500000  -0.2165064   0.0000000), wk =   0.5000000
        k(    5) = (  -0.5000000   0.0000000   0.0000000), wk =   0.2500000
        k(    6) = (  -0.5000000  -0.2165064   0.0000000), wk =   0.2500000

     Dense  grid:  2050409 G-vectors     FFT dimensions: (  80, 192, 270)

     Largest allocated arrays     est. size (Mb)     dimensions
        Kohn-Sham Wavefunctions        47.35 Mb     (    4004,  775)
        NL pseudopotentials           112.91 Mb     (    4004, 1848)
        Each V/rho on FFT grid          1.17 Mb     (   76800)
        Each G-vector array             0.24 Mb     (   32034)
        G-vector shells                 0.12 Mb     (   15554)
     Largest temporary arrays     est. size (Mb)     dimensions
        Auxiliary wavefunctions       189.40 Mb     (    4004, 3100)
        Each subspace H/S matrix        5.87 Mb     (     620,  620)
        Each <psi_i|beta_j> matrix     21.85 Mb     (    1848,  775)
        Arrays for rho mixing           9.38 Mb     (   76800,    8)

     Initial potential from superposition of free atoms
     Check: negative starting charge=   -0.001842

     starting charge 1266.81751, renormalised to 1292.00000

     negative rho (up, down):  1.879E-03 0.000E+00
     Starting wfc are 1284 randomized atomic wfcs

     total cpu time spent up to now is      152.3 secs

     Self-consistent Calculation

     iteration #  1     ecut=    80.00 Ry     beta=0.70
     Davidson diagonalization with overlap
     c_bands:  3 eigenvalues not converged
     c_bands:  1 eigenvalues not converged
     ethr =  1.00E-04,  avg # of iterations = 36.5

     negative rho (up, down):  2.723E+01 0.000E+00

     total cpu time spent up to now is     3022.3 secs

     total energy              =   -9476.27187274 Ry
     Harris-Foulkes estimate   =  -17310.57635095 Ry
     estimated scf accuracy    <  180103.79797258 Ry

     iteration #  2     ecut=    80.00 Ry     beta=0.70
     Davidson diagonalization with overlap
     ethr =  1.00E-02,  avg # of iterations = 12.2

     negative rho (up, down):  3.147E+01 0.000E+00

     total cpu time spent up to now is     4368.3 secs

     total energy              =  -12202.47980374 Ry
     Harris-Foulkes estimate   =  -13665.59489730 Ry
     estimated scf accuracy    <   24000.45833827 Ry

     iteration #  3     ecut=    80.00 Ry     beta=0.70
     Davidson diagonalization with overlap
     ethr =  1.00E-02,  avg # of iterations =  7.7

     negative rho (up, down):  3.203E+01 0.000E+00

     total cpu time spent up to now is     5146.6 secs

     total energy              =  -12463.05857404 Ry
     Harris-Foulkes estimate   =  -13406.52814339 Ry
     estimated scf accuracy    <    5803.73167704 Ry

     iteration #  4     ecut=    80.00 Ry     beta=0.70
     Davidson diagonalization with overlap
     ethr =  1.00E-02,  avg # of iterations =  5.8

     negative rho (up, down):  2.377E+01 0.000E+00

     total cpu time spent up to now is     5861.9 secs

     total energy              =  -12847.76936245 Ry
     Harris-Foulkes estimate   =  -13083.60493954 Ry
     estimated scf accuracy    <    1746.53512275 Ry

     iteration #  5     ecut=    80.00 Ry     beta=0.70
     Davidson diagonalization with overlap
     ethr =  1.00E-02,  avg # of iterations =  3.5

     negative rho (up, down):  1.866E+01 0.000E+00

     total cpu time spent up to now is     6244.7 secs

     total energy              =  -12845.79347927 Ry
     Harris-Foulkes estimate   =  -12960.24898937 Ry
     estimated scf accuracy    <    1297.82958486 Ry

     iteration #  6     ecut=    80.00 Ry     beta=0.70
     Davidson diagonalization with overlap
     ethr =  1.00E-02,  avg # of iterations =  2.7

     negative rho (up, down):  1.297E+01 0.000E+00

     total cpu time spent up to now is     6534.6 secs

     total energy              =  -12834.12651402 Ry
     Harris-Foulkes estimate   =  -12908.46608995 Ry
     estimated scf accuracy    <     572.39688387 Ry

     iteration #  7     ecut=    80.00 Ry     beta=0.70
     Davidson diagonalization with overlap
     ethr =  1.00E-02,  avg # of iterations =  2.0

     negative rho (up, down):  9.431E+00 0.000E+00

     total cpu time spent up to now is     6790.7 secs

     total energy              =  -12810.88033712 Ry
     Harris-Foulkes estimate   =  -12852.48644428 Ry
     estimated scf accuracy    <     452.01306752 Ry

     iteration #  8     ecut=    80.00 Ry     beta=0.70
     Davidson diagonalization with overlap
     ethr =  1.00E-02,  avg # of iterations =  2.2

     negative rho (up, down):  7.262E+00 0.000E+00

     total cpu time spent up to now is     7042.7 secs

     total energy              =  -12788.15862474 Ry
     Harris-Foulkes estimate   =  -12825.19254016 Ry
     estimated scf accuracy    <     474.28258186 Ry

     iteration #  9     ecut=    80.00 Ry     beta=0.70
     Davidson diagonalization with overlap
     ethr =  1.00E-02,  avg # of iterations =  1.7

     negative rho (up, down):  5.561E+00 0.000E+00

     total cpu time spent up to now is     7285.8 secs

     total energy              =  -12781.12998037 Ry
     Harris-Foulkes estimate   =  -12800.12712890 Ry
     estimated scf accuracy    <     190.74783938 Ry

     iteration # 10     ecut=    80.00 Ry     beta=0.70
     Davidson diagonalization with overlap
     ethr =  1.00E-02,  avg # of iterations =  1.3

     negative rho (up, down):  1.169E+00 0.000E+00

     total cpu time spent up to now is     7523.5 secs

     total energy              =  -12735.43751244 Ry
     Harris-Foulkes estimate   =  -12782.66669237 Ry
     estimated scf accuracy    <     149.50933499 Ry

     iteration # 11     ecut=    80.00 Ry     beta=0.70
     Davidson diagonalization with overlap
     ethr =  1.00E-02,  avg # of iterations =  2.8

     negative rho (up, down):  9.388E-01 0.000E+00

     total cpu time spent up to now is     7785.6 secs

     total energy              =  -12727.12926788 Ry
     Harris-Foulkes estimate   =  -12744.77253182 Ry
     estimated scf accuracy    <     331.68919425 Ry

     iteration # 12     ecut=    80.00 Ry     beta=0.70
     Davidson diagonalization with overlap
     ethr =  1.00E-02,  avg # of iterations =  2.0

     negative rho (up, down):  5.871E-01 0.000E+00

     total cpu time spent up to now is     8034.6 secs

     total energy              =  -12723.74419346 Ry
     Harris-Foulkes estimate   =  -12737.43872537 Ry
     estimated scf accuracy    <     203.40924777 Ry

     iteration # 13     ecut=    80.00 Ry     beta=0.70
     Davidson diagonalization with overlap
     ethr =  1.00E-02,  avg # of iterations =  2.0

     negative rho (up, down):  3.059E+00 0.000E+00

     total cpu time spent up to now is     8283.2 secs

     total energy              =  -12715.60886180 Ry
     Harris-Foulkes estimate   =  -12733.66549961 Ry
     estimated scf accuracy    <     131.97010574 Ry

     iteration # 14     ecut=    80.00 Ry     beta=0.70
     Davidson diagonalization with overlap
     ethr =  1.00E-02,  avg # of iterations =  2.0

     negative rho (up, down):  5.775E+00 0.000E+00

     total cpu time spent up to now is     8533.5 secs

     total energy              =  -12718.74706177 Ry
     Harris-Foulkes estimate   =  -12724.40797003 Ry
     estimated scf accuracy    <      47.05869659 Ry

     iteration # 15     ecut=    80.00 Ry     beta=0.70
     Davidson diagonalization with overlap
     ethr =  3.64E-03,  avg # of iterations =  2.2

     negative rho (up, down):  5.537E+00 0.000E+00

     total cpu time spent up to now is     8785.3 secs

     total energy              =  -12715.98157728 Ry
     Harris-Foulkes estimate   =  -12720.21777275 Ry
     estimated scf accuracy    <      31.95056911 Ry

     iteration # 16     ecut=    80.00 Ry     beta=0.70
     Davidson diagonalization with overlap
     ethr =  2.47E-03,  avg # of iterations =  3.0

     negative rho (up, down):  4.941E+00 0.000E+00

     total cpu time spent up to now is     9048.1 secs

     total energy              =  -12714.06981458 Ry
     Harris-Foulkes estimate   =  -12716.93581066 Ry
     estimated scf accuracy    <      21.19017020 Ry

     iteration # 17     ecut=    80.00 Ry     beta=0.70
     Davidson diagonalization with overlap
     ethr =  1.64E-03,  avg # of iterations =  4.5

     negative rho (up, down):  4.842E+00 0.000E+00

     total cpu time spent up to now is     9336.7 secs

     total energy              =  -12713.62796141 Ry
     Harris-Foulkes estimate   =  -12714.69721143 Ry
     estimated scf accuracy    <      12.62091337 Ry

     iteration # 18     ecut=    80.00 Ry     beta=0.70
     Davidson diagonalization with overlap
     ethr =  9.77E-04,  avg # of iterations =  6.0

     negative rho (up, down):  4.223E+00 0.000E+00

     total cpu time spent up to now is     9648.9 secs

     total energy              =  -12712.84607780 Ry
     Harris-Foulkes estimate   =  -12714.41085780 Ry
     estimated scf accuracy    <      10.51208764 Ry

     iteration # 19     ecut=    80.00 Ry     beta=0.70
     Davidson diagonalization with overlap
     ethr =  8.14E-04,  avg # of iterations =  4.3

     negative rho (up, down):  3.579E+00 0.000E+00

     total cpu time spent up to now is     9933.9 secs

     total energy              =  -12712.02769054 Ry
     Harris-Foulkes estimate   =  -12713.12692058 Ry
     estimated scf accuracy    <       7.81962491 Ry

     iteration # 20     ecut=    80.00 Ry     beta=0.70
     Davidson diagonalization with overlap
     ethr =  6.05E-04,  avg # of iterations =  3.7

     negative rho (up, down):  2.802E+00 0.000E+00

     total cpu time spent up to now is    10209.7 secs

     total energy              =  -12711.30946548 Ry
     Harris-Foulkes estimate   =  -12712.34688669 Ry
     estimated scf accuracy    <      15.56335029 Ry

     iteration # 21     ecut=    80.00 Ry     beta=0.70
     Davidson diagonalization with overlap
     ethr =  6.05E-04,  avg # of iterations =  1.0

     negative rho (up, down):  2.226E+00 0.000E+00

     total cpu time spent up to now is    10443.0 secs

     total energy              =  -12710.34666766 Ry
     Harris-Foulkes estimate   =  -12711.82104536 Ry
     estimated scf accuracy    <       7.76261327 Ry

     iteration # 22     ecut=    80.00 Ry     beta=0.70
     Davidson diagonalization with overlap
     ethr =  6.01E-04,  avg # of iterations =  1.0

     negative rho (up, down):  1.384E+00 0.000E+00

     total cpu time spent up to now is    10677.3 secs

     total energy              =  -12709.26890923 Ry
     Harris-Foulkes estimate   =  -12710.55376348 Ry
     estimated scf accuracy    <       5.76072228 Ry

     iteration # 23     ecut=    80.00 Ry     beta=0.70
     Davidson diagonalization with overlap
     ethr =  4.46E-04,  avg # of iterations =  1.0

     negative rho (up, down):  5.664E-01 0.000E+00

     total cpu time spent up to now is    10913.2 secs

     total energy              =  -12708.21270874 Ry
     Harris-Foulkes estimate   =  -12709.49185331 Ry
     estimated scf accuracy    <       7.69542259 Ry

     iteration # 24     ecut=    80.00 Ry     beta=0.70
     Davidson diagonalization with overlap
     ethr =  4.46E-04,  avg # of iterations =  2.7

     negative rho (up, down):  9.796E-02 0.000E+00

     total cpu time spent up to now is    11173.7 secs

     total energy              =  -12707.04174275 Ry
     Harris-Foulkes estimate   =  -12708.49363013 Ry
     estimated scf accuracy    <      28.04141262 Ry

     iteration # 25     ecut=    80.00 Ry     beta=0.70
     Davidson diagonalization with overlap
     c_bands:  2 eigenvalues not converged
     ethr =  4.46E-04,  avg # of iterations = 11.8

     negative rho (up, down):  2.361E-01 0.000E+00

     total cpu time spent up to now is    11578.2 secs

     total energy              =  -12707.63368859 Ry
     Harris-Foulkes estimate   =  -12708.08722496 Ry
     estimated scf accuracy    <       1.93698361 Ry

     iteration # 26     ecut=    80.00 Ry     beta=0.70
     Davidson diagonalization with overlap
     ethr =  1.50E-04,  avg # of iterations =  9.8

     negative rho (up, down):  6.393E-01 0.000E+00

     total cpu time spent up to now is    11949.7 secs

     total energy              =  -12707.44372494 Ry
     Harris-Foulkes estimate   =  -12707.71208465 Ry
     estimated scf accuracy    <       1.64958640 Ry

     iteration # 27     ecut=    80.00 Ry     beta=0.70
     Davidson diagonalization with overlap
     ethr =  1.28E-04,  avg # of iterations =  6.3

     negative rho (up, down):  3.809E-01 0.000E+00

     total cpu time spent up to now is    12267.1 secs

     total energy              =  -12707.23755111 Ry
     Harris-Foulkes estimate   =  -12707.47383987 Ry
     estimated scf accuracy    <       1.04277012 Ry

     iteration # 28     ecut=    80.00 Ry     beta=0.70
     Davidson diagonalization with overlap
     ethr =  8.07E-05,  avg # of iterations = 11.0

     negative rho (up, down):  2.456E-01 0.000E+00

     total cpu time spent up to now is    12666.2 secs

     total energy              =  -12707.09677883 Ry
     Harris-Foulkes estimate   =  -12707.28281702 Ry
     estimated scf accuracy    <       0.74806964 Ry

     iteration # 29     ecut=    80.00 Ry     beta=0.70
     Davidson diagonalization with overlap
     ethr =  5.79E-05,  avg # of iterations =  8.8

     negative rho (up, down):  3.569E-02 0.000E+00

     total cpu time spent up to now is    13068.4 secs

     total energy              =  -12707.13856467 Ry
     Harris-Foulkes estimate   =  -12707.17415302 Ry
     estimated scf accuracy    <       0.68620379 Ry

     iteration # 30     ecut=    80.00 Ry     beta=0.70
     Davidson diagonalization with overlap
     ethr =  5.31E-05,  avg # of iterations =  3.3

     negative rho (up, down):  2.737E-02 0.000E+00

     total cpu time spent up to now is    13343.9 secs

     total energy              =  -12707.14204387 Ry
     Harris-Foulkes estimate   =  -12707.15547068 Ry
     estimated scf accuracy    <       0.26539869 Ry

     iteration # 31     ecut=    80.00 Ry     beta=0.70
     Davidson diagonalization with overlap
     ethr =  2.05E-05,  avg # of iterations =  3.7

     negative rho (up, down):  4.543E-02 0.000E+00

     total cpu time spent up to now is    13623.7 secs

     total energy              =  -12707.14048377 Ry
     Harris-Foulkes estimate   =  -12707.15246590 Ry
     estimated scf accuracy    <       0.15008708 Ry

     iteration # 32     ecut=    80.00 Ry     beta=0.70
     Davidson diagonalization with overlap
     ethr =  1.16E-05,  avg # of iterations =  3.2

     negative rho (up, down):  3.931E-02 0.000E+00

     total cpu time spent up to now is    13894.5 secs

     total energy              =  -12707.14081864 Ry
     Harris-Foulkes estimate   =  -12707.14524569 Ry
     estimated scf accuracy    <       0.03263479 Ry

     iteration # 33     ecut=    80.00 Ry     beta=0.70
     Davidson diagonalization with overlap
     c_bands:  2 eigenvalues not converged
     c_bands:  1 eigenvalues not converged
     ethr =  2.53E-06,  avg # of iterations = 12.7

     negative rho (up, down):  3.304E-02 0.000E+00

     total cpu time spent up to now is    14332.5 secs

     total energy              =  -12707.14194133 Ry
     Harris-Foulkes estimate   =  -12707.14372773 Ry
     estimated scf accuracy    <       0.01062160 Ry

     iteration # 34     ecut=    80.00 Ry     beta=0.70
     Davidson diagonalization with overlap
     ethr =  8.22E-07,  avg # of iterations =  6.7

     negative rho (up, down):  7.820E-03 0.000E+00

     total cpu time spent up to now is    14663.7 secs

     total energy              =  -12707.14227958 Ry
     Harris-Foulkes estimate   =  -12707.14291144 Ry
     estimated scf accuracy    <       0.00455050 Ry

     iteration # 35     ecut=    80.00 Ry     beta=0.70
     Davidson diagonalization with overlap
     ethr =  3.52E-07,  avg # of iterations =  7.8

     negative rho (up, down):  3.496E-03 0.000E+00

     total cpu time spent up to now is    15035.7 secs

     total energy              =  -12707.14269377 Ry
     Harris-Foulkes estimate   =  -12707.14269539 Ry
     estimated scf accuracy    <       0.00079995 Ry

     iteration # 36     ecut=    80.00 Ry     beta=0.70
     Davidson diagonalization with overlap
     ethr =  6.19E-08,  avg # of iterations =  5.3

     negative rho (up, down):  1.661E-03 0.000E+00

     total cpu time spent up to now is    15348.5 secs

     total energy              =  -12707.14288439 Ry
     Harris-Foulkes estimate   =  -12707.14274645 Ry
     estimated scf accuracy    <       0.00026704 Ry

     iteration # 37     ecut=    80.00 Ry     beta=0.70
     Davidson diagonalization with overlap
     ethr =  2.07E-08,  avg # of iterations =  8.3

     negative rho (up, down):  1.178E-03 0.000E+00

     total cpu time spent up to now is    15713.6 secs

     total energy              =  -12707.14303536 Ry
     Harris-Foulkes estimate   =  -12707.14290022 Ry
     estimated scf accuracy    <       0.00005697 Ry

     iteration # 38     ecut=    80.00 Ry     beta=0.70
     Davidson diagonalization with overlap
     c_bands:  1 eigenvalues not converged
     ethr =  4.41E-09,  avg # of iterations =  7.3

     negative rho (up, down):  1.535E-03 0.000E+00

     total cpu time spent up to now is    16075.2 secs

     total energy              =  -12707.14307685 Ry
     Harris-Foulkes estimate   =  -12707.14304079 Ry
     estimated scf accuracy    <       0.00002951 Ry

     iteration # 39     ecut=    80.00 Ry     beta=0.70
     Davidson diagonalization with overlap
     ethr =  2.28E-09,  avg # of iterations =  5.0

     negative rho (up, down):  2.032E-03 0.000E+00

     total cpu time spent up to now is    16378.9 secs

     total energy              =  -12707.14308645 Ry
     Harris-Foulkes estimate   =  -12707.14307912 Ry
     estimated scf accuracy    <       0.00001062 Ry

     iteration # 40     ecut=    80.00 Ry     beta=0.70
     Davidson diagonalization with overlap
     ethr =  8.22E-10,  avg # of iterations =  4.0

     negative rho (up, down):  2.724E-03 0.000E+00

     total cpu time spent up to now is    16677.9 secs

     total energy              =  -12707.14308838 Ry
     Harris-Foulkes estimate   =  -12707.14308720 Ry
     estimated scf accuracy    <       0.00000555 Ry

     iteration # 41     ecut=    80.00 Ry     beta=0.70
     Davidson diagonalization with overlap
     ethr =  4.30E-10,  avg # of iterations =  2.8

     negative rho (up, down):  2.534E-03 0.000E+00

     total cpu time spent up to now is    16955.8 secs

     total energy              =  -12707.14308752 Ry
     Harris-Foulkes estimate   =  -12707.14308892 Ry
     estimated scf accuracy    <       0.00000314 Ry

     iteration # 42     ecut=    80.00 Ry     beta=0.70
     Davidson diagonalization with overlap
     ethr =  2.43E-10,  avg # of iterations =  2.0

     negative rho (up, down):  2.408E-03 0.000E+00

     total cpu time spent up to now is    17236.3 secs

     total energy              =  -12707.14308781 Ry
     Harris-Foulkes estimate   =  -12707.14308815 Ry
     estimated scf accuracy    <       0.00000224 Ry

     iteration # 43     ecut=    80.00 Ry     beta=0.70
     Davidson diagonalization with overlap
     ethr =  1.73E-10,  avg # of iterations =  2.0

     negative rho (up, down):  2.348E-03 0.000E+00

     total cpu time spent up to now is    17494.5 secs

     total energy              =  -12707.14308808 Ry
     Harris-Foulkes estimate   =  -12707.14308801 Ry
     estimated scf accuracy    <       0.00000033 Ry

     iteration # 44     ecut=    80.00 Ry     beta=0.70
     Davidson diagonalization with overlap
     ethr =  2.59E-11,  avg # of iterations =  2.7

     negative rho (up, down):  2.229E-03 0.000E+00

     total cpu time spent up to now is    17769.9 secs

     total energy              =  -12707.14308819 Ry
     Harris-Foulkes estimate   =  -12707.14308811 Ry
     estimated scf accuracy    <       0.00000012 Ry

     iteration # 45     ecut=    80.00 Ry     beta=0.70
     Davidson diagonalization with overlap
     ethr =  9.48E-12,  avg # of iterations =  3.0

     negative rho (up, down):  2.169E-03 0.000E+00

     total cpu time spent up to now is    18043.0 secs

     total energy              =  -12707.14308825 Ry
     Harris-Foulkes estimate   =  -12707.14308820 Ry
     estimated scf accuracy    <       0.00000003 Ry

     iteration # 46     ecut=    80.00 Ry     beta=0.70
     Davidson diagonalization with overlap
     ethr =  2.21E-12,  avg # of iterations =  2.8

     negative rho (up, down):  2.139E-03 0.000E+00

     total cpu time spent up to now is    18334.6 secs

     total energy              =  -12707.14308828 Ry
     Harris-Foulkes estimate   =  -12707.14308825 Ry
     estimated scf accuracy    <       0.00000002 Ry

     iteration # 47     ecut=    80.00 Ry     beta=0.70
     Davidson diagonalization with overlap
     ethr =  1.74E-12,  avg # of iterations =  2.0

     negative rho (up, down):  2.115E-03 0.000E+00

     total cpu time spent up to now is    18583.5 secs

     End of self-consistent calculation

          k = 0.0000 0.0000 0.0000 (256287 PWs)   bands (ev):

   -17.2882 -16.2342 -16.0876 -15.4319 -15.0438 -14.7912 -14.6915 -14.2524
   -14.1990 -14.1387 -14.1245 -13.4681 -13.3234 -13.1544 -13.1223 -13.0877
   -13.0791 -11.6692 -11.5334 -11.4879 -11.3886 -11.2058 -10.3535  -9.7703
    -9.7609  -9.6272  -9.5233  -8.9876  -8.8000  -8.6764  -8.5999  -8.0486
    -7.9026  -7.7623  -7.6419  -7.5791  -7.5754  -7.5356  -7.5219  -6.3591
    -6.3509  -6.1272  -6.0214  -6.0183  -5.9506  -5.8892  -5.8595  -5.8439
    -5.4987  -5.4850  -5.3073  -4.8936  -4.8392  -4.8004  -4.6366  -4.6215
    -4.5832  -4.4250  -4.2581  -4.1472  -3.9895  -3.9878  -3.9702  -3.9473
    -3.6178  -3.5512  -3.5315  -3.5262  -3.4209  -3.4178  -3.4076  -3.4000
    -3.2768  -3.1867  -3.1219  -3.0620  -3.0156  -3.0078  -3.0071  -3.0067
    -2.9915  -2.8586  -2.8350  -2.7994  -2.7813  -2.7425  -2.7418  -2.7396
    -2.7178  -2.7139  -2.5339  -2.4329  -2.3776  -2.3764  -2.3389  -2.3361
    -2.1947  -2.1921  -2.1807  -2.1777  -2.1521  -2.1519  -2.1519  -2.1518
    -2.1126  -2.0783  -2.0775  -2.0354  -2.0213  -2.0210  -2.0210  -2.0207
    -1.9610  -1.8418  -1.7771  -1.7450  -1.7388  -1.7379  -1.7377  -1.7027
    -1.6930  -1.6717  -1.6584  -1.6568  -1.6122  -1.6019  -1.5899  -1.5711
    -1.5647  -1.5631  -1.5607  -1.5510  -1.5396  -1.5351  -1.5347  -1.5155
    -1.5141  -1.4589  -1.4415  -1.4305  -1.4156  -1.3839  -1.3795  -1.3770
    -1.3716  -1.3529  -1.2989  -1.2904  -1.2635  -1.2621  -1.2508  -1.2116
    -1.2113  -1.1918  -1.1897  -1.1744  -1.1670  -1.1641  -1.1262  -1.1206
    -1.1086  -1.1078  -1.0494  -1.0469  -1.0356  -1.0293  -1.0271  -1.0248
    -1.0246  -1.0221  -1.0207  -1.0158  -1.0155  -0.9982  -0.9952  -0.9813
    -0.9518  -0.9406  -0.9380  -0.9348  -0.9234  -0.9190  -0.9180  -0.9172
    -0.8942  -0.8612  -0.8575  -0.8574  -0.8563  -0.8556  -0.8546  -0.8538
    -0.8527  -0.8525  -0.8506  -0.8483  -0.8482  -0.8480  -0.8458  -0.8426
    -0.8413  -0.8331  -0.8297  -0.8292  -0.8219  -0.7857  -0.6898  -0.6896
    -0.6857  -0.6830  -0.6829  -0.6603  -0.6585  -0.6415  -0.6413  -0.6201
    -0.6196  -0.6059  -0.6043  -0.6029  -0.6024  -0.5878  -0.5644  -0.5638
    -0.5618  -0.5613  -0.5539  -0.5530  -0.5423  -0.5420  -0.4921  -0.4921
    -0.4382  -0.4379  -0.4277  -0.4260  -0.4258  -0.4244  -0.4106  -0.4104
    -0.4048  -0.4048  -0.4046  -0.4041  -0.3999  -0.3998  -0.3862  -0.3851
    -0.3850  -0.3773  -0.3749  -0.3749  -0.3511  -0.3505  -0.2994  -0.2984
    -0.2966  -0.2911  -0.2909  -0.2644  -0.2644  -0.2644  -0.2644  -0.2494
    -0.2475  -0.2468  -0.2425  -0.2424  -0.2246  -0.2210  -0.2196  -0.2193
    -0.2150  -0.2145  -0.2144  -0.2141  -0.2117  -0.2087  -0.1925  -0.1901
    -0.1894  -0.1881  -0.1875  -0.1684  -0.1211  -0.1203  -0.1182  -0.1180
    -0.1154  -0.0731  -0.0724  -0.0697  -0.0683  -0.0683  -0.0624  -0.0621
    -0.0618  -0.0618  -0.0616  -0.0538  -0.0473  -0.0345  -0.0115  -0.0086
    -0.0081  -0.0077   0.0010   0.0197   0.0207   0.0212   0.0217   0.0265
     0.0303   0.0454   0.0461   0.0477   0.0479   0.0485   0.0493   0.0617
     0.0637   0.0638   0.0640   0.0694   0.0757   0.0772   0.0775   0.0984
     0.1023   0.1174   0.1352   0.1358   0.1572   0.1643   0.1647   0.1892
     0.1935   0.2333   0.2377   0.2381   0.2387   0.2398   0.2432   0.2499
     0.2695   0.2733   0.2736   0.2738   0.2745   0.2839   0.2844   0.2941
     0.3264   0.3408   0.3408   0.3480   0.3498   0.3502   0.3502   0.3774
     0.3832   0.3833   0.3841   0.3843   0.4101   0.4148   0.4149   0.4223
     0.4229   0.4359   0.4369   0.4391   0.4405   0.4770   0.4792   0.4925
     0.4944   0.4968   0.4968   0.4973   0.5097   0.5211   0.5271   0.5304
     0.5331   0.5346   0.5355   0.5356   0.5374   0.5396   0.5468   0.5470
     0.5472   0.5540   0.5542   0.5559   0.5638   0.5640   0.5802   0.5957
     0.6057   0.6058   0.6161   0.6165   0.6488   0.6495   0.6498   0.6506
     0.6527   0.6528   0.6532   0.6540   0.6640   0.6652   0.6740   0.6784
     0.6791   0.6794   0.6805   0.6873   0.6876   0.6975   0.6978   0.7151
     0.7202   0.7206   0.7209   0.7301   0.7309   0.7329   0.7426   0.7451
     0.7462   0.7485   0.7485   0.7544   0.7562   0.7578   0.7585   0.7604
     0.7688   0.7738   0.8058   0.8060   0.8161   0.8175   0.8231   0.8243
     0.8246   0.8251   0.8556   0.8561   0.8697   0.8709   0.8762   0.8762
     0.8907   0.8911   0.9002   0.9003   0.9008   0.9021   0.9090   0.9219
     0.9369   0.9378   0.9393   0.9418   0.9425   0.9436   0.9607   0.9631
     0.9776   0.9854   0.9859   0.9934   0.9961   0.9971   1.0084   1.0096
     1.0108   1.0114   1.0129   1.0141   1.0146   1.0236   1.0268   1.0287
     1.0288   1.0289   1.0306   1.0438   1.0439   1.0622   1.0629   1.0645
     1.0649   1.0691   1.0737   1.1045   1.1052   1.1056   1.1064   1.1082
     1.1095   1.1117   1.1134   1.1180   1.1194   1.1196   1.1197   1.1198
     1.1220   1.1357   1.1360   1.1614   1.1663   1.1834   1.1839   1.1994
     1.2011   1.2016   1.2034   1.2044   1.2050   1.2062   1.2144   1.2233
     1.2256   1.2375   1.2379   1.2398   1.2402   1.2410   1.2449   1.2460
     1.2467   1.2549   1.2737   1.2745   1.2759   1.2765   1.2768   1.2774
     1.2784   1.2786   1.2943   1.2949   1.2960   1.3026   1.3102   1.3105
     1.3116   1.3118   1.3122   1.3216   1.3238   1.3246   1.3373   1.3445
     1.3508   1.3538   1.3545   1.3560   1.3563   1.3570   1.3593   1.3716
     1.3839   1.3867   1.3881   1.3930   1.4027   1.4160   1.4163   1.4225
     1.4227   1.4228   1.4281   1.4306   1.4312   1.4341   1.4344   1.4346
     1.4349   1.4369   1.4383   1.4457   1.4463   1.4502   1.4672   1.4674
     1.4683   1.4684   1.4719   1.4795   1.4806   1.4937   1.5044   1.5095
     1.5114   1.5207   1.5567   1.5574   1.5603   1.5612   1.5789   1.5798
     1.5799   1.5878   1.5908   1.6059   1.6292   1.6321   1.6325   1.6329
     1.6336   1.6432   1.6439   1.6441   1.8999   1.9559   2.1058   2.1080
     2.1482   2.1549   2.2005   2.2052   2.2064   2.2070   2.2193   2.2232
     2.2251   2.2259   2.3989   2.4016   2.4600   2.4651   2.4667   2.4669
     2.4779   2.4808   2.6675   2.7177   2.7244   2.7245   2.7461   2.9685
     2.9865   3.0133   3.1687   3.5203   3.5227   3.8159   3.8178   3.8437
     3.8500   3.8539   3.8549   3.8916   3.9672   3.9805   3.9859   4.0063
     4.0070   4.0085   4.0094   4.0114   4.0138   4.2284   4.2489   4.2497
     4.2507   4.3557   4.3975   4.7074   4.7621   4.8362   4.8829   4.9014
     5.3044   5.3929   5.3985   5.4062   5.7062   5.7090   5.7202   5.7244
     5.9297   5.9306   6.1850   6.3457   6.3502   6.4097   6.4138   6.4698
     6.4700   6.4758   6.4816   6.5806   6.6031   6.6076   6.7168   6.7729
     6.7798   6.7940   6.8123   6.8184   7.0165   7.0459   7.0499   7.0596
     7.0690   7.0922   7.3573   7.3581   7.5095   7.5493   7.5507   7.6964
     7.6965   7.7068   7.7096   8.0045   8.0395   8.0831   8.1326   8.1950
     8.2352   8.2998   8.3063   8.3073   8.3284   8.3357   8.3455   8.4113
     8.4137   8.4303   8.4841   8.5608   8.5629   8.5671   8.6620   8.6649
     8.6683   8.6689   8.8139   8.8164   8.8284   8.8336   8.8385   8.8403
     9.1077   9.1097   9.1103   9.1161   9.1198   9.1402   9.1743   9.3221
     9.3436   9.3448   9.4243   9.4798   9.4904   9.5774   9.5786   9.6613
     9.6711   9.8033   9.8308  10.0433  10.0437  10.1181  10.1777

          k = 0.0000-0.2165 0.0000 (256176 PWs)   bands (ev):

   -17.2877 -16.3020 -15.8964 -15.6600 -15.0753 -14.6798 -14.3572 -14.3393
   -14.2660 -14.2317 -13.8273 -13.7710 -13.7198 -13.6946 -12.6079 -12.4364
   -12.3802 -12.3154 -12.1485 -12.0791 -10.6514 -10.5550 -10.5223 -10.3924
    -9.4592  -9.4391  -9.3029  -9.1159  -8.9915  -8.9557  -8.4042  -8.2870
    -8.2153  -8.1593  -7.4816  -7.3429  -7.0138  -6.9721  -6.9080  -6.8942
    -6.8533  -6.8378  -6.1905  -6.0825  -5.8913  -5.8826  -5.5181  -5.3878
    -5.3002  -5.2155  -5.1368  -4.9647  -4.9136  -4.8418  -4.8381  -4.7424
    -4.6866  -4.6308  -4.6099  -4.4705  -4.1584  -4.0481  -3.8263  -3.6977
    -3.6649  -3.5905  -3.3164  -3.3053  -3.3021  -3.3012  -3.2460  -3.2262
    -3.1432  -3.0924  -3.0678  -3.0499  -3.0399  -3.0313  -3.0071  -2.8963
    -2.8695  -2.8666  -2.8291  -2.7885  -2.7753  -2.7109  -2.6965  -2.6015
    -2.5878  -2.5877  -2.5786  -2.5783  -2.5778  -2.5772  -2.4779  -2.3683
    -2.3366  -2.3330  -2.2515  -2.2507  -2.2479  -2.2456  -2.1497  -2.1455
    -2.1447  -2.1444  -2.0852  -2.0411  -1.9867  -1.9867  -1.9613  -1.9611
    -1.8768  -1.8645  -1.8573  -1.8077  -1.7884  -1.7856  -1.7688  -1.7678
    -1.7498  -1.7496  -1.7408  -1.7408  -1.7227  -1.7225  -1.6455  -1.6454
    -1.6230  -1.5862  -1.5715  -1.5692  -1.5600  -1.4680  -1.4671  -1.4627
    -1.4622  -1.3795  -1.3769  -1.3709  -1.3706  -1.3685  -1.3168  -1.3166
    -1.2801  -1.2790  -1.2750  -1.2748  -1.2723  -1.2722  -1.2532  -1.2492
    -1.2291  -1.2288  -1.2240  -1.2230  -1.2133  -1.2119  -1.1689  -1.1543
    -1.1504  -1.1484  -1.1338  -1.1326  -1.0889  -1.0888  -1.0507  -1.0506
    -1.0475  -1.0473  -1.0044  -1.0031  -0.9840  -0.9836  -0.9830  -0.9823
    -0.9782  -0.9779  -0.9273  -0.9268  -0.9195  -0.9189  -0.9110  -0.9108
    -0.9011  -0.8987  -0.8972  -0.8969  -0.8313  -0.8281  -0.8281  -0.8199
    -0.8185  -0.8184  -0.8177  -0.8142  -0.7958  -0.7956  -0.7819  -0.7810
    -0.7547  -0.7545  -0.7518  -0.7506  -0.6548  -0.6547  -0.6542  -0.6541
    -0.6336  -0.6332  -0.6244  -0.6104  -0.6073  -0.6058  -0.6048  -0.6014
    -0.6014  -0.5756  -0.5751  -0.5622  -0.5423  -0.5415  -0.5404  -0.5391
    -0.5380  -0.5366  -0.5346  -0.5332  -0.5040  -0.5039  -0.4884  -0.4839
    -0.4839  -0.4731  -0.4494  -0.4482  -0.4476  -0.4470  -0.4460  -0.4363
    -0.4356  -0.4354  -0.4351  -0.4138  -0.4130  -0.3576  -0.3574  -0.3570
    -0.3570  -0.3284  -0.3253  -0.3037  -0.3036  -0.3017  -0.2972  -0.2959
    -0.2954  -0.2938  -0.2736  -0.2695  -0.2693  -0.2688  -0.2680  -0.2612
    -0.2519  -0.2478  -0.2471  -0.2470  -0.2459  -0.2435  -0.2432  -0.2386
    -0.2338  -0.2330  -0.2068  -0.2066  -0.2047  -0.2045  -0.1855  -0.1439
    -0.1424  -0.1409  -0.1408  -0.1339  -0.1318  -0.1310  -0.1284  -0.1270
    -0.1237  -0.1178  -0.1049  -0.1032  -0.0886  -0.0882  -0.0863  -0.0862
    -0.0776  -0.0774  -0.0752  -0.0740  -0.0737  -0.0733  -0.0454  -0.0176
    -0.0173  -0.0136  -0.0133   0.0009   0.0031   0.0052   0.0058   0.0110
     0.0112   0.0131   0.0281   0.0293   0.0297   0.0308   0.0420   0.0441
     0.0583   0.0593   0.0755   0.0758   0.0759   0.0763   0.0939   0.0958
     0.1109   0.1109   0.1216   0.1219   0.1341   0.1351   0.1353   0.1359
     0.1794   0.1805   0.1833   0.1843   0.1957   0.1965   0.2015   0.2019
     0.2287   0.2289   0.2607   0.2627   0.2648   0.2673   0.3001   0.3002
     0.3286   0.3330   0.3855   0.3859   0.3865   0.3870   0.3918   0.4124
     0.4132   0.4134   0.4137   0.4249   0.4466   0.4470   0.4538   0.4539
     0.4539   0.4549   0.4551   0.4571   0.4618   0.4657   0.4767   0.4769
     0.4785   0.4786   0.4810   0.4817   0.4830   0.4844   0.5161   0.5162
     0.5274   0.5277   0.5278   0.5282   0.5359   0.5359   0.5376   0.5556
     0.5566   0.5574   0.5576   0.5579   0.5580   0.5584   0.5588   0.5590
     0.5815   0.5816   0.5830   0.5835   0.5837   0.5845   0.5851   0.5853
     0.6014   0.6015   0.6446   0.6449   0.6566   0.6570   0.6652   0.6680
     0.6687   0.6694   0.6752   0.6753   0.6761   0.6767   0.6819   0.6822
     0.6831   0.6832   0.7231   0.7241   0.7243   0.7247   0.7382   0.7413
     0.7415   0.7423   0.7430   0.7441   0.7548   0.7585   0.7745   0.7758
     0.7785   0.7811   0.7822   0.7825   0.8337   0.8346   0.8850   0.8857
     0.8910   0.8937   0.8939   0.8949   0.9028   0.9041   0.9105   0.9106
     0.9169   0.9172   0.9229   0.9247   0.9258   0.9264   0.9372   0.9381
     0.9398   0.9413   0.9421   0.9421   0.9489   0.9554   0.9638   0.9664
     0.9664   0.9679   0.9687   0.9705   0.9707   0.9741   0.9775   0.9777
     0.9891   0.9892   0.9911   0.9913   0.9927   0.9932   1.0108   1.0113
     1.0206   1.0236   1.0264   1.0272   1.0293   1.0296   1.0385   1.0385
     1.0393   1.0394   1.0403   1.0405   1.0855   1.0891   1.1068   1.1148
     1.1272   1.1272   1.1422   1.1432   1.1522   1.1529   1.1537   1.1547
     1.1699   1.1702   1.1846   1.1861   1.1920   1.1927   1.1950   1.1963
     1.1966   1.1984   1.1984   1.1996   1.2004   1.2010   1.2027   1.2029
     1.2101   1.2102   1.2211   1.2238   1.2301   1.2303   1.2304   1.2314
     1.2398   1.2406   1.2667   1.2695   1.2695   1.2699   1.2764   1.2766
     1.2789   1.2795   1.2937   1.2947   1.2967   1.2971   1.3097   1.3104
     1.3124   1.3130   1.3145   1.3152   1.3318   1.3323   1.3326   1.3335
     1.3501   1.3515   1.3517   1.3543   1.3707   1.3723   1.3786   1.3792
     1.3793   1.3799   1.3948   1.3949   1.3950   1.3952   1.4119   1.4123
     1.4261   1.4263   1.4264   1.4284   1.4464   1.4468   1.4488   1.4490
     1.4500   1.4501   1.4506   1.4512   1.4788   1.4789   1.4869   1.4875
     1.4954   1.4961   1.4967   1.5045   1.5183   1.5194   1.5195   1.5197
     1.5286   1.5287   1.5408   1.5409   1.5826   1.5852   1.5876   1.5881
     1.6745   1.6888   1.6937   1.7123   1.7165   1.7287   1.7316   1.7329
     1.7835   1.7864   1.7921   1.7936   1.8008   1.8125   1.8132   1.8138
     1.8532   1.8532   1.8993   2.0538   2.0672   2.0930   2.4125   2.4147
     2.4188   2.4191   2.4955   2.4980   2.5602   2.5633   2.5637   2.5639
     2.5806   2.5810   2.7091   2.7105   2.7565   2.7604   2.7791   2.7802
     2.9231   2.9240   3.1696   3.1696   3.1780   3.1861   3.3944   3.4150
     3.5864   3.6699   3.6853   3.9005   3.9301   3.9474   4.0797   4.1031
     4.1071   4.1083   4.3235   4.3248   4.3270   4.3270   4.4975   4.4984
     4.6624   4.6897   4.7655   4.7706   4.9165   5.0734   5.0990   5.1025
     5.3246   5.3579   5.3582   5.3588   5.3608   5.4305   5.5304   5.6599
     5.6797   5.7044   5.7575   5.8100   6.3802   6.3889   6.4209   6.4265
     6.4389   6.4439   6.5488   6.5567   6.6641   6.6681   6.8056   6.8090
     6.9751   7.0152   7.0385   7.0480   7.0729   7.0802   7.1161   7.1197
     7.1309   7.1344   7.2282   7.3389   7.3517   7.3640   7.3817   7.4277
     7.5327   7.6042   7.6980   7.7126   7.7299   7.7548   8.1433   8.1436
     8.3447   8.3554   8.3571   8.4236   8.4280   8.4292   8.4328   8.4482
     8.4491   8.4823   8.6416   8.6504   8.7120   8.7128   8.7183   8.7203
     8.7580   8.7625   8.8525   8.9169   8.9446   9.0158   9.0223   9.0577
     9.1415   9.1553   9.2370   9.2373   9.2816   9.3154   9.3856   9.3862
     9.3863   9.3866   9.4581   9.4605   9.4814   9.4876   9.4887   9.4910
     9.6620   9.6647   9.7872   9.7875   9.7951   9.8892   9.8896

          k = 0.2500 0.0000 0.0000 (256240 PWs)   bands (ev):

   -17.2372 -16.1278 -15.9647 -15.6637 -15.1443 -15.0050 -14.9454 -14.8938
   -14.1132 -13.9543 -13.7723 -13.2471 -13.1734 -13.0914 -13.0441 -12.3509
   -12.2314 -12.1474 -12.0821 -11.2401 -11.1396 -10.7884 -10.6726 -10.3597
   -10.2270  -9.9551  -9.9052  -9.5081  -9.2550  -9.1593  -8.6806  -7.9943
    -7.7978  -7.7313  -7.5650  -7.5421  -7.4471  -7.0938  -6.9777  -6.3016
    -6.2215  -6.0442  -5.9683  -5.9147  -5.8421  -5.4541  -5.3318  -5.3119
    -5.3026  -5.1771  -4.9234  -4.7495  -4.6346  -4.5431  -4.4683  -4.4636
    -4.4618  -4.4271  -4.3717  -4.2282  -4.1400  -4.0014  -4.0002  -3.9977
    -3.9095  -3.8455  -3.8406  -3.8116  -3.7954  -3.6256  -3.6012  -3.5742
    -3.5247  -3.4860  -3.4066  -3.4039  -3.2792  -3.2351  -3.2129  -3.1975
    -3.1422  -3.0364  -2.9566  -2.8958  -2.8006  -2.7989  -2.7910  -2.7528
    -2.6552  -2.6256  -2.6234  -2.5066  -2.4014  -2.3944  -2.3483  -2.3376
    -2.1361  -2.0993  -2.0970  -2.0826  -2.0799  -2.0588  -2.0039  -1.9904
    -1.9807  -1.8977  -1.8956  -1.8416  -1.8032  -1.8018  -1.8008  -1.7941
    -1.7934  -1.7849  -1.7737  -1.7462  -1.7357  -1.7241  -1.7191  -1.7168
    -1.7126  -1.6540  -1.6472  -1.6036  -1.5905  -1.5830  -1.5811  -1.5786
    -1.5783  -1.5780  -1.5484  -1.5274  -1.5144  -1.5040  -1.5022  -1.4910
    -1.4889  -1.3727  -1.3365  -1.3290  -1.3131  -1.2794  -1.2698  -1.2571
    -1.2441  -1.2431  -1.2380  -1.2364  -1.2301  -1.2205  -1.2079  -1.1985
    -1.1918  -1.1852  -1.1837  -1.1781  -1.1591  -1.1401  -1.1358  -1.1339
    -1.1336  -1.1325  -1.1172  -1.1115  -1.1111  -1.0916  -1.0771  -1.0666
    -1.0513  -1.0498  -1.0469  -1.0469  -1.0404  -1.0211  -1.0132  -1.0127
    -1.0035  -1.0016  -0.9967  -0.9911  -0.9819  -0.9816  -0.9813  -0.9800
    -0.9762  -0.9758  -0.9647  -0.9546  -0.9534  -0.9465  -0.9458  -0.9387
    -0.9219  -0.9020  -0.9008  -0.8961  -0.8530  -0.8523  -0.8165  -0.8164
    -0.7973  -0.7957  -0.7865  -0.7710  -0.7708  -0.7577  -0.7547  -0.7525
    -0.7501  -0.7428  -0.7416  -0.7225  -0.6062  -0.6030  -0.5997  -0.5971
    -0.5685  -0.5671  -0.5669  -0.5507  -0.5501  -0.5497  -0.5481  -0.5390
    -0.5306  -0.5271  -0.5270  -0.5201  -0.5179  -0.5054  -0.4978  -0.4878
    -0.4851  -0.4849  -0.4820  -0.4812  -0.4609  -0.4608  -0.4576  -0.4011
    -0.3998  -0.3996  -0.3968  -0.3915  -0.3910  -0.3896  -0.3805  -0.3761
    -0.3567  -0.3566  -0.3445  -0.3335  -0.3332  -0.3309  -0.3284  -0.3079
    -0.2951  -0.2949  -0.2922  -0.2913  -0.2818  -0.2804  -0.2710  -0.2702
    -0.2661  -0.2593  -0.2497  -0.2386  -0.2302  -0.2206  -0.2018  -0.1992
    -0.1989  -0.1964  -0.1904  -0.1822  -0.1804  -0.1801  -0.1778  -0.1644
    -0.1522  -0.1521  -0.1397  -0.1375  -0.1366  -0.1287  -0.1127  -0.1110
    -0.1108  -0.0667  -0.0639  -0.0634  -0.0581  -0.0551  -0.0465  -0.0378
    -0.0194  -0.0174  -0.0128  -0.0120  -0.0114  -0.0068  -0.0057   0.0010
     0.0038   0.0046   0.0058   0.0073   0.0080   0.0127   0.0287   0.0330
     0.0335   0.0345   0.0398   0.0429   0.0585   0.0588   0.0702   0.0750
     0.0770   0.0928   0.1141   0.1143   0.1165   0.1166   0.1184   0.1346
     0.1388   0.1413   0.1416   0.1420   0.1424   0.1746   0.1770   0.1858
     0.1902   0.2531   0.2537   0.2548   0.2681   0.2713   0.2724   0.2749
     0.2768   0.2780   0.2819   0.2831   0.2841   0.2848   0.2875   0.2886
     0.2952   0.3050   0.3068   0.3070   0.3087   0.3207   0.3210   0.3263
     0.3286   0.3334   0.3356   0.3569   0.3588   0.3616   0.3683   0.3902
     0.3968   0.4051   0.4139   0.4245   0.4249   0.4430   0.4431   0.4436
     0.4471   0.4552   0.4602   0.4771   0.4799   0.4803   0.4851   0.4855
     0.4906   0.4914   0.4958   0.4960   0.5168   0.5222   0.5237   0.5358
     0.5391   0.5443   0.5446   0.5509   0.5514   0.5516   0.5544   0.5551
     0.5740   0.5795   0.5796   0.5912   0.5925   0.5935   0.5936   0.5965
     0.6098   0.6102   0.6130   0.6176   0.6177   0.6367   0.6374   0.6512
     0.6567   0.6606   0.6637   0.6638   0.6689   0.6713   0.6730   0.6907
     0.7009   0.7049   0.7239   0.7286   0.7404   0.7407   0.7448   0.7452
     0.7500   0.7653   0.7707   0.7737   0.7773   0.7785   0.7830   0.7860
     0.7904   0.7983   0.8027   0.8037   0.8150   0.8241   0.8245   0.8248
     0.8468   0.8523   0.8556   0.8562   0.8567   0.8791   0.8806   0.8911
     0.8927   0.8931   0.8939   0.8959   0.9014   0.9036   0.9052   0.9059
     0.9311   0.9365   0.9461   0.9479   0.9528   0.9544   0.9549   0.9681
     0.9692   0.9894   0.9908   0.9914   0.9928   0.9995   1.0004   1.0017
     1.0158   1.0166   1.0182   1.0187   1.0214   1.0222   1.0232   1.0249
     1.0274   1.0305   1.0327   1.0330   1.0401   1.0438   1.0576   1.0578
     1.0601   1.0642   1.0655   1.0688   1.0690   1.0758   1.0764   1.0899
     1.0904   1.1037   1.1072   1.1074   1.1084   1.1115   1.1217   1.1301
     1.1354   1.1360   1.1385   1.1433   1.1492   1.1518   1.1569   1.1574
     1.1600   1.1716   1.1810   1.1843   1.1895   1.1915   1.1918   1.2269
     1.2281   1.2341   1.2396   1.2430   1.2448   1.2523   1.2526   1.2532
     1.2538   1.2619   1.2672   1.2700   1.2757   1.2759   1.2788   1.2792
     1.2954   1.2963   1.3004   1.3005   1.3058   1.3095   1.3115   1.3133
     1.3144   1.3160   1.3165   1.3221   1.3234   1.3242   1.3324   1.3374
     1.3441   1.3485   1.3509   1.3516   1.3555   1.3556   1.3598   1.3642
     1.3723   1.3797   1.3801   1.3812   1.4031   1.4035   1.4118   1.4164
     1.4187   1.4225   1.4226   1.4251   1.4265   1.4268   1.4334   1.4337
     1.4345   1.4399   1.4405   1.4435   1.4603   1.4626   1.4631   1.4647
     1.4654   1.4693   1.4697   1.4825   1.4830   1.4910   1.4940   1.4967
     1.5057   1.5063   1.5082   1.5124   1.5142   1.5163   1.5457   1.5524
     1.5548   1.5691   1.5815   1.6232   1.6248   1.6276   1.6370   1.6548
     1.6610   1.7432   1.7524   1.7616   1.7623   1.7818   1.7938   1.7991
     1.8366   1.9580   2.0304   2.0632   2.0680   2.0807   2.0851   2.0865
     2.1889   2.2468   2.2535   2.5611   2.5614   2.5628   2.5657   2.9751
     2.9751   3.0086   3.1930   3.1932   3.2177   3.2177   3.2661   3.2796
     3.4558   3.4672   3.5658   3.5794   3.5929   3.6274   3.6472   3.6982
     3.7045   3.7160   3.7198   3.7975   3.8687   3.8707   3.9669   3.9689
     4.0484   4.1787   4.1844   4.1894   4.2782   4.3374   4.4103   4.5513
     4.7524   4.8180   4.8255   5.0962   5.1626   5.2171   5.2182   5.2279
     5.2591   5.3546   5.4615   5.4651   5.5052   5.5440   5.5822   5.5857
     5.6598   5.6754   5.6832   5.7290   5.7327   5.8014   5.8212   5.8271
     6.0084   6.0100   6.0325   6.0430   6.4006   6.6009   6.6928   6.6957
     6.6991   6.7487   6.7601   6.7869   6.8661   6.9251   7.0140   7.0349
     7.0492   7.0515   7.0673   7.2246   7.2431   7.2936   7.3040   7.4970
     7.5068   7.5171   7.5590   7.5677   7.6780   7.7591   7.7643   7.7930
     7.9860   8.0014   8.0238   8.0618   8.1047   8.1864   8.2049   8.2142
     8.2483   8.2640   8.3120   8.3123   8.3857   8.3982   8.4379   8.4715
     8.6439   8.6447   8.9450   8.9546   8.9838   8.9875   9.0070   9.1430
     9.1684   9.1889   9.2110   9.2215   9.2298   9.2528   9.2683   9.3374
     9.4005   9.4072   9.4423   9.4426   9.4821   9.5111   9.6413   9.6783
     9.7180   9.7193   9.8228   9.8305   9.8352   9.8454   9.9446

          k = 0.2500-0.2165 0.0000 (256316 PWs)   bands (ev):

   -17.2369 -16.1782 -15.8753 -15.5400 -15.4587 -15.1905 -14.7128 -14.5644
   -14.2564 -14.1160 -13.7231 -13.2683 -13.2533 -13.1598 -12.7667 -12.6629
   -12.1506 -12.0266 -11.5117 -11.4318 -11.2852 -11.1259 -10.9626 -10.6225
    -9.8685  -9.7868  -9.3924  -9.3578  -9.1040  -9.0505  -8.6777  -8.6245
    -8.4733  -8.4245  -7.3055  -7.0298  -6.8325  -6.6726  -6.5983  -6.5018
    -6.4504  -6.3181  -6.0841  -6.0315  -5.7143  -5.7044  -5.4294  -5.2559
    -5.1812  -5.0699  -4.9357  -4.8020  -4.6787  -4.6748  -4.5452  -4.5434
    -4.4771  -4.3493  -4.3459  -4.3164  -4.1860  -4.1615  -4.1492  -4.0555
    -3.9016  -3.7735  -3.7618  -3.7375  -3.5858  -3.5619  -3.5013  -3.4595
    -3.4583  -3.4554  -3.3627  -3.2916  -3.2547  -3.1954  -3.1423  -3.1031
    -3.0301  -2.9461  -2.9403  -2.9245  -2.9111  -2.9095  -2.8648  -2.8168
    -2.6933  -2.6555  -2.6077  -2.5057  -2.3349  -2.3138  -2.3116  -2.2688
    -2.1869  -2.1810  -2.1689  -2.1688  -2.1036  -2.0701  -2.0100  -2.0094
    -1.9777  -1.9762  -1.9721  -1.9691  -1.8933  -1.8301  -1.8223  -1.8131
    -1.8131  -1.7803  -1.7609  -1.7526  -1.7353  -1.7240  -1.7206  -1.7099
    -1.7096  -1.6932  -1.6790  -1.6778  -1.6766  -1.6763  -1.6675  -1.6672
    -1.5824  -1.5822  -1.5570  -1.4691  -1.4667  -1.3772  -1.3689  -1.3671
    -1.3614  -1.3302  -1.3299  -1.2777  -1.2775  -1.2695  -1.2629  -1.2628
    -1.2497  -1.2491  -1.2415  -1.2402  -1.2253  -1.2246  -1.2132  -1.2131
    -1.2114  -1.2040  -1.2008  -1.1990  -1.1874  -1.1873  -1.1706  -1.1340
    -1.1310  -1.1269  -1.1258  -1.1218  -1.1158  -1.1144  -1.1115  -1.0936
    -1.0834  -1.0818  -1.0399  -1.0397  -1.0358  -1.0300  -1.0266  -1.0240
    -0.9965  -0.9965  -0.9738  -0.9726  -0.9622  -0.9618  -0.9613  -0.9564
    -0.9558  -0.9519  -0.9498  -0.9338  -0.9244  -0.9242  -0.9113  -0.9053
    -0.8811  -0.8683  -0.8681  -0.8628  -0.8622  -0.8257  -0.7784  -0.7783
    -0.7741  -0.7740  -0.7703  -0.7695  -0.7230  -0.7216  -0.7167  -0.7126
    -0.7123  -0.7064  -0.7061  -0.6945  -0.6940  -0.6783  -0.6531  -0.6524
    -0.6160  -0.6145  -0.5843  -0.5681  -0.5666  -0.5666  -0.5640  -0.5613
    -0.5340  -0.5335  -0.5213  -0.5206  -0.5023  -0.5008  -0.4925  -0.4891
    -0.4889  -0.4754  -0.4609  -0.4576  -0.4518  -0.4496  -0.4431  -0.4428
    -0.4125  -0.4082  -0.4081  -0.3965  -0.3936  -0.3879  -0.3818  -0.3808
    -0.3681  -0.3678  -0.3635  -0.3632  -0.3574  -0.3560  -0.3521  -0.3520
    -0.3342  -0.3340  -0.3178  -0.3177  -0.2953  -0.2892  -0.2765  -0.2742
    -0.2624  -0.2569  -0.2403  -0.2402  -0.2356  -0.2312  -0.2182  -0.2176
    -0.2133  -0.2130  -0.1942  -0.1809  -0.1602  -0.1544  -0.1532  -0.1182
    -0.1181  -0.1092  -0.1091  -0.1056  -0.1039  -0.0877  -0.0876  -0.0847
    -0.0703  -0.0700  -0.0608  -0.0566  -0.0492  -0.0478  -0.0431  -0.0427
    -0.0414  -0.0400  -0.0170  -0.0138  -0.0131  -0.0058  -0.0042  -0.0033
    -0.0026  -0.0013  -0.0009   0.0010   0.0058   0.0074   0.0225   0.0313
     0.0314   0.0314   0.0316   0.0651   0.0654   0.0733   0.0734   0.0762
     0.0770   0.0982   0.0990   0.1043   0.1227   0.1295   0.1314   0.1317
     0.1406   0.1409   0.1516   0.1517   0.1548   0.1554   0.1687   0.1688
     0.1749   0.1762   0.2045   0.2048   0.2674   0.2688   0.2811   0.2814
     0.2827   0.2830   0.2862   0.2868   0.2875   0.2888   0.2918   0.2934
     0.3150   0.3168   0.3169   0.3192   0.3206   0.3268   0.3289   0.3311
     0.3341   0.3342   0.3657   0.3668   0.3787   0.3808   0.3832   0.3945
     0.3983   0.4021   0.4120   0.4433   0.4437   0.4490   0.4509   0.4542
     0.4572   0.4573   0.4688   0.4688   0.4752   0.4788   0.4797   0.4806
     0.4814   0.4816   0.5055   0.5120   0.5151   0.5177   0.5239   0.5341
     0.5345   0.5501   0.5666   0.5669   0.5672   0.5689   0.5991   0.6007
     0.6026   0.6045   0.6070   0.6082   0.6121   0.6142   0.6243   0.6262
     0.6272   0.6285   0.6332   0.6360   0.6479   0.6482   0.6580   0.6598
     0.6677   0.6679   0.6707   0.6708   0.6782   0.6795   0.6813   0.6861
     0.6888   0.6890   0.7019   0.7053   0.7094   0.7105   0.7156   0.7163
     0.7182   0.7185   0.7207   0.7208   0.7551   0.7555   0.7666   0.7675
     0.7843   0.7898   0.8025   0.8069   0.8228   0.8231   0.8244   0.8245
     0.8298   0.8310   0.8448   0.8532   0.8536   0.8539   0.8540   0.8552
     0.8555   0.8648   0.8700   0.8742   0.8827   0.8837   0.8919   0.8950
     0.8998   0.9044   0.9280   0.9283   0.9307   0.9415   0.9504   0.9513
     0.9566   0.9595   0.9641   0.9645   0.9707   0.9709   0.9745   0.9906
     1.0000   1.0030   1.0114   1.0165   1.0177   1.0248   1.0291   1.0377
     1.0456   1.0592   1.0616   1.0650   1.0788   1.0801   1.0864   1.0865
     1.0892   1.0892   1.0906   1.0906   1.0949   1.0951   1.1045   1.1051
     1.1123   1.1153   1.1159   1.1179   1.1353   1.1367   1.1632   1.1652
     1.1662   1.1694   1.1704   1.1725   1.1742   1.1746   1.1788   1.1837
     1.1877   1.1895   1.1903   1.1912   1.1972   1.1993   1.2002   1.2017
     1.2072   1.2090   1.2171   1.2202   1.2229   1.2231   1.2242   1.2243
     1.2358   1.2368   1.2446   1.2448   1.2667   1.2690   1.2769   1.2776
     1.2788   1.2922   1.2925   1.2958   1.3047   1.3095   1.3100   1.3122
     1.3186   1.3215   1.3302   1.3307   1.3345   1.3360   1.3427   1.3452
     1.3473   1.3474   1.3569   1.3595   1.3601   1.3702   1.3775   1.3807
     1.3809   1.3811   1.3859   1.3868   1.3907   1.3917   1.3941   1.4047
     1.4048   1.4088   1.4094   1.4186   1.4190   1.4223   1.4253   1.4331
     1.4367   1.4370   1.4371   1.4425   1.4437   1.4438   1.4445   1.4472
     1.4530   1.4532   1.4779   1.4779   1.4854   1.4858   1.4948   1.5004
     1.5091   1.5191   1.5252   1.5264   1.5276   1.5492   1.5497   1.5563
     1.5567   1.5811   1.5827   1.5904   1.6126   1.6454   1.6613   1.6627
     1.7107   1.7485   1.7580   1.7616   1.7698   1.7798   1.7852   1.7858
     1.7862   1.8104   1.8348   1.8429   2.1241   2.1248   2.1561   2.1567
     2.2815   2.2861   2.5820   2.5827   2.7786   2.7828   2.7862   2.7872
     2.7976   2.7991   2.8282   2.8314   2.9808   2.9816   3.0691   3.0789
     3.5246   3.5351   3.5997   3.6039   3.6521   3.6746   3.7626   3.8350
     3.8407   3.8435   3.8612   3.9889   3.9962   4.0561   4.0754   4.1590
     4.1621   4.3235   4.3713   4.3727   4.4328   4.5440   4.5442   4.6123
     4.6597   4.6797   4.7081   4.7231   4.9177   4.9252   4.9954   5.0193
     5.0215   5.1273   5.2580   5.2789   5.3984   5.4313   5.4388   5.4500
     5.4536   5.4729   5.7473   5.7556   5.8150   5.8782   5.8887   5.9485
     5.9538   5.9726   6.5764   6.5841   6.6083   6.6147   6.7212   6.7455
     6.7985   6.8512   6.8710   7.0234   7.0337   7.0460   7.0758   7.0889
     7.0965   7.1097   7.1855   7.2108   7.2145   7.3207   7.3242   7.3282
     7.3313   7.3988   7.4362   7.4378   7.6607   7.6627   7.7567   7.7838
     7.7895   7.8646   7.9726   7.9828   8.1788   8.1902   8.2303   8.2473
     8.2679   8.3896   8.5796   8.5831   8.5949   8.6045   8.6364   8.6376
     8.7041   8.7050   8.8012   8.8152   8.9011   8.9093   8.9377   8.9435
     9.0625   9.1067   9.1316   9.1415   9.1756   9.1805   9.1928   9.2036
     9.2158   9.2633   9.2681   9.3017   9.3418   9.3525   9.4291   9.4423
     9.4455   9.4788   9.6263   9.6275   9.9550   9.9589   9.9680

          k =-0.5000 0.0000 0.0000 (256496 PWs)   bands (ev):

   -17.1766 -16.0097 -15.7417 -15.6292 -15.6091 -15.5596 -14.8139 -14.6180
   -14.5142 -14.4813 -13.2109 -12.9073 -12.7661 -12.7010 -12.4572 -12.4339
   -11.9121 -11.8910 -11.8077 -11.7994 -11.2432 -11.2063 -10.9824 -10.7502
   -10.3356 -10.3039 -10.0807  -9.7612  -9.1487  -9.1481  -8.9776  -8.9446
    -7.8203  -7.6365  -7.5885  -7.4114  -7.3669  -7.3462  -6.3101  -6.2285
    -5.8465  -5.3234  -5.3218  -5.3091  -5.1457  -5.0108  -4.9671  -4.8649
    -4.8087  -4.8038  -4.8032  -4.8023  -4.7777  -4.7625  -4.7383  -4.6919
    -4.6660  -4.5436  -4.5434  -4.4718  -4.3786  -4.3784  -4.2931  -4.0545
    -4.0164  -3.9975  -3.9668  -3.9650  -3.6904  -3.6766  -3.6034  -3.5744
    -3.5728  -3.5560  -3.4284  -3.4211  -3.4199  -3.4191  -3.4185  -3.4125
    -3.3759  -3.3636  -2.9432  -2.9418  -2.8964  -2.8537  -2.8116  -2.7879
    -2.7670  -2.7598  -2.6224  -2.6093  -2.5682  -2.4792  -2.4509  -2.4397
    -2.3070  -2.3038  -2.3029  -2.3025  -1.8798  -1.8793  -1.8788  -1.8787
    -1.8768  -1.8766  -1.8653  -1.8133  -1.7797  -1.7597  -1.7568  -1.7554
    -1.6888  -1.6518  -1.6508  -1.6506  -1.6505  -1.6026  -1.6026  -1.6019
    -1.6011  -1.5130  -1.5065  -1.4886  -1.4885  -1.4868  -1.4770  -1.4528
    -1.4344  -1.4258  -1.4257  -1.4253  -1.4071  -1.4066  -1.3577  -1.3575
    -1.3574  -1.3545  -1.3537  -1.3425  -1.3421  -1.3411  -1.3411  -1.3382
    -1.2950  -1.2925  -1.2924  -1.2911  -1.2722  -1.2685  -1.2678  -1.2676
    -1.2333  -1.2049  -1.2048  -1.1834  -1.1827  -1.1823  -1.1816  -1.1589
    -1.1558  -1.1545  -1.1531  -1.1512  -1.1511  -1.1506  -1.1090  -1.1081
    -1.1070  -1.1070  -1.0861  -1.0861  -1.0721  -1.0561  -1.0559  -1.0524
    -1.0097  -1.0097  -1.0089  -0.9815  -0.9812  -0.9798  -0.9797  -0.9551
    -0.9536  -0.9528  -0.9519  -0.9475  -0.9464  -0.9440  -0.9322  -0.9318
    -0.9294  -0.9293  -0.9034  -0.9026  -0.8862  -0.8410  -0.8408  -0.8387
    -0.8384  -0.7949  -0.7948  -0.7173  -0.7122  -0.7116  -0.7116  -0.7079
    -0.6898  -0.6809  -0.6734  -0.6731  -0.6723  -0.6722  -0.6685  -0.6618
    -0.6420  -0.6333  -0.6299  -0.6294  -0.6249  -0.6178  -0.6151  -0.6021
    -0.6014  -0.5992  -0.5737  -0.5290  -0.5184  -0.5122  -0.4819  -0.4728
    -0.4663  -0.4663  -0.4566  -0.4566  -0.4326  -0.4166  -0.4137  -0.4101
    -0.4064  -0.4063  -0.4046  -0.4045  -0.3946  -0.3817  -0.3685  -0.3684
    -0.3679  -0.3679  -0.3298  -0.3294  -0.3287  -0.3287  -0.3204  -0.2959
    -0.2958  -0.2958  -0.2952  -0.2842  -0.2842  -0.2513  -0.2513  -0.2508
    -0.2499  -0.2498  -0.2463  -0.2406  -0.2273  -0.2139  -0.2053  -0.2001
    -0.1675  -0.1368  -0.1352  -0.1351  -0.1343  -0.1291  -0.1290  -0.1281
    -0.1279  -0.0886  -0.0883  -0.0869  -0.0858  -0.0682  -0.0524  -0.0521
    -0.0260  -0.0259  -0.0239  -0.0237  -0.0223  -0.0220  -0.0215  -0.0213
    -0.0201  -0.0200  -0.0195  -0.0193   0.0557   0.0573   0.0609   0.0622
     0.0665   0.0671   0.0718   0.0721   0.0724   0.0725   0.0773   0.0773
     0.0795   0.0797   0.0830   0.0832   0.0871   0.0887   0.1019   0.1019
     0.1111   0.1160   0.1164   0.1164   0.1166   0.1167   0.1169   0.1273
     0.1275   0.1279   0.1279   0.1403   0.1406   0.1434   0.1526   0.1526
     0.1534   0.1537   0.1711   0.1831   0.1839   0.1958   0.2516   0.2660
     0.2859   0.2859   0.2876   0.2877   0.3189   0.3193   0.3200   0.3204
     0.3343   0.3344   0.3397   0.3397   0.3442   0.3448   0.3453   0.3456
     0.3496   0.3505   0.3513   0.3514   0.3519   0.3521   0.3665   0.3666
     0.3718   0.3748   0.3810   0.3814   0.3892   0.3898   0.3949   0.3953
     0.4015   0.4021   0.4361   0.4385   0.4899   0.4917   0.4917   0.4923
     0.5003   0.5006   0.5217   0.5234   0.5253   0.5265   0.5278   0.5292
     0.5292   0.5296   0.5320   0.5328   0.5345   0.5349   0.5370   0.5373
     0.5437   0.5449   0.5453   0.5455   0.5630   0.5658   0.5832   0.5832
     0.5920   0.5997   0.6050   0.6095   0.6160   0.6176   0.6213   0.6215
     0.6300   0.6303   0.6309   0.6311   0.6332   0.6336   0.6466   0.6468
     0.6516   0.6517   0.6669   0.6674   0.6686   0.6687   0.7053   0.7058
     0.7063   0.7065   0.7071   0.7071   0.7245   0.7253   0.7530   0.7554
     0.7649   0.7665   0.7673   0.7673   0.7674   0.7677   0.7848   0.8078
     0.8344   0.8347   0.8384   0.8390   0.8397   0.8401   0.8440   0.8448
     0.8512   0.8521   0.8525   0.8527   0.8633   0.8651   0.8846   0.8847
     0.8862   0.8864   0.8865   0.8941   0.9052   0.9055   0.9059   0.9062
     0.9074   0.9075   0.9438   0.9453   0.9455   0.9457   0.9728   0.9910
     1.0117   1.0120   1.0121   1.0127   1.0368   1.0453   1.0461   1.0463
     1.0477   1.0492   1.0649   1.0650   1.0756   1.0764   1.0790   1.0841
     1.0876   1.0890   1.1097   1.1103   1.1151   1.1156   1.1157   1.1164
     1.1232   1.1238   1.1248   1.1253   1.1346   1.1346   1.1357   1.1361
     1.1374   1.1375   1.1381   1.1382   1.1725   1.1740   1.1754   1.1754
     1.1918   1.1987   1.2049   1.2061   1.2097   1.2111   1.2114   1.2119
     1.2290   1.2300   1.2344   1.2402   1.2404   1.2409   1.2435   1.2510
     1.2511   1.2513   1.2516   1.2558   1.2584   1.2655   1.2688   1.2748
     1.2981   1.2983   1.3107   1.3138   1.3139   1.3141   1.3143   1.3144
     1.3145   1.3145   1.3246   1.3269   1.3278   1.3280   1.3285   1.3286
     1.3306   1.3308   1.3359   1.3364   1.3409   1.3412   1.3418   1.3419
     1.3490   1.3490   1.3638   1.3640   1.3792   1.3823   1.3830   1.3832
     1.3910   1.3912   1.3925   1.3925   1.4057   1.4092   1.4129   1.4130
     1.4280   1.4284   1.4304   1.4350   1.4380   1.4473   1.4474   1.4477
     1.4484   1.4657   1.4665   1.4685   1.4692   1.4705   1.4783   1.4783
     1.4787   1.4788   1.4835   1.4881   1.4981   1.4981   1.5118   1.5123
     1.5123   1.5127   1.5128   1.5248   1.5257   1.5258   1.5758   1.5760
     1.5922   1.6058   1.6059   1.6102   1.6104   1.6219   2.0244   2.0275
     2.0287   2.0292   2.2300   2.2325   2.2471   2.2506   2.2826   2.2835
     2.2901   2.2904   2.6044   2.6125   2.6163   2.6174   2.8244   2.8283
     2.8321   2.8335   3.1827   3.1830   3.1850   3.1853   3.4603   3.4677
     3.7401   3.7506   3.7532   3.7544   3.8417   3.9176   3.9197   3.9223
     3.9620   4.0661   4.0665   4.0707   4.0758   4.1761   4.1827   4.3876
     4.4013   4.4807   4.7292   4.7401   4.7483   4.7520   4.8075   4.8232
     4.8233   4.8531   4.9294   5.0189   5.0194   5.0348   5.0373   5.0447
     5.0466   5.0502   5.0705   5.0715   5.0953   5.1074   5.1520   5.1623
     5.4822   5.5123   5.5340   5.5377   5.6380   5.6615   5.7575   5.8273
     5.9875   5.9896   5.9928   6.0000   6.0252   6.0349   6.0360   6.0441
     6.1899   6.3875   6.4277   6.4303   6.4330   6.4395   6.4512   6.4729
     7.0877   7.0934   7.0937   7.1069   7.1224   7.1241   7.5752   7.5829
     7.5900   7.5992   7.5994   7.5996   7.6124   7.6262   7.8102   7.8152
     7.8736   7.8808   7.8854   7.8874   8.0311   8.0504   8.0529   8.0562
     8.1122   8.1257   8.1258   8.1330   8.1571   8.1962   8.6440   8.6902
     8.6924   8.7069   8.8250   8.8269   8.8299   8.8319   8.9738   8.9868
     8.9958   9.0627   9.0668   9.0702   9.0708   9.2585   9.2608   9.3738
     9.4206   9.4437   9.4920   9.4951   9.4952   9.4959   9.5088   9.5150
     9.5183   9.5189   9.5275   9.5325   9.8243   9.8316  10.0187

          k =-0.5000-0.2165 0.0000 (256328 PWs)   bands (ev):

   -17.1765 -15.9780 -15.8200 -15.7951 -15.3896 -15.2197 -15.1502 -15.1145
   -14.0589 -13.8408 -13.7091 -13.6732 -12.6846 -12.4581 -12.0018 -11.9967
   -11.9222 -11.7746 -11.6701 -11.5899 -11.5384 -11.5382 -11.4231 -11.4053
   -10.0451 -10.0388  -9.7697  -9.7235  -9.2276  -8.9140  -8.7978  -8.7593
    -8.2697  -8.2315  -8.0221  -7.9997  -6.5372  -6.3473  -6.1227  -5.9493
    -5.8388  -5.6270  -5.3887  -5.3139  -5.3057  -5.2217  -5.2140  -5.1818
    -5.1799  -5.1797  -5.0184  -5.0045  -4.9623  -4.5121  -4.3887  -4.3509
    -4.3259  -4.3206  -4.2639  -4.2148  -4.2021  -4.1985  -4.1979  -4.1976
    -4.0818  -4.0769  -3.9157  -3.8769  -3.8653  -3.8582  -3.7551  -3.7460
    -3.7043  -3.6898  -3.6040  -3.5923  -3.5834  -3.4873  -3.4663  -3.4568
    -3.1737  -3.0871  -3.0723  -3.0620  -2.6373  -2.5821  -2.5813  -2.5794
    -2.5790  -2.5787  -2.5451  -2.5289  -2.5238  -2.5233  -2.4095  -2.3529
    -2.1671  -2.1534  -2.1092  -2.1004  -2.0967  -2.0961  -2.0531  -2.0497
    -2.0199  -2.0195  -2.0181  -2.0101  -1.9396  -1.8032  -1.8032  -1.8020
    -1.8019  -1.7712  -1.7390  -1.7284  -1.5678  -1.5243  -1.5092  -1.5021
    -1.4936  -1.4936  -1.4935  -1.4934  -1.4597  -1.4565  -1.4541  -1.4539
    -1.4338  -1.4336  -1.4334  -1.4333  -1.3843  -1.3842  -1.3841  -1.3839
    -1.3825  -1.3823  -1.3818  -1.3816  -1.3587  -1.3587  -1.3585  -1.3585
    -1.3097  -1.3085  -1.3075  -1.3074  -1.3034  -1.2386  -1.2334  -1.2333
    -1.2324  -1.1911  -1.1911  -1.1909  -1.1909  -1.1750  -1.1713  -1.1710
    -1.1709  -1.1282  -1.1220  -1.1220  -1.1218  -1.1177  -1.1158  -1.1158
    -1.1158  -1.1102  -1.0966  -1.0928  -1.0904  -1.0868  -1.0575  -1.0573
    -1.0569  -1.0569  -1.0410  -1.0404  -1.0402  -1.0402  -1.0379  -1.0374
    -1.0373  -1.0369  -1.0367  -1.0149  -0.8829  -0.8826  -0.8820  -0.8820
    -0.8534  -0.8530  -0.8527  -0.8527  -0.8019  -0.7711  -0.7703  -0.7701
    -0.7696  -0.7692  -0.7685  -0.7668  -0.7631  -0.7619  -0.7617  -0.7616
    -0.7032  -0.7005  -0.7004  -0.7000  -0.6935  -0.6892  -0.6884  -0.6880
    -0.6720  -0.6680  -0.6673  -0.6672  -0.6420  -0.5831  -0.5712  -0.5710
    -0.5684  -0.5672  -0.5669  -0.5665  -0.5153  -0.4985  -0.4983  -0.4981
    -0.4962  -0.4496  -0.4489  -0.4486  -0.4455  -0.4283  -0.4282  -0.4277
    -0.4276  -0.4105  -0.4001  -0.3999  -0.3894  -0.3894  -0.3885  -0.3884
    -0.3777  -0.3520  -0.3502  -0.3475  -0.3413  -0.2738  -0.2738  -0.2732
    -0.2732  -0.2578  -0.2577  -0.2572  -0.2571  -0.2417  -0.2402  -0.2401
    -0.2401  -0.1597  -0.1592  -0.1585  -0.1578  -0.1536  -0.1535  -0.1532
    -0.1530  -0.1520  -0.1497  -0.1496  -0.1470  -0.1128  -0.1128  -0.1126
    -0.1126  -0.1009  -0.1001  -0.0995  -0.0994  -0.0961  -0.0961  -0.0958
    -0.0957  -0.0670  -0.0272  -0.0266  -0.0258  -0.0257  -0.0003  -0.0002
     0.0017   0.0025   0.0489   0.0493   0.0547   0.0548   0.0600   0.0651
     0.0794   0.0797   0.0801   0.0803   0.0854   0.0868   0.0882   0.0885
     0.0891   0.0902   0.0935   0.0939   0.1000   0.1002   0.1008   0.1009
     0.1061   0.1062   0.1063   0.1064   0.1169   0.1226   0.1229   0.1230
     0.1329   0.1508   0.1508   0.1509   0.1510   0.1602   0.1612   0.1613
     0.1628   0.2095   0.2104   0.2111   0.2111   0.2350   0.2435   0.2436
     0.2447   0.2555   0.2979   0.2993   0.3148   0.3164   0.3267   0.3271
     0.3279   0.3284   0.3348   0.3405   0.3439   0.3450   0.3452   0.3470
     0.3548   0.3608   0.3609   0.3615   0.3615   0.3657   0.3683   0.3683
     0.3697   0.3702   0.3709   0.3714   0.3777   0.3878   0.3992   0.4008
     0.4454   0.4477   0.4491   0.4512   0.4569   0.4569   0.4578   0.4584
     0.4689   0.4691   0.4691   0.4694   0.5059   0.5069   0.5079   0.5086
     0.5098   0.5098   0.5103   0.5105   0.5460   0.5538   0.5539   0.5541
     0.5541   0.5599   0.5640   0.5671   0.5677   0.5681   0.5682   0.5702
     0.5759   0.5760   0.5763   0.5763   0.5899   0.5904   0.5915   0.5917
     0.6006   0.6056   0.6068   0.6072   0.6680   0.6761   0.6762   0.6788
     0.6791   0.6825   0.6829   0.6829   0.6830   0.6833   0.6889   0.6915
     0.6919   0.6997   0.7068   0.7099   0.7282   0.7282   0.7289   0.7290
     0.7297   0.7305   0.7317   0.7317   0.7721   0.7787   0.7827   0.7836
     0.8016   0.8067   0.8112   0.8114   0.8131   0.8156   0.8301   0.8302
     0.8474   0.8475   0.8481   0.8482   0.8687   0.8703   0.8727   0.8730
     0.9251   0.9251   0.9257   0.9257   0.9577   0.9580   0.9592   0.9593
     1.0029   1.0106   1.0121   1.0123   1.0157   1.0205   1.0259   1.0261
     1.0354   1.0377   1.0381   1.0386   1.0423   1.0440   1.0440   1.0442
     1.0442   1.0463   1.0467   1.0482   1.0484   1.0524   1.0665   1.0729
     1.0741   1.0756   1.0769   1.0777   1.0780   1.0791   1.0798   1.0808
     1.0892   1.0944   1.0959   1.0969   1.1181   1.1194   1.1217   1.1218
     1.1252   1.1277   1.1319   1.1325   1.1403   1.1415   1.1415   1.1421
     1.1897   1.1900   1.1904   1.1937   1.1937   1.1954   1.1955   1.1979
     1.2199   1.2207   1.2209   1.2211   1.2289   1.2350   1.2357   1.2392
     1.2402   1.2433   1.2558   1.2560   1.2699   1.2700   1.2703   1.2704
     1.2786   1.2787   1.2793   1.2801   1.2851   1.2853   1.2861   1.2861
     1.3441   1.3521   1.3521   1.3526   1.3527   1.3536   1.3537   1.3542
     1.3542   1.3583   1.3609   1.3628   1.3658   1.3700   1.3711   1.3721
     1.3740   1.3776   1.3809   1.3810   1.3838   1.3852   1.3858   1.3870
     1.3927   1.3933   1.3936   1.3938   1.3974   1.4018   1.4043   1.4045
     1.4141   1.4145   1.4147   1.4152   1.4473   1.4476   1.4476   1.4478
     1.4601   1.4614   1.4630   1.4631   1.4732   1.4762   1.4787   1.4787
     1.4959   1.4991   1.5004   1.5005   1.5344   1.5474   1.5519   1.5524
     1.5722   1.5722   1.5728   1.5728   1.6013   1.6020   1.6027   1.6034
     1.6067   1.6079   1.6083   1.6092   1.6142   1.6150   1.6153   1.6158
     1.8316   1.8330   1.8331   1.8342   2.3286   2.3362   2.3421   2.3428
     2.5537   2.5559   2.5588   2.5588   2.7862   2.7910   2.7926   2.7934
     3.0795   3.0865   3.0876   3.0888   3.4495   3.4516   3.4517   3.4521
     3.6263   3.6372   3.6406   3.6409   3.9101   3.9265   3.9275   3.9278
     4.0052   4.2238   4.2244   4.2262   4.2316   4.3105   4.3215   4.3358
     4.3371   4.5078   4.5518   4.5542   4.5567   4.5644   4.5924   4.5956
     4.6241   4.7929   4.8648   4.8840   4.9028   5.0056   5.0423   5.0663
     5.1667   5.1685   5.1720   5.1721   5.2275   5.2592   5.2758   5.2984
     5.3350   5.3371   5.3457   5.3498   5.4988   5.5964   5.7285   5.7321
     5.7450   5.7463   5.7482   5.7496   5.8374   5.8642   5.8891   5.8894
     6.7815   6.7828   6.7832   6.7837   7.0949   7.1138   7.1157   7.1220
     7.1417   7.1510   7.1521   7.1530   7.2463   7.2685   7.2706   7.2734
     7.3588   7.3653   7.3663   7.3663   7.5141   7.6058   7.6060   7.6112
     7.6692   7.9048   7.9403   7.9573   7.9618   7.9813   8.0020   8.0043
     8.2205   8.2357   8.2384   8.2425   8.2456   8.2839   8.3599   8.3652
     8.8882   8.8885   8.8903   8.8912   8.9205   8.9231   8.9233   8.9248
     8.9622   8.9632   8.9644   8.9654   9.1060   9.1105   9.1185   9.1189
     9.3024   9.3248   9.3387   9.3450   9.5154   9.5247   9.5344   9.5475
     9.5625   9.5677   9.5720   9.5729   9.9259   9.9669   9.9685

     the Fermi energy is     3.3207 ev

!    total energy              =  -12707.14308833 Ry
     Harris-Foulkes estimate   =  -12707.14308828 Ry
     estimated scf accuracy    <          4.7E-09 Ry

     The total energy is the sum of the following terms:

     one-electron contribution = -109279.37210804 Ry
     hartree contribution      =   56001.07963987 Ry
     xc contribution           =   -4447.77466926 Ry
     ewald contribution        =   45025.26632960 Ry
     Dispersion Correction     =      -2.98700982 Ry
     smearing contrib. (-TS)   =      -3.35527068 Ry

     convergence has been achieved in  47 iterations

     Writing output data file gc.save
 
     init_run     :    146.87s CPU    151.83s WALL (       1 calls)
     electrons    :  17919.25s CPU  18431.53s WALL (       1 calls)

     Called by init_run:
     wfcinit      :    143.84s CPU    148.12s WALL (       1 calls)
     potinit      :      0.65s CPU      0.68s WALL (       1 calls)

     Called by electrons:
     c_bands      :  16452.85s CPU  16905.89s WALL (      47 calls)
     sum_band     :   1204.97s CPU   1240.75s WALL (      47 calls)
     v_of_rho     :      4.36s CPU      4.92s WALL (      48 calls)
     newd         :      9.98s CPU     13.86s WALL (      48 calls)
     mix_rho      :    246.93s CPU    265.96s WALL (      47 calls)

     Called by c_bands:
     init_us_2    :     29.04s CPU     29.51s WALL (     570 calls)
     cegterg      :  16313.12s CPU  16762.15s WALL (     288 calls)

     Called by sum_band:
     sum_band:bec :      7.88s CPU      8.99s WALL (     282 calls)
     addusdens    :     10.58s CPU     14.38s WALL (      47 calls)

     Called by *egterg:
     h_psi        :   5855.48s CPU   6007.93s WALL (    1771 calls)
     s_psi        :   1716.06s CPU   1731.04s WALL (    1771 calls)
     g_psi        :     15.26s CPU     15.25s WALL (    1477 calls)
     cdiaghg      :   4018.74s CPU   4134.37s WALL (    1759 calls)

     Called by h_psi:
     add_vuspsi   :   1683.78s CPU   1699.48s WALL (    1771 calls)

     General routines
     calbec       :   2423.72s CPU   2435.19s WALL (    2053 calls)
     fft          :      4.97s CPU      5.56s WALL (     623 calls)
     ffts         :    170.98s CPU    188.07s WALL (   27010 calls)
     fftw         :   2672.06s CPU   2827.27s WALL ( 1345696 calls)
     davcio       :      0.35s CPU      3.98s WALL (       6 calls)
 
     Parallel routines
     fft_scatter  :   1844.97s CPU   1902.03s WALL ( 1373329 calls)
 
     PWSCF        :     5h 1m CPU        5h 9m WALL

 
   This run was terminated on:  11:26:29  13Dec2016            

=------------------------------------------------------------------------------=
   JOB DONE.
=------------------------------------------------------------------------------=
