
     Program PWSCF v.5.4.0 starts on 11Apr2017 at  9:16:55 

     This program is part of the open-source Quantum ESPRESSO suite
     for quantum simulation of materials; please cite
         "P. Giannozzi et al., J. Phys.:Condens. Matter 21 395502 (2009);
          URL http://www.quantum-espresso.org", 
     in publications or presentations arising from this work. More details at
     http://www.quantum-espresso.org/quote

     Parallel version (MPI & OpenMP), running on      56 processor cores
     Number of MPI processes:                56
     Threads/MPI process:                     1
     R & G space division:  proc/nbgrp/npool/nimage =      56
     Waiting for input...
     Reading input from standard input
Warning: card &IONS ignored
Warning: card / ignored

     Current dimensions of program PWSCF are:
     Max number of different atomic species (ntypx) = 10
     Max number of k-points (npk) =  40000
     Max angular momentum in pseudopotentials (lmaxx) =  3

     -------------------------------------
     Parameters for Dispersion Correction:
     -------------------------------------
       atom      VdW radius       C_6     

        Cu         2.952        374.666
        C_h        2.744         60.710
        C          2.744         60.710
        H          1.892          4.857

     Subspace diagonalization in iterative solution of the eigenvalue problem:
     one sub-group per band group will be used
     scalapack distributed-memory algorithm (size of sub-group:  5*  5 procs)

 
     Parallelization info
     --------------------
     sticks:   dense  smooth     PW     G-vecs:    dense   smooth      PW
     Min         204     204     54                36612    36612    4962
     Max         205     205     55                36617    36617    4968
     Sum       11433   11433   3039              2050409  2050409  278033
 


     bravais-lattice index     =            0
     lattice parameter (alat)  =      13.9425  a.u.
     unit-cell volume          =   21209.0878 (a.u.)^3
     number of atoms/cell      =          151
     number of atomic types    =            4
     number of electrons       =      1298.00
     number of Kohn-Sham states=          779
     kinetic-energy cutoff     =      80.0000  Ry
     charge density cutoff     =     320.0000  Ry
     convergence threshold     =      1.0E-08
     mixing beta               =       0.7000
     number of iterations used =            8  local-TF  mixing
     Exchange-correlation      =  SLA  PW   PBE  PBE ( 1  4  3  4 0 0)

     celldm(1)=  13.942539  celldm(2)=   0.000000  celldm(3)=   0.000000
     celldm(4)=   0.000000  celldm(5)=   0.000000  celldm(6)=   0.000000

     crystal axes: (cart. coord. in units of alat)
               a(1) = (   1.000000   0.000000   0.000000 )  
               a(2) = (   0.000000   2.309401   0.000000 )  
               a(3) = (   0.000000   0.000000   3.388418 )  

     reciprocal axes: (cart. coord. in units 2 pi/alat)
               b(1) = (  1.000000  0.000000  0.000000 )  
               b(2) = (  0.000000  0.433013  0.000000 )  
               b(3) = (  0.000000  0.000000  0.295123 )  


     PseudoPot. # 1 for Cu read from file:
     /home/549/hxw549/Short/pseudopotentials/Cu.pbe-n-van_ak.UPF
     MD5 check sum: 601f7c30f7467666bec936e0661ce3e1
     Pseudo is Ultrasoft + core correction, Zval = 11.0
     Generated by new atomic code, or converted to UPF format
     Using radial grid of  867 points,  6 beta functions with: 
                l(1) =   0
                l(2) =   0
                l(3) =   1
                l(4) =   1
                l(5) =   2
                l(6) =   2
     Q(r) pseudized with  8 coefficients,  rinner =    1.400   1.400   1.400
                                                       1.400   1.400

     PseudoPot. # 2 for C  read from file:
     /home/549/hxw549/Short/pseudopotentials/C.star1s-pbe-mt_gipaw.UPF
     MD5 check sum: ef0cb3dee31bd9e4ba2a832a2c716264
     Pseudo is Norm-conserving, Zval =  5.0
     Generated by new atomic code, or converted to UPF format
     Using radial grid of 1073 points,  1 beta functions with: 
                l(1) =   0

     PseudoPot. # 3 for C  read from file:
     /home/549/hxw549/Short/pseudopotentials/C.pbe-mt_gipaw.UPF
     MD5 check sum: 5ac2f21f2c440b14befe521540822c15
     Pseudo is Norm-conserving, Zval =  4.0
     Generated by new atomic code, or converted to UPF format
     Using radial grid of 1073 points,  1 beta functions with: 
                l(1) =   0

     PseudoPot. # 4 for H  read from file:
     /home/549/hxw549/Short/pseudopotentials/H.pbe-van_ak.UPF
     MD5 check sum: 077eb6d537518a38cb46c6de387227b7
     Pseudo is Ultrasoft, Zval =  1.0
     Generated by new atomic code, or converted to UPF format
     Using radial grid of  615 points,  1 beta functions with: 
                l(1) =   0
     Q(r) pseudized with  8 coefficients,  rinner =    0.800

     atomic species   valence    mass     pseudopotential
        Cu            11.00    63.54600     Cu( 1.00)
        C_h            5.00    12.01070     C ( 1.00)
        C              4.00    12.01070     C ( 1.00)
        H              1.00     1.00783     H ( 1.00)

     No symmetry found



   Cartesian axes

     site n.     atom                  positions (alat units)
         1           Cu  tau(   1) = (   0.0023701   0.0005531   0.9912775  )
         2           Cu  tau(   2) = (   0.2522943   0.2298133   0.9926653  )
         3           Cu  tau(   3) = (   0.5025296   0.0001495   0.9914819  )
         4           Cu  tau(   4) = (   0.7524013   0.2299767   0.9924321  )
         5           Cu  tau(   5) = (   0.0025375   0.4601610   0.9926740  )
         6           Cu  tau(   6) = (   0.2531029   0.6915518   0.9925774  )
         7           Cu  tau(   7) = (   0.5026857   0.4598738   0.9931577  )
         8           Cu  tau(   8) = (   0.7528923   0.6915806   0.9923958  )
         9           Cu  tau(   9) = (   0.0033284   0.9235327   0.9914067  )
        10           Cu  tau(  10) = (   0.2536458   1.1551632   0.9916268  )
        11           Cu  tau(  11) = (   0.5031110   0.9237667   0.9921888  )
        12           Cu  tau(  12) = (   0.7532464   1.1549911   0.9918572  )
        13           Cu  tau(  13) = (   0.0031228   1.3872533   0.9902750  )
        14           Cu  tau(  14) = (   0.2531675   1.6194281   0.9899745  )
        15           Cu  tau(  15) = (   0.5035730   1.3876186   0.9919566  )
        16           Cu  tau(  16) = (   0.7530729   1.6196848   0.9896121  )
        17           Cu  tau(  17) = (   0.0031753   1.8498056   0.9901986  )
        18           Cu  tau(  18) = (   0.2527161   2.0803759   0.9900461  )
        19           Cu  tau(  19) = (   0.5026297   1.8505913   0.9887375  )
        20           Cu  tau(  20) = (   0.7525822   2.0801547   0.9906741  )
        21           Cu  tau(  21) = (   0.0029714   0.2294365   1.2412071  )
        22           Cu  tau(  22) = (   0.2530781  -0.0006502   1.2409225  )
        23           Cu  tau(  23) = (   0.5031218   0.2294308   1.2412588  )
        24           Cu  tau(  24) = (   0.7530282  -0.0002383   1.2413913  )
        25           Cu  tau(  25) = (   0.0037474   0.6915272   1.2388332  )
        26           Cu  tau(  26) = (   0.2534508   0.4599901   1.2402593  )
        27           Cu  tau(  27) = (   0.5034705   0.6915691   1.2392123  )
        28           Cu  tau(  28) = (   0.7531709   0.4594197   1.2392921  )
        29           Cu  tau(  29) = (   0.0044018   1.1568475   1.2366386  )
        30           Cu  tau(  30) = (   0.2539968   0.9236930   1.2387872  )
        31           Cu  tau(  31) = (   0.5040972   1.1559828   1.2392214  )
        32           Cu  tau(  32) = (   0.7544796   0.9232473   1.2393972  )
        33           Cu  tau(  33) = (   0.0041560   1.6193309   1.2388143  )
        34           Cu  tau(  34) = (   0.2536870   1.3888299   1.2368786  )
        35           Cu  tau(  35) = (   0.5035967   1.6211676   1.2364274  )
        36           Cu  tau(  36) = (   0.7545803   1.3894447   1.2365008  )
        37           Cu  tau(  37) = (   0.0032782   2.0794921   1.2408876  )
        38           Cu  tau(  38) = (   0.2531897   1.8496993   1.2398460  )
        39           Cu  tau(  39) = (   0.5034349   2.0792346   1.2399824  )
        40           Cu  tau(  40) = (   0.7540034   1.8497362   1.2391936  )
        41           Cu  tau(  41) = (   0.0038687  -0.0013266   1.4920112  )
        42           Cu  tau(  42) = (   0.2541654   0.2276460   1.4894066  )
        43           Cu  tau(  43) = (   0.5047584  -0.0006080   1.4915878  )
        44           Cu  tau(  44) = (   0.7547324   0.2291704   1.4909609  )
        45           Cu  tau(  45) = (   0.0039754   0.4590212   1.4890642  )
        46           Cu  tau(  46) = (   0.2548312   0.6910340   1.4878485  )
        47           Cu  tau(  47) = (   0.5047712   0.4598869   1.4896285  )
        48           Cu  tau(  48) = (   0.7553903   0.6899110   1.4873405  )
        49           Cu  tau(  49) = (   0.0070936   0.9252700   1.4857464  )
        50           Cu  tau(  50) = (   0.2544914   1.1583113   1.4855396  )
        51           Cu  tau(  51) = (   0.5052697   0.9225779   1.4862390  )
        52           Cu  tau(  52) = (   0.7578866   1.1594260   1.4829290  )
        53           Cu  tau(  53) = (   0.0061710   1.3887674   1.4884912  )
        54           Cu  tau(  54) = (   0.2537878   1.6193626   1.4889766  )
        55           Cu  tau(  55) = (   0.5051385   1.3936799   1.4817811  )
        56           Cu  tau(  56) = (   0.7568507   1.6201381   1.4883657  )
        57           Cu  tau(  57) = (   0.0050292   1.8504379   1.4908492  )
        58           Cu  tau(  58) = (   0.2543320   2.0794405   1.4914776  )
        59           Cu  tau(  59) = (   0.5047577   1.8492729   1.4900454  )
        60           Cu  tau(  60) = (   0.7543994   2.0791456   1.4919649  )
        61           Cu  tau(  61) = (   0.0047913   0.2306247   1.7402186  )
        62           Cu  tau(  62) = (   0.2550961   0.0001435   1.7427744  )
        63           Cu  tau(  63) = (   0.5057528   0.2283734   1.7411779  )
        64           Cu  tau(  64) = (   0.7561085  -0.0000909   1.7422458  )
        65           Cu  tau(  65) = (   0.0053721   0.6896092   1.7355837  )
        66           Cu  tau(  66) = (   0.2567127   0.4576389   1.7348078  )
        67           Cu  tau(  67) = (   0.5075110   0.6951879   1.7408955  )
        68           Cu  tau(  68) = (   0.7535993   0.4595840   1.7396673  )
        69           Cu  tau(  69) = (   0.0120203   1.1589231   1.7404964  )
        70           Cu  tau(  70) = (   0.2583518   0.9233354   1.7346766  )
        71           Cu  tau(  71) = (   0.5072397   1.1632500   1.7209039  )
        72           Cu  tau(  72) = (   0.7653629   0.9287559   1.7233979  )
        73           Cu  tau(  73) = (   0.0075763   1.6181725   1.7390357  )
        74           Cu  tau(  74) = (   0.2591149   1.3887432   1.7382630  )
        75           Cu  tau(  75) = (   0.5086521   1.6186265   1.7374447  )
        76           Cu  tau(  76) = (   0.7595798   1.3867089   1.7354095  )
        77           Cu  tau(  77) = (   0.0062193   2.0789308   1.7432689  )
        78           Cu  tau(  78) = (   0.2567959   1.8486716   1.7397377  )
        79           Cu  tau(  79) = (   0.5057943   2.0797658   1.7420088  )
        80           Cu  tau(  80) = (   0.7574506   1.8487447   1.7412123  )
        81           Cu  tau(  81) = (   0.0082092   0.0037877   1.9879006  )
        82           Cu  tau(  82) = (   0.2577954   0.2331451   1.9898915  )
        83           Cu  tau(  83) = (   0.5041099  -0.0007611   1.9906134  )
        84           Cu  tau(  84) = (   0.7525444   0.2285047   1.9906828  )
        85           Cu  tau(  85) = (   0.0021013   0.4544026   1.9933688  )
        86           Cu  tau(  86) = (   0.2452862   0.6835861   1.9744261  )
        87           Cu  tau(  87) = (   0.5057712   0.4603167   1.9876923  )
        88           Cu  tau(  88) = (   0.7597420   0.6875193   1.9843476  )
        89           Cu  tau(  89) = (  -0.0020278   0.9227397   1.9804540  )
        90           Cu  tau(  90) = (   0.2658969   1.1508642   1.9808554  )
        91           Cu  tau(  91) = (   0.5535786   0.9522431   1.9653777  )
        92           Cu  tau(  92) = (   0.7814193   1.1797657   1.9977810  )
        93           Cu  tau(  93) = (   0.0275559   1.3952747   1.9930356  )
        94           Cu  tau(  94) = (   0.2664933   1.6238450   1.9869247  )
        95           Cu  tau(  95) = (   0.5089217   1.3860883   1.9818804  )
        96           Cu  tau(  96) = (   0.7605104   1.6117712   1.9851316  )
        97           Cu  tau(  97) = (   0.0059979   1.8447571   1.9877681  )
        98           Cu  tau(  98) = (   0.2555181   2.0758967   1.9879824  )
        99           Cu  tau(  99) = (   0.5132582   1.8489597   1.9856103  )
       100           Cu  tau( 100) = (   0.7595416   2.0816111   1.9885779  )
       101           C   tau( 101) = (  -0.0103769   0.0944376   2.3890921  )
       102           C   tau( 102) = (  -0.0105203   0.2864691   2.4063589  )
       103           C   tau( 103) = (   0.1562699  -0.0021316   2.3849102  )
       104           C   tau( 104) = (   0.1556573   0.3820899   2.4221379  )
       105           C   tau( 105) = (   0.3226180   0.0944783   2.3904494  )
       106           C   tau( 106) = (   0.3223383   0.2862627   2.4088131  )
       107           C   tau( 107) = (   0.4895262  -0.0019479   2.3822011  )
       108           C   tau( 108) = (   0.4890551   0.3830602   2.4146001  )
       109           C   tau( 109) = (   0.6564742   0.0947236   2.3868576  )
       110           C   tau( 110) = (   0.6561136   0.2868244   2.4023497  )
       111           C   tau( 111) = (   0.8229854  -0.0018807   2.3819412  )
       112           C   tau( 112) = (   0.8228886   0.3824320   2.4140750  )
       113           C   tau( 113) = (  -0.0113374   0.6701957   2.4479895  )
       114           C   tau( 114) = (  -0.0122261   0.8629609   2.4539182  )
       115           C   tau( 115) = (   0.1552772   0.5730334   2.4485801  )
       116           C   tau( 116) = (   0.1541436   0.9597968   2.4617561  )
       117           C   tau( 117) = (   0.3213128   0.6692623   2.4599181  )
       118           C   tau( 118) = (   0.3184984   0.8611734   2.4642354  )
       119           C   tau( 119) = (   0.4884460   0.5740072   2.4346705  )
       120           C_h tau( 120) = (   0.4827484   0.9556609   2.3894952  )
       121           C   tau( 121) = (   0.4216377   0.9238752   2.1851263  )
       122           H   tau( 122) = (   0.4104643   0.7731797   2.1656364  )
       123           H   tau( 123) = (   0.2798076   0.9763551   2.1781611  )
       124           C   tau( 124) = (   0.6562846   0.6708059   2.4312793  )
       125           C   tau( 125) = (   0.6576716   0.8611452   2.4235509  )
       126           C   tau( 126) = (   0.8230035   0.5740997   2.4324330  )
       127           C   tau( 127) = (   0.8210756   0.9581713   2.4305772  )
       128           C   tau( 128) = (  -0.0108793   1.2468637   2.4107300  )
       129           C   tau( 129) = (  -0.0105860   1.4397120   2.3925802  )
       130           C   tau( 130) = (   0.1550752   1.1519598   2.4318622  )
       131           C   tau( 131) = (   0.1559600   1.5365928   2.3915931  )
       132           C   tau( 132) = (   0.3225252   1.2490795   2.4182764  )
       133           C   tau( 133) = (   0.3224784   1.4410472   2.4020022  )
       134           C   tau( 134) = (   0.4882033   1.1552145   2.4137647  )
       135           C   tau( 135) = (   0.4891463   1.5364117   2.3919873  )
       136           C   tau( 136) = (   0.6543677   1.2476657   2.4045687  )
       137           C   tau( 137) = (   0.6555603   1.4404126   2.3944468  )
       138           C   tau( 138) = (   0.8223089   1.1510513   2.4117753  )
       139           C   tau( 139) = (   0.8224651   1.5358903   2.3850960  )
       140           C   tau( 140) = (  -0.0103791   1.8251840   2.3752745  )
       141           C   tau( 141) = (  -0.0101573   2.0179628   2.3758076  )
       142           C   tau( 142) = (   0.1564209   1.7289726   2.3810649  )
       143           C   tau( 143) = (   0.1564182   2.1145480   2.3773901  )
       144           C   tau( 144) = (   0.3231115   1.8252836   2.3819357  )
       145           C   tau( 145) = (   0.3233013   2.0180263   2.3790683  )
       146           C   tau( 146) = (   0.4894996   1.7290179   2.3840607  )
       147           C   tau( 147) = (   0.4898444   2.1146176   2.3799633  )
       148           C   tau( 148) = (   0.6561199   1.8251554   2.3789644  )
       149           C   tau( 149) = (   0.6562931   2.0180054   2.3773154  )
       150           C   tau( 150) = (   0.8226788   1.7285066   2.3770501  )
       151           C   tau( 151) = (   0.8231952   2.1146619   2.3757520  )

     number of k points=     6  gaussian smearing, width (Ry)=  0.1000
                       cart. coord. in units 2pi/alat
        k(    1) = (   0.0000000   0.0000000   0.0000000), wk =   0.2500000
        k(    2) = (   0.0000000  -0.2165064   0.0000000), wk =   0.2500000
        k(    3) = (   0.2500000   0.0000000   0.0000000), wk =   0.5000000
        k(    4) = (   0.2500000  -0.2165064   0.0000000), wk =   0.5000000
        k(    5) = (  -0.5000000   0.0000000   0.0000000), wk =   0.2500000
        k(    6) = (  -0.5000000  -0.2165064   0.0000000), wk =   0.2500000

     Dense  grid:  2050409 G-vectors     FFT dimensions: (  80, 192, 270)

     Largest allocated arrays     est. size (Mb)     dimensions
        Kohn-Sham Wavefunctions        54.73 Mb     (    4604,  779)
        NL pseudopotentials           130.04 Mb     (    4604, 1851)
        Each V/rho on FFT grid          1.17 Mb     (   76800)
        Each G-vector array             0.28 Mb     (   36616)
        G-vector shells                 0.14 Mb     (   17932)
     Largest temporary arrays     est. size (Mb)     dimensions
        Auxiliary wavefunctions       218.90 Mb     (    4604, 3116)
        Each subspace H/S matrix        5.92 Mb     (     623,  623)
        Each <psi_i|beta_j> matrix     22.00 Mb     (    1851,  779)
        Arrays for rho mixing           9.38 Mb     (   76800,    8)

     Initial potential from superposition of free atoms
     Check: negative starting charge=   -0.001828

     starting charge 1272.31749, renormalised to 1298.00000

     negative rho (up, down):  1.865E-03 0.000E+00
     Starting wfc are 1294 randomized atomic wfcs

     total cpu time spent up to now is      107.2 secs

     Self-consistent Calculation

     iteration #  1     ecut=    80.00 Ry     beta=0.70
     Davidson diagonalization with overlap
     c_bands:  2 eigenvalues not converged
     c_bands:  4 eigenvalues not converged
     c_bands:  4 eigenvalues not converged
     c_bands:  3 eigenvalues not converged
     c_bands:  4 eigenvalues not converged
     c_bands:  4 eigenvalues not converged
     ethr =  1.00E-04,  avg # of iterations = 40.0

     negative rho (up, down):  2.680E+01 0.000E+00

     total cpu time spent up to now is     2247.8 secs

     total energy              =   -9529.51236250 Ry
     Harris-Foulkes estimate   =  -17579.16437438 Ry
     estimated scf accuracy    <  188944.48529141 Ry

     iteration #  2     ecut=    80.00 Ry     beta=0.70
     Davidson diagonalization with overlap
     ethr =  1.00E-02,  avg # of iterations = 13.7

     negative rho (up, down):  3.073E+01 0.000E+00

     total cpu time spent up to now is     3188.9 secs

     total energy              =  -11792.94395560 Ry
     Harris-Foulkes estimate   =  -13769.05615807 Ry
     estimated scf accuracy    <   34500.16558599 Ry

     iteration #  3     ecut=    80.00 Ry     beta=0.70
     Davidson diagonalization with overlap
     ethr =  1.00E-02,  avg # of iterations = 10.2

     negative rho (up, down):  3.189E+01 0.000E+00

     total cpu time spent up to now is     3752.4 secs

     total energy              =  -12428.53135355 Ry
     Harris-Foulkes estimate   =  -13572.38937796 Ry
     estimated scf accuracy    <    5673.17765585 Ry

     iteration #  4     ecut=    80.00 Ry     beta=0.70
     Davidson diagonalization with overlap
     ethr =  1.00E-02,  avg # of iterations =  5.7

     negative rho (up, down):  2.149E+01 0.000E+00

     total cpu time spent up to now is     4295.3 secs

     total energy              =  -12844.64969528 Ry
     Harris-Foulkes estimate   =  -13105.39951669 Ry
     estimated scf accuracy    <     917.45183480 Ry

     iteration #  5     ecut=    80.00 Ry     beta=0.70
     Davidson diagonalization with overlap
     ethr =  1.00E-02,  avg # of iterations =  2.0

     negative rho (up, down):  1.686E+01 0.000E+00

     total cpu time spent up to now is     4541.6 secs

     total energy              =  -12851.51494010 Ry
     Harris-Foulkes estimate   =  -12921.37490555 Ry
     estimated scf accuracy    <    1167.96023108 Ry

     iteration #  6     ecut=    80.00 Ry     beta=0.70
     Davidson diagonalization with overlap
     ethr =  1.00E-02,  avg # of iterations =  2.0

     negative rho (up, down):  1.202E+01 0.000E+00

     total cpu time spent up to now is     4719.2 secs

     total energy              =  -12829.64858683 Ry
     Harris-Foulkes estimate   =  -12883.74074964 Ry
     estimated scf accuracy    <     633.24454518 Ry

     iteration #  7     ecut=    80.00 Ry     beta=0.70
     Davidson diagonalization with overlap
     ethr =  1.00E-02,  avg # of iterations =  2.0

     negative rho (up, down):  1.004E+01 0.000E+00

     total cpu time spent up to now is     4894.8 secs

     total energy              =  -12823.78309464 Ry
     Harris-Foulkes estimate   =  -12846.43613225 Ry
     estimated scf accuracy    <     494.05944585 Ry

     iteration #  8     ecut=    80.00 Ry     beta=0.70
     Davidson diagonalization with overlap
     ethr =  1.00E-02,  avg # of iterations =  1.0

     negative rho (up, down):  7.056E+00 0.000E+00

     total cpu time spent up to now is     5058.8 secs

     total energy              =  -12799.13954767 Ry
     Harris-Foulkes estimate   =  -12833.36630622 Ry
     estimated scf accuracy    <     399.43080722 Ry

     iteration #  9     ecut=    80.00 Ry     beta=0.70
     Davidson diagonalization with overlap
     ethr =  1.00E-02,  avg # of iterations =  1.0

     negative rho (up, down):  5.841E+00 0.000E+00

     total cpu time spent up to now is     5223.1 secs

     total energy              =  -12788.94616530 Ry
     Harris-Foulkes estimate   =  -12804.57266127 Ry
     estimated scf accuracy    <     223.81620852 Ry

     iteration # 10     ecut=    80.00 Ry     beta=0.70
     Davidson diagonalization with overlap
     ethr =  1.00E-02,  avg # of iterations =  2.0

     negative rho (up, down):  8.865E-01 0.000E+00

     total cpu time spent up to now is     5399.5 secs

     total energy              =  -12748.18573929 Ry
     Harris-Foulkes estimate   =  -12792.88626478 Ry
     estimated scf accuracy    <     159.96684975 Ry

     iteration # 11     ecut=    80.00 Ry     beta=0.70
     Davidson diagonalization with overlap
     ethr =  1.00E-02,  avg # of iterations =  2.2

     negative rho (up, down):  8.653E-01 0.000E+00

     total cpu time spent up to now is     5577.9 secs

     total energy              =  -12737.99993199 Ry
     Harris-Foulkes estimate   =  -12757.95477982 Ry
     estimated scf accuracy    <     239.56097859 Ry

     iteration # 12     ecut=    80.00 Ry     beta=0.70
     Davidson diagonalization with overlap
     ethr =  1.00E-02,  avg # of iterations =  2.0

     negative rho (up, down):  4.986E-01 0.000E+00

     total cpu time spent up to now is     5756.3 secs

     total energy              =  -12731.68722691 Ry
     Harris-Foulkes estimate   =  -12747.90066015 Ry
     estimated scf accuracy    <     247.45862248 Ry

     iteration # 13     ecut=    80.00 Ry     beta=0.70
     Davidson diagonalization with overlap
     ethr =  1.00E-02,  avg # of iterations =  2.0

     negative rho (up, down):  2.632E+00 0.000E+00

     total cpu time spent up to now is     5932.4 secs

     total energy              =  -12730.47635748 Ry
     Harris-Foulkes estimate   =  -12743.12393495 Ry
     estimated scf accuracy    <      84.60944511 Ry

     iteration # 14     ecut=    80.00 Ry     beta=0.70
     Davidson diagonalization with overlap
     ethr =  6.52E-03,  avg # of iterations =  2.0

     negative rho (up, down):  2.692E+00 0.000E+00

     total cpu time spent up to now is     6108.9 secs

     total energy              =  -12728.93493705 Ry
     Harris-Foulkes estimate   =  -12737.69000114 Ry
     estimated scf accuracy    <      61.44623544 Ry

     iteration # 15     ecut=    80.00 Ry     beta=0.70
     Davidson diagonalization with overlap
     ethr =  4.73E-03,  avg # of iterations =  1.5

     negative rho (up, down):  5.504E+00 0.000E+00

     total cpu time spent up to now is     6279.0 secs

     total energy              =  -12729.22569703 Ry
     Harris-Foulkes estimate   =  -12732.70282774 Ry
     estimated scf accuracy    <      35.79385478 Ry

     iteration # 16     ecut=    80.00 Ry     beta=0.70
     Davidson diagonalization with overlap
     ethr =  2.76E-03,  avg # of iterations =  2.2

     negative rho (up, down):  4.950E+00 0.000E+00

     total cpu time spent up to now is     6456.6 secs

     total energy              =  -12728.06539693 Ry
     Harris-Foulkes estimate   =  -12730.13590036 Ry
     estimated scf accuracy    <      21.81825868 Ry

     iteration # 17     ecut=    80.00 Ry     beta=0.70
     Davidson diagonalization with overlap
     ethr =  1.68E-03,  avg # of iterations =  3.0

     negative rho (up, down):  3.787E+00 0.000E+00

     total cpu time spent up to now is     6643.8 secs

     total energy              =  -12726.12935041 Ry
     Harris-Foulkes estimate   =  -12728.45040718 Ry
     estimated scf accuracy    <      16.48760290 Ry

     iteration # 18     ecut=    80.00 Ry     beta=0.70
     Davidson diagonalization with overlap
     ethr =  1.27E-03,  avg # of iterations =  6.2

     negative rho (up, down):  2.105E+00 0.000E+00

     total cpu time spent up to now is     6870.4 secs

     total energy              =  -12724.72377437 Ry
     Harris-Foulkes estimate   =  -12726.52089209 Ry
     estimated scf accuracy    <       7.78073539 Ry

     iteration # 19     ecut=    80.00 Ry     beta=0.70
     Davidson diagonalization with overlap
     ethr =  5.99E-04,  avg # of iterations =  5.7

     negative rho (up, down):  1.928E+00 0.000E+00

     total cpu time spent up to now is     7092.6 secs

     total energy              =  -12724.36898421 Ry
     Harris-Foulkes estimate   =  -12725.17020604 Ry
     estimated scf accuracy    <      18.14698724 Ry

     iteration # 20     ecut=    80.00 Ry     beta=0.70
     Davidson diagonalization with overlap
     ethr =  5.99E-04,  avg # of iterations =  1.8

     negative rho (up, down):  1.679E+00 0.000E+00

     total cpu time spent up to now is     7267.7 secs

     total energy              =  -12724.04599112 Ry
     Harris-Foulkes estimate   =  -12724.61655849 Ry
     estimated scf accuracy    <       9.84528285 Ry

     iteration # 21     ecut=    80.00 Ry     beta=0.70
     Davidson diagonalization with overlap
     ethr =  5.99E-04,  avg # of iterations =  1.0

     negative rho (up, down):  1.177E+00 0.000E+00

     total cpu time spent up to now is     7432.3 secs

     total energy              =  -12722.87783237 Ry
     Harris-Foulkes estimate   =  -12724.13474221 Ry
     estimated scf accuracy    <       6.76478638 Ry

     iteration # 22     ecut=    80.00 Ry     beta=0.70
     Davidson diagonalization with overlap
     ethr =  5.21E-04,  avg # of iterations =  2.0

     negative rho (up, down):  1.244E+00 0.000E+00

     total cpu time spent up to now is     7610.7 secs

     total energy              =  -12721.91606770 Ry
     Harris-Foulkes estimate   =  -12723.22128637 Ry
     estimated scf accuracy    <       7.66109651 Ry

     iteration # 23     ecut=    80.00 Ry     beta=0.70
     Davidson diagonalization with overlap
     ethr =  5.21E-04,  avg # of iterations =  6.0

     negative rho (up, down):  8.280E-01 0.000E+00

     total cpu time spent up to now is     7838.4 secs

     total energy              =  -12721.05830080 Ry
     Harris-Foulkes estimate   =  -12722.28735878 Ry
     estimated scf accuracy    <       4.55773056 Ry

     iteration # 24     ecut=    80.00 Ry     beta=0.70
     Davidson diagonalization with overlap
     ethr =  3.51E-04,  avg # of iterations =  4.3

     negative rho (up, down):  8.411E-01 0.000E+00

     total cpu time spent up to now is     8043.4 secs

     total energy              =  -12720.89208908 Ry
     Harris-Foulkes estimate   =  -12721.21323636 Ry
     estimated scf accuracy    <       3.59019563 Ry

     iteration # 25     ecut=    80.00 Ry     beta=0.70
     Davidson diagonalization with overlap
     ethr =  2.77E-04,  avg # of iterations =  2.3

     negative rho (up, down):  9.814E-01 0.000E+00

     total cpu time spent up to now is     8224.6 secs

     total energy              =  -12720.75669964 Ry
     Harris-Foulkes estimate   =  -12721.01174635 Ry
     estimated scf accuracy    <       1.06062576 Ry

     iteration # 26     ecut=    80.00 Ry     beta=0.70
     Davidson diagonalization with overlap
     ethr =  8.17E-05,  avg # of iterations =  8.8

     negative rho (up, down):  8.310E-01 0.000E+00

     total cpu time spent up to now is     8505.8 secs

     total energy              =  -12720.66907178 Ry
     Harris-Foulkes estimate   =  -12720.81309234 Ry
     estimated scf accuracy    <       0.49297974 Ry

     iteration # 27     ecut=    80.00 Ry     beta=0.70
     Davidson diagonalization with overlap
     ethr =  3.80E-05,  avg # of iterations =  7.3

     negative rho (up, down):  4.259E-01 0.000E+00

     total cpu time spent up to now is     8759.6 secs

     total energy              =  -12720.62584512 Ry
     Harris-Foulkes estimate   =  -12720.69809662 Ry
     estimated scf accuracy    <       0.22709241 Ry

     iteration # 28     ecut=    80.00 Ry     beta=0.70
     Davidson diagonalization with overlap
     ethr =  1.75E-05,  avg # of iterations =  9.8

     negative rho (up, down):  5.633E-01 0.000E+00

     total cpu time spent up to now is     9053.8 secs

     total energy              =  -12720.63454898 Ry
     Harris-Foulkes estimate   =  -12720.64246768 Ry
     estimated scf accuracy    <       0.23428802 Ry

     iteration # 29     ecut=    80.00 Ry     beta=0.70
     Davidson diagonalization with overlap
     ethr =  1.75E-05,  avg # of iterations =  7.5

     negative rho (up, down):  1.217E-01 0.000E+00

     total cpu time spent up to now is     9311.5 secs

     total energy              =  -12720.62871101 Ry
     Harris-Foulkes estimate   =  -12720.64330136 Ry
     estimated scf accuracy    <       0.05575312 Ry

     iteration # 30     ecut=    80.00 Ry     beta=0.70
     Davidson diagonalization with overlap
     c_bands:  1 eigenvalues not converged
     c_bands:  1 eigenvalues not converged
     ethr =  4.30E-06,  avg # of iterations = 18.3

     negative rho (up, down):  2.891E-02 0.000E+00

     total cpu time spent up to now is     9747.7 secs

     total energy              =  -12720.63063808 Ry
     Harris-Foulkes estimate   =  -12720.63189852 Ry
     estimated scf accuracy    <       0.02201078 Ry

     iteration # 31     ecut=    80.00 Ry     beta=0.70
     Davidson diagonalization with overlap
     c_bands:  2 eigenvalues not converged
     c_bands:  2 eigenvalues not converged
     ethr =  1.70E-06,  avg # of iterations = 15.5

     negative rho (up, down):  1.445E-02 0.000E+00

     total cpu time spent up to now is    10120.8 secs

     total energy              =  -12720.63158137 Ry
     Harris-Foulkes estimate   =  -12720.63191364 Ry
     estimated scf accuracy    <       0.00305780 Ry

     iteration # 32     ecut=    80.00 Ry     beta=0.70
     Davidson diagonalization with overlap
     c_bands:  1 eigenvalues not converged
     ethr =  2.36E-07,  avg # of iterations = 10.7

     negative rho (up, down):  7.176E-03 0.000E+00

     total cpu time spent up to now is    10410.4 secs

     total energy              =  -12720.63172986 Ry
     Harris-Foulkes estimate   =  -12720.63183348 Ry
     estimated scf accuracy    <       0.00140486 Ry

     iteration # 33     ecut=    80.00 Ry     beta=0.70
     Davidson diagonalization with overlap
     ethr =  1.08E-07,  avg # of iterations = 11.8

     negative rho (up, down):  1.005E-02 0.000E+00

     total cpu time spent up to now is    10722.7 secs

     total energy              =  -12720.63179609 Ry
     Harris-Foulkes estimate   =  -12720.63182827 Ry
     estimated scf accuracy    <       0.00078909 Ry

     iteration # 34     ecut=    80.00 Ry     beta=0.70
     Davidson diagonalization with overlap
     ethr =  6.08E-08,  avg # of iterations =  5.3

     negative rho (up, down):  4.655E-03 0.000E+00

     total cpu time spent up to now is    10949.8 secs

     total energy              =  -12720.63172217 Ry
     Harris-Foulkes estimate   =  -12720.63187032 Ry
     estimated scf accuracy    <       0.00044854 Ry

     iteration # 35     ecut=    80.00 Ry     beta=0.70
     Davidson diagonalization with overlap
     c_bands:  1 eigenvalues not converged
     ethr =  3.46E-08,  avg # of iterations = 10.7

     negative rho (up, down):  5.236E-03 0.000E+00

     total cpu time spent up to now is    11244.5 secs

     total energy              =  -12720.63178411 Ry
     Harris-Foulkes estimate   =  -12720.63175416 Ry
     estimated scf accuracy    <       0.00007353 Ry

     iteration # 36     ecut=    80.00 Ry     beta=0.70
     Davidson diagonalization with overlap
     c_bands:  1 eigenvalues not converged
     ethr =  5.66E-09,  avg # of iterations =  7.2

     negative rho (up, down):  2.535E-03 0.000E+00

     total cpu time spent up to now is    11506.2 secs

     total energy              =  -12720.63175514 Ry
     Harris-Foulkes estimate   =  -12720.63179562 Ry
     estimated scf accuracy    <       0.00004130 Ry

     iteration # 37     ecut=    80.00 Ry     beta=0.70
     Davidson diagonalization with overlap
     ethr =  3.18E-09,  avg # of iterations = 12.0

     negative rho (up, down):  1.706E-03 0.000E+00

     total cpu time spent up to now is    11808.9 secs

     total energy              =  -12720.63175755 Ry
     Harris-Foulkes estimate   =  -12720.63175946 Ry
     estimated scf accuracy    <       0.00001006 Ry

     iteration # 38     ecut=    80.00 Ry     beta=0.70
     Davidson diagonalization with overlap
     ethr =  7.75E-10,  avg # of iterations =  3.0

     negative rho (up, down):  1.790E-03 0.000E+00

     total cpu time spent up to now is    12005.5 secs

     total energy              =  -12720.63176021 Ry
     Harris-Foulkes estimate   =  -12720.63175872 Ry
     estimated scf accuracy    <       0.00000204 Ry

     iteration # 39     ecut=    80.00 Ry     beta=0.70
     Davidson diagonalization with overlap
     ethr =  1.57E-10,  avg # of iterations =  3.0

     negative rho (up, down):  1.895E-03 0.000E+00

     total cpu time spent up to now is    12220.2 secs

     total energy              =  -12720.63176068 Ry
     Harris-Foulkes estimate   =  -12720.63176050 Ry
     estimated scf accuracy    <       0.00000073 Ry

     iteration # 40     ecut=    80.00 Ry     beta=0.70
     Davidson diagonalization with overlap
     ethr =  5.64E-11,  avg # of iterations =  2.3

     negative rho (up, down):  1.933E-03 0.000E+00

     total cpu time spent up to now is    12407.5 secs

     total energy              =  -12720.63176092 Ry
     Harris-Foulkes estimate   =  -12720.63176076 Ry
     estimated scf accuracy    <       0.00000028 Ry

     iteration # 41     ecut=    80.00 Ry     beta=0.70
     Davidson diagonalization with overlap
     ethr =  2.14E-11,  avg # of iterations =  3.0

     negative rho (up, down):  1.991E-03 0.000E+00

     total cpu time spent up to now is    12616.1 secs

     total energy              =  -12720.63176095 Ry
     Harris-Foulkes estimate   =  -12720.63176097 Ry
     estimated scf accuracy    <       0.00000013 Ry

     iteration # 42     ecut=    80.00 Ry     beta=0.70
     Davidson diagonalization with overlap
     ethr =  1.04E-11,  avg # of iterations =  2.7

     negative rho (up, down):  2.020E-03 0.000E+00

     total cpu time spent up to now is    12807.1 secs

     total energy              =  -12720.63176095 Ry
     Harris-Foulkes estimate   =  -12720.63176097 Ry
     estimated scf accuracy    <       0.00000004 Ry

     iteration # 43     ecut=    80.00 Ry     beta=0.70
     Davidson diagonalization with overlap
     ethr =  2.81E-12,  avg # of iterations =  2.0

     negative rho (up, down):  2.025E-03 0.000E+00

     total cpu time spent up to now is    12997.2 secs

     total energy              =  -12720.63176096 Ry
     Harris-Foulkes estimate   =  -12720.63176095 Ry
     estimated scf accuracy    <       0.00000002 Ry

     iteration # 44     ecut=    80.00 Ry     beta=0.70
     Davidson diagonalization with overlap
     ethr =  1.47E-12,  avg # of iterations =  3.0

     negative rho (up, down):  2.036E-03 0.000E+00

     total cpu time spent up to now is    13188.3 secs

     End of self-consistent calculation

          k = 0.0000 0.0000 0.0000 (256287 PWs)   bands (ev):

   -17.5780 -16.1698 -15.9456 -15.4011 -14.9244 -14.6488 -14.5297 -14.1851
   -14.1197 -13.9955 -13.9780 -13.4152 -13.2085 -13.0456 -12.9944 -12.9532
   -12.9458 -11.7127 -11.4188 -11.3782 -11.2649 -11.1103 -10.5937 -10.2080
    -9.6559  -9.5039  -9.4852  -9.4317  -8.8412  -8.6769  -8.5331  -8.4730
    -7.9480  -7.7705  -7.6801  -7.5478  -7.4771  -7.4458  -7.3928  -7.3775
    -6.2690  -6.2647  -6.1862  -5.9796  -5.9233  -5.8314  -5.7799  -5.7773
    -5.7248  -5.6163  -5.4609  -5.4055  -4.9594  -4.7868  -4.7770  -4.6111
    -4.5209  -4.4934  -4.3667  -4.2903  -4.2220  -4.0275  -3.9673  -3.9281
    -3.8907  -3.8060  -3.7281  -3.5446  -3.4534  -3.4195  -3.3729  -3.3711
    -3.3041  -3.2980  -3.1755  -3.0776  -3.0480  -3.0178  -2.9856  -2.9792
    -2.9616  -2.9508  -2.8789  -2.8489  -2.7712  -2.7487  -2.7045  -2.6823
    -2.6525  -2.6242  -2.5947  -2.5581  -2.5397  -2.3940  -2.3077  -2.2885
    -2.2838  -2.2642  -2.1718  -2.1585  -2.1530  -2.1416  -2.1283  -2.1250
    -2.1213  -2.1187  -2.0101  -1.9929  -1.9888  -1.9878  -1.9781  -1.9475
    -1.9235  -1.9060  -1.8983  -1.8137  -1.7511  -1.7347  -1.7124  -1.7093
    -1.6961  -1.6802  -1.6689  -1.6442  -1.6329  -1.6267  -1.5990  -1.5879
    -1.5728  -1.5471  -1.5426  -1.5304  -1.5185  -1.5106  -1.5044  -1.4931
    -1.4876  -1.4806  -1.4671  -1.4634  -1.4343  -1.4010  -1.3821  -1.3386
    -1.3244  -1.3176  -1.2896  -1.2710  -1.2628  -1.2578  -1.2364  -1.2306
    -1.2207  -1.1925  -1.1841  -1.1658  -1.1592  -1.1576  -1.1388  -1.1325
    -1.0585  -1.0499  -1.0414  -1.0369  -1.0288  -1.0258  -1.0178  -1.0129
    -1.0036  -0.9990  -0.9966  -0.9909  -0.9899  -0.9785  -0.9747  -0.9679
    -0.9613  -0.9362  -0.9193  -0.9187  -0.9124  -0.8997  -0.8971  -0.8866
    -0.8790  -0.8728  -0.8610  -0.8497  -0.8430  -0.8378  -0.8328  -0.8318
    -0.8272  -0.8261  -0.8259  -0.8220  -0.8192  -0.8180  -0.8145  -0.8096
    -0.8088  -0.8042  -0.7856  -0.7663  -0.7579  -0.7462  -0.7320  -0.6808
    -0.6668  -0.6592  -0.6566  -0.6494  -0.6420  -0.6243  -0.6152  -0.6111
    -0.6043  -0.5933  -0.5791  -0.5735  -0.5706  -0.5686  -0.5622  -0.5589
    -0.5460  -0.5394  -0.5374  -0.5339  -0.5318  -0.5226  -0.5135  -0.5038
    -0.4946  -0.4621  -0.4582  -0.4273  -0.4183  -0.4138  -0.4066  -0.3967
    -0.3947  -0.3858  -0.3822  -0.3800  -0.3781  -0.3776  -0.3701  -0.3696
    -0.3636  -0.3600  -0.3589  -0.3566  -0.3502  -0.3367  -0.3274  -0.3228
    -0.3094  -0.2786  -0.2778  -0.2714  -0.2662  -0.2636  -0.2536  -0.2385
    -0.2383  -0.2352  -0.2307  -0.2252  -0.2236  -0.2176  -0.2134  -0.2050
    -0.2041  -0.2008  -0.1997  -0.1918  -0.1884  -0.1848  -0.1786  -0.1737
    -0.1722  -0.1645  -0.1631  -0.1548  -0.1488  -0.1479  -0.1310  -0.1139
    -0.1028  -0.0973  -0.0887  -0.0845  -0.0725  -0.0652  -0.0579  -0.0464
    -0.0380  -0.0360  -0.0331  -0.0285  -0.0273  -0.0235  -0.0153  -0.0106
    -0.0032   0.0060   0.0089   0.0178   0.0299   0.0322   0.0362   0.0431
     0.0460   0.0498   0.0544   0.0573   0.0630   0.0667   0.0710   0.0728
     0.0766   0.0786   0.0838   0.0884   0.0931   0.0960   0.1026   0.1136
     0.1185   0.1234   0.1306   0.1342   0.1501   0.1580   0.1641   0.1773
     0.1903   0.1970   0.2054   0.2221   0.2365   0.2437   0.2512   0.2545
     0.2669   0.2756   0.2813   0.2831   0.2857   0.2878   0.3044   0.3103
     0.3200   0.3215   0.3389   0.3572   0.3597   0.3700   0.3715   0.3725
     0.3758   0.3900   0.3990   0.4045   0.4082   0.4155   0.4222   0.4326
     0.4336   0.4368   0.4466   0.4624   0.4654   0.4680   0.4798   0.4844
     0.4891   0.5036   0.5040   0.5088   0.5214   0.5241   0.5320   0.5348
     0.5393   0.5415   0.5465   0.5498   0.5586   0.5610   0.5655   0.5723
     0.5727   0.5773   0.5814   0.5846   0.5889   0.5902   0.5925   0.5978
     0.6010   0.6094   0.6163   0.6327   0.6347   0.6384   0.6480   0.6617
     0.6650   0.6691   0.6752   0.6794   0.6840   0.6871   0.6925   0.6963
     0.6987   0.7010   0.7065   0.7103   0.7166   0.7172   0.7198   0.7255
     0.7265   0.7342   0.7390   0.7444   0.7522   0.7563   0.7611   0.7671
     0.7725   0.7758   0.7767   0.7779   0.7817   0.7845   0.7900   0.7911
     0.7961   0.8000   0.8193   0.8291   0.8320   0.8383   0.8439   0.8478
     0.8540   0.8564   0.8699   0.8763   0.8774   0.8823   0.8910   0.8939
     0.9032   0.9055   0.9104   0.9202   0.9234   0.9281   0.9342   0.9366
     0.9425   0.9463   0.9577   0.9586   0.9649   0.9693   0.9719   0.9773
     0.9791   0.9898   0.9906   0.9993   1.0060   1.0088   1.0133   1.0154
     1.0213   1.0221   1.0286   1.0315   1.0364   1.0414   1.0454   1.0480
     1.0532   1.0575   1.0627   1.0690   1.0710   1.0746   1.0776   1.0872
     1.0924   1.0981   1.0985   1.1053   1.1108   1.1126   1.1184   1.1285
     1.1301   1.1383   1.1418   1.1448   1.1481   1.1490   1.1503   1.1518
     1.1525   1.1570   1.1583   1.1636   1.1703   1.1832   1.1859   1.2001
     1.2026   1.2055   1.2168   1.2196   1.2246   1.2287   1.2332   1.2361
     1.2400   1.2425   1.2427   1.2565   1.2583   1.2587   1.2644   1.2698
     1.2759   1.2797   1.2826   1.2841   1.2876   1.2923   1.2937   1.2965
     1.3004   1.3073   1.3102   1.3126   1.3188   1.3222   1.3266   1.3301
     1.3313   1.3366   1.3387   1.3397   1.3444   1.3469   1.3483   1.3549
     1.3585   1.3716   1.3742   1.3766   1.3811   1.3840   1.3860   1.3874
     1.3927   1.3944   1.4096   1.4144   1.4187   1.4208   1.4253   1.4328
     1.4404   1.4420   1.4421   1.4493   1.4504   1.4531   1.4555   1.4562
     1.4585   1.4594   1.4640   1.4674   1.4689   1.4750   1.4776   1.4837
     1.4883   1.4896   1.4956   1.4989   1.5058   1.5071   1.5111   1.5132
     1.5227   1.5413   1.5482   1.5524   1.5573   1.5726   1.5866   1.5943
     1.6003   1.6100   1.6131   1.6168   1.6372   1.6375   1.6419   1.6518
     1.6576   1.6693   1.6745   1.6763   1.6800   1.6824   1.9037   1.9112
     1.9848   2.1040   2.1458   2.1489   2.1654   2.2014   2.2211   2.2297
     2.2337   2.2405   2.2466   2.2555   2.2691   2.3218   2.4245   2.4447
     2.4667   2.4761   2.4884   2.5291   2.5357   2.6993   2.7217   2.7619
     2.7859   2.9113   3.0806   3.1172   3.1460   3.2336   3.5442   3.6049
     3.8036   3.8133   3.8466   3.8682   3.8821   3.8898   3.9250   3.9694
     3.9845   4.0069   4.0210   4.0222   4.0293   4.0340   4.0774   4.1002
     4.1523   4.2346   4.2579   4.3151   4.4038   4.7055   4.7697   4.8339
     4.9574   4.9815   5.0054   5.3160   5.3421   5.3951   5.4697   5.7116
     5.7261   5.7459   5.7822   5.8945   5.9461   5.9830   6.3238   6.3346
     6.3931   6.4415   6.4620   6.4820   6.5098   6.5300   6.5833   6.6852
     6.7303   6.7446   6.7899   6.8186   6.8384   6.8539   6.8880   6.8973
     7.0413   7.0559   7.1171   7.1917   7.3637   7.3778   7.3948   7.5365
     7.5723   7.6354   7.6904   7.6933   7.7334   7.7927   7.9158   8.0766
     8.0999   8.1283   8.1404   8.2140   8.2267   8.2902   8.3223   8.3380
     8.3552   8.3711   8.3757   8.3962   8.4215   8.5017   8.5532   8.5752
     8.6111   8.6471   8.6923   8.7235   8.7484   8.7877   8.8064   8.8523
     8.8539   8.8880   8.9255   9.0012   9.0546   9.0783   9.0992   9.1141
     9.1713   9.2234   9.2571   9.2767   9.3398   9.3785   9.4382   9.5456
     9.5540   9.5752   9.5983   9.6989   9.7570   9.8255   9.8747   9.8952
     9.9903  10.0717  10.0766

          k = 0.0000-0.2165 0.0000 (256176 PWs)   bands (ev):

   -17.5780 -16.2054 -15.8315 -15.5297 -15.0082 -14.5142 -14.2655 -14.2417
   -14.1505 -14.0978 -13.7269 -13.6671 -13.5840 -13.5501 -12.5933 -12.3223
   -12.2694 -12.1846 -12.0225 -11.9717 -10.9137 -10.4636 -10.4049 -10.2874
   -10.2191  -9.3284  -9.2595  -9.1255  -8.9886  -8.8761  -8.8462  -8.2789
    -8.1750  -8.0845  -8.0394  -7.3723  -7.1976  -6.9473  -6.8731  -6.8137
    -6.7828  -6.7229  -6.7143  -6.0909  -6.0465  -5.8755  -5.8606  -5.7042
    -5.4357  -5.2854  -5.0812  -5.0582  -4.9264  -4.8595  -4.8169  -4.7973
    -4.7009  -4.6313  -4.5263  -4.5102  -4.4223  -4.3029  -4.2172  -3.8320
    -3.7697  -3.6949  -3.5664  -3.4748  -3.3082  -3.2784  -3.2752  -3.2560
    -3.2487  -3.1313  -3.1039  -3.0592  -3.0310  -2.9993  -2.9829  -2.9784
    -2.9406  -2.8184  -2.8108  -2.7944  -2.7503  -2.7017  -2.6829  -2.6435
    -2.5605  -2.5597  -2.5533  -2.5499  -2.5345  -2.5242  -2.4986  -2.4732
    -2.4092  -2.3065  -2.2615  -2.2460  -2.1943  -2.1895  -2.1758  -2.1377
    -2.1293  -2.1022  -2.0871  -2.0778  -2.0249  -1.9630  -1.9552  -1.9353
    -1.9322  -1.8973  -1.8585  -1.8205  -1.8165  -1.7566  -1.7481  -1.7363
    -1.7145  -1.7140  -1.7078  -1.7058  -1.6946  -1.6863  -1.6808  -1.6451
    -1.6228  -1.6114  -1.5974  -1.5829  -1.4946  -1.4619  -1.4494  -1.4422
    -1.4248  -1.4083  -1.3988  -1.3464  -1.3457  -1.3321  -1.3052  -1.2949
    -1.2851  -1.2630  -1.2533  -1.2515  -1.2479  -1.2442  -1.2429  -1.2422
    -1.2314  -1.2236  -1.2098  -1.2031  -1.1955  -1.1943  -1.1742  -1.1688
    -1.1492  -1.1304  -1.1254  -1.1225  -1.1041  -1.0629  -1.0617  -1.0587
    -1.0302  -1.0233  -1.0207  -1.0171  -0.9816  -0.9747  -0.9693  -0.9609
    -0.9572  -0.9491  -0.9490  -0.9425  -0.9327  -0.9027  -0.8997  -0.8948
    -0.8871  -0.8825  -0.8814  -0.8755  -0.8669  -0.8537  -0.8419  -0.8344
    -0.8057  -0.8009  -0.7975  -0.7904  -0.7889  -0.7816  -0.7781  -0.7700
    -0.7595  -0.7513  -0.7379  -0.7318  -0.7238  -0.7211  -0.7035  -0.6497
    -0.6382  -0.6309  -0.6234  -0.6214  -0.6086  -0.6057  -0.5847  -0.5821
    -0.5808  -0.5774  -0.5739  -0.5713  -0.5525  -0.5454  -0.5329  -0.5252
    -0.5181  -0.5125  -0.5097  -0.5069  -0.5020  -0.4927  -0.4794  -0.4753
    -0.4664  -0.4629  -0.4608  -0.4553  -0.4346  -0.4288  -0.4254  -0.4187
    -0.4164  -0.4087  -0.4022  -0.3998  -0.3859  -0.3669  -0.3633  -0.3484
    -0.3361  -0.3257  -0.3245  -0.3188  -0.2985  -0.2898  -0.2875  -0.2828
    -0.2717  -0.2674  -0.2657  -0.2652  -0.2581  -0.2520  -0.2460  -0.2437
    -0.2371  -0.2337  -0.2281  -0.2224  -0.2174  -0.2162  -0.2141  -0.2133
    -0.2068  -0.2010  -0.1925  -0.1888  -0.1812  -0.1765  -0.1731  -0.1718
    -0.1541  -0.1466  -0.1306  -0.1236  -0.1181  -0.1136  -0.1101  -0.1017
    -0.0957  -0.0887  -0.0865  -0.0762  -0.0711  -0.0650  -0.0589  -0.0554
    -0.0536  -0.0512  -0.0479  -0.0464  -0.0436  -0.0419  -0.0327  -0.0195
    -0.0043   0.0008   0.0032   0.0085   0.0144   0.0254   0.0283   0.0350
     0.0407   0.0430   0.0499   0.0514   0.0569   0.0591   0.0614   0.0670
     0.0772   0.0869   0.0957   0.0987   0.0993   0.1044   0.1077   0.1177
     0.1227   0.1248   0.1289   0.1343   0.1383   0.1523   0.1562   0.1638
     0.1646   0.1707   0.1748   0.1940   0.1966   0.2104   0.2164   0.2203
     0.2295   0.2379   0.2440   0.2569   0.2594   0.2811   0.2865   0.2956
     0.3049   0.3169   0.3254   0.3390   0.3440   0.3485   0.3679   0.4071
     0.4093   0.4116   0.4187   0.4314   0.4328   0.4415   0.4492   0.4576
     0.4593   0.4644   0.4704   0.4814   0.4839   0.4859   0.4922   0.4940
     0.4972   0.4991   0.5042   0.5094   0.5129   0.5194   0.5252   0.5284
     0.5421   0.5456   0.5475   0.5492   0.5569   0.5590   0.5622   0.5649
     0.5660   0.5697   0.5707   0.5739   0.5808   0.5848   0.5873   0.5956
     0.5978   0.6000   0.6056   0.6101   0.6121   0.6161   0.6226   0.6238
     0.6294   0.6327   0.6369   0.6415   0.6560   0.6624   0.6736   0.6831
     0.6868   0.6899   0.6905   0.6934   0.6962   0.7011   0.7026   0.7104
     0.7123   0.7164   0.7207   0.7214   0.7317   0.7391   0.7451   0.7520
     0.7544   0.7600   0.7643   0.7718   0.7766   0.7836   0.7861   0.7921
     0.7986   0.8045   0.8082   0.8112   0.8180   0.8221   0.8351   0.8496
     0.8644   0.8730   0.8917   0.9024   0.9113   0.9145   0.9221   0.9242
     0.9275   0.9291   0.9311   0.9404   0.9411   0.9438   0.9461   0.9554
     0.9590   0.9625   0.9648   0.9700   0.9734   0.9806   0.9872   0.9884
     0.9930   0.9938   0.9960   0.9965   1.0003   1.0023   1.0062   1.0086
     1.0134   1.0148   1.0164   1.0178   1.0189   1.0211   1.0234   1.0258
     1.0318   1.0377   1.0443   1.0472   1.0503   1.0576   1.0587   1.0612
     1.0658   1.0675   1.0689   1.0711   1.0804   1.0831   1.0974   1.1083
     1.1174   1.1210   1.1267   1.1491   1.1537   1.1618   1.1697   1.1732
     1.1793   1.1847   1.1888   1.1957   1.1982   1.2042   1.2070   1.2090
     1.2139   1.2161   1.2186   1.2224   1.2230   1.2256   1.2305   1.2338
     1.2341   1.2428   1.2479   1.2480   1.2525   1.2546   1.2560   1.2602
     1.2620   1.2677   1.2695   1.2769   1.2863   1.2873   1.2886   1.2969
     1.2984   1.3027   1.3045   1.3078   1.3147   1.3165   1.3187   1.3237
     1.3293   1.3306   1.3364   1.3389   1.3425   1.3468   1.3526   1.3550
     1.3621   1.3622   1.3646   1.3778   1.3816   1.3929   1.3961   1.3996
     1.4041   1.4056   1.4095   1.4135   1.4146   1.4201   1.4218   1.4301
     1.4338   1.4388   1.4407   1.4424   1.4523   1.4561   1.4605   1.4673
     1.4710   1.4757   1.4771   1.4791   1.4804   1.4829   1.4880   1.4988
     1.5108   1.5139   1.5158   1.5212   1.5246   1.5292   1.5389   1.5451
     1.5482   1.5498   1.5523   1.5527   1.5645   1.5685   1.5785   1.5804
     1.6094   1.6121   1.6144   1.6916   1.7074   1.7232   1.7413   1.7546
     1.7720   1.7828   1.7870   1.7909   1.7978   1.8218   1.8295   1.8376
     1.8388   1.8622   1.8748   1.8804   1.8888   2.0301   2.1266   2.1471
     2.1841   2.4303   2.4340   2.4425   2.5015   2.5214   2.5346   2.5655
     2.5948   2.6007   2.6095   2.6221   2.7077   2.7352   2.7388   2.7832
     2.7928   2.8309   2.9476   2.9483   2.9783   3.1382   3.1973   3.1973
     3.2298   3.2775   3.4159   3.5378   3.6992   3.7492   3.9631   4.0180
     4.0466   4.1036   4.1179   4.1617   4.2206   4.3148   4.3450   4.3615
     4.4515   4.5169   4.5781   4.6380   4.7270   4.7942   4.8287   4.9811
     5.0965   5.1192   5.2101   5.3096   5.3713   5.3839   5.3943   5.4009
     5.5416   5.5597   5.6300   5.7409   5.8116   5.8755   5.8903   6.3084
     6.3527   6.4021   6.4318   6.4419   6.5083   6.5210   6.6422   6.6715
     6.6885   6.7614   6.8162   6.8474   6.9469   7.0594   7.0613   7.0818
     7.0963   7.1383   7.1402   7.1727   7.2022   7.2606   7.3336   7.3349
     7.3790   7.4694   7.4718   7.6033   7.6861   7.7259   7.7434   7.7569
     8.0082   8.1539   8.1837   8.2590   8.3426   8.3634   8.4101   8.4272
     8.4461   8.4603   8.4659   8.4663   8.5479   8.6074   8.6752   8.6886
     8.7031   8.7118   8.7357   8.7707   8.7848   8.8130   8.8797   8.8846
     8.9765   9.0104   9.0721   9.0981   9.1738   9.2216   9.2328   9.2924
     9.3532   9.3626   9.3662   9.3830   9.4259   9.4565   9.4657   9.4791
     9.4919   9.4961   9.5013   9.5166   9.6046   9.6763   9.7921   9.8050
     9.8378   9.9016   9.9197

          k = 0.2500 0.0000 0.0000 (256240 PWs)   bands (ev):

   -17.5513 -16.0575 -15.8236 -15.5335 -15.0750 -14.8744 -14.8322 -14.7550
   -14.0542 -13.8358 -13.6478 -13.1698 -13.0549 -12.9787 -12.9031 -12.3035
   -12.1137 -12.0386 -11.9532 -11.2780 -11.0297 -10.7061 -10.5921 -10.4719
   -10.1761 -10.0889  -9.7931  -9.7005  -9.3790  -9.1274  -9.0338  -8.5779
    -7.8814  -7.7060  -7.6067  -7.4659  -7.4389  -7.3346  -6.9623  -6.8515
    -6.2218  -6.1690  -6.0140  -5.8633  -5.8328  -5.7957  -5.6671  -5.3665
    -5.2855  -5.2505  -5.1906  -4.8412  -4.7978  -4.6165  -4.5047  -4.4344
    -4.4117  -4.3799  -4.3384  -4.2709  -4.2107  -4.1153  -4.0506  -3.9685
    -3.9524  -3.8803  -3.8256  -3.7965  -3.7733  -3.7004  -3.6635  -3.5392
    -3.5203  -3.4923  -3.4599  -3.3865  -3.3410  -3.3335  -3.1963  -3.1535
    -3.1310  -3.0796  -2.9966  -2.9128  -2.8942  -2.8052  -2.7761  -2.7680
    -2.7438  -2.6698  -2.5896  -2.5525  -2.5388  -2.4128  -2.3873  -2.3630
    -2.2850  -2.2800  -2.2526  -2.0878  -2.0701  -2.0612  -2.0469  -2.0106
    -1.9758  -1.9448  -1.9186  -1.8904  -1.8481  -1.8058  -1.7992  -1.7778
    -1.7726  -1.7651  -1.7632  -1.7476  -1.7295  -1.7182  -1.7029  -1.6921
    -1.6736  -1.6475  -1.6200  -1.6145  -1.6034  -1.5810  -1.5709  -1.5592
    -1.5516  -1.5469  -1.5434  -1.5359  -1.5267  -1.4869  -1.4826  -1.4743
    -1.4695  -1.4588  -1.4336  -1.3491  -1.3228  -1.3053  -1.2852  -1.2738
    -1.2390  -1.2265  -1.2184  -1.2141  -1.2093  -1.2047  -1.1891  -1.1786
    -1.1707  -1.1666  -1.1593  -1.1548  -1.1465  -1.1361  -1.1272  -1.1113
    -1.1090  -1.1034  -1.0928  -1.0877  -1.0850  -1.0796  -1.0749  -1.0542
    -1.0472  -1.0380  -1.0204  -1.0182  -1.0142  -1.0003  -0.9967  -0.9909
    -0.9863  -0.9822  -0.9707  -0.9659  -0.9594  -0.9580  -0.9549  -0.9527
    -0.9493  -0.9442  -0.9438  -0.9374  -0.9323  -0.9212  -0.9178  -0.9014
    -0.8763  -0.8746  -0.8684  -0.8568  -0.8227  -0.8152  -0.8060  -0.7923
    -0.7874  -0.7732  -0.7709  -0.7635  -0.7564  -0.7461  -0.7369  -0.7306
    -0.7253  -0.7213  -0.7167  -0.7103  -0.6970  -0.6940  -0.6604  -0.5880
    -0.5775  -0.5747  -0.5624  -0.5517  -0.5421  -0.5361  -0.5260  -0.5237
    -0.5210  -0.5158  -0.5049  -0.5014  -0.4998  -0.4920  -0.4808  -0.4711
    -0.4673  -0.4614  -0.4572  -0.4510  -0.4481  -0.4377  -0.4358  -0.4289
    -0.4269  -0.4160  -0.3812  -0.3787  -0.3731  -0.3707  -0.3656  -0.3642
    -0.3621  -0.3542  -0.3478  -0.3337  -0.3284  -0.3164  -0.3050  -0.3019
    -0.2981  -0.2853  -0.2784  -0.2734  -0.2701  -0.2679  -0.2639  -0.2584
    -0.2517  -0.2440  -0.2371  -0.2325  -0.2247  -0.2206  -0.2132  -0.2064
    -0.2002  -0.1881  -0.1820  -0.1766  -0.1682  -0.1620  -0.1612  -0.1536
    -0.1505  -0.1401  -0.1275  -0.1245  -0.1128  -0.1065  -0.1011  -0.0934
    -0.0894  -0.0833  -0.0768  -0.0657  -0.0480  -0.0411  -0.0362  -0.0323
    -0.0250  -0.0156  -0.0038  -0.0029   0.0011   0.0063   0.0143   0.0163
     0.0189   0.0210   0.0237   0.0275   0.0337   0.0401   0.0423   0.0463
     0.0486   0.0579   0.0594   0.0627   0.0651   0.0714   0.0774   0.0845
     0.0897   0.0971   0.1091   0.1172   0.1249   0.1309   0.1355   0.1392
     0.1496   0.1529   0.1603   0.1683   0.1741   0.1766   0.1825   0.1913
     0.2009   0.2108   0.2286   0.2330   0.2550   0.2741   0.2812   0.2886
     0.2927   0.2980   0.3016   0.3046   0.3087   0.3121   0.3140   0.3156
     0.3176   0.3225   0.3250   0.3305   0.3353   0.3392   0.3427   0.3484
     0.3508   0.3578   0.3614   0.3637   0.3671   0.3692   0.3727   0.3874
     0.4036   0.4134   0.4215   0.4262   0.4344   0.4408   0.4520   0.4603
     0.4643   0.4706   0.4778   0.4793   0.4833   0.4930   0.4989   0.5062
     0.5093   0.5146   0.5172   0.5206   0.5284   0.5308   0.5352   0.5425
     0.5429   0.5510   0.5554   0.5648   0.5697   0.5734   0.5776   0.5836
     0.5891   0.5932   0.5972   0.6026   0.6106   0.6131   0.6167   0.6216
     0.6298   0.6328   0.6386   0.6427   0.6435   0.6484   0.6542   0.6623
     0.6704   0.6732   0.6807   0.6820   0.6877   0.6904   0.6960   0.6979
     0.7093   0.7119   0.7206   0.7341   0.7403   0.7453   0.7559   0.7650
     0.7706   0.7732   0.7784   0.7831   0.7914   0.7968   0.7999   0.8031
     0.8083   0.8116   0.8140   0.8175   0.8303   0.8371   0.8450   0.8490
     0.8547   0.8594   0.8682   0.8778   0.8806   0.8863   0.8910   0.8975
     0.9017   0.9083   0.9120   0.9191   0.9211   0.9239   0.9286   0.9335
     0.9358   0.9439   0.9468   0.9509   0.9563   0.9630   0.9687   0.9787
     0.9831   0.9904   0.9947   1.0046   1.0068   1.0101   1.0154   1.0201
     1.0241   1.0293   1.0327   1.0392   1.0420   1.0461   1.0480   1.0502
     1.0529   1.0552   1.0586   1.0632   1.0668   1.0700   1.0749   1.0780
     1.0824   1.0875   1.0894   1.0931   1.0952   1.0985   1.0998   1.1045
     1.1099   1.1170   1.1209   1.1238   1.1291   1.1361   1.1402   1.1453
     1.1475   1.1538   1.1573   1.1602   1.1633   1.1671   1.1713   1.1751
     1.1820   1.1842   1.1943   1.2010   1.2077   1.2108   1.2157   1.2198
     1.2256   1.2303   1.2431   1.2525   1.2560   1.2651   1.2689   1.2701
     1.2774   1.2810   1.2831   1.2869   1.2900   1.2927   1.2998   1.3013
     1.3041   1.3088   1.3111   1.3145   1.3182   1.3234   1.3296   1.3305
     1.3324   1.3342   1.3367   1.3404   1.3416   1.3464   1.3497   1.3541
     1.3590   1.3641   1.3667   1.3712   1.3799   1.3828   1.3856   1.3895
     1.3937   1.3998   1.4021   1.4065   1.4094   1.4151   1.4241   1.4260
     1.4293   1.4357   1.4434   1.4472   1.4487   1.4517   1.4533   1.4568
     1.4609   1.4640   1.4672   1.4693   1.4706   1.4741   1.4795   1.4838
     1.4862   1.4889   1.4947   1.4971   1.5031   1.5061   1.5131   1.5164
     1.5178   1.5231   1.5290   1.5353   1.5377   1.5436   1.5455   1.5482
     1.5637   1.5790   1.5822   1.5964   1.6085   1.6426   1.6493   1.6524
     1.6579   1.6722   1.6803   1.7369   1.7677   1.7908   1.7985   1.8098
     1.8134   1.8386   1.8656   1.9799   2.0045   2.0552   2.0798   2.0876
     2.1110   2.1503   2.2004   2.2450   2.2761   2.4689   2.5731   2.5786
     2.6119   2.6868   2.9976   3.0019   3.0153   3.0790   3.2081   3.2159
     3.2460   3.2478   3.2746   3.3764   3.4568   3.5054   3.5744   3.6225
     3.6602   3.6808   3.7123   3.7268   3.7347   3.7985   3.8213   3.8757
     3.9334   3.9800   4.0626   4.1252   4.1730   4.3048   4.3253   4.4387
     4.4768   4.5035   4.6837   4.7640   4.8357   4.8591   4.9984   5.1753
     5.2296   5.2442   5.2917   5.3288   5.3958   5.4516   5.4892   5.5298
     5.5433   5.5605   5.6031   5.6446   5.6814   5.7032   5.8024   5.8067
     5.8394   5.8952   5.9913   6.0319   6.0544   6.0708   6.1580   6.3026
     6.6011   6.6978   6.7287   6.7652   6.7797   6.8219   6.8459   6.8590
     6.9250   6.9799   7.0211   7.0650   7.0961   7.1089   7.1962   7.2660
     7.3142   7.4202   7.4497   7.4826   7.5394   7.5676   7.6203   7.6881
     7.7633   7.7736   7.8382   7.8925   7.9953   8.0671   8.0818   8.1338
     8.1860   8.2091   8.2512   8.2711   8.2960   8.3309   8.3407   8.4133
     8.4640   8.5089   8.5763   8.6627   8.7067   8.8988   8.9516   8.9912
     9.0238   9.0335   9.0773   9.1155   9.1570   9.1751   9.1992   9.2161
     9.2396   9.2808   9.3117   9.3472   9.3998   9.4155   9.4518   9.4709
     9.5069   9.5819   9.6463   9.6647   9.6975   9.7375   9.7755   9.7885
     9.8678   9.8767   9.9124

          k = 0.2500-0.2165 0.0000 (256316 PWs)   bands (ev):

   -17.5512 -16.0815 -15.7825 -15.4157 -15.2957 -15.0929 -14.6420 -14.4337
   -14.1757 -13.9919 -13.5964 -13.1702 -13.1618 -13.0300 -12.6778 -12.5281
   -12.0795 -11.9309 -11.4785 -11.3223 -11.2055 -11.0218 -10.8527 -10.5365
   -10.4257  -9.7013  -9.5784  -9.2794  -9.2166  -8.9992  -8.9514  -8.5522
    -8.4986  -8.3633  -8.3073  -7.1688  -6.9194  -6.7882  -6.5780  -6.4912
    -6.3740  -6.3455  -6.2307  -5.9830  -5.9712  -5.7751  -5.6825  -5.6004
    -5.3388  -5.1565  -4.9907  -4.8167  -4.7645  -4.6715  -4.6530  -4.5831
    -4.4857  -4.4101  -4.3246  -4.2961  -4.2676  -4.1745  -4.0946  -4.0574
    -4.0459  -4.0392  -3.7066  -3.6597  -3.6327  -3.5843  -3.5044  -3.4931
    -3.4333  -3.4232  -3.3989  -3.2919  -3.2737  -3.2291  -3.1797  -3.0983
    -3.0906  -2.9778  -2.9436  -2.9292  -2.9154  -2.8902  -2.8714  -2.8613
    -2.8296  -2.6973  -2.6406  -2.5896  -2.5622  -2.4101  -2.2983  -2.2911
    -2.2719  -2.1923  -2.1740  -2.1432  -2.1401  -2.1163  -2.0805  -2.0356
    -1.9831  -1.9773  -1.9585  -1.9410  -1.9088  -1.8459  -1.8156  -1.8007
    -1.7965  -1.7860  -1.7829  -1.7439  -1.7172  -1.7096  -1.6848  -1.6815
    -1.6742  -1.6681  -1.6648  -1.6602  -1.6552  -1.6502  -1.6465  -1.6413
    -1.6309  -1.6045  -1.5883  -1.5570  -1.5524  -1.4592  -1.4378  -1.4068
    -1.3469  -1.3109  -1.3058  -1.2944  -1.2754  -1.2591  -1.2540  -1.2430
    -1.2379  -1.2347  -1.2283  -1.2228  -1.2174  -1.2095  -1.2028  -1.2009
    -1.1975  -1.1877  -1.1827  -1.1777  -1.1719  -1.1637  -1.1532  -1.1490
    -1.1428  -1.1090  -1.1066  -1.0988  -1.0945  -1.0859  -1.0835  -1.0798
    -1.0704  -1.0625  -1.0442  -1.0188  -1.0138  -1.0055  -1.0026  -0.9972
    -0.9895  -0.9805  -0.9713  -0.9663  -0.9578  -0.9459  -0.9360  -0.9353
    -0.9325  -0.9274  -0.9241  -0.9104  -0.8998  -0.8947  -0.8889  -0.8763
    -0.8570  -0.8472  -0.8432  -0.8383  -0.8329  -0.8284  -0.8182  -0.7894
    -0.7589  -0.7515  -0.7489  -0.7423  -0.7390  -0.7372  -0.7033  -0.6949
    -0.6858  -0.6816  -0.6773  -0.6751  -0.6675  -0.6647  -0.6482  -0.6210
    -0.6126  -0.5941  -0.5884  -0.5798  -0.5729  -0.5455  -0.5396  -0.5382
    -0.5340  -0.5211  -0.5095  -0.5049  -0.4943  -0.4893  -0.4821  -0.4796
    -0.4734  -0.4599  -0.4571  -0.4477  -0.4305  -0.4239  -0.4195  -0.4121
    -0.4040  -0.3977  -0.3911  -0.3870  -0.3823  -0.3777  -0.3713  -0.3642
    -0.3554  -0.3471  -0.3436  -0.3402  -0.3372  -0.3330  -0.3302  -0.3280
    -0.3206  -0.3136  -0.3053  -0.3027  -0.2980  -0.2905  -0.2832  -0.2671
    -0.2631  -0.2547  -0.2395  -0.2323  -0.2263  -0.2226  -0.2156  -0.2107
    -0.2019  -0.1941  -0.1922  -0.1902  -0.1730  -0.1594  -0.1520  -0.1366
    -0.1303  -0.1214  -0.1034  -0.0922  -0.0880  -0.0831  -0.0788  -0.0742
    -0.0689  -0.0616  -0.0561  -0.0520  -0.0400  -0.0350  -0.0335  -0.0297
    -0.0231  -0.0174  -0.0123  -0.0101  -0.0043  -0.0025   0.0067   0.0107
     0.0150   0.0183   0.0235   0.0262   0.0303   0.0351   0.0363   0.0384
     0.0423   0.0458   0.0506   0.0531   0.0580   0.0684   0.0757   0.0819
     0.0950   0.0989   0.1018   0.1131   0.1232   0.1327   0.1459   0.1530
     0.1588   0.1637   0.1708   0.1728   0.1767   0.1799   0.1837   0.1879
     0.1928   0.1970   0.2022   0.2092   0.2147   0.2291   0.2367   0.2622
     0.2748   0.2906   0.2966   0.3023   0.3092   0.3136   0.3162   0.3198
     0.3228   0.3263   0.3286   0.3338   0.3401   0.3488   0.3521   0.3548
     0.3582   0.3604   0.3637   0.3695   0.3736   0.3832   0.3966   0.3986
     0.4071   0.4193   0.4229   0.4254   0.4348   0.4427   0.4501   0.4528
     0.4707   0.4807   0.4835   0.4849   0.4909   0.4972   0.5025   0.5071
     0.5092   0.5143   0.5177   0.5209   0.5257   0.5321   0.5403   0.5479
     0.5529   0.5568   0.5695   0.5752   0.5825   0.5894   0.5989   0.6038
     0.6084   0.6158   0.6242   0.6297   0.6343   0.6373   0.6426   0.6490
     0.6523   0.6557   0.6583   0.6653   0.6683   0.6687   0.6753   0.6807
     0.6872   0.6909   0.6945   0.6960   0.6996   0.7016   0.7031   0.7059
     0.7106   0.7170   0.7182   0.7216   0.7287   0.7309   0.7358   0.7382
     0.7431   0.7464   0.7486   0.7538   0.7586   0.7693   0.7752   0.7837
     0.7918   0.7954   0.7976   0.8115   0.8259   0.8298   0.8343   0.8397
     0.8496   0.8536   0.8591   0.8635   0.8678   0.8766   0.8795   0.8826
     0.8834   0.8844   0.8881   0.8921   0.8959   0.8976   0.9127   0.9185
     0.9220   0.9277   0.9319   0.9365   0.9422   0.9464   0.9565   0.9628
     0.9666   0.9710   0.9747   0.9835   0.9894   0.9912   0.9952   1.0005
     1.0041   1.0085   1.0137   1.0224   1.0284   1.0402   1.0433   1.0503
     1.0615   1.0660   1.0748   1.0833   1.0858   1.0950   1.1012   1.1062
     1.1095   1.1135   1.1147   1.1164   1.1192   1.1212   1.1237   1.1245
     1.1276   1.1304   1.1353   1.1384   1.1452   1.1508   1.1575   1.1672
     1.1719   1.1783   1.1850   1.1877   1.1910   1.1954   1.1972   1.2032
     1.2048   1.2103   1.2133   1.2162   1.2184   1.2217   1.2236   1.2263
     1.2315   1.2322   1.2350   1.2391   1.2414   1.2436   1.2483   1.2527
     1.2555   1.2616   1.2645   1.2697   1.2733   1.2760   1.2834   1.2936
     1.2972   1.3000   1.3055   1.3094   1.3127   1.3186   1.3273   1.3327
     1.3344   1.3389   1.3435   1.3469   1.3525   1.3564   1.3602   1.3623
     1.3677   1.3713   1.3733   1.3748   1.3829   1.3857   1.3870   1.3930
     1.3971   1.4027   1.4065   1.4088   1.4106   1.4128   1.4152   1.4198
     1.4244   1.4274   1.4302   1.4343   1.4361   1.4418   1.4460   1.4506
     1.4585   1.4592   1.4609   1.4647   1.4664   1.4686   1.4699   1.4730
     1.4750   1.4810   1.4846   1.4895   1.5062   1.5074   1.5119   1.5151
     1.5219   1.5238   1.5299   1.5341   1.5423   1.5540   1.5584   1.5733
     1.5782   1.5815   1.5843   1.5960   1.6056   1.6138   1.6520   1.6683
     1.6821   1.6989   1.7293   1.7440   1.7743   1.7814   1.7904   1.7953
     1.8072   1.8110   1.8410   1.8492   1.8682   1.9159   2.1460   2.1502
     2.1732   2.1922   2.2332   2.3060   2.4217   2.6032   2.6093   2.7883
     2.7945   2.8076   2.8107   2.8237   2.8284   2.8737   2.9172   2.9761
     3.0116   3.0810   3.0909   3.2561   3.5421   3.5486   3.6092   3.6588
     3.6748   3.7928   3.8399   3.8591   3.8963   3.9886   4.0228   4.0667
     4.0920   4.1544   4.1890   4.2060   4.3793   4.3947   4.4383   4.4647
     4.5617   4.6249   4.6477   4.6969   4.7275   4.7905   4.8372   4.9013
     4.9611   5.0322   5.0405   5.1495   5.2318   5.2889   5.3340   5.3888
     5.4392   5.4677   5.4814   5.5418   5.6602   5.7124   5.7826   5.8227
     5.8999   5.9225   6.0006   6.0449   6.0880   6.5077   6.5712   6.5821
     6.6182   6.6447   6.7423   6.7921   6.8574   6.8924   6.9525   6.9834
     7.0308   7.0531   7.1050   7.1309   7.1979   7.2200   7.2459   7.2664
     7.2991   7.3577   7.3925   7.4385   7.4497   7.4705   7.5954   7.6487
     7.6729   7.7774   7.8101   7.8702   7.9120   7.9335   8.0317   8.1446
     8.2053   8.2299   8.2440   8.3570   8.3852   8.5140   8.5706   8.6229
     8.6364   8.6374   8.6622   8.7097   8.7387   8.7776   8.8425   8.8661
     8.8827   8.9087   8.9341   8.9976   9.0771   9.0939   9.1186   9.1683
     9.1879   9.2234   9.2288   9.2439   9.2632   9.3025   9.3343   9.3547
     9.3607   9.4255   9.4661   9.5048   9.5258   9.6481   9.6624   9.6796
     9.7552   9.8614   9.9520

          k =-0.5000 0.0000 0.0000 (256496 PWs)   bands (ev):

   -17.5224 -15.8440 -15.6723 -15.5069 -15.4868 -15.4134 -14.7581 -14.4997
   -14.3938 -14.3427 -13.2521 -12.7975 -12.6558 -12.5738 -12.3463 -12.2702
   -11.8407 -11.8130 -11.6680 -11.6605 -11.1791 -11.1108 -10.9650 -10.6595
   -10.4600 -10.1765 -10.0476  -9.9493  -9.6222  -9.0417  -8.9775  -8.8595
    -8.8292  -7.7049  -7.5802  -7.4821  -7.3237  -7.2695  -7.2349  -6.2089
    -6.1423  -5.8747  -5.7446  -5.2797  -5.2561  -5.1969  -5.0191  -4.8921
    -4.7914  -4.7773  -4.7720  -4.7449  -4.7079  -4.6887  -4.6787  -4.6016
    -4.5900  -4.5553  -4.4863  -4.4361  -4.3937  -4.2903  -4.2698  -4.2640
    -4.2275  -3.9362  -3.9288  -3.8760  -3.8352  -3.7067  -3.6628  -3.6339
    -3.5145  -3.4763  -3.4556  -3.4406  -3.4031  -3.3841  -3.3662  -3.3318
    -3.3270  -3.2896  -3.2799  -3.2565  -3.1193  -2.8562  -2.7785  -2.7416
    -2.7094  -2.7017  -2.6716  -2.6213  -2.5964  -2.5780  -2.5406  -2.4060
    -2.3514  -2.3326  -2.3052  -2.2779  -2.1893  -2.1584  -1.9115  -1.8586
    -1.8530  -1.8509  -1.8469  -1.8440  -1.8222  -1.8085  -1.7577  -1.7460
    -1.7347  -1.7335  -1.6971  -1.6244  -1.6202  -1.6139  -1.6113  -1.5888
    -1.5822  -1.5756  -1.5694  -1.5628  -1.5023  -1.4681  -1.4643  -1.4570
    -1.4267  -1.4029  -1.3992  -1.3927  -1.3885  -1.3826  -1.3817  -1.3783
    -1.3673  -1.3551  -1.3396  -1.3323  -1.3318  -1.3276  -1.3255  -1.3215
    -1.3062  -1.3033  -1.2842  -1.2726  -1.2699  -1.2675  -1.2585  -1.2455
    -1.2407  -1.2336  -1.2285  -1.1971  -1.1819  -1.1773  -1.1658  -1.1577
    -1.1452  -1.1421  -1.1381  -1.1356  -1.1277  -1.1226  -1.1128  -1.1020
    -1.0897  -1.0860  -1.0803  -1.0755  -1.0604  -1.0575  -1.0495  -1.0303
    -1.0259  -1.0169  -0.9994  -0.9742  -0.9619  -0.9586  -0.9529  -0.9514
    -0.9403  -0.9362  -0.9335  -0.9247  -0.9220  -0.9118  -0.9096  -0.9050
    -0.9008  -0.8968  -0.8949  -0.8911  -0.8814  -0.8687  -0.8626  -0.8512
    -0.8169  -0.8087  -0.8003  -0.7774  -0.7615  -0.7555  -0.6942  -0.6889
    -0.6841  -0.6790  -0.6547  -0.6453  -0.6420  -0.6382  -0.6366  -0.6300
    -0.6147  -0.6102  -0.6031  -0.5996  -0.5947  -0.5879  -0.5875  -0.5820
    -0.5785  -0.5673  -0.5622  -0.5592  -0.5498  -0.5347  -0.4850  -0.4607
    -0.4497  -0.4401  -0.4378  -0.4303  -0.4297  -0.4210  -0.4158  -0.4087
    -0.3865  -0.3841  -0.3782  -0.3732  -0.3675  -0.3587  -0.3475  -0.3441
    -0.3415  -0.3401  -0.3346  -0.3257  -0.3147  -0.3108  -0.3085  -0.2979
    -0.2909  -0.2821  -0.2727  -0.2670  -0.2607  -0.2596  -0.2577  -0.2364
    -0.2323  -0.2263  -0.2227  -0.2211  -0.2145  -0.2077  -0.1928  -0.1905
    -0.1832  -0.1633  -0.1556  -0.1475  -0.1266  -0.1203  -0.1088  -0.1066
    -0.1029  -0.1000  -0.0965  -0.0891  -0.0769  -0.0728  -0.0640  -0.0507
    -0.0384  -0.0325  -0.0197  -0.0087  -0.0076  -0.0009   0.0010   0.0053
     0.0088   0.0100   0.0143   0.0159   0.0209   0.0233   0.0305   0.0563
     0.0647   0.0771   0.0862   0.0892   0.0902   0.0937   0.0963   0.1002
     0.1036   0.1060   0.1082   0.1096   0.1174   0.1178   0.1211   0.1258
     0.1267   0.1294   0.1391   0.1419   0.1436   0.1453   0.1478   0.1517
     0.1519   0.1561   0.1589   0.1646   0.1650   0.1657   0.1735   0.1776
     0.1808   0.1820   0.1874   0.1888   0.1944   0.2038   0.2141   0.2225
     0.2572   0.2732   0.3159   0.3206   0.3256   0.3309   0.3418   0.3426
     0.3460   0.3476   0.3559   0.3643   0.3661   0.3683   0.3717   0.3740
     0.3777   0.3784   0.3812   0.3845   0.3856   0.3882   0.3912   0.3974
     0.3980   0.4013   0.4040   0.4069   0.4101   0.4148   0.4200   0.4226
     0.4266   0.4305   0.4354   0.4390   0.4584   0.4770   0.4878   0.4989
     0.5159   0.5182   0.5253   0.5264   0.5310   0.5357   0.5410   0.5504
     0.5545   0.5558   0.5587   0.5602   0.5611   0.5633   0.5673   0.5698
     0.5734   0.5748   0.5786   0.5790   0.5815   0.5852   0.5900   0.6004
     0.6014   0.6101   0.6140   0.6273   0.6295   0.6388   0.6420   0.6479
     0.6525   0.6538   0.6616   0.6633   0.6649   0.6688   0.6701   0.6738
     0.6819   0.6834   0.6856   0.6888   0.6910   0.6935   0.6982   0.7027
     0.7171   0.7283   0.7323   0.7402   0.7421   0.7456   0.7465   0.7543
     0.7640   0.7731   0.7824   0.7903   0.7937   0.7978   0.8062   0.8276
     0.8284   0.8345   0.8503   0.8571   0.8623   0.8659   0.8677   0.8679
     0.8691   0.8698   0.8762   0.8790   0.8862   0.8896   0.8917   0.8939
     0.8975   0.9071   0.9123   0.9132   0.9158   0.9177   0.9261   0.9315
     0.9385   0.9393   0.9448   0.9491   0.9538   0.9655   0.9713   0.9756
     0.9810   1.0085   1.0149   1.0393   1.0400   1.0403   1.0463   1.0503
     1.0571   1.0659   1.0705   1.0786   1.0849   1.0851   1.0904   1.0961
     1.1071   1.1096   1.1111   1.1142   1.1200   1.1304   1.1375   1.1388
     1.1400   1.1475   1.1497   1.1528   1.1548   1.1565   1.1583   1.1623
     1.1648   1.1687   1.1713   1.1724   1.1772   1.1797   1.1881   1.1937
     1.2032   1.2049   1.2089   1.2148   1.2209   1.2234   1.2296   1.2337
     1.2381   1.2410   1.2448   1.2484   1.2607   1.2628   1.2670   1.2678
     1.2682   1.2702   1.2721   1.2732   1.2767   1.2785   1.2868   1.2923
     1.3005   1.3066   1.3137   1.3221   1.3294   1.3316   1.3378   1.3388
     1.3395   1.3428   1.3445   1.3460   1.3471   1.3482   1.3495   1.3526
     1.3541   1.3569   1.3585   1.3603   1.3625   1.3660   1.3684   1.3689
     1.3714   1.3752   1.3775   1.3800   1.3867   1.3888   1.3996   1.4010
     1.4043   1.4094   1.4125   1.4174   1.4230   1.4326   1.4341   1.4409
     1.4420   1.4451   1.4530   1.4536   1.4574   1.4611   1.4639   1.4690
     1.4710   1.4746   1.4775   1.4809   1.4858   1.4928   1.4948   1.4981
     1.5036   1.5046   1.5092   1.5097   1.5125   1.5157   1.5256   1.5302
     1.5404   1.5432   1.5439   1.5460   1.5462   1.5519   1.5627   1.5745
     1.5975   1.6095   1.6126   1.6322   1.6340   1.6352   1.6476   1.6584
     1.9065   2.0358   2.0601   2.0762   2.1494   2.2436   2.2630   2.2743
     2.3099   2.3139   2.3209   2.3293   2.4103   2.6079   2.6291   2.6574
     2.8220   2.8444   2.8475   2.8673   2.8882   3.0517   3.1981   3.2098
     3.2239   3.2606   3.4901   3.5286   3.7314   3.7661   3.7925   3.8646
     3.9126   3.9217   3.9271   3.9925   4.0706   4.0830   4.1042   4.1224
     4.1901   4.3799   4.4987   4.5334   4.6329   4.7169   4.7473   4.7590
     4.7821   4.8310   4.8507   4.8889   4.9200   4.9408   5.0151   5.0333
     5.0440   5.0562   5.0605   5.0710   5.0780   5.1015   5.1807   5.1923
     5.2338   5.3252   5.3437   5.4902   5.5199   5.5378   5.5864   5.6735
     5.6990   5.7174   5.8683   5.9470   5.9819   5.9946   6.0233   6.0326
     6.0518   6.0690   6.1970   6.2522   6.3677   6.4106   6.4403   6.4737
     6.5045   6.5514   6.5983   7.0342   7.0795   7.1082   7.1416   7.1506
     7.2658   7.4545   7.5476   7.5806   7.6200   7.6243   7.6273   7.6404
     7.7347   7.8121   7.8368   7.8481   7.8644   7.8826   7.9336   7.9956
     8.0040   8.0461   8.0653   8.0803   8.0877   8.1197   8.1719   8.2652
     8.3190   8.6778   8.7522   8.7573   8.7678   8.8075   8.8364   8.8532
     8.8676   8.9233   8.9551   9.0228   9.0272   9.0452   9.0706   9.1245
     9.1770   9.2669   9.2868   9.3186   9.3907   9.4362   9.4720   9.4939
     9.5126   9.5183   9.5273   9.5305   9.5324   9.5522   9.5841   9.6813
     9.7743   9.8690   9.9142

          k =-0.5000-0.2165 0.0000 (256328 PWs)   bands (ev):

   -17.5224 -15.7896 -15.7216 -15.7003 -15.3057 -15.0942 -15.0348 -14.9679
   -14.0411 -13.7247 -13.5900 -13.5415 -12.6941 -12.3033 -11.9118 -11.8999
   -11.8221 -11.6656 -11.5526 -11.4853 -11.4275 -11.4109 -11.3152 -11.2905
   -10.5486  -9.8854  -9.7288  -9.6651  -9.6301  -9.1113  -8.8003  -8.6618
    -8.6573  -8.1416  -8.1051  -7.9305  -7.9108  -6.4965  -6.2438  -6.1619
    -5.8565  -5.7565  -5.7258  -5.4996  -5.2753  -5.2160  -5.1847  -5.1600
    -5.1561  -5.1459  -5.0992  -5.0066  -4.9228  -4.9017  -4.5477  -4.4115
    -4.2805  -4.2444  -4.2308  -4.1780  -4.1736  -4.1622  -4.1587  -4.1502
    -4.0852  -4.0297  -3.9910  -3.9392  -3.8099  -3.8037  -3.7637  -3.7316
    -3.6895  -3.6405  -3.5929  -3.5776  -3.5482  -3.5208  -3.5200  -3.3458
    -3.3304  -3.1771  -3.1617  -3.0184  -2.9768  -2.8885  -2.6147  -2.5660
    -2.5520  -2.5488  -2.5422  -2.5312  -2.5124  -2.5104  -2.4799  -2.4619
    -2.4285  -2.3151  -2.2515  -2.1012  -2.0601  -2.0507  -2.0447  -2.0358
    -2.0149  -2.0068  -1.9925  -1.9857  -1.9807  -1.9453  -1.9212  -1.7861
    -1.7800  -1.7737  -1.7661  -1.6996  -1.6309  -1.5880  -1.5633  -1.5308
    -1.4839  -1.4738  -1.4684  -1.4594  -1.4557  -1.4454  -1.4357  -1.4232
    -1.4163  -1.4131  -1.4052  -1.4027  -1.3993  -1.3829  -1.3630  -1.3602
    -1.3588  -1.3560  -1.3529  -1.3504  -1.3488  -1.3428  -1.3391  -1.3359
    -1.3324  -1.3305  -1.2964  -1.2846  -1.2840  -1.2594  -1.2447  -1.2285
    -1.2165  -1.2120  -1.1864  -1.1719  -1.1701  -1.1646  -1.1629  -1.1536
    -1.1472  -1.1321  -1.1265  -1.1170  -1.1070  -1.1041  -1.0987  -1.0933
    -1.0920  -1.0895  -1.0798  -1.0709  -1.0678  -1.0573  -1.0397  -1.0366
    -1.0303  -1.0245  -1.0226  -1.0192  -1.0180  -1.0115  -1.0113  -1.0108
    -1.0068  -1.0047  -0.9899  -0.9759  -0.9675  -0.9510  -0.9326  -0.8726
    -0.8587  -0.8545  -0.8443  -0.8344  -0.8288  -0.8275  -0.8186  -0.8044
    -0.7589  -0.7476  -0.7454  -0.7404  -0.7368  -0.7338  -0.7306  -0.7270
    -0.7239  -0.7188  -0.7150  -0.6927  -0.6774  -0.6757  -0.6693  -0.6606
    -0.6584  -0.6535  -0.6459  -0.6425  -0.6387  -0.6366  -0.6248  -0.6011
    -0.5529  -0.5451  -0.5444  -0.5337  -0.5285  -0.5250  -0.5161  -0.4956
    -0.4785  -0.4721  -0.4620  -0.4610  -0.4287  -0.4207  -0.4184  -0.4077
    -0.4060  -0.4013  -0.3989  -0.3928  -0.3893  -0.3808  -0.3709  -0.3695
    -0.3669  -0.3568  -0.3508  -0.3464  -0.3361  -0.3177  -0.2914  -0.2745
    -0.2550  -0.2481  -0.2437  -0.2412  -0.2335  -0.2326  -0.2281  -0.2261
    -0.2146  -0.2133  -0.2097  -0.1934  -0.1632  -0.1553  -0.1435  -0.1410
    -0.1324  -0.1296  -0.1275  -0.1236  -0.1219  -0.1163  -0.1112  -0.1074
    -0.0968  -0.0913  -0.0869  -0.0858  -0.0790  -0.0760  -0.0754  -0.0677
    -0.0659  -0.0620  -0.0554  -0.0485  -0.0424  -0.0189  -0.0098  -0.0057
     0.0083   0.0160   0.0311   0.0400   0.0423   0.0503   0.0763   0.0783
     0.0851   0.0881   0.0950   0.0963   0.1026   0.1047   0.1085   0.1111
     0.1115   0.1145   0.1203   0.1207   0.1295   0.1307   0.1342   0.1361
     0.1372   0.1383   0.1389   0.1424   0.1436   0.1448   0.1513   0.1521
     0.1547   0.1571   0.1668   0.1775   0.1793   0.1815   0.1851   0.1903
     0.1961   0.1976   0.2083   0.2225   0.2289   0.2341   0.2435   0.2493
     0.2504   0.2649   0.2724   0.2765   0.2977   0.3128   0.3389   0.3457
     0.3489   0.3519   0.3564   0.3636   0.3728   0.3749   0.3759   0.3800
     0.3832   0.3845   0.3877   0.3937   0.3942   0.3977   0.3998   0.4034
     0.4046   0.4078   0.4129   0.4192   0.4267   0.4315   0.4327   0.4411
     0.4467   0.4577   0.4594   0.4721   0.4760   0.4877   0.4918   0.4938
     0.4960   0.4985   0.5004   0.5053   0.5089   0.5207   0.5231   0.5291
     0.5326   0.5381   0.5447   0.5480   0.5513   0.5562   0.5575   0.5674
     0.5705   0.5732   0.5785   0.5884   0.5924   0.5959   0.5972   0.5996
     0.6059   0.6076   0.6100   0.6131   0.6160   0.6184   0.6189   0.6254
     0.6318   0.6347   0.6392   0.6472   0.6523   0.6571   0.6688   0.6757
     0.6897   0.6956   0.7009   0.7052   0.7069   0.7139   0.7186   0.7209
     0.7259   0.7283   0.7370   0.7399   0.7441   0.7481   0.7526   0.7531
     0.7582   0.7603   0.7604   0.7653   0.7729   0.7808   0.7899   0.7977
     0.8109   0.8131   0.8246   0.8314   0.8412   0.8434   0.8462   0.8504
     0.8550   0.8597   0.8704   0.8816   0.8838   0.8890   0.8901   0.8968
     0.9033   0.9131   0.9250   0.9404   0.9430   0.9538   0.9589   0.9690
     0.9813   0.9841   0.9913   1.0071   1.0177   1.0281   1.0300   1.0367
     1.0401   1.0410   1.0478   1.0494   1.0504   1.0558   1.0615   1.0654
     1.0675   1.0704   1.0737   1.0750   1.0762   1.0769   1.0794   1.0825
     1.0849   1.0892   1.0903   1.0953   1.1004   1.1040   1.1076   1.1088
     1.1152   1.1196   1.1218   1.1263   1.1308   1.1373   1.1452   1.1463
     1.1501   1.1522   1.1540   1.1566   1.1595   1.1654   1.1674   1.1686
     1.1718   1.1770   1.1882   1.1989   1.2171   1.2190   1.2211   1.2238
     1.2287   1.2315   1.2361   1.2380   1.2445   1.2461   1.2530   1.2594
     1.2612   1.2689   1.2721   1.2759   1.2850   1.2872   1.2885   1.2928
     1.2978   1.3013   1.3071   1.3078   1.3087   1.3121   1.3146   1.3192
     1.3231   1.3243   1.3352   1.3457   1.3566   1.3641   1.3681   1.3704
     1.3790   1.3800   1.3805   1.3843   1.3856   1.3889   1.3904   1.3938
     1.3957   1.3979   1.3996   1.4035   1.4047   1.4067   1.4108   1.4128
     1.4151   1.4184   1.4192   1.4205   1.4221   1.4261   1.4305   1.4320
     1.4335   1.4344   1.4376   1.4400   1.4457   1.4525   1.4599   1.4697
     1.4730   1.4761   1.4797   1.4848   1.4892   1.4911   1.4970   1.5044
     1.5055   1.5199   1.5236   1.5248   1.5317   1.5350   1.5546   1.5630
     1.5745   1.5791   1.5910   1.5951   1.6014   1.6042   1.6077   1.6176
     1.6237   1.6287   1.6318   1.6366   1.6387   1.6431   1.6443   1.6596
     1.6690   1.6851   1.8388   1.8557   1.8769   1.8861   2.0707   2.3533
     2.3577   2.3803   2.5090   2.5741   2.5815   2.5935   2.6086   2.7902
     2.8111   2.8306   2.8689   2.9844   3.0797   3.1161   3.1389   3.3576
     3.4667   3.4787   3.4867   3.4950   3.6525   3.6597   3.6938   3.7758
     3.9444   3.9539   3.9586   3.9681   4.2063   4.2425   4.2470   4.2708
     4.2934   4.3334   4.3438   4.4145   4.5281   4.5468   4.5547   4.5762
     4.6102   4.6776   4.7540   4.8117   4.8287   4.9385   4.9533   5.0281
     5.0564   5.0768   5.1449   5.1619   5.1749   5.1876   5.2167   5.2539
     5.2813   5.3003   5.3209   5.3648   5.4230   5.4565   5.5552   5.6315
     5.6486   5.7483   5.7597   5.7676   5.7720   5.7780   5.8308   5.8579
     5.8863   5.8989   6.1214   6.7487   6.7636   6.8357   6.8588   6.9383
     7.0230   7.0768   7.0987   7.1369   7.1718   7.1859   7.1949   7.2060
     7.2248   7.2818   7.2898   7.3581   7.3703   7.3975   7.4197   7.4427
     7.5341   7.5605   7.6347   7.8282   7.8501   7.8980   7.9314   7.9762
     7.9861   8.0477   8.2084   8.2362   8.2645   8.2983   8.3231   8.3677
     8.4073   8.4115   8.5282   8.7788   8.8768   8.8804   8.9073   8.9241
     8.9278   8.9318   8.9554   8.9606   8.9660   9.0126   9.0599   9.1475
     9.1496   9.1505   9.1527   9.2066   9.2839   9.3716   9.3868   9.4058
     9.4409   9.4947   9.5106   9.5339   9.5434   9.5457   9.5873   9.6131
     9.7236   9.9335   9.9930

     the Fermi energy is     3.3518 ev

!    total energy              =  -12720.63176095 Ry
     Harris-Foulkes estimate   =  -12720.63176096 Ry
     estimated scf accuracy    <          2.8E-09 Ry

     The total energy is the sum of the following terms:

     one-electron contribution = -107957.29804414 Ry
     hartree contribution      =   55343.82573130 Ry
     xc contribution           =   -4452.50216603 Ry
     ewald contribution        =   44351.68922225 Ry
     Dispersion Correction     =      -2.98925395 Ry
     smearing contrib. (-TS)   =      -3.35725038 Ry

     convergence has been achieved in  44 iterations

     Writing output data file gc.save
 
     init_run     :    100.29s CPU    107.00s WALL (       1 calls)
     electrons    :  12243.74s CPU  13081.68s WALL (       1 calls)

     Called by init_run:
     wfcinit      :     97.96s CPU    104.34s WALL (       1 calls)
     potinit      :      0.41s CPU      0.42s WALL (       1 calls)

     Called by electrons:
     c_bands      :  11269.98s CPU  12009.62s WALL (      44 calls)
     sum_band     :    803.45s CPU    874.75s WALL (      44 calls)
     v_of_rho     :      2.89s CPU      3.58s WALL (      45 calls)
     newd         :      8.57s CPU     13.78s WALL (      45 calls)
     mix_rho      :    158.73s CPU    179.55s WALL (      44 calls)

     Called by c_bands:
     init_us_2    :     36.88s CPU     37.42s WALL (     534 calls)
     cegterg      :  11106.46s CPU  11840.38s WALL (     270 calls)

     Called by sum_band:
     sum_band:bec :      4.54s CPU      5.17s WALL (     264 calls)
     addusdens    :      8.12s CPU     13.46s WALL (      44 calls)

     Called by *egterg:
     h_psi        :   4047.40s CPU   4374.75s WALL (    1882 calls)
     s_psi        :    982.13s CPU    993.34s WALL (    1882 calls)
     g_psi        :     10.51s CPU     10.50s WALL (    1606 calls)
     cdiaghg      :   3330.69s CPU   3457.26s WALL (    1870 calls)

     Called by h_psi:
     add_vuspsi   :    988.16s CPU   1001.04s WALL (    1882 calls)

     General routines
     calbec       :   1369.45s CPU   1379.83s WALL (    2146 calls)
     fft          :      3.51s CPU      4.07s WALL (     584 calls)
     ffts         :     92.31s CPU    104.80s WALL (   24485 calls)
     fftw         :   2327.16s CPU   2588.52s WALL ( 1299156 calls)
     davcio       :      0.42s CPU      4.71s WALL (       6 calls)
 
     Parallel routines
     fft_scatter  :   1499.47s CPU   1643.63s WALL ( 1324225 calls)
 
     PWSCF        :     3h25m CPU        3h39m WALL

 
   This run was terminated on:  12:56:50  11Apr2017            

=------------------------------------------------------------------------------=
   JOB DONE.
=------------------------------------------------------------------------------=
