
     Program PWSCF v.5.4.0 starts on 11Apr2017 at 15: 9:30 

     This program is part of the open-source Quantum ESPRESSO suite
     for quantum simulation of materials; please cite
         "P. Giannozzi et al., J. Phys.:Condens. Matter 21 395502 (2009);
          URL http://www.quantum-espresso.org", 
     in publications or presentations arising from this work. More details at
     http://www.quantum-espresso.org/quote

     Parallel version (MPI & OpenMP), running on      56 processor cores
     Number of MPI processes:                56
     Threads/MPI process:                     1
     R & G space division:  proc/nbgrp/npool/nimage =      56
     Waiting for input...
     Reading input from standard input
Warning: card &IONS ignored
Warning: card / ignored
Warning: card 0 0.000 0 1 ignored

     Current dimensions of program PWSCF are:
     Max number of different atomic species (ntypx) = 10
     Max number of k-points (npk) =  40000
     Max angular momentum in pseudopotentials (lmaxx) =  3

     Atomic positions and unit cell read from directory:
     ./graphene.save/
 

     -------------------------------------
     Parameters for Dispersion Correction:
     -------------------------------------
       atom      VdW radius       C_6     

        C          2.744         60.710

     Subspace diagonalization in iterative solution of the eigenvalue problem:
     one sub-group per band group will be used
     scalapack distributed-memory algorithm (size of sub-group:  5*  5 procs)

 
     Parallelization info
     --------------------
     sticks:   dense  smooth     PW     G-vecs:    dense   smooth      PW
     Min         204     204     54                14646    14646    1986
     Max         205     205     55                14650    14650    1989
     Sum       11433   11433   3039               820307   820307  111305
 


     bravais-lattice index     =            0
     lattice parameter (alat)  =      13.9425  a.u.
     unit-cell volume          =    8483.6351 (a.u.)^3
     number of atoms/cell      =           48
     number of atomic types    =            1
     number of electrons       =       192.00
     number of Kohn-Sham states=          115
     kinetic-energy cutoff     =      80.0000  Ry
     charge density cutoff     =     320.0000  Ry
     Exchange-correlation      =  SLA  PW   PBX  PBC ( 1  4  3  4 0 0)

     celldm(1)=  13.942539  celldm(2)=   0.000000  celldm(3)=   0.000000
     celldm(4)=   0.000000  celldm(5)=   0.000000  celldm(6)=   0.000000

     crystal axes: (cart. coord. in units of alat)
               a(1) = (   1.000000   0.000000   0.000000 )  
               a(2) = (   0.000000   2.309401   0.000000 )  
               a(3) = (   0.000000   0.000000   1.355367 )  

     reciprocal axes: (cart. coord. in units 2 pi/alat)
               b(1) = (  1.000000  0.000000  0.000000 )  
               b(2) = (  0.000000  0.433013  0.000000 )  
               b(3) = (  0.000000  0.000000  0.737807 )  


     PseudoPot. # 1 for C  read from file:
     /home/549/hxw549/Short/pseudopotentials/C.pbe-mt_gipaw.UPF
     MD5 check sum: 5ac2f21f2c440b14befe521540822c15
     Pseudo is Norm-conserving, Zval =  4.0
     Generated by new atomic code, or converted to UPF format
     Using radial grid of 1073 points,  1 beta functions with: 
                l(1) =   0

     atomic species   valence    mass     pseudopotential
        C              4.00    12.01070     C ( 1.00)

     No symmetry found


                                    s                        frac. trans.

      isym =  1     identity                                     

 cryst.   s( 1) = (     1          0          0      )
                  (     0          1          0      )
                  (     0          0          1      )

 cart.    s( 1) = (  1.0000000  0.0000000  0.0000000 )
                  (  0.0000000  1.0000000  0.0000000 )
                  (  0.0000000  0.0000000  1.0000000 )


   Cartesian axes

     site n.     atom                  positions (alat units)
         1           C   tau(   1) = (   0.0000000   1.6407848   6.8112491  )
         2           C   tau(   2) = (   0.0000000   4.9190122   6.8230815  )
         3           C   tau(   3) = (   1.2294255   0.0007413   6.8008128  )
         4           C   tau(   4) = (   1.2283756   6.5582274   6.8091212  )
         5           C   tau(   5) = (   2.4578118   1.6394422   6.7825289  )
         6           C   tau(   6) = (   2.4578428   4.9185067   6.7791947  )
         7           C   tau(   7) = (   3.6890370  -0.0013934   6.7680536  )
         8           C   tau(   8) = (   3.6890370   6.5587566   6.7647600  )
         9           C   tau(   9) = (   4.9202622   1.6394422   6.7825289  )
        10           C   tau(  10) = (   4.9202312   4.9185067   6.7791947  )
        11           C   tau(  11) = (   6.1486485   0.0007413   6.8008128  )
        12           C   tau(  12) = (   6.1496984   6.5582274   6.8091212  )
        13           C   tau(  13) = (   0.0000000  11.4759991   6.8148815  )
        14           C   tau(  14) = (   0.0000000  14.7546892   6.7933312  )
        15           C   tau(  15) = (   1.2282712   9.8369605   6.8052177  )
        16           C   tau(  16) = (   1.2302405  16.3951003   6.7926399  )
        17           C   tau(  17) = (   2.4584439  11.4773979   6.7804145  )
        18           C   tau(  18) = (   2.4583970  14.7566308   6.7885196  )
        19           C   tau(  19) = (   3.6890370   9.8377422   6.7708321  )
        20           C   tau(  20) = (   3.6890370  16.3972125   6.7831930  )
        21           C   tau(  21) = (   4.9196301  11.4773979   6.7804145  )
        22           C   tau(  22) = (   4.9196770  14.7566308   6.7885196  )
        23           C   tau(  23) = (   6.1498028   9.8369605   6.8052177  )
        24           C   tau(  24) = (   6.1478335  16.3951003   6.7926399  )
        25           C   tau(  25) = (   0.0000000  21.3137732   6.7750608  )
        26           C   tau(  26) = (   0.0000000  24.5928018   6.7632420  )
        27           C   tau(  27) = (   1.2301905  19.6743564   6.7820681  )
        28           C   tau(  28) = (   1.2313558  26.2333162   6.7795471  )
        29           C   tau(  29) = (   2.4606579  21.3151202   6.8013278  )
        30           C   tau(  30) = (   2.4604886  24.5939229   6.8089721  )
        31           C   tau(  31) = (   3.6890370  19.6761005   6.8078878  )
        32           C   tau(  32) = (   3.6890370  26.2333079   6.8237998  )
        33           C   tau(  33) = (   4.9174161  21.3151202   6.8013278  )
        34           C   tau(  34) = (   4.9175854  24.5939229   6.8089721  )
        35           C   tau(  35) = (   6.1478835  19.6743564   6.7820681  )
        36           C   tau(  36) = (   6.1467182  26.2333162   6.7795471  )
        37           C   tau(  37) = (   0.0000000  31.1531480   6.7643941  )
        38           C   tau(  38) = (   0.0000000  34.4321864   6.7857682  )
        39           C   tau(  39) = (   1.2313703  29.5123038   6.7810787  )
        40           C   tau(  40) = (   1.2293247  36.0713848   6.7877064  )
        41           C   tau(  41) = (   2.4599639  31.1512026   6.8045265  )
        42           C   tau(  42) = (   2.4601096  34.4301660   6.7919351  )
        43           C   tau(  43) = (   3.6890370  29.5113635   6.8177684  )
        44           C   tau(  44) = (   3.6890370  36.0692960   6.7925722  )
        45           C   tau(  45) = (   4.9181101  31.1512026   6.8045265  )
        46           C   tau(  46) = (   4.9179644  34.4301660   6.7919351  )
        47           C   tau(  47) = (   6.1467037  29.5123038   6.7810787  )
        48           C   tau(  48) = (   6.1487493  36.0713848   6.7877064  )

   Crystallographic axes

     site n.     atom                  positions (cryst. coord.)
         1           C   tau(   1) = (  0.0000000  0.7104807  5.0253900  )
         2           C   tau(   2) = (  0.0000000  2.1299948  5.0341200  )
         3           C   tau(   3) = (  1.2294255  0.0003210  5.0176900  )
         4           C   tau(   4) = (  1.2283756  2.8397958  5.0238200  )
         5           C   tau(   5) = (  2.4578118  0.7098993  5.0042000  )
         6           C   tau(   6) = (  2.4578428  2.1297759  5.0017400  )
         7           C   tau(   7) = (  3.6890370 -0.0006033  4.9935200  )
         8           C   tau(   8) = (  3.6890370  2.8400249  4.9910900  )
         9           C   tau(   9) = (  4.9202622  0.7098993  5.0042000  )
        10           C   tau(  10) = (  4.9202312  2.1297759  5.0017400  )
        11           C   tau(  11) = (  6.1486485  0.0003210  5.0176900  )
        12           C   tau(  12) = (  6.1496984  2.8397958  5.0238200  )
        13           C   tau(  13) = (  0.0000000  4.9692534  5.0280700  )
        14           C   tau(  14) = (  0.0000000  6.3889678  5.0121700  )
        15           C   tau(  15) = (  1.2282712  4.2595289  5.0209400  )
        16           C   tau(  16) = (  1.2302405  7.0992867  5.0116600  )
        17           C   tau(  17) = (  2.4584439  4.9698591  5.0026400  )
        18           C   tau(  18) = (  2.4583970  6.3898086  5.0086200  )
        19           C   tau(  19) = (  3.6890370  4.2598673  4.9955700  )
        20           C   tau(  20) = (  3.6890370  7.1002013  5.0046900  )
        21           C   tau(  21) = (  4.9196301  4.9698591  5.0026400  )
        22           C   tau(  22) = (  4.9196770  6.3898086  5.0086200  )
        23           C   tau(  23) = (  6.1498028  4.2595289  5.0209400  )
        24           C   tau(  24) = (  6.1478335  7.0992867  5.0116600  )
        25           C   tau(  25) = (  0.0000000  9.2291345  4.9986900  )
        26           C   tau(  26) = (  0.0000000 10.6489956  4.9899700  )
        27           C   tau(  27) = (  1.2301905  8.5192462  5.0038600  )
        28           C   tau(  28) = (  1.2313558 11.3593591  5.0020000  )
        29           C   tau(  29) = (  2.4606579  9.2297178  5.0180700  )
        30           C   tau(  30) = (  2.4604886 10.6494810  5.0237100  )
        31           C   tau(  31) = (  3.6890370  8.5200015  5.0229100  )
        32           C   tau(  32) = (  3.6890370 11.3593555  5.0346500  )
        33           C   tau(  33) = (  4.9174161  9.2297178  5.0180700  )
        34           C   tau(  34) = (  4.9175854 10.6494810  5.0237100  )
        35           C   tau(  35) = (  6.1478835  8.5192462  5.0038600  )
        36           C   tau(  36) = (  6.1467182 11.3593591  5.0020000  )
        37           C   tau(  37) = (  0.0000000 13.4897088  4.9908200  )
        38           C   tau(  38) = (  0.0000000 14.9095741  5.0065900  )
        39           C   tau(  39) = (  1.2313703 12.7792024  5.0031300  )
        40           C   tau(  40) = (  1.2293247 15.6193678  5.0080200  )
        41           C   tau(  41) = (  2.4599639 13.4888664  5.0204300  )
        42           C   tau(  42) = (  2.4601096 14.9086992  5.0111400  )
        43           C   tau(  43) = (  3.6890370 12.7787952  5.0302000  )
        44           C   tau(  44) = (  3.6890370 15.6184633  5.0116100  )
        45           C   tau(  45) = (  4.9181101 13.4888664  5.0204300  )
        46           C   tau(  46) = (  4.9179644 14.9086992  5.0111400  )
        47           C   tau(  47) = (  6.1467037 12.7792024  5.0031300  )
        48           C   tau(  48) = (  6.1487493 15.6193678  5.0080200  )

     number of k points=   120  gaussian smearing, width (Ry)=  0.1000
                       cart. coord. in units 2pi/alat
        k(    1) = (   0.0000000   0.0000000   0.0000000), wk =   0.0166667
        k(    2) = (   0.0083333   0.0108253   0.0000000), wk =   0.0166667
        k(    3) = (   0.0166667   0.0216506   0.0000000), wk =   0.0166667
        k(    4) = (   0.0250000   0.0324760   0.0000000), wk =   0.0166667
        k(    5) = (   0.0333333   0.0433013   0.0000000), wk =   0.0166667
        k(    6) = (   0.0416667   0.0541266   0.0000000), wk =   0.0166667
        k(    7) = (   0.0500000   0.0649519   0.0000000), wk =   0.0166667
        k(    8) = (   0.0583333   0.0757772   0.0000000), wk =   0.0166667
        k(    9) = (   0.0666667   0.0866025   0.0000000), wk =   0.0166667
        k(   10) = (   0.0750000   0.0974279   0.0000000), wk =   0.0166667
        k(   11) = (   0.0833333   0.1082532   0.0000000), wk =   0.0166667
        k(   12) = (   0.0916667   0.1190785   0.0000000), wk =   0.0166667
        k(   13) = (   0.1000000   0.1299038   0.0000000), wk =   0.0166667
        k(   14) = (   0.1083330   0.1407291   0.0000000), wk =   0.0166667
        k(   15) = (   0.1166670   0.1515544   0.0000000), wk =   0.0166667
        k(   16) = (   0.1250000   0.1623798   0.0000000), wk =   0.0166667
        k(   17) = (   0.1333330   0.1732051   0.0000000), wk =   0.0166667
        k(   18) = (   0.1416670   0.1840304   0.0000000), wk =   0.0166667
        k(   19) = (   0.1500000   0.1948557   0.0000000), wk =   0.0166667
        k(   20) = (   0.1583330   0.2056810   0.0000000), wk =   0.0166667
        k(   21) = (   0.1666670   0.2165064   0.0000000), wk =   0.0166667
        k(   22) = (   0.1750000   0.2273317   0.0000000), wk =   0.0166667
        k(   23) = (   0.1833330   0.2381570   0.0000000), wk =   0.0166667
        k(   24) = (   0.1916670   0.2489823   0.0000000), wk =   0.0166667
        k(   25) = (   0.2000000   0.2598076   0.0000000), wk =   0.0166667
        k(   26) = (   0.2083330   0.2706329   0.0000000), wk =   0.0166667
        k(   27) = (   0.2166670   0.2814583   0.0000000), wk =   0.0166667
        k(   28) = (   0.2250000   0.2922836   0.0000000), wk =   0.0166667
        k(   29) = (   0.2333330   0.3031089   0.0000000), wk =   0.0166667
        k(   30) = (   0.2416670   0.3139342   0.0000000), wk =   0.0166667
        k(   31) = (   0.2500000   0.3247595   0.0000000), wk =   0.0166667
        k(   32) = (   0.2583330   0.3355848   0.0000000), wk =   0.0166667
        k(   33) = (   0.2666670   0.3464102   0.0000000), wk =   0.0166667
        k(   34) = (   0.2750000   0.3572355   0.0000000), wk =   0.0166667
        k(   35) = (   0.2833330   0.3680608   0.0000000), wk =   0.0166667
        k(   36) = (   0.2916670   0.3788861   0.0000000), wk =   0.0166667
        k(   37) = (   0.3000000   0.3897114   0.0000000), wk =   0.0166667
        k(   38) = (   0.3083330   0.4005367   0.0000000), wk =   0.0166667
        k(   39) = (   0.3166670   0.4113621   0.0000000), wk =   0.0166667
        k(   40) = (   0.3250000   0.4221874   0.0000000), wk =   0.0166667
        k(   41) = (   0.3333330   0.4330127   0.0000000), wk =   0.0166667
        k(   42) = (   0.3250000   0.4330127   0.0000000), wk =   0.0166667
        k(   43) = (   0.3166670   0.4330127   0.0000000), wk =   0.0166667
        k(   44) = (   0.3083330   0.4330127   0.0000000), wk =   0.0166667
        k(   45) = (   0.3000000   0.4330127   0.0000000), wk =   0.0166667
        k(   46) = (   0.2916670   0.4330127   0.0000000), wk =   0.0166667
        k(   47) = (   0.2833330   0.4330127   0.0000000), wk =   0.0166667
        k(   48) = (   0.2750000   0.4330127   0.0000000), wk =   0.0166667
        k(   49) = (   0.2666670   0.4330127   0.0000000), wk =   0.0166667
        k(   50) = (   0.2583330   0.4330127   0.0000000), wk =   0.0166667
        k(   51) = (   0.2500000   0.4330127   0.0000000), wk =   0.0166667
        k(   52) = (   0.2416670   0.4330127   0.0000000), wk =   0.0166667
        k(   53) = (   0.2333330   0.4330127   0.0000000), wk =   0.0166667
        k(   54) = (   0.2250000   0.4330127   0.0000000), wk =   0.0166667
        k(   55) = (   0.2166670   0.4330127   0.0000000), wk =   0.0166667
        k(   56) = (   0.2083330   0.4330127   0.0000000), wk =   0.0166667
        k(   57) = (   0.2000000   0.4330127   0.0000000), wk =   0.0166667
        k(   58) = (   0.1916670   0.4330127   0.0000000), wk =   0.0166667
        k(   59) = (   0.1833330   0.4330127   0.0000000), wk =   0.0166667
        k(   60) = (   0.1750000   0.4330127   0.0000000), wk =   0.0166667
        k(   61) = (   0.1666670   0.4330127   0.0000000), wk =   0.0166667
        k(   62) = (   0.1583330   0.4330127   0.0000000), wk =   0.0166667
        k(   63) = (   0.1500000   0.4330127   0.0000000), wk =   0.0166667
        k(   64) = (   0.1416670   0.4330127   0.0000000), wk =   0.0166667
        k(   65) = (   0.1333330   0.4330127   0.0000000), wk =   0.0166667
        k(   66) = (   0.1250000   0.4330127   0.0000000), wk =   0.0166667
        k(   67) = (   0.1166670   0.4330127   0.0000000), wk =   0.0166667
        k(   68) = (   0.1083330   0.4330127   0.0000000), wk =   0.0166667
        k(   69) = (   0.1000000   0.4330127   0.0000000), wk =   0.0166667
        k(   70) = (   0.0916667   0.4330127   0.0000000), wk =   0.0166667
        k(   71) = (   0.0833333   0.4330127   0.0000000), wk =   0.0166667
        k(   72) = (   0.0750000   0.4330127   0.0000000), wk =   0.0166667
        k(   73) = (   0.0666667   0.4330127   0.0000000), wk =   0.0166667
        k(   74) = (   0.0583333   0.4330127   0.0000000), wk =   0.0166667
        k(   75) = (   0.0500000   0.4330127   0.0000000), wk =   0.0166667
        k(   76) = (   0.0416667   0.4330127   0.0000000), wk =   0.0166667
        k(   77) = (   0.0333333   0.4330127   0.0000000), wk =   0.0166667
        k(   78) = (   0.0250000   0.4330127   0.0000000), wk =   0.0166667
        k(   79) = (   0.0166667   0.4330127   0.0000000), wk =   0.0166667
        k(   80) = (   0.0083333   0.4330127   0.0000000), wk =   0.0166667
        k(   81) = (   0.0000000   0.4330127   0.0000000), wk =   0.0166667
        k(   82) = (   0.0000000   0.4221874   0.0000000), wk =   0.0166667
        k(   83) = (   0.0000000   0.4113621   0.0000000), wk =   0.0166667
        k(   84) = (   0.0000000   0.4005367   0.0000000), wk =   0.0166667
        k(   85) = (   0.0000000   0.3897114   0.0000000), wk =   0.0166667
        k(   86) = (   0.0000000   0.3788861   0.0000000), wk =   0.0166667
        k(   87) = (   0.0000000   0.3680608   0.0000000), wk =   0.0166667
        k(   88) = (   0.0000000   0.3572355   0.0000000), wk =   0.0166667
        k(   89) = (   0.0000000   0.3464102   0.0000000), wk =   0.0166667
        k(   90) = (   0.0000000   0.3355848   0.0000000), wk =   0.0166667
        k(   91) = (   0.0000000   0.3247595   0.0000000), wk =   0.0166667
        k(   92) = (   0.0000000   0.3139342   0.0000000), wk =   0.0166667
        k(   93) = (   0.0000000   0.3031089   0.0000000), wk =   0.0166667
        k(   94) = (   0.0000000   0.2922836   0.0000000), wk =   0.0166667
        k(   95) = (   0.0000000   0.2814583   0.0000000), wk =   0.0166667
        k(   96) = (   0.0000000   0.2706329   0.0000000), wk =   0.0166667
        k(   97) = (   0.0000000   0.2598076   0.0000000), wk =   0.0166667
        k(   98) = (   0.0000000   0.2489823   0.0000000), wk =   0.0166667
        k(   99) = (   0.0000000   0.2381570   0.0000000), wk =   0.0166667
        k(  100) = (   0.0000000   0.2273317   0.0000000), wk =   0.0166667
        k(  101) = (   0.0000000   0.2165064   0.0000000), wk =   0.0166667
        k(  102) = (   0.0000000   0.2056810   0.0000000), wk =   0.0166667
        k(  103) = (   0.0000000   0.1948557   0.0000000), wk =   0.0166667
        k(  104) = (   0.0000000   0.1840304   0.0000000), wk =   0.0166667
        k(  105) = (   0.0000000   0.1732051   0.0000000), wk =   0.0166667
        k(  106) = (   0.0000000   0.1623798   0.0000000), wk =   0.0166667
        k(  107) = (   0.0000000   0.1515544   0.0000000), wk =   0.0166667
        k(  108) = (   0.0000000   0.1407291   0.0000000), wk =   0.0166667
        k(  109) = (   0.0000000   0.1299038   0.0000000), wk =   0.0166667
        k(  110) = (   0.0000000   0.1190785   0.0000000), wk =   0.0166667
        k(  111) = (   0.0000000   0.1082532   0.0000000), wk =   0.0166667
        k(  112) = (   0.0000000   0.0974279   0.0000000), wk =   0.0166667
        k(  113) = (   0.0000000   0.0866025   0.0000000), wk =   0.0166667
        k(  114) = (   0.0000000   0.0757772   0.0000000), wk =   0.0166667
        k(  115) = (   0.0000000   0.0649519   0.0000000), wk =   0.0166667
        k(  116) = (   0.0000000   0.0541266   0.0000000), wk =   0.0166667
        k(  117) = (   0.0000000   0.0433013   0.0000000), wk =   0.0166667
        k(  118) = (   0.0000000   0.0324760   0.0000000), wk =   0.0166667
        k(  119) = (   0.0000000   0.0216506   0.0000000), wk =   0.0166667
        k(  120) = (   0.0000000   0.0108253   0.0000000), wk =   0.0166667

                       cryst. coord.
        k(    1) = (   0.0000000   0.0000000   0.0000000), wk =   0.0166667
        k(    2) = (   0.0083333   0.0250000   0.0000000), wk =   0.0166667
        k(    3) = (   0.0166667   0.0500000   0.0000000), wk =   0.0166667
        k(    4) = (   0.0250000   0.0750000   0.0000000), wk =   0.0166667
        k(    5) = (   0.0333333   0.1000000   0.0000000), wk =   0.0166667
        k(    6) = (   0.0416667   0.1250000   0.0000000), wk =   0.0166667
        k(    7) = (   0.0500000   0.1500000   0.0000000), wk =   0.0166667
        k(    8) = (   0.0583333   0.1750000   0.0000000), wk =   0.0166667
        k(    9) = (   0.0666667   0.2000000   0.0000000), wk =   0.0166667
        k(   10) = (   0.0750000   0.2250000   0.0000000), wk =   0.0166667
        k(   11) = (   0.0833333   0.2500000   0.0000000), wk =   0.0166667
        k(   12) = (   0.0916667   0.2750000   0.0000000), wk =   0.0166667
        k(   13) = (   0.1000000   0.3000000   0.0000000), wk =   0.0166667
        k(   14) = (   0.1083330   0.3250000   0.0000000), wk =   0.0166667
        k(   15) = (   0.1166670   0.3500000   0.0000000), wk =   0.0166667
        k(   16) = (   0.1250000   0.3750000   0.0000000), wk =   0.0166667
        k(   17) = (   0.1333330   0.4000000   0.0000000), wk =   0.0166667
        k(   18) = (   0.1416670   0.4250000   0.0000000), wk =   0.0166667
        k(   19) = (   0.1500000   0.4500000   0.0000000), wk =   0.0166667
        k(   20) = (   0.1583330   0.4750000   0.0000000), wk =   0.0166667
        k(   21) = (   0.1666670   0.5000000   0.0000000), wk =   0.0166667
        k(   22) = (   0.1750000   0.5250000   0.0000000), wk =   0.0166667
        k(   23) = (   0.1833330   0.5500000   0.0000000), wk =   0.0166667
        k(   24) = (   0.1916670   0.5750000   0.0000000), wk =   0.0166667
        k(   25) = (   0.2000000   0.6000000   0.0000000), wk =   0.0166667
        k(   26) = (   0.2083330   0.6250000   0.0000000), wk =   0.0166667
        k(   27) = (   0.2166670   0.6500000   0.0000000), wk =   0.0166667
        k(   28) = (   0.2250000   0.6750000   0.0000000), wk =   0.0166667
        k(   29) = (   0.2333330   0.7000000   0.0000000), wk =   0.0166667
        k(   30) = (   0.2416670   0.7250000   0.0000000), wk =   0.0166667
        k(   31) = (   0.2500000   0.7500000   0.0000000), wk =   0.0166667
        k(   32) = (   0.2583330   0.7750000   0.0000000), wk =   0.0166667
        k(   33) = (   0.2666670   0.8000000   0.0000000), wk =   0.0166667
        k(   34) = (   0.2750000   0.8250000   0.0000000), wk =   0.0166667
        k(   35) = (   0.2833330   0.8500000   0.0000000), wk =   0.0166667
        k(   36) = (   0.2916670   0.8750000   0.0000000), wk =   0.0166667
        k(   37) = (   0.3000000   0.9000000   0.0000000), wk =   0.0166667
        k(   38) = (   0.3083330   0.9250000   0.0000000), wk =   0.0166667
        k(   39) = (   0.3166670   0.9500000   0.0000000), wk =   0.0166667
        k(   40) = (   0.3250000   0.9750000   0.0000000), wk =   0.0166667
        k(   41) = (   0.3333330   1.0000000   0.0000000), wk =   0.0166667
        k(   42) = (   0.3250000   1.0000000   0.0000000), wk =   0.0166667
        k(   43) = (   0.3166670   1.0000000   0.0000000), wk =   0.0166667
        k(   44) = (   0.3083330   1.0000000   0.0000000), wk =   0.0166667
        k(   45) = (   0.3000000   1.0000000   0.0000000), wk =   0.0166667
        k(   46) = (   0.2916670   1.0000000   0.0000000), wk =   0.0166667
        k(   47) = (   0.2833330   1.0000000   0.0000000), wk =   0.0166667
        k(   48) = (   0.2750000   1.0000000   0.0000000), wk =   0.0166667
        k(   49) = (   0.2666670   1.0000000   0.0000000), wk =   0.0166667
        k(   50) = (   0.2583330   1.0000000   0.0000000), wk =   0.0166667
        k(   51) = (   0.2500000   1.0000000   0.0000000), wk =   0.0166667
        k(   52) = (   0.2416670   1.0000000   0.0000000), wk =   0.0166667
        k(   53) = (   0.2333330   1.0000000   0.0000000), wk =   0.0166667
        k(   54) = (   0.2250000   1.0000000   0.0000000), wk =   0.0166667
        k(   55) = (   0.2166670   1.0000000   0.0000000), wk =   0.0166667
        k(   56) = (   0.2083330   1.0000000   0.0000000), wk =   0.0166667
        k(   57) = (   0.2000000   1.0000000   0.0000000), wk =   0.0166667
        k(   58) = (   0.1916670   1.0000000   0.0000000), wk =   0.0166667
        k(   59) = (   0.1833330   1.0000000   0.0000000), wk =   0.0166667
        k(   60) = (   0.1750000   1.0000000   0.0000000), wk =   0.0166667
        k(   61) = (   0.1666670   1.0000000   0.0000000), wk =   0.0166667
        k(   62) = (   0.1583330   1.0000000   0.0000000), wk =   0.0166667
        k(   63) = (   0.1500000   1.0000000   0.0000000), wk =   0.0166667
        k(   64) = (   0.1416670   1.0000000   0.0000000), wk =   0.0166667
        k(   65) = (   0.1333330   1.0000000   0.0000000), wk =   0.0166667
        k(   66) = (   0.1250000   1.0000000   0.0000000), wk =   0.0166667
        k(   67) = (   0.1166670   1.0000000   0.0000000), wk =   0.0166667
        k(   68) = (   0.1083330   1.0000000   0.0000000), wk =   0.0166667
        k(   69) = (   0.1000000   1.0000000   0.0000000), wk =   0.0166667
        k(   70) = (   0.0916667   1.0000000   0.0000000), wk =   0.0166667
        k(   71) = (   0.0833333   1.0000000   0.0000000), wk =   0.0166667
        k(   72) = (   0.0750000   1.0000000   0.0000000), wk =   0.0166667
        k(   73) = (   0.0666667   1.0000000   0.0000000), wk =   0.0166667
        k(   74) = (   0.0583333   1.0000000   0.0000000), wk =   0.0166667
        k(   75) = (   0.0500000   1.0000000   0.0000000), wk =   0.0166667
        k(   76) = (   0.0416667   1.0000000   0.0000000), wk =   0.0166667
        k(   77) = (   0.0333333   1.0000000   0.0000000), wk =   0.0166667
        k(   78) = (   0.0250000   1.0000000   0.0000000), wk =   0.0166667
        k(   79) = (   0.0166667   1.0000000   0.0000000), wk =   0.0166667
        k(   80) = (   0.0083333   1.0000000   0.0000000), wk =   0.0166667
        k(   81) = (   0.0000000   1.0000000   0.0000000), wk =   0.0166667
        k(   82) = (   0.0000000   0.9750000   0.0000000), wk =   0.0166667
        k(   83) = (   0.0000000   0.9500000   0.0000000), wk =   0.0166667
        k(   84) = (   0.0000000   0.9250000   0.0000000), wk =   0.0166667
        k(   85) = (   0.0000000   0.9000000   0.0000000), wk =   0.0166667
        k(   86) = (   0.0000000   0.8750000   0.0000000), wk =   0.0166667
        k(   87) = (   0.0000000   0.8500000   0.0000000), wk =   0.0166667
        k(   88) = (   0.0000000   0.8250000   0.0000000), wk =   0.0166667
        k(   89) = (   0.0000000   0.8000000   0.0000000), wk =   0.0166667
        k(   90) = (   0.0000000   0.7750000   0.0000000), wk =   0.0166667
        k(   91) = (   0.0000000   0.7500000   0.0000000), wk =   0.0166667
        k(   92) = (   0.0000000   0.7250000   0.0000000), wk =   0.0166667
        k(   93) = (   0.0000000   0.7000000   0.0000000), wk =   0.0166667
        k(   94) = (   0.0000000   0.6750000   0.0000000), wk =   0.0166667
        k(   95) = (   0.0000000   0.6500000   0.0000000), wk =   0.0166667
        k(   96) = (   0.0000000   0.6250000   0.0000000), wk =   0.0166667
        k(   97) = (   0.0000000   0.6000000   0.0000000), wk =   0.0166667
        k(   98) = (   0.0000000   0.5750000   0.0000000), wk =   0.0166667
        k(   99) = (   0.0000000   0.5500000   0.0000000), wk =   0.0166667
        k(  100) = (   0.0000000   0.5250000   0.0000000), wk =   0.0166667
        k(  101) = (   0.0000000   0.5000000   0.0000000), wk =   0.0166667
        k(  102) = (   0.0000000   0.4750000   0.0000000), wk =   0.0166667
        k(  103) = (   0.0000000   0.4500000   0.0000000), wk =   0.0166667
        k(  104) = (   0.0000000   0.4250000   0.0000000), wk =   0.0166667
        k(  105) = (   0.0000000   0.4000000   0.0000000), wk =   0.0166667
        k(  106) = (   0.0000000   0.3750000   0.0000000), wk =   0.0166667
        k(  107) = (   0.0000000   0.3500000   0.0000000), wk =   0.0166667
        k(  108) = (   0.0000000   0.3250000   0.0000000), wk =   0.0166667
        k(  109) = (   0.0000000   0.3000000   0.0000000), wk =   0.0166667
        k(  110) = (   0.0000000   0.2750000   0.0000000), wk =   0.0166667
        k(  111) = (   0.0000000   0.2500000   0.0000000), wk =   0.0166667
        k(  112) = (   0.0000000   0.2250000   0.0000000), wk =   0.0166667
        k(  113) = (   0.0000000   0.2000000   0.0000000), wk =   0.0166667
        k(  114) = (   0.0000000   0.1750000   0.0000000), wk =   0.0166667
        k(  115) = (   0.0000000   0.1500000   0.0000000), wk =   0.0166667
        k(  116) = (   0.0000000   0.1250000   0.0000000), wk =   0.0166667
        k(  117) = (   0.0000000   0.1000000   0.0000000), wk =   0.0166667
        k(  118) = (   0.0000000   0.0750000   0.0000000), wk =   0.0166667
        k(  119) = (   0.0000000   0.0500000   0.0000000), wk =   0.0166667
        k(  120) = (   0.0000000   0.0250000   0.0000000), wk =   0.0166667

     Dense  grid:   820307 G-vectors     FFT dimensions: (  80, 192, 108)

     Largest allocated arrays     est. size (Mb)     dimensions
        Kohn-Sham Wavefunctions         3.24 Mb     (    1845,  115)
        NL pseudopotentials             1.35 Mb     (    1845,   48)
        Each V/rho on FFT grid          0.47 Mb     (   30720)
        Each G-vector array             0.11 Mb     (   14650)
        G-vector shells                 0.06 Mb     (    7248)
     Largest temporary arrays     est. size (Mb)     dimensions
        Auxiliary wavefunctions        12.95 Mb     (    1845,  460)
        Each subspace H/S matrix        0.13 Mb     (      92,   92)
        Each <psi_i|beta_j> matrix      0.08 Mb     (      48,  115)

     The potential is recalculated from file :
     ./graphene.save/charge-density.dat

     Starting wfc are  384 randomized atomic wfcs

     Band Structure Calculation
     Davidson diagonalization with overlap

     Computing kpt #:     1
     total cpu time spent up to now is        5.6 secs

     Computing kpt #:     2
     total cpu time spent up to now is        9.4 secs

     Computing kpt #:     3
     total cpu time spent up to now is       12.6 secs

     Computing kpt #:     4
     total cpu time spent up to now is       16.8 secs

     Computing kpt #:     5
     total cpu time spent up to now is       20.0 secs

     Computing kpt #:     6
     total cpu time spent up to now is       23.1 secs

     Computing kpt #:     7
     total cpu time spent up to now is       26.1 secs

     Computing kpt #:     8
     total cpu time spent up to now is       29.0 secs

     Computing kpt #:     9
     total cpu time spent up to now is       31.9 secs

     Computing kpt #:    10
     total cpu time spent up to now is       34.9 secs

     Computing kpt #:    11
     total cpu time spent up to now is       37.8 secs

     Computing kpt #:    12
     total cpu time spent up to now is       40.7 secs

     Computing kpt #:    13
     total cpu time spent up to now is       43.6 secs

     Computing kpt #:    14
     total cpu time spent up to now is       46.6 secs

     Computing kpt #:    15
     total cpu time spent up to now is       49.5 secs

     Computing kpt #:    16
     total cpu time spent up to now is       52.4 secs

     Computing kpt #:    17
     total cpu time spent up to now is       55.4 secs

     Computing kpt #:    18
     total cpu time spent up to now is       58.3 secs

     Computing kpt #:    19
     total cpu time spent up to now is       61.2 secs

     Computing kpt #:    20
     total cpu time spent up to now is       64.1 secs

     Computing kpt #:    21
     total cpu time spent up to now is       66.9 secs

     Computing kpt #:    22
     total cpu time spent up to now is       69.9 secs

     Computing kpt #:    23
     total cpu time spent up to now is       72.7 secs

     Computing kpt #:    24
     total cpu time spent up to now is       75.6 secs

     Computing kpt #:    25
     total cpu time spent up to now is       78.4 secs

     Computing kpt #:    26
     total cpu time spent up to now is       81.3 secs

     Computing kpt #:    27
     total cpu time spent up to now is       84.1 secs

     Computing kpt #:    28
     total cpu time spent up to now is       87.0 secs

     Computing kpt #:    29
     total cpu time spent up to now is       89.8 secs

     Computing kpt #:    30
     total cpu time spent up to now is       92.7 secs

     Computing kpt #:    31
     total cpu time spent up to now is       95.5 secs

     Computing kpt #:    32
     total cpu time spent up to now is       98.4 secs

     Computing kpt #:    33
     total cpu time spent up to now is      101.2 secs

     Computing kpt #:    34
     total cpu time spent up to now is      104.1 secs

     Computing kpt #:    35
     total cpu time spent up to now is      106.9 secs

     Computing kpt #:    36
     total cpu time spent up to now is      109.8 secs

     Computing kpt #:    37
     total cpu time spent up to now is      112.7 secs

     Computing kpt #:    38
     total cpu time spent up to now is      115.7 secs

     Computing kpt #:    39
     total cpu time spent up to now is      118.6 secs

     Computing kpt #:    40
     total cpu time spent up to now is      121.5 secs

     Computing kpt #:    41
     total cpu time spent up to now is      124.4 secs

     Computing kpt #:    42
     total cpu time spent up to now is      127.3 secs

     Computing kpt #:    43
     total cpu time spent up to now is      130.2 secs

     Computing kpt #:    44
     total cpu time spent up to now is      133.1 secs

     Computing kpt #:    45
     total cpu time spent up to now is      136.0 secs

     Computing kpt #:    46
     total cpu time spent up to now is      138.9 secs

     Computing kpt #:    47
     total cpu time spent up to now is      141.8 secs

     Computing kpt #:    48
     total cpu time spent up to now is      144.7 secs

     Computing kpt #:    49
     total cpu time spent up to now is      147.6 secs

     Computing kpt #:    50
     total cpu time spent up to now is      150.5 secs

     Computing kpt #:    51
     total cpu time spent up to now is      153.5 secs

     Computing kpt #:    52
     total cpu time spent up to now is      156.4 secs

     Computing kpt #:    53
     total cpu time spent up to now is      159.3 secs

     Computing kpt #:    54
     total cpu time spent up to now is      162.2 secs

     Computing kpt #:    55
     total cpu time spent up to now is      165.0 secs

     Computing kpt #:    56
     total cpu time spent up to now is      167.9 secs

     Computing kpt #:    57
     total cpu time spent up to now is      170.8 secs

     Computing kpt #:    58
     total cpu time spent up to now is      173.8 secs

     Computing kpt #:    59
     total cpu time spent up to now is      176.7 secs

     Computing kpt #:    60
     total cpu time spent up to now is      179.6 secs

     Computing kpt #:    61
     total cpu time spent up to now is      182.5 secs

     Computing kpt #:    62
     total cpu time spent up to now is      185.5 secs

     Computing kpt #:    63
     total cpu time spent up to now is      188.4 secs

     Computing kpt #:    64
     total cpu time spent up to now is      191.3 secs

     Computing kpt #:    65
     total cpu time spent up to now is      194.3 secs

     Computing kpt #:    66
     total cpu time spent up to now is      197.2 secs

     Computing kpt #:    67
     total cpu time spent up to now is      200.1 secs

     Computing kpt #:    68
     total cpu time spent up to now is      203.0 secs

     Computing kpt #:    69
     total cpu time spent up to now is      206.0 secs

     Computing kpt #:    70
     total cpu time spent up to now is      208.9 secs

     Computing kpt #:    71
     total cpu time spent up to now is      211.8 secs

     Computing kpt #:    72
     total cpu time spent up to now is      214.8 secs

     Computing kpt #:    73
     total cpu time spent up to now is      217.7 secs

     Computing kpt #:    74
     total cpu time spent up to now is      220.6 secs

     Computing kpt #:    75
     total cpu time spent up to now is      223.5 secs

     Computing kpt #:    76
     total cpu time spent up to now is      226.5 secs

     Computing kpt #:    77
     total cpu time spent up to now is      229.4 secs

     Computing kpt #:    78
     total cpu time spent up to now is      232.3 secs

     Computing kpt #:    79
     total cpu time spent up to now is      235.2 secs

     Computing kpt #:    80
     total cpu time spent up to now is      238.1 secs

     Computing kpt #:    81
     total cpu time spent up to now is      241.0 secs

     Computing kpt #:    82
     total cpu time spent up to now is      244.0 secs

     Computing kpt #:    83
     total cpu time spent up to now is      246.9 secs

     Computing kpt #:    84
     total cpu time spent up to now is      249.8 secs

     Computing kpt #:    85
     total cpu time spent up to now is      252.8 secs

     Computing kpt #:    86
     total cpu time spent up to now is      255.7 secs

     Computing kpt #:    87
     total cpu time spent up to now is      258.6 secs

     Computing kpt #:    88
     total cpu time spent up to now is      261.5 secs

     Computing kpt #:    89
     total cpu time spent up to now is      264.5 secs

     Computing kpt #:    90
     total cpu time spent up to now is      267.5 secs

     Computing kpt #:    91
     total cpu time spent up to now is      270.4 secs

     Computing kpt #:    92
     total cpu time spent up to now is      273.4 secs

     Computing kpt #:    93
     total cpu time spent up to now is      276.4 secs

     Computing kpt #:    94
     total cpu time spent up to now is      279.4 secs

     Computing kpt #:    95
     total cpu time spent up to now is      282.4 secs

     Computing kpt #:    96
     total cpu time spent up to now is      285.4 secs

     Computing kpt #:    97
     total cpu time spent up to now is      288.4 secs

     Computing kpt #:    98
     total cpu time spent up to now is      291.4 secs

     Computing kpt #:    99
     total cpu time spent up to now is      294.4 secs

     Computing kpt #:   100
     total cpu time spent up to now is      297.3 secs

     Computing kpt #:   101
     total cpu time spent up to now is      300.2 secs

     Computing kpt #:   102
     total cpu time spent up to now is      303.1 secs

     Computing kpt #:   103
     total cpu time spent up to now is      306.1 secs

     Computing kpt #:   104
     total cpu time spent up to now is      309.1 secs

     Computing kpt #:   105
     total cpu time spent up to now is      312.1 secs

     Computing kpt #:   106
     total cpu time spent up to now is      315.1 secs

     Computing kpt #:   107
     total cpu time spent up to now is      318.0 secs

     Computing kpt #:   108
     total cpu time spent up to now is      321.0 secs

     Computing kpt #:   109
     total cpu time spent up to now is      324.0 secs

     Computing kpt #:   110
     total cpu time spent up to now is      327.0 secs

     Computing kpt #:   111
     total cpu time spent up to now is      330.0 secs

     Computing kpt #:   112
     total cpu time spent up to now is      333.1 secs

     Computing kpt #:   113
     total cpu time spent up to now is      336.0 secs

     Computing kpt #:   114
     total cpu time spent up to now is      339.0 secs

     Computing kpt #:   115
     total cpu time spent up to now is      342.0 secs

     Computing kpt #:   116
     total cpu time spent up to now is      344.9 secs

     Computing kpt #:   117
     total cpu time spent up to now is      347.8 secs

     Computing kpt #:   118
     total cpu time spent up to now is      350.8 secs

     Computing kpt #:   119
     total cpu time spent up to now is      353.7 secs

     Computing kpt #:   120
     total cpu time spent up to now is      356.6 secs

     ethr =  1.00E-04,  avg # of iterations = 13.0

     total cpu time spent up to now is      356.7 secs

     End of band structure calculation

          k = 0.0000 0.0000 0.0000 (102525 PWs)   bands (ev):

   -36.0420 -34.8876 -34.2791 -22.1425 -20.8979 -20.2329 -19.8229 -19.2941
   -19.2386 -18.9671 -18.6702 -18.2415 -18.1155 -17.1425 -16.8534 -16.8045
   -16.2509 -15.7962 -15.6897 -15.3925 -15.2508 -15.1019 -14.9519 -14.8538
   -14.2817 -14.1838 -13.8468 -13.5719 -13.3745 -13.1800 -13.0743 -12.9791
   -12.9085 -12.5871 -12.4663 -12.2628 -11.9306 -11.7619 -11.4376 -11.2256
   -11.1854 -10.9024 -10.8694 -10.6522 -10.4450 -10.3090  -9.8586  -9.6497
    -9.2509  -9.2128  -9.1051  -8.8423  -8.7467  -8.3926  -8.2618  -8.0480
    -7.3078  -7.1294  -6.9533  -6.8597  -6.4316  -6.3181  -5.9970  -5.8124
    -5.6631  -5.5781  -5.4328  -5.2641  -5.1952  -5.0942  -4.9907  -4.9483
    -4.8759  -4.8409  -4.5488  -4.4080  -4.2359  -4.0104  -3.6875  -3.5179
    -3.4567  -3.3477  -3.2859  -3.1249  -3.1053  -2.9934  -2.8556  -2.7595
    -2.2836  -2.1834  -1.7369  -1.5988  -1.4800  -1.1044  -0.9299  -0.4457
    -0.1758   0.2037   0.5478   0.7415   1.0676   1.2058   1.2681   1.3922
     1.8006   1.8867   2.1356   2.2178   2.6056   2.6292   2.7610   2.8350
     3.0433   3.1188   3.1978

          k = 0.0083 0.0108 0.0000 (102534 PWs)   bands (ev):

   -36.0420 -34.8876 -34.2791 -22.1425 -20.8979 -20.2329 -19.8229 -19.2942
   -19.2383 -18.9677 -18.6695 -18.2424 -18.1149 -17.1425 -16.8535 -16.8046
   -16.2509 -15.7963 -15.6894 -15.3925 -15.2509 -15.1020 -14.9520 -14.8539
   -14.2816 -14.1839 -13.8466 -13.5720 -13.3741 -13.1799 -13.0741 -12.9795
   -12.9082 -12.5873 -12.4663 -12.2630 -11.9307 -11.7615 -11.4383 -11.2248
   -11.1851 -10.9025 -10.8696 -10.6522 -10.4451 -10.3085  -9.8587  -9.6510
    -9.2510  -9.2131  -9.1053  -8.8456  -8.7425  -8.3929  -8.2607  -8.0487
    -7.3082  -7.1299  -6.9533  -6.8590  -6.4316  -6.3176  -5.9971  -5.8119
    -5.6641  -5.5776  -5.4330  -5.2652  -5.1945  -5.0943  -4.9919  -4.9465
    -4.8756  -4.8404  -4.5484  -4.4077  -4.2356  -4.0105  -3.6888  -3.5178
    -3.4567  -3.3478  -3.2862  -3.1248  -3.1048  -2.9935  -2.8557  -2.7594
    -2.2837  -2.1834  -1.7369  -1.5990  -1.4803  -1.1042  -0.9300  -0.4456
    -0.1760   0.2037   0.5470   0.7423   1.0674   1.2057   1.2681   1.3922
     1.8009   1.8868   2.1347   2.2187   2.6054   2.6290   2.7607   2.8345
     3.0446   3.1192   3.1975

          k = 0.0167 0.0217 0.0000 (102515 PWs)   bands (ev):

   -36.0420 -34.8876 -34.2791 -22.1425 -20.8979 -20.2329 -19.8229 -19.2945
   -19.2374 -18.9692 -18.6676 -18.2451 -18.1131 -17.1424 -16.8536 -16.8049
   -16.2508 -15.7965 -15.6886 -15.3925 -15.2512 -15.1022 -14.9522 -14.8540
   -14.2814 -14.1843 -13.8460 -13.5723 -13.3730 -13.1799 -13.0736 -12.9805
   -12.9075 -12.5877 -12.4663 -12.2636 -11.9309 -11.7604 -11.4403 -11.2225
   -11.1841 -10.9029 -10.8700 -10.6521 -10.4455 -10.3068  -9.8589  -9.6550
    -9.2512  -9.2141  -9.1062  -8.8539  -8.7315  -8.3937  -8.2577  -8.0507
    -7.3092  -7.1313  -6.9535  -6.8566  -6.4315  -6.3162  -5.9973  -5.8105
    -5.6670  -5.5762  -5.4335  -5.2685  -5.1928  -5.0946  -4.9948  -4.9417
    -4.8748  -4.8390  -4.5474  -4.4068  -4.2347  -4.0109  -3.6929  -3.5178
    -3.4565  -3.3481  -3.2872  -3.1246  -3.1030  -2.9937  -2.8561  -2.7589
    -2.2838  -2.1832  -1.7369  -1.5996  -1.4810  -1.1035  -0.9302  -0.4454
    -0.1768   0.2039   0.5449   0.7446   1.0670   1.2054   1.2681   1.3921
     1.8018   1.8873   2.1319   2.2214   2.6047   2.6283   2.7598   2.8327
     3.0484   3.1203   3.1960

          k = 0.0250 0.0325 0.0000 (102489 PWs)   bands (ev):

   -36.0420 -34.8876 -34.2791 -22.1425 -20.8979 -20.2329 -19.8229 -19.2950
   -19.2361 -18.9717 -18.6645 -18.2494 -18.1103 -17.1423 -16.8537 -16.8054
   -16.2508 -15.7967 -15.6874 -15.3924 -15.2517 -15.1024 -14.9526 -14.8543
   -14.2812 -14.1848 -13.8451 -13.5729 -13.3712 -13.1798 -13.0728 -12.9822
   -12.9062 -12.5884 -12.4662 -12.2647 -11.9313 -11.7586 -11.4435 -11.2191
   -11.1822 -10.9034 -10.8708 -10.6520 -10.4461 -10.3041  -9.8592  -9.6614
    -9.2518  -9.2157  -9.1078  -8.8644  -8.7165  -8.3948  -8.2529  -8.0538
    -7.3109  -7.1335  -6.9540  -6.8527  -6.4312  -6.3138  -5.9976  -5.8083
    -5.6715  -5.5743  -5.4343  -5.2734  -5.1901  -5.0950  -4.9984  -4.9355
    -4.8734  -4.8366  -4.5458  -4.4053  -4.2331  -4.0115  -3.6995  -3.5178
    -3.4563  -3.3487  -3.2888  -3.1247  -3.1000  -2.9939  -2.8568  -2.7581
    -2.2840  -2.1830  -1.7370  -1.6005  -1.4824  -1.1023  -0.9306  -0.4449
    -0.1780   0.2043   0.5416   0.7483   1.0662   1.2049   1.2681   1.3918
     1.8031   1.8880   2.1276   2.2255   2.6035   2.6272   2.7582   2.8301
     3.0540   3.1222   3.1937

          k = 0.0333 0.0433 0.0000 (102478 PWs)   bands (ev):

   -36.0420 -34.8876 -34.2791 -22.1425 -20.8979 -20.2329 -19.8229 -19.2955
   -19.2342 -18.9750 -18.6602 -18.2551 -18.1067 -17.1422 -16.8539 -16.8061
   -16.2507 -15.7970 -15.6856 -15.3923 -15.2523 -15.1028 -14.9532 -14.8547
   -14.2809 -14.1856 -13.8438 -13.5736 -13.3686 -13.1796 -13.0716 -12.9845
   -12.9045 -12.5894 -12.4662 -12.2661 -11.9318 -11.7560 -11.4476 -11.2153
   -11.1790 -10.9042 -10.8718 -10.6517 -10.4470 -10.3004  -9.8597  -9.6700
    -9.2530  -9.2175  -9.1106  -8.8748  -8.6995  -8.3960  -8.2465  -8.0581
    -7.3133  -7.1364  -6.9548  -6.8471  -6.4309  -6.3107  -5.9980  -5.8054
    -5.6772  -5.5723  -5.4353  -5.2796  -5.1868  -5.0955  -5.0018  -4.9290
    -4.8714  -4.8333  -4.5436  -4.4031  -4.2310  -4.0125  -3.7084  -3.5178
    -3.4560  -3.3494  -3.2909  -3.1254  -3.0958  -2.9941  -2.8576  -2.7570
    -2.2843  -2.1827  -1.7371  -1.6018  -1.4841  -1.1007  -0.9310  -0.4443
    -0.1797   0.2047   0.5371   0.7531   1.0652   1.2039   1.2685   1.3914
     1.8050   1.8890   2.1223   2.2307   2.6019   2.6258   2.7561   2.8268
     3.0610   3.1253   3.1912

          k = 0.0417 0.0541 0.0000 (102470 PWs)   bands (ev):

   -36.0420 -34.8875 -34.2791 -22.1425 -20.8979 -20.2329 -19.8229 -19.2962
   -19.2319 -18.9792 -18.6548 -18.2619 -18.1025 -17.1421 -16.8542 -16.8069
   -16.2506 -15.7974 -15.6835 -15.3922 -15.2531 -15.1033 -14.9539 -14.8551
   -14.2806 -14.1865 -13.8422 -13.5745 -13.3653 -13.1794 -13.0703 -12.9874
   -12.9023 -12.5906 -12.4662 -12.2679 -11.9326 -11.7528 -11.4524 -11.2119
   -11.1742 -10.9052 -10.8731 -10.6513 -10.4480 -10.2959  -9.8605  -9.6804
    -9.2552  -9.2194  -9.1147  -8.8840  -8.6816  -8.3972  -8.2388  -8.0633
    -7.3166  -7.1398  -6.9561  -6.8399  -6.4304  -6.3067  -5.9984  -5.8020
    -5.6837  -5.5707  -5.4363  -5.2863  -5.1830  -5.0960  -5.0046  -4.9228
    -4.8688  -4.8289  -4.5410  -4.4003  -4.2283  -4.0138  -3.7191  -3.5180
    -3.4556  -3.3502  -3.2934  -3.1266  -3.0907  -2.9941  -2.8586  -2.7557
    -2.2848  -2.1823  -1.7373  -1.6033  -1.4864  -1.0987  -0.9317  -0.4436
    -0.1818   0.2053   0.5318   0.7589   1.0639   1.2025   1.2692   1.3908
     1.8074   1.8902   2.1163   2.2365   2.5996   2.6241   2.7533   2.8231
     3.0679   3.1299   3.1889

          k = 0.0500 0.0650 0.0000 (102467 PWs)   bands (ev):

   -36.0420 -34.8876 -34.2791 -22.1425 -20.8979 -20.2329 -19.8230 -19.2970
   -19.2291 -18.9840 -18.6486 -18.2696 -18.0981 -17.1419 -16.8545 -16.8079
   -16.2504 -15.7978 -15.6809 -15.3920 -15.2541 -15.1040 -14.9548 -14.8557
   -14.2803 -14.1875 -13.8403 -13.5755 -13.3612 -13.1792 -13.0688 -12.9909
   -12.8997 -12.5922 -12.4662 -12.2699 -11.9335 -11.7489 -11.4575 -11.2091
   -11.1676 -10.9063 -10.8745 -10.6508 -10.4493 -10.2905  -9.8617  -9.6923
    -9.2587  -9.2210  -9.1205  -8.8913  -8.6637  -8.3981  -8.2301  -8.0691
    -7.3208  -7.1437  -6.9581  -6.8310  -6.4298  -6.3020  -5.9987  -5.7983
    -5.6909  -5.5697  -5.4372  -5.2930  -5.1789  -5.0966  -5.0067  -4.9175
    -4.8656  -4.8235  -4.5380  -4.3969  -4.2250  -4.0155  -3.7312  -3.5185
    -3.4551  -3.3512  -3.2962  -3.1285  -3.0853  -2.9938  -2.8595  -2.7540
    -2.2855  -2.1819  -1.7376  -1.6050  -1.4891  -1.0963  -0.9325  -0.4427
    -0.1846   0.2060   0.5257   0.7655   1.0624   1.2005   1.2706   1.3899
     1.8102   1.8916   2.1098   2.2429   2.5970   2.6221   2.7498   2.8196
     3.0743   3.1367   3.1877

          k = 0.0583 0.0758 0.0000 (102467 PWs)   bands (ev):

   -36.0420 -34.8875 -34.2791 -22.1425 -20.8979 -20.2329 -19.8230 -19.2978
   -19.2261 -18.9893 -18.6416 -18.2780 -18.0934 -17.1417 -16.8549 -16.8091
   -16.2503 -15.7981 -15.6781 -15.3918 -15.2553 -15.1047 -14.9558 -14.8563
   -14.2801 -14.1886 -13.8382 -13.5767 -13.3564 -13.1790 -13.0672 -12.9949
   -12.8967 -12.5940 -12.4661 -12.2722 -11.9345 -11.7444 -11.4629 -11.2073
   -11.1593 -10.9077 -10.8760 -10.6502 -10.4506 -10.2846  -9.8635  -9.7051
    -9.2640  -9.2222  -9.1277  -8.8966  -8.6460  -8.3988  -8.2204  -8.0752
    -7.3258  -7.1479  -6.9607  -6.8205  -6.4290  -6.2967  -5.9990  -5.7946
    -5.6984  -5.5695  -5.4376  -5.2993  -5.1747  -5.0971  -5.0082  -4.9133
    -4.8618  -4.8173  -4.5348  -4.3929  -4.2213  -4.0177  -3.7444  -3.5193
    -3.4544  -3.3522  -3.2992  -3.1308  -3.0802  -2.9929  -2.8603  -2.7522
    -2.2864  -2.1814  -1.7381  -1.6068  -1.4922  -1.0937  -0.9334  -0.4418
    -0.1875   0.2069   0.5192   0.7725   1.0608   1.1979   1.2726   1.3888
     1.8135   1.8931   2.1031   2.2495   2.5939   2.6199   2.7458   2.8163
     3.0791   3.1454   3.1882

          k = 0.0667 0.0866 0.0000 (102469 PWs)   bands (ev):

   -36.0420 -34.8875 -34.2791 -22.1425 -20.8979 -20.2329 -19.8230 -19.2986
   -19.2227 -18.9950 -18.6340 -18.2869 -18.0887 -17.1414 -16.8553 -16.8105
   -16.2501 -15.7984 -15.6750 -15.3915 -15.2566 -15.1055 -14.9568 -14.8571
   -14.2800 -14.1897 -13.8358 -13.5779 -13.3509 -13.1787 -13.0655 -12.9993
   -12.8933 -12.5961 -12.4661 -12.2746 -11.9358 -11.7393 -11.4682 -11.2062
   -11.1500 -10.9092 -10.8776 -10.6493 -10.4521 -10.2781  -9.8661  -9.7183
    -9.2712  -9.2230  -9.1362  -8.8999  -8.6289  -8.3992  -8.2100  -8.0815
    -7.3317  -7.1524  -6.9640  -6.8084  -6.4280  -6.2909  -5.9990  -5.7913
    -5.7062  -5.5701  -5.4376  -5.3046  -5.1704  -5.0975  -5.0090  -4.9102
    -4.8575  -4.8104  -4.5315  -4.3883  -4.2171  -4.0205  -3.7580  -3.5207
    -3.4535  -3.3535  -3.3022  -3.1337  -3.0760  -2.9912  -2.8608  -2.7501
    -2.2876  -2.1808  -1.7387  -1.6087  -1.4956  -1.0910  -0.9344  -0.4409
    -0.1907   0.2078   0.5124   0.7799   1.0590   1.1946   1.2753   1.3873
     1.8172   1.8947   2.0964   2.2562   2.5903   2.6173   2.7414   2.8134
     3.0821   3.1549   3.1919

          k = 0.0750 0.0974 0.0000 (102486 PWs)   bands (ev):

   -36.0420 -34.8875 -34.2791 -22.1425 -20.8979 -20.2329 -19.8230 -19.2994
   -19.2192 -19.0010 -18.6258 -18.2961 -18.0842 -17.1411 -16.8558 -16.8120
   -16.2499 -15.7986 -15.6716 -15.3912 -15.2581 -15.1065 -14.9580 -14.8579
   -14.2800 -14.1907 -13.8332 -13.5792 -13.3447 -13.1783 -13.0638 -13.0040
   -12.8897 -12.5985 -12.4661 -12.2771 -11.9372 -11.7337 -11.4733 -11.2056
   -11.1400 -10.9110 -10.8791 -10.6483 -10.4537 -10.2712  -9.8698  -9.7313
    -9.2803  -9.2234  -9.1454  -8.9014  -8.6126  -8.3995  -8.1989  -8.0875
    -7.3384  -7.1573  -6.9678  -6.7949  -6.4268  -6.2846  -5.9989  -5.7887
    -5.7141  -5.5714  -5.4369  -5.3087  -5.1663  -5.0979  -5.0093  -4.9080
    -4.8527  -4.8031  -4.5284  -4.3833  -4.2125  -4.0240  -3.7717  -3.5227
    -3.4524  -3.3548  -3.3053  -3.1369  -3.0731  -2.9887  -2.8608  -2.7479
    -2.2891  -2.1803  -1.7396  -1.6104  -1.4993  -1.0881  -0.9356  -0.4400
    -0.1942   0.2089   0.5052   0.7873   1.0572   1.1908   1.2788   1.3854
     1.8211   1.8963   2.0899   2.2631   2.5863   2.6145   2.7367   2.8109
     3.0838   3.1629   3.2003

          k = 0.0833 0.1083 0.0000 (102497 PWs)   bands (ev):

   -36.0420 -34.8876 -34.2791 -22.1425 -20.8979 -20.2329 -19.8230 -19.3002
   -19.2154 -19.0072 -18.6174 -18.3056 -18.0798 -17.1408 -16.8564 -16.8137
   -16.2497 -15.7986 -15.6681 -15.3909 -15.2597 -15.1076 -14.9592 -14.8587
   -14.2803 -14.1917 -13.8304 -13.5804 -13.3378 -13.1780 -13.0621 -13.0090
   -12.8858 -12.6011 -12.4661 -12.2796 -11.9388 -11.7276 -11.4781 -11.2054
   -11.1298 -10.9130 -10.8804 -10.6472 -10.4553 -10.2640  -9.8748  -9.7435
    -9.2914  -9.2236  -9.1549  -8.9017  -8.5973  -8.3998  -8.1872  -8.0928
    -7.3459  -7.1626  -6.9720  -6.7801  -6.4253  -6.2781  -5.9984  -5.7872
    -5.7221  -5.5730  -5.4355  -5.3113  -5.1622  -5.0982  -5.0092  -4.9067
    -4.8475  -4.7954  -4.5255  -4.3779  -4.2078  -4.0281  -3.7848  -3.5253
    -3.4509  -3.3564  -3.3082  -3.1406  -3.0717  -2.9855  -2.8600  -2.7457
    -2.2908  -2.1797  -1.7409  -1.6120  -1.5032  -1.0851  -0.9369  -0.4391
    -0.1980   0.2101   0.4983   0.7946   1.0554   1.1864   1.2829   1.3832
     1.8253   1.8979   2.0836   2.2698   2.5819   2.6114   2.7320   2.8090
     3.0849   3.1688   3.2142

          k = 0.0917 0.1191 0.0000 (102518 PWs)   bands (ev):

   -36.0420 -34.8876 -34.2791 -22.1425 -20.8979 -20.2329 -19.8230 -19.3009
   -19.2116 -19.0133 -18.6087 -18.3151 -18.0757 -17.1405 -16.8570 -16.8155
   -16.2495 -15.7985 -15.6644 -15.3905 -15.2614 -15.1088 -14.9605 -14.8597
   -14.2809 -14.1925 -13.8275 -13.5816 -13.3303 -13.1776 -13.0606 -13.0140
   -12.8818 -12.6039 -12.4662 -12.2821 -11.9406 -11.7210 -11.4824 -11.2053
   -11.1198 -10.9153 -10.8812 -10.6460 -10.4570 -10.2566  -9.8814  -9.7545
    -9.3044  -9.2237  -9.1642  -8.9011  -8.5832  -8.4006  -8.1750  -8.0970
    -7.3541  -7.1686  -6.9764  -6.7642  -6.4236  -6.2714  -5.9975  -5.7872
    -5.7298  -5.5747  -5.4331  -5.3122  -5.1584  -5.0985  -5.0086  -4.9061
    -4.8422  -4.7875  -4.5231  -4.3723  -4.2032  -4.0328  -3.7969  -3.5285
    -3.4492  -3.3582  -3.3109  -3.1447  -3.0718  -2.9818  -2.8582  -2.7436
    -2.2930  -2.1791  -1.7425  -1.6134  -1.5072  -1.0823  -0.9382  -0.4383
    -0.2019   0.2113   0.4913   0.8016   1.0537   1.1818   1.2875   1.3808
     1.8296   1.8993   2.0778   2.2765   2.5771   2.6081   2.7273   2.8075
     3.0857   3.1722   3.2308

          k = 0.1000 0.1299 0.0000 (102510 PWs)   bands (ev):

   -36.0420 -34.8876 -34.2791 -22.1425 -20.8979 -20.2329 -19.8229 -19.3015
   -19.2077 -19.0194 -18.6000 -18.3245 -18.0719 -17.1401 -16.8577 -16.8174
   -16.2492 -15.7983 -15.6607 -15.3900 -15.2631 -15.1102 -14.9617 -14.8608
   -14.2817 -14.1930 -13.8245 -13.5827 -13.3224 -13.1771 -13.0592 -13.0189
   -12.8777 -12.6068 -12.4665 -12.2843 -11.9425 -11.7141 -11.4862 -11.2054
   -11.1102 -10.9179 -10.8815 -10.6448 -10.4587 -10.2491  -9.8897  -9.7638
    -9.3192  -9.2239  -9.1729  -8.8999  -8.5704  -8.4019  -8.1624  -8.0996
    -7.3629  -7.1752  -6.9807  -6.7473  -6.4215  -6.2647  -5.9962  -5.7892
    -5.7372  -5.5760  -5.4299  -5.3115  -5.1549  -5.0987  -5.0079  -4.9060
    -4.8367  -4.7794  -4.5213  -4.3667  -4.1990  -4.0378  -3.8076  -3.5323
    -3.4471  -3.3603  -3.3133  -3.1490  -3.0732  -2.9781  -2.8554  -2.7415
    -2.2955  -2.1786  -1.7445  -1.6145  -1.5113  -1.0795  -0.9397  -0.4377
    -0.2059   0.2126   0.4845   0.8081   1.0522   1.1768   1.2925   1.3780
     1.8339   1.9006   2.0725   2.2831   2.5718   2.6046   2.7234   2.8065
     3.0867   3.1751   3.2492

          k = 0.1083 0.1407 0.0000 (102511 PWs)   bands (ev):

   -36.0420 -34.8876 -34.2791 -22.1425 -20.8979 -20.2329 -19.8229 -19.3021
   -19.2039 -19.0252 -18.5915 -18.3336 -18.0685 -17.1397 -16.8585 -16.8194
   -16.2489 -15.7979 -15.6569 -15.3895 -15.2650 -15.1116 -14.9630 -14.8619
   -14.2829 -14.1933 -13.8215 -13.5837 -13.3140 -13.1766 -13.0581 -13.0235
   -12.8737 -12.6099 -12.4669 -12.2863 -11.9445 -11.7069 -11.4895 -11.2055
   -11.1014 -10.9208 -10.8812 -10.6437 -10.4604 -10.2417  -9.8997  -9.7713
    -9.3355  -9.2242  -9.1809  -8.8983  -8.5590  -8.4040  -8.1498  -8.1001
    -7.3722  -7.1827  -6.9848  -6.7297  -6.4190  -6.2581  -5.9943  -5.7935
    -5.7437  -5.5769  -5.4256  -5.3092  -5.1516  -5.0989  -5.0070  -4.9063
    -4.8313  -4.7709  -4.5202  -4.3613  -4.1957  -4.0428  -3.8165  -3.5367
    -3.4448  -3.3627  -3.3154  -3.1537  -3.0757  -2.9745  -2.8516  -2.7396
    -2.2984  -2.1780  -1.7470  -1.6152  -1.5154  -1.0770  -0.9413  -0.4372
    -0.2099   0.2139   0.4781   0.8140   1.0509   1.1719   1.2977   1.3752
     1.8381   1.9015   2.0679   2.2894   2.5661   2.6009   2.7202   2.8059
     3.0882   3.1774   3.2670

          k = 0.1167 0.1516 0.0000 (102515 PWs)   bands (ev):

   -36.0420 -34.8876 -34.2791 -22.1425 -20.8979 -20.2329 -19.8229 -19.3026
   -19.2002 -19.0307 -18.5833 -18.3423 -18.0655 -17.1392 -16.8593 -16.8215
   -16.2486 -15.7973 -15.6531 -15.3891 -15.2668 -15.1132 -14.9643 -14.8631
   -14.2843 -14.1934 -13.8185 -13.5845 -13.3054 -13.1761 -13.0574 -13.0274
   -12.8698 -12.6132 -12.4676 -12.2879 -11.9467 -11.6994 -11.4922 -11.2057
   -11.0935 -10.9240 -10.8801 -10.6428 -10.4620 -10.2343  -9.9111  -9.7770
    -9.3532  -9.2247  -9.1881  -8.8966  -8.5494  -8.4069  -8.1377  -8.0975
    -7.3822  -7.1912  -6.9885  -6.7116  -6.4161  -6.2517  -5.9919  -5.8001
    -5.7491  -5.5773  -5.4203  -5.3054  -5.1487  -5.0990  -5.0059  -4.9069
    -4.8262  -4.7622  -4.5200  -4.3563  -4.1942  -4.0470  -3.8235  -3.5415
    -3.4423  -3.3652  -3.3170  -3.1587  -3.0790  -2.9714  -2.8468  -2.7380
    -2.3017  -2.1775  -1.7499  -1.6155  -1.5194  -1.0747  -0.9429  -0.4370
    -0.2139   0.2154   0.4721   0.8191   1.0498   1.1671   1.3029   1.3723
     1.8421   1.9021   2.0642   2.2955   2.5598   2.5971   2.7179   2.8058
     3.0902   3.1789   3.2815

          k = 0.1250 0.1624 0.0000 (102506 PWs)   bands (ev):

   -36.0420 -34.8876 -34.2791 -22.1425 -20.8979 -20.2329 -19.8228 -19.3031
   -19.1968 -19.0356 -18.5756 -18.3503 -18.0629 -17.1387 -16.8603 -16.8237
   -16.2483 -15.7965 -15.6493 -15.3886 -15.2685 -15.1149 -14.9656 -14.8645
   -14.2861 -14.1932 -13.8154 -13.5852 -13.2968 -13.1754 -13.0572 -13.0303
   -12.8661 -12.6165 -12.4687 -12.2890 -11.9488 -11.6918 -11.4942 -11.2057
   -11.0868 -10.9275 -10.8783 -10.6422 -10.4635 -10.2271  -9.9234  -9.7812
    -9.3718  -9.2256  -9.1943  -8.8948  -8.5417  -8.4108  -8.1269  -8.0910
    -7.3927  -7.2005  -6.9915  -6.6933  -6.4125  -6.2458  -5.9890  -5.8087
    -5.7534  -5.5773  -5.4140  -5.3002  -5.1461  -5.0991  -5.0049  -4.9078
    -4.8213  -4.7532  -4.5209  -4.3518  -4.1950  -4.0496  -3.8285  -3.5467
    -3.4398  -3.3680  -3.3182  -3.1638  -3.0828  -2.9688  -2.8411  -2.7366
    -2.3054  -2.1770  -1.7534  -1.6154  -1.5232  -1.0729  -0.9445  -0.4369
    -0.2179   0.2167   0.4663   0.8232   1.0491   1.1626   1.3078   1.3695
     1.8456   1.9023   2.0614   2.3013   2.5531   2.5933   2.7169   2.8061
     3.0928   3.1798   3.2906

          k = 0.1333 0.1732 0.0000 (102505 PWs)   bands (ev):

   -36.0420 -34.8876 -34.2791 -22.1425 -20.8979 -20.2329 -19.8227 -19.3034
   -19.1937 -19.0399 -18.5688 -18.3574 -18.0608 -17.1382 -16.8613 -16.8259
   -16.2480 -15.7955 -15.6455 -15.3881 -15.2702 -15.1168 -14.9669 -14.8659
   -14.2881 -14.1928 -13.8125 -13.5858 -13.2883 -13.1745 -13.0578 -13.0318
   -12.8628 -12.6198 -12.4700 -12.2896 -11.9511 -11.6841 -11.4955 -11.2057
   -11.0812 -10.9313 -10.8757 -10.6420 -10.4649 -10.2201  -9.9361  -9.7841
    -9.3912  -9.2270  -9.1995  -8.8929  -8.5362  -8.4155  -8.1177  -8.0804
    -7.4038  -7.2107  -6.9939  -6.6751  -6.4081  -6.2405  -5.9854  -5.8186
    -5.7566  -5.5771  -5.4067  -5.2937  -5.1438  -5.0991  -5.0040  -4.9089
    -4.8167  -4.7437  -4.5230  -4.3479  -4.1985  -4.0499  -3.8315  -3.5522
    -3.4374  -3.3709  -3.3191  -3.1691  -3.0870  -2.9666  -2.8349  -2.7356
    -2.3095  -2.1766  -1.7574  -1.6150  -1.5268  -1.0715  -0.9462  -0.4372
    -0.2217   0.2179   0.4615   0.8263   1.0485   1.1585   1.3121   1.3672
     1.8486   1.9021   2.0597   2.3067   2.5459   2.5896   2.7171   2.8066
     3.0960   3.1802   3.2948

          k = 0.1417 0.1840 0.0000 (102537 PWs)   bands (ev):

   -36.0420 -34.8876 -34.2791 -22.1425 -20.8980 -20.2329 -19.8226 -19.3037
   -19.1911 -19.0434 -18.5630 -18.3634 -18.0592 -17.1376 -16.8624 -16.8281
   -16.2477 -15.7943 -15.6418 -15.3877 -15.2717 -15.1187 -14.9681 -14.8675
   -14.2902 -14.1922 -13.8096 -13.5862 -13.2803 -13.1734 -13.0589 -13.0318
   -12.8599 -12.6231 -12.4719 -12.2897 -11.9533 -11.6764 -11.4961 -11.2056
   -11.0770 -10.9354 -10.8724 -10.6425 -10.4660 -10.2134  -9.9488  -9.7862
    -9.4110  -9.2293  -9.2036  -8.8910  -8.5330  -8.4208  -8.1091  -8.0666
    -7.4156  -7.2217  -6.9956  -6.6572  -6.4027  -6.2358  -5.9813  -5.8291
    -5.7589  -5.5768  -5.3985  -5.2859  -5.1419  -5.0990  -5.0031  -4.9101
    -4.8126  -4.7339  -4.5266  -4.3449  -4.2046  -4.0478  -3.8326  -3.5579
    -3.4352  -3.3739  -3.3195  -3.1744  -3.0914  -2.9647  -2.8285  -2.7348
    -2.3140  -2.1761  -1.7620  -1.6142  -1.5300  -1.0706  -0.9478  -0.4377
    -0.2253   0.2189   0.4571   0.8282   1.0480   1.1553   1.3153   1.3658
     1.8510   1.9016   2.0592   2.3116   2.5385   2.5860   2.7187   2.8076
     3.0996   3.1795   3.2970

          k = 0.1500 0.1949 0.0000 (102523 PWs)   bands (ev):

   -36.0420 -34.8876 -34.2791 -22.1425 -20.8980 -20.2329 -19.8225 -19.3038
   -19.1891 -19.0460 -18.5586 -18.3680 -18.0581 -17.1370 -16.8637 -16.8304
   -16.2473 -15.7930 -15.6382 -15.3873 -15.2730 -15.1208 -14.9694 -14.8692
   -14.2926 -14.1913 -13.8068 -13.5865 -13.2729 -13.1720 -13.0603 -13.0304
   -12.8575 -12.6264 -12.4741 -12.2891 -11.9555 -11.6688 -11.4960 -11.2054
   -11.0739 -10.9397 -10.8684 -10.6437 -10.4670 -10.2070  -9.9609  -9.7877
    -9.4310  -9.2325  -9.2063  -8.8891  -8.5322  -8.4267  -8.0999  -8.0508
    -7.4282  -7.2333  -6.9967  -6.6400  -6.3961  -6.2320  -5.9767  -5.8396
    -5.7604  -5.5767  -5.3898  -5.2770  -5.1402  -5.0989  -5.0025  -4.9115
    -4.8089  -4.7237  -4.5318  -4.3428  -4.2127  -4.0435  -3.8321  -3.5636
    -3.4334  -3.3768  -3.3195  -3.1798  -3.0957  -2.9631  -2.8223  -2.7344
    -2.3189  -2.1757  -1.7670  -1.6132  -1.5329  -1.0702  -0.9494  -0.4386
    -0.2287   0.2198   0.4535   0.8290   1.0475   1.1530   1.3171   1.3657
     1.8524   1.9008   2.0598   2.3159   2.5309   2.5825   2.7216   2.8089
     3.1032   3.1784   3.2980

          k = 0.1583 0.2057 0.0000 (102497 PWs)   bands (ev):

   -36.0420 -34.8876 -34.2791 -22.1425 -20.8980 -20.2329 -19.8224 -19.3039
   -19.1878 -19.0476 -18.5559 -18.3708 -18.0575 -17.1363 -16.8651 -16.8326
   -16.2469 -15.7915 -15.6347 -15.3871 -15.2740 -15.1230 -14.9707 -14.8711
   -14.2950 -14.1904 -13.8041 -13.5867 -13.2663 -13.1703 -13.0616 -13.0277
   -12.8556 -12.6296 -12.4768 -12.2878 -11.9577 -11.6613 -11.4952 -11.2050
   -11.0721 -10.9443 -10.8639 -10.6458 -10.4677 -10.2010  -9.9722  -9.7887
    -9.4510  -9.2367  -9.2078  -8.8872  -8.5338  -8.4330  -8.0895  -8.0338
    -7.4415  -7.2452  -6.9972  -6.6238  -6.3882  -6.2290  -5.9716  -5.8495
    -5.7610  -5.5767  -5.3808  -5.2669  -5.1387  -5.0986  -5.0020  -4.9129
    -4.8056  -4.7133  -4.5388  -4.3417  -4.2218  -4.0377  -3.8300  -3.5693
    -3.4320  -3.3795  -3.3189  -3.1850  -3.0999  -2.9617  -2.8164  -2.7342
    -2.3242  -2.1752  -1.7725  -1.6120  -1.5352  -1.0704  -0.9508  -0.4397
    -0.2318   0.2204   0.4510   0.8286   1.0468   1.1518   1.3170   1.3671
     1.8529   1.8998   2.0615   2.3195   2.5233   2.5794   2.7257   2.8106
     3.1068   3.1769   3.2993

          k = 0.1667 0.2165 0.0000 (102528 PWs)   bands (ev):

   -36.0420 -34.8876 -34.2791 -22.1425 -20.8980 -20.2330 -19.8223 -19.3039
   -19.1873 -19.0481 -18.5549 -18.3718 -18.0574 -17.1356 -16.8666 -16.8349
   -16.2466 -15.7899 -15.6313 -15.3870 -15.2747 -15.1253 -14.9720 -14.8730
   -14.2974 -14.1893 -13.8015 -13.5868 -13.2609 -13.1683 -13.0625 -13.0237
   -12.8543 -12.6327 -12.4799 -12.2859 -11.9598 -11.6540 -11.4936 -11.2045
   -11.0714 -10.9492 -10.8589 -10.6488 -10.4682 -10.1954  -9.9824  -9.7895
    -9.4708  -9.2418  -9.2083  -8.8852  -8.5376  -8.4398  -8.0777  -8.0163
    -7.4557  -7.2573  -6.9974  -6.6087  -6.3788  -6.2269  -5.9661  -5.8583
    -5.7608  -5.5769  -5.3718  -5.2557  -5.1374  -5.0982  -5.0018  -4.9143
    -4.8027  -4.7027  -4.5479  -4.3418  -4.2309  -4.0310  -3.8266  -3.5750
    -3.4312  -3.3821  -3.3181  -3.1900  -3.1039  -2.9602  -2.8114  -2.7342
    -2.3298  -2.1748  -1.7785  -1.6107  -1.5370  -1.0713  -0.9523  -0.4412
    -0.2346   0.2208   0.4489   0.8270   1.0458   1.1520   1.3153   1.3698
     1.8523   1.8988   2.0644   2.3221   2.5162   2.5766   2.7309   2.8126
     3.1096   3.1749   3.3008

          k = 0.1750 0.2273 0.0000 (102496 PWs)   bands (ev):

   -36.0420 -34.8876 -34.2791 -22.1425 -20.8980 -20.2330 -19.8221 -19.3038
   -19.1876 -19.0475 -18.5559 -18.3709 -18.0578 -17.1348 -16.8683 -16.8370
   -16.2462 -15.7881 -15.6279 -15.3870 -15.2749 -15.1277 -14.9734 -14.8752
   -14.2998 -14.1881 -13.7990 -13.5870 -13.2566 -13.1659 -13.0628 -13.0185
   -12.8537 -12.6357 -12.4834 -12.2834 -11.9618 -11.6471 -11.4913 -11.2038
   -11.0716 -10.9545 -10.8537 -10.6528 -10.4684 -10.1903  -9.9913  -9.7901
    -9.4901  -9.2475  -9.2081  -8.8833  -8.5432  -8.4471  -8.0645  -7.9984
    -7.4709  -7.2692  -6.9974  -6.5950  -6.3680  -6.2256  -5.9604  -5.8657
    -5.7596  -5.5773  -5.3631  -5.2438  -5.1362  -5.0975  -5.0018  -4.9157
    -4.8002  -4.6923  -4.5589  -4.3429  -4.2390  -4.0241  -3.8219  -3.5805
    -3.4311  -3.3845  -3.3168  -3.1946  -3.1075  -2.9587  -2.8074  -2.7343
    -2.3358  -2.1742  -1.7848  -1.6096  -1.5382  -1.0727  -0.9535  -0.4430
    -0.2371   0.2208   0.4481   0.8244   1.0443   1.1535   1.3123   1.3736
     1.8505   1.8979   2.0681   2.3237   2.5098   2.5742   2.7371   2.8150
     3.1113   3.1731   3.3020

          k = 0.1833 0.2382 0.0000 (102496 PWs)   bands (ev):

   -36.0420 -34.8876 -34.2791 -22.1425 -20.8980 -20.2330 -19.8219 -19.3036
   -19.1886 -19.0458 -18.5586 -18.3681 -18.0587 -17.1341 -16.8702 -16.8391
   -16.2458 -15.7862 -15.6247 -15.3873 -15.2747 -15.1301 -14.9749 -14.8774
   -14.3021 -14.1869 -13.7967 -13.5874 -13.2535 -13.1632 -13.0626 -13.0120
   -12.8536 -12.6385 -12.4873 -12.2804 -11.9636 -11.6406 -11.4881 -11.2030
   -11.0727 -10.9603 -10.8482 -10.6578 -10.4685 -10.1856  -9.9988  -9.7906
    -9.5088  -9.2538  -9.2074  -8.8813  -8.5503  -8.4548  -8.0498  -7.9804
    -7.4869  -7.2809  -6.9975  -6.5826  -6.3557  -6.2249  -5.9546  -5.8716
    -5.7572  -5.5779  -5.3549  -5.2313  -5.1349  -5.0967  -5.0021  -4.9170
    -4.7980  -4.6824  -4.5716  -4.3450  -4.2456  -4.0175  -3.8162  -3.5858
    -3.4318  -3.3866  -3.3152  -3.1987  -3.1107  -2.9571  -2.8046  -2.7345
    -2.3421  -2.1736  -1.7916  -1.6085  -1.5387  -1.0748  -0.9547  -0.4452
    -0.2392   0.2205   0.4481   0.8207   1.0422   1.1563   1.3085   1.3781
     1.8477   1.8972   2.0726   2.3240   2.5043   2.5720   2.7439   2.8179
     3.1115   3.1727   3.3035

          k = 0.1917 0.2490 0.0000 (102507 PWs)   bands (ev):

   -36.0420 -34.8876 -34.2791 -22.1425 -20.8980 -20.2330 -19.8217 -19.3034
   -19.1903 -19.0430 -18.5629 -18.3636 -18.0601 -17.1332 -16.8722 -16.8411
   -16.2454 -15.7843 -15.6216 -15.3877 -15.2741 -15.1327 -14.9764 -14.8798
   -14.3043 -14.1857 -13.7944 -13.5878 -13.2513 -13.1604 -13.0619 -13.0042
   -12.8541 -12.6413 -12.4913 -12.2768 -11.9653 -11.6345 -11.4842 -11.2021
   -11.0747 -10.9664 -10.8427 -10.6636 -10.4684 -10.1814 -10.0049  -9.7910
    -9.5266  -9.2606  -9.2062  -8.8795  -8.5586  -8.4632  -8.0339  -7.9624
    -7.5039  -7.2922  -6.9979  -6.5715  -6.3422  -6.2247  -5.9489  -5.8758
    -5.7536  -5.5786  -5.3473  -5.2186  -5.1336  -5.0955  -5.0026  -4.9183
    -4.7961  -4.6736  -4.5854  -4.3480  -4.2503  -4.0116  -3.8097  -3.5909
    -3.4331  -3.3884  -3.3133  -3.2022  -3.1134  -2.9553  -2.8033  -2.7348
    -2.3486  -2.1728  -1.7986  -1.6078  -1.5384  -1.0774  -0.9557  -0.4476
    -0.2410   0.2199   0.4491   0.8161   1.0397   1.1603   1.3040   1.3827
     1.8439   1.8967   2.0777   2.3230   2.5002   2.5702   2.7513   2.8213
     3.1099   3.1732   3.3034

          k = 0.2000 0.2598 0.0000 (102504 PWs)   bands (ev):

   -36.0420 -34.8876 -34.2791 -22.1425 -20.8980 -20.2330 -19.8215 -19.3030
   -19.1926 -19.0394 -18.5686 -18.3577 -18.0620 -17.1324 -16.8743 -16.8430
   -16.2449 -15.7822 -15.6185 -15.3883 -15.2729 -15.1353 -14.9781 -14.8823
   -14.3064 -14.1844 -13.7922 -13.5886 -13.2499 -13.1575 -13.0608 -12.9952
   -12.8551 -12.6440 -12.4955 -12.2728 -11.9669 -11.6288 -11.4795 -11.2011
   -11.0773 -10.9731 -10.8372 -10.6702 -10.4682 -10.1778 -10.0096  -9.7914
    -9.5433  -9.2678  -9.2046  -8.8777  -8.5677  -8.4723  -8.0169  -7.9447
    -7.5217  -7.3028  -6.9989  -6.5614  -6.3281  -6.2245  -5.9434  -5.8783
    -5.7486  -5.5794  -5.3406  -5.2061  -5.1320  -5.0938  -5.0034  -4.9194
    -4.7947  -4.6677  -4.5985  -4.3513  -4.2533  -4.0066  -3.8025  -3.5958
    -3.4351  -3.3900  -3.3114  -3.2049  -3.1155  -2.9534  -2.8033  -2.7351
    -2.3554  -2.1720  -1.8059  -1.6074  -1.5375  -1.0805  -0.9566  -0.4503
    -0.2425   0.2189   0.4509   0.8107   1.0367   1.1652   1.2992   1.3874
     1.8393   1.8963   2.0833   2.3206   2.4977   2.5686   2.7592   2.8253
     3.1066   3.1750   3.3014

          k = 0.2083 0.2706 0.0000 (102484 PWs)   bands (ev):

   -36.0420 -34.8875 -34.2791 -22.1425 -20.8980 -20.2330 -19.8213 -19.3026
   -19.1954 -19.0349 -18.5754 -18.3507 -18.0644 -17.1315 -16.8766 -16.8449
   -16.2445 -15.7802 -15.6155 -15.3891 -15.2713 -15.1380 -14.9799 -14.8848
   -14.3082 -14.1833 -13.7900 -13.5896 -13.2491 -13.1545 -13.0595 -12.9853
   -12.8563 -12.6466 -12.4996 -12.2683 -11.9683 -11.6237 -11.4740 -11.2001
   -11.0807 -10.9801 -10.8319 -10.6773 -10.4679 -10.1746 -10.0131  -9.7918
    -9.5588  -9.2754  -9.2029  -8.8761  -8.5772  -8.4819  -7.9990  -7.9273
    -7.5401  -7.3126  -7.0007  -6.5520  -6.3141  -6.2236  -5.9382  -5.8792
    -5.7420  -5.5803  -5.3347  -5.1945  -5.1298  -5.0916  -5.0043  -4.9203
    -4.7938  -4.6675  -4.6072  -4.3548  -4.2547  -4.0029  -3.7949  -3.6003
    -3.4375  -3.3914  -3.3095  -3.2065  -3.1170  -2.9512  -2.8048  -2.7358
    -2.3623  -2.1709  -1.8135  -1.6074  -1.5359  -1.0841  -0.9574  -0.4533
    -0.2437   0.2176   0.4537   0.8045   1.0334   1.1709   1.2944   1.3922
     1.8342   1.8961   2.0891   2.3168   2.4968   2.5673   2.7669   2.8300
     3.1021   3.1777   3.2971

          k = 0.2167 0.2815 0.0000 (102502 PWs)   bands (ev):

   -36.0420 -34.8875 -34.2791 -22.1425 -20.8980 -20.2331 -19.8211 -19.3021
   -19.1986 -19.0299 -18.5830 -18.3428 -18.0672 -17.1305 -16.8791 -16.8466
   -16.2440 -15.7781 -15.6126 -15.3900 -15.2692 -15.1407 -14.9818 -14.8875
   -14.3099 -14.1822 -13.7879 -13.5910 -13.2486 -13.1514 -13.0580 -12.9747
   -12.8576 -12.6491 -12.5037 -12.2636 -11.9695 -11.6192 -11.4678 -11.1992
   -11.0848 -10.9875 -10.8269 -10.6848 -10.4677 -10.1720 -10.0155  -9.7921
    -9.5727  -9.2833  -9.2010  -8.8747  -8.5869  -8.4920  -7.9806  -7.9104
    -7.5590  -7.3217  -7.0035  -6.5430  -6.3010  -6.2213  -5.9334  -5.8787
    -5.7338  -5.5811  -5.3298  -5.1843  -5.1271  -5.0888  -5.0054  -4.9211
    -4.7938  -4.6758  -4.6084  -4.3581  -4.2549  -4.0003  -3.7873  -3.6046
    -3.4404  -3.3926  -3.3081  -3.2070  -3.1178  -2.9489  -2.8075  -2.7368
    -2.3694  -2.1697  -1.8212  -1.6078  -1.5337  -1.0880  -0.9581  -0.4565
    -0.2447   0.2161   0.4572   0.7977   1.0300   1.1771   1.2897   1.3967
     1.8286   1.8960   2.0949   2.3119   2.4976   2.5662   2.7739   2.8356
     3.0970   3.1809   3.2902

          k = 0.2250 0.2923 0.0000 (102499 PWs)   bands (ev):

   -36.0420 -34.8876 -34.2791 -22.1425 -20.8981 -20.2331 -19.8208 -19.3015
   -19.2020 -19.0243 -18.5911 -18.3342 -18.0704 -17.1295 -16.8817 -16.8483
   -16.2436 -15.7760 -15.6098 -15.3911 -15.2666 -15.1435 -14.9839 -14.8902
   -14.3114 -14.1812 -13.7858 -13.5928 -13.2483 -13.1483 -13.0564 -12.9641
   -12.8586 -12.6516 -12.5074 -12.2587 -11.9706 -11.6151 -11.4609 -11.1983
   -11.0899 -10.9951 -10.8222 -10.6924 -10.4676 -10.1700 -10.0170  -9.7924
    -9.5848  -9.2916  -9.1990  -8.8736  -8.5966  -8.5027  -7.9616  -7.8940
    -7.5782  -7.3300  -7.0076  -6.5342  -6.2900  -6.2163  -5.9293  -5.8769
    -5.7240  -5.5819  -5.3257  -5.1760  -5.1239  -5.0851  -5.0065  -4.9216
    -4.7953  -4.6898  -4.6038  -4.3611  -4.2539  -3.9989  -3.7799  -3.6085
    -3.4433  -3.3937  -3.3074  -3.2062  -3.1178  -2.9464  -2.8112  -2.7385
    -2.3765  -2.1683  -1.8291  -1.6086  -1.5310  -1.0923  -0.9586  -0.4598
    -0.2454   0.2141   0.4616   0.7904   1.0264   1.1834   1.2853   1.4011
     1.8228   1.8959   2.1008   2.3060   2.5000   2.5653   2.7802   2.8424
     3.0917   3.1843   3.2816

          k = 0.2333 0.3031 0.0000 (102498 PWs)   bands (ev):

   -36.0420 -34.8875 -34.2791 -22.1425 -20.8981 -20.2331 -19.8206 -19.3008
   -19.2055 -19.0184 -18.5995 -18.3252 -18.0741 -17.1285 -16.8844 -16.8499
   -16.2431 -15.7740 -15.6069 -15.3923 -15.2636 -15.1463 -14.9862 -14.8929
   -14.3126 -14.1803 -13.7836 -13.5951 -13.2481 -13.1449 -13.0547 -12.9543
   -12.8585 -12.6541 -12.5108 -12.2536 -11.9715 -11.6115 -11.4533 -11.1976
   -11.0960 -11.0027 -10.8180 -10.6999 -10.4675 -10.1686 -10.0178  -9.7927
    -9.5950  -9.3002  -9.1971  -8.8730  -8.6062  -8.5137  -7.9425  -7.8782
    -7.5974  -7.3374  -7.0131  -6.5252  -6.2822  -6.2078  -5.9258  -5.8738
    -5.7127  -5.5826  -5.3224  -5.1696  -5.1205  -5.0807  -5.0074  -4.9218
    -4.7989  -4.7050  -4.5963  -4.3636  -4.2522  -3.9985  -3.7730  -3.6120
    -3.4464  -3.3948  -3.3075  -3.2041  -3.1168  -2.9437  -2.8156  -2.7409
    -2.3836  -2.1666  -1.8370  -1.6097  -1.5280  -1.0968  -0.9590  -0.4633
    -0.2460   0.2122   0.4666   0.7826   1.0228   1.1897   1.2813   1.4051
     1.8169   1.8957   2.1064   2.2996   2.5039   2.5644   2.7852   2.8501
     3.0867   3.1879   3.2712

          k = 0.2417 0.3139 0.0000 (102514 PWs)   bands (ev):

   -36.0420 -34.8876 -34.2791 -22.1425 -20.8981 -20.2331 -19.8203 -19.3001
   -19.2091 -19.0123 -18.6080 -18.3160 -18.0781 -17.1275 -16.8871 -16.8514
   -16.2426 -15.7720 -15.6041 -15.3936 -15.2603 -15.1491 -14.9887 -14.8957
   -14.3137 -14.1796 -13.7813 -13.5978 -13.2478 -13.1413 -13.0530 -12.9464
   -12.8567 -12.6567 -12.5136 -12.2484 -11.9722 -11.6083 -11.4450 -11.1971
   -11.1034 -11.0100 -10.8145 -10.7070 -10.4674 -10.1677 -10.0182  -9.7929
    -9.6030  -9.3091  -9.1952  -8.8728  -8.6155  -8.5251  -7.9233  -7.8632
    -7.6163  -7.3438  -7.0200  -6.5159  -6.2775  -6.1960  -5.9232  -5.8696
    -5.6999  -5.5831  -5.3200  -5.1648  -5.1174  -5.0762  -5.0081  -4.9216
    -4.8061  -4.7180  -4.5877  -4.3657  -4.2498  -3.9992  -3.7672  -3.6150
    -3.4493  -3.3959  -3.3085  -3.2009  -3.1149  -2.9411  -2.8206  -2.7441
    -2.3907  -2.1647  -1.8451  -1.6112  -1.5247  -1.1014  -0.9593  -0.4669
    -0.2466   0.2102   0.4721   0.7744   1.0193   1.1954   1.2781   1.4090
     1.8110   1.8956   2.1116   2.2929   2.5090   2.5638   2.7887   2.8589
     3.0823   3.1914   3.2602

          k = 0.2500 0.3248 0.0000 (102518 PWs)   bands (ev):

   -36.0420 -34.8876 -34.2791 -22.1425 -20.8981 -20.2332 -19.8201 -19.2993
   -19.2127 -19.0061 -18.6165 -18.3067 -18.0824 -17.1264 -16.8900 -16.8528
   -16.2421 -15.7701 -15.6014 -15.3949 -15.2567 -15.1519 -14.9913 -14.8984
   -14.3146 -14.1791 -13.7790 -13.6009 -13.2474 -13.1374 -13.0512 -12.9413
   -12.8522 -12.6592 -12.5157 -12.2431 -11.9728 -11.6055 -11.4363 -11.1970
   -11.1123 -11.0168 -10.8117 -10.7135 -10.4675 -10.1675 -10.0184  -9.7930
    -9.6087  -9.3181  -9.1936  -8.8731  -8.6243  -8.5368  -7.9045  -7.8490
    -7.6346  -7.3493  -7.0284  -6.5060  -6.2750  -6.1817  -5.9215  -5.8643
    -5.6860  -5.5835  -5.3182  -5.1610  -5.1149  -5.0725  -5.0082  -4.9211
    -4.8172  -4.7266  -4.5790  -4.3672  -4.2470  -4.0007  -3.7626  -3.6174
    -3.4521  -3.3970  -3.3104  -3.1967  -3.1118  -2.9384  -2.8260  -2.7484
    -2.3978  -2.1626  -1.8532  -1.6129  -1.5214  -1.1061  -0.9595  -0.4706
    -0.2470   0.2081   0.4781   0.7661   1.0158   1.2002   1.2758   1.4125
     1.8052   1.8954   2.1162   2.2864   2.5150   2.5633   2.7905   2.8684
     3.0791   3.1947   3.2489

          k = 0.2583 0.3356 0.0000 (102518 PWs)   bands (ev):

   -36.0420 -34.8876 -34.2791 -22.1425 -20.8981 -20.2332 -19.8198 -19.2984
   -19.2162 -18.9999 -18.6248 -18.2974 -18.0869 -17.1253 -16.8929 -16.8542
   -16.2416 -15.7683 -15.5986 -15.3962 -15.2528 -15.1546 -14.9941 -14.9011
   -14.3154 -14.1787 -13.7765 -13.6044 -13.2469 -13.1332 -13.0493 -12.9395
   -12.8449 -12.6619 -12.5169 -12.2377 -11.9733 -11.6029 -11.4271 -11.1974
   -11.1228 -11.0228 -10.8099 -10.7192 -10.4676 -10.1680 -10.0184  -9.7929
    -9.6120  -9.3273  -9.1922  -8.8740  -8.6327  -8.5487  -7.8865  -7.8356
    -7.6516  -7.3539  -7.0383  -6.4956  -6.2738  -6.1659  -5.9207  -5.8582
    -5.6712  -5.5835  -5.3171  -5.1580  -5.1132  -5.0706  -5.0075  -4.9202
    -4.8313  -4.7308  -4.5703  -4.3682  -4.2438  -4.0029  -3.7596  -3.6190
    -3.4547  -3.3980  -3.3130  -3.1921  -3.1076  -2.9358  -2.8313  -2.7535
    -2.4047  -2.1602  -1.8613  -1.6148  -1.5180  -1.1107  -0.9596  -0.4743
    -0.2475   0.2062   0.4843   0.7578   1.0124   1.2039   1.2746   1.4157
     1.7996   1.8952   2.1201   2.2804   2.5218   2.5631   2.7907   2.8783
     3.0775   3.1979   3.2378

          k = 0.2667 0.3464 0.0000 (102513 PWs)   bands (ev):

   -36.0420 -34.8876 -34.2791 -22.1425 -20.8981 -20.2332 -19.8196 -19.2976
   -19.2195 -18.9939 -18.6328 -18.2884 -18.0917 -17.1242 -16.8959 -16.8555
   -16.2411 -15.7666 -15.5957 -15.3975 -15.2488 -15.1573 -14.9970 -14.9036
   -14.3160 -14.1786 -13.7738 -13.6083 -13.2463 -13.1288 -13.0473 -12.9409
   -12.8350 -12.6646 -12.5170 -12.2323 -11.9737 -11.6007 -11.4175 -11.1985
   -11.1347 -11.0280 -10.8090 -10.7239 -10.4677 -10.1690 -10.0185  -9.7927
    -9.6128  -9.3366  -9.1912  -8.8754  -8.6406  -8.5608  -7.8698  -7.8229
    -7.6670  -7.3576  -7.0495  -6.4845  -6.2733  -6.1495  -5.9208  -5.8514
    -5.6559  -5.5830  -5.3164  -5.1553  -5.1126  -5.0712  -5.0058  -4.9190
    -4.8462  -4.7315  -4.5618  -4.3688  -4.2403  -4.0055  -3.7584  -3.6198
    -3.4572  -3.3992  -3.3162  -3.1873  -3.1021  -2.9335  -2.8365  -2.7594
    -2.4115  -2.1576  -1.8693  -1.6169  -1.5148  -1.1152  -0.9596  -0.4779
    -0.2481   0.2041   0.4907   0.7493   1.0092   1.2063   1.2748   1.4187
     1.7943   1.8949   2.1230   2.2753   2.5287   2.5637   2.7892   2.8882
     3.0779   3.2007   3.2275

          k = 0.2750 0.3572 0.0000 (102499 PWs)   bands (ev):

   -36.0420 -34.8876 -34.2791 -22.1425 -20.8981 -20.2332 -19.8193 -19.2967
   -19.2226 -18.9881 -18.6402 -18.2797 -18.0965 -17.1231 -16.8989 -16.8568
   -16.2406 -15.7651 -15.5929 -15.3987 -15.2448 -15.1598 -15.0001 -14.9061
   -14.3165 -14.1787 -13.7709 -13.6124 -13.2457 -13.1241 -13.0451 -12.9446
   -12.8236 -12.6673 -12.5160 -12.2270 -11.9740 -11.5985 -11.4077 -11.2008
   -11.1474 -11.0324 -10.8092 -10.7275 -10.4678 -10.1707 -10.0187  -9.7922
    -9.6113  -9.3459  -9.1907  -8.8774  -8.6481  -8.5730  -7.8558  -7.8106
    -7.6798  -7.3603  -7.0619  -6.4728  -6.2729  -6.1330  -5.9216  -5.8441
    -5.6409  -5.5816  -5.3160  -5.1529  -5.1135  -5.0744  -5.0034  -4.9178
    -4.8598  -4.7298  -4.5536  -4.3689  -4.2367  -4.0085  -3.7591  -3.6198
    -3.4596  -3.4003  -3.3199  -3.1827  -3.0956  -2.9315  -2.8413  -2.7660
    -2.4181  -2.1549  -1.8774  -1.6191  -1.5118  -1.1196  -0.9595  -0.4816
    -0.2487   0.2022   0.4970   0.7410   1.0062   1.2074   1.2762   1.4215
     1.7892   1.8946   2.1250   2.2713   2.5348   2.5657   2.7860   2.8977
     3.0804   3.2029   3.2189

[...]
    -4.8135  -4.7727  -4.5009  -4.3449  -4.2047  -4.0917  -3.8183  -3.5249
    -3.4333  -3.3667  -3.2825  -3.1474  -3.0675  -2.9830  -2.8641  -2.7343
    -2.2762  -2.1839  -1.7150  -1.6070  -1.5275  -1.0532  -0.9468  -0.4235
    -0.2016   0.2179   0.4737   0.8348   1.0760   1.1504   1.2945   1.3664
     1.8626   1.8937   2.0560   2.2940   2.5397   2.5991   2.7283   2.8164
     3.0860   3.1775   3.2719

          k = 0.0000 0.1624 0.0000 (102474 PWs)   bands (ev):

   -36.0420 -34.8876 -34.2791 -22.1425 -20.8979 -20.2328 -19.8238 -19.3036
   -19.1971 -19.0364 -18.5755 -18.3503 -18.0619 -17.1431 -16.8536 -16.8048
   -16.2511 -15.8142 -15.6614 -15.4044 -15.2491 -15.1062 -14.9521 -14.8483
   -14.2791 -14.1907 -13.8439 -13.5733 -13.3714 -13.1813 -13.0595 -12.9801
   -12.9218 -12.5917 -12.4548 -12.2735 -11.9243 -11.7625 -11.4966 -11.1973
   -11.1173 -10.9077 -10.8640 -10.6997 -10.4646 -10.2717  -9.8458  -9.6725
    -9.2786  -9.2008  -9.1033  -8.8414  -8.7276  -8.4533  -8.1873  -8.0675
    -7.3015  -7.1126  -6.9540  -6.8722  -6.4515  -6.2368  -5.9868  -5.8417
    -5.7729  -5.6308  -5.4073  -5.3294  -5.1390  -5.1013  -5.0250  -4.9143
    -4.8155  -4.7764  -4.5046  -4.3513  -4.2090  -4.0809  -3.8132  -3.5242
    -3.4349  -3.3647  -3.2824  -3.1465  -3.0687  -2.9845  -2.8638  -2.7354
    -2.2768  -2.1837  -1.7164  -1.6068  -1.5245  -1.0565  -0.9454  -0.4248
    -0.2000   0.2168   0.4771   0.8299   1.0750   1.1547   1.2918   1.3687
     1.8581   1.8937   2.0600   2.2905   2.5428   2.6013   2.7312   2.8160
     3.0884   3.1724   3.2676

          k = 0.0000 0.1516 0.0000 (102476 PWs)   bands (ev):

   -36.0420 -34.8876 -34.2791 -22.1425 -20.8979 -20.2328 -19.8237 -19.3032
   -19.2005 -19.0313 -18.5832 -18.3423 -18.0645 -17.1431 -16.8536 -16.8048
   -16.2511 -15.8131 -15.6633 -15.4035 -15.2492 -15.1059 -14.9521 -14.8487
   -14.2793 -14.1903 -13.8441 -13.5732 -13.3716 -13.1812 -13.0607 -12.9799
   -12.9209 -12.5914 -12.4555 -12.2727 -11.9248 -11.7625 -11.4933 -11.1977
   -11.1231 -10.9082 -10.8635 -10.6961 -10.4636 -10.2740  -9.8468  -9.6707
    -9.2771  -9.2013  -9.1034  -8.8415  -8.7289  -8.4501  -8.1915  -8.0660
    -7.3019  -7.1139  -6.9539  -6.8714  -6.4505  -6.2430  -5.9876  -5.8355
    -5.7702  -5.6258  -5.4095  -5.3256  -5.1421  -5.1004  -5.0250  -4.9142
    -4.8177  -4.7811  -4.5087  -4.3579  -4.2128  -4.0703  -3.8068  -3.5235
    -3.4365  -3.3625  -3.2823  -3.1455  -3.0701  -2.9861  -2.8633  -2.7367
    -2.2774  -2.1835  -1.7179  -1.6064  -1.5211  -1.0602  -0.9439  -0.4263
    -0.1983   0.2158   0.4812   0.8243   1.0739   1.1597   1.2888   1.3712
     1.8532   1.8936   2.0646   2.2864   2.5465   2.6037   2.7345   2.8157
     3.0913   3.1671   3.2592

          k = 0.0000 0.1407 0.0000 (102462 PWs)   bands (ev):

   -36.0420 -34.8875 -34.2791 -22.1425 -20.8979 -20.2328 -19.8236 -19.3026
   -19.2041 -19.0258 -18.5915 -18.3336 -18.0676 -17.1430 -16.8536 -16.8048
   -16.2510 -15.8119 -15.6653 -15.4026 -15.2494 -15.1055 -14.9521 -14.8491
   -14.2795 -14.1897 -13.8443 -13.5731 -13.3718 -13.1811 -13.0620 -12.9796
   -12.9199 -12.5911 -12.4564 -12.2719 -11.9253 -11.7625 -11.4895 -11.1982
   -11.1296 -10.9086 -10.8631 -10.6922 -10.4624 -10.2765  -9.8480  -9.6688
    -9.2753  -9.2018  -9.1035  -8.8416  -8.7305  -8.4464  -8.1963  -8.0644
    -7.3023  -7.1153  -6.9537  -6.8704  -6.4494  -6.2497  -5.9885  -5.8294
    -5.7664  -5.6201  -5.4120  -5.3213  -5.1458  -5.0994  -5.0249  -4.9142
    -4.8203  -4.7868  -4.5135  -4.3646  -4.2162  -4.0603  -3.7991  -3.5228
    -3.4382  -3.3602  -3.2823  -3.1443  -3.0719  -2.9877  -2.8629  -2.7383
    -2.2781  -2.1834  -1.7197  -1.6060  -1.5173  -1.0643  -0.9423  -0.4280
    -0.1965   0.2147   0.4859   0.8179   1.0729   1.1649   1.2858   1.3738
     1.8480   1.8933   2.0698   2.2817   2.5506   2.6065   2.7382   2.8154
     3.0942   3.1616   3.2473

          k = 0.0000 0.1299 0.0000 (102482 PWs)   bands (ev):

   -36.0420 -34.8875 -34.2791 -22.1425 -20.8979 -20.2328 -19.8236 -19.3020
   -19.2079 -19.0199 -18.6000 -18.3244 -18.0712 -17.1430 -16.8536 -16.8048
   -16.2510 -15.8105 -15.6676 -15.4015 -15.2495 -15.1052 -14.9521 -14.8496
   -14.2797 -14.1892 -13.8445 -13.5730 -13.3721 -13.1810 -13.0634 -12.9793
   -12.9188 -12.5907 -12.4574 -12.2710 -11.9258 -11.7624 -11.4853 -11.1988
   -11.1367 -10.9087 -10.8629 -10.6880 -10.4610 -10.2794  -9.8492  -9.6667
    -9.2733  -9.2025  -9.1037  -8.8416  -8.7321  -8.4423  -8.2016  -8.0627
    -7.3029  -7.1168  -6.9535  -6.8694  -6.4481  -6.2568  -5.9895  -5.8240
    -5.7613  -5.6139  -5.4148  -5.3165  -5.1497  -5.0985  -5.0246  -4.9142
    -4.8232  -4.7934  -4.5182  -4.3711  -4.2193  -4.0511  -3.7903  -3.5221
    -3.4399  -3.3580  -3.2824  -3.1429  -3.0741  -2.9894  -2.8623  -2.7400
    -2.2788  -2.1832  -1.7216  -1.6055  -1.5134  -1.0686  -0.9407  -0.4298
    -0.1944   0.2135   0.4911   0.8110   1.0720   1.1702   1.2827   1.3763
     1.8426   1.8928   2.0755   2.2765   2.5552   2.6093   2.7420   2.8152
     3.0965   3.1563   3.2334

          k = 0.0000 0.1191 0.0000 (102458 PWs)   bands (ev):

   -36.0420 -34.8875 -34.2791 -22.1425 -20.8979 -20.2328 -19.8235 -19.3013
   -19.2117 -19.0137 -18.6087 -18.3150 -18.0751 -17.1429 -16.8536 -16.8047
   -16.2510 -15.8091 -15.6700 -15.4004 -15.2497 -15.1048 -14.9520 -14.8501
   -14.2799 -14.1885 -13.8448 -13.5729 -13.3724 -13.1809 -13.0648 -12.9792
   -12.9176 -12.5903 -12.4584 -12.2700 -11.9263 -11.7624 -11.4807 -11.1996
   -11.1440 -10.9086 -10.8629 -10.6836 -10.4595 -10.2825  -9.8504  -9.6646
    -9.2712  -9.2033  -9.1038  -8.8417  -8.7338  -8.4377  -8.2074  -8.0610
    -7.3034  -7.1184  -6.9534  -6.8684  -6.4468  -6.2642  -5.9905  -5.8196
    -5.7545  -5.6074  -5.4178  -5.3113  -5.1540  -5.0975  -5.0240  -4.9145
    -4.8264  -4.8007  -4.5229  -4.3772  -4.2220  -4.0430  -3.7804  -3.5214
    -3.4416  -3.3559  -3.2826  -3.1413  -3.0766  -2.9909  -2.8617  -2.7420
    -2.2795  -2.1831  -1.7235  -1.6049  -1.5093  -1.0730  -0.9392  -0.4317
    -0.1921   0.2123   0.4967   0.8037   1.0711   1.1754   1.2799   1.3787
     1.8371   1.8922   2.0814   2.2709   2.5601   2.6123   2.7457   2.8153
     3.0980   3.1516   3.2198

          k = 0.0000 0.1083 0.0000 (102462 PWs)   bands (ev):

   -36.0420 -34.8875 -34.2791 -22.1425 -20.8979 -20.2328 -19.8234 -19.3005
   -19.2155 -19.0075 -18.6174 -18.3055 -18.0793 -17.1428 -16.8536 -16.8047
   -16.2510 -15.8075 -15.6725 -15.3993 -15.2498 -15.1044 -14.9520 -14.8506
   -14.2802 -14.1879 -13.8450 -13.5727 -13.3726 -13.1807 -13.0662 -12.9790
   -12.9164 -12.5899 -12.4594 -12.2691 -11.9269 -11.7623 -11.4758 -11.2006
   -11.1514 -10.9084 -10.8632 -10.6792 -10.4579 -10.2857  -9.8516  -9.6624
    -9.2689  -9.2041  -9.1040  -8.8418  -8.7356  -8.4329  -8.2135  -8.0592
    -7.3040  -7.1199  -6.9533  -6.8672  -6.4452  -6.2716  -5.9915  -5.8163
    -5.7463  -5.6009  -5.4208  -5.3058  -5.1586  -5.0966  -5.0230  -4.9150
    -4.8300  -4.8084  -4.5275  -4.3827  -4.2244  -4.0360  -3.7697  -3.5208
    -3.4433  -3.3540  -3.2829  -3.1396  -3.0794  -2.9922  -2.8610  -2.7441
    -2.2802  -2.1830  -1.7254  -1.6042  -1.5052  -1.0774  -0.9377  -0.4337
    -0.1899   0.2111   0.5027   0.7960   1.0704   1.1806   1.2772   1.3810
     1.8318   1.8916   2.0876   2.2650   2.5653   2.6152   2.7493   2.8158
     3.0977   3.1473   3.2072

          k = 0.0000 0.0974 0.0000 (102464 PWs)   bands (ev):

   -36.0420 -34.8875 -34.2791 -22.1425 -20.8979 -20.2328 -19.8233 -19.2997
   -19.2193 -19.0013 -18.6259 -18.2961 -18.0838 -17.1428 -16.8535 -16.8047
   -16.2510 -15.8059 -15.6750 -15.3982 -15.2500 -15.1040 -14.9520 -14.8511
   -14.2804 -14.1873 -13.8453 -13.5726 -13.3729 -13.1806 -13.0676 -12.9789
   -12.9152 -12.5895 -12.4605 -12.2681 -11.9275 -11.7622 -11.4706 -11.2020
   -11.1586 -10.9079 -10.8637 -10.6748 -10.4562 -10.2891  -9.8528  -9.6603
    -9.2665  -9.2051  -9.1042  -8.8419  -8.7373  -8.4277  -8.2199  -8.0574
    -7.3046  -7.1215  -6.9532  -6.8661  -6.4435  -6.2789  -5.9924  -5.8141
    -5.7368  -5.5947  -5.4237  -5.3002  -5.1633  -5.0958  -5.0215  -4.9158
    -4.8343  -4.8161  -4.5317  -4.3877  -4.2266  -4.0301  -3.7584  -3.5203
    -3.4450  -3.3523  -3.2833  -3.1378  -3.0825  -2.9931  -2.8603  -2.7462
    -2.2808  -2.1830  -1.7273  -1.6034  -1.5011  -1.0818  -0.9363  -0.4356
    -0.1877   0.2099   0.5088   0.7882   1.0697   1.1854   1.2748   1.3832
     1.8266   1.8909   2.0939   2.2590   2.5707   2.6181   2.7526   2.8166
     3.0952   3.1437   3.1973

          k = 0.0000 0.0866 0.0000 (102466 PWs)   bands (ev):

   -36.0420 -34.8875 -34.2791 -22.1425 -20.8979 -20.2328 -19.8233 -19.2988
   -19.2228 -18.9952 -18.6340 -18.2869 -18.0884 -17.1427 -16.8535 -16.8047
   -16.2510 -15.8043 -15.6776 -15.3972 -15.2501 -15.1036 -14.9520 -14.8516
   -14.2806 -14.1867 -13.8456 -13.5725 -13.3732 -13.1805 -13.0689 -12.9789
   -12.9140 -12.5890 -12.4615 -12.2671 -11.9280 -11.7622 -11.4654 -11.2038
   -11.1653 -10.9073 -10.8643 -10.6706 -10.4544 -10.2924  -9.8539  -9.6583
    -9.2641  -9.2061  -9.1043  -8.8420  -8.7390  -8.4224  -8.2264  -8.0557
    -7.3051  -7.1230  -6.9532  -6.8650  -6.4418  -6.2859  -5.9933  -5.8128
    -5.7264  -5.5890  -5.4264  -5.2945  -5.1682  -5.0952  -5.0195  -4.9171
    -4.8398  -4.8227  -4.5354  -4.3921  -4.2285  -4.0251  -3.7468  -3.5198
    -3.4467  -3.3508  -3.2837  -3.1359  -3.0857  -2.9938  -2.8595  -2.7484
    -2.2814  -2.1830  -1.7291  -1.6027  -1.4972  -1.0860  -0.9350  -0.4374
    -0.1853   0.2087   0.5152   0.7804   1.0692   1.1898   1.2729   1.3851
     1.8217   1.8901   2.1003   2.2528   2.5762   2.6207   2.7554   2.8181
     3.0905   3.1402   3.1913

          k = 0.0000 0.0758 0.0000 (102470 PWs)   bands (ev):

   -36.0420 -34.8875 -34.2791 -22.1425 -20.8979 -20.2328 -19.8232 -19.2980
   -19.2261 -18.9894 -18.6416 -18.2780 -18.0931 -17.1427 -16.8535 -16.8046
   -16.2509 -15.8028 -15.6800 -15.3962 -15.2503 -15.1033 -14.9519 -14.8521
   -14.2808 -14.1861 -13.8458 -13.5724 -13.3735 -13.1804 -13.0701 -12.9789
   -12.9128 -12.5886 -12.4625 -12.2662 -11.9286 -11.7621 -11.4601 -11.2063
   -11.1711 -10.9066 -10.8651 -10.6666 -10.4526 -10.2957  -9.8550  -9.6564
    -9.2617  -9.2072  -9.1045  -8.8420  -8.7407  -8.4171  -8.2330  -8.0541
    -7.3057  -7.1243  -6.9532  -6.8639  -6.4400  -6.2926  -5.9941  -5.8121
    -5.7156  -5.5841  -5.4288  -5.2888  -5.1730  -5.0947  -5.0169  -4.9191
    -4.8465  -4.8280  -4.5387  -4.3960  -4.2302  -4.0211  -3.7353  -3.5195
    -3.4484  -3.3497  -3.2841  -3.1340  -3.0891  -2.9942  -2.8587  -2.7506
    -2.2819  -2.1830  -1.7308  -1.6019  -1.4935  -1.0899  -0.9338  -0.4392
    -0.1833   0.2076   0.5214   0.7729   1.0688   1.1938   1.2712   1.3868
     1.8171   1.8894   2.1067   2.2466   2.5817   2.6230   2.7575   2.8203
     3.0838   3.1365   3.1884

          k = 0.0000 0.0650 0.0000 (102467 PWs)   bands (ev):

   -36.0420 -34.8875 -34.2791 -22.1425 -20.8979 -20.2328 -19.8231 -19.2971
   -19.2292 -18.9841 -18.6486 -18.2696 -18.0979 -17.1426 -16.8535 -16.8046
   -16.2509 -15.8012 -15.6823 -15.3953 -15.2504 -15.1029 -14.9519 -14.8525
   -14.2810 -14.1855 -13.8460 -13.5722 -13.3737 -13.1803 -13.0711 -12.9789
   -12.9118 -12.5883 -12.4634 -12.2654 -11.9291 -11.7620 -11.4551 -11.2094
   -11.1758 -10.9058 -10.8659 -10.6630 -10.4509 -10.2988  -9.8559  -9.6547
    -9.2593  -9.2083  -9.1046  -8.8421  -8.7421  -8.4118  -8.2393  -8.0526
    -7.3062  -7.1256  -6.9532  -6.8629  -6.4382  -6.2987  -5.9949  -5.8118
    -5.7047  -5.5804  -5.4306  -5.2833  -5.1778  -5.0943  -5.0137  -4.9219
    -4.8537  -4.8318  -4.5415  -4.3992  -4.2317  -4.0179  -3.7243  -3.5191
    -3.4500  -3.3489  -3.2845  -3.1322  -3.0925  -2.9944  -2.8580  -2.7526
    -2.2824  -2.1831  -1.7323  -1.6012  -1.4902  -1.0935  -0.9328  -0.4408
    -0.1814   0.2066   0.5273   0.7656   1.0684   1.1972   1.2700   1.3883
     1.8130   1.8888   2.1129   2.2405   2.5869   2.6250   2.7590   2.8228
     3.0759   3.1324   3.1877

          k = 0.0000 0.0541 0.0000 (102469 PWs)   bands (ev):

   -36.0420 -34.8875 -34.2791 -22.1425 -20.8979 -20.2328 -19.8231 -19.2963
   -19.2319 -18.9793 -18.6549 -18.2619 -18.1024 -17.1426 -16.8535 -16.8046
   -16.2509 -15.7999 -15.6844 -15.3945 -15.2505 -15.1027 -14.9519 -14.8529
   -14.2812 -14.1850 -13.8463 -13.5721 -13.3739 -13.1802 -13.0721 -12.9789
   -12.9108 -12.5879 -12.4642 -12.2646 -11.9295 -11.7620 -11.4503 -11.2130
   -11.1793 -10.9050 -10.8668 -10.6599 -10.4493 -10.3016  -9.8567  -9.6532
    -9.2571  -9.2094  -9.1048  -8.8421  -8.7435  -8.4068  -8.2453  -8.0513
    -7.3067  -7.1267  -6.9532  -6.8620  -6.4365  -6.3043  -5.9955  -5.8118
    -5.6941  -5.5780  -5.4319  -5.2782  -5.1823  -5.0942  -5.0098  -4.9258
    -4.8606  -4.8347  -4.5438  -4.4020  -4.2329  -4.0154  -3.7141  -3.5188
    -3.4517  -3.3483  -3.2849  -3.1304  -3.0958  -2.9943  -2.8573  -2.7545
    -2.2828  -2.1831  -1.7336  -1.6005  -1.4872  -1.0967  -0.9319  -0.4422
    -0.1798   0.2058   0.5329   0.7590   1.0682   1.2000   1.2691   1.3895
     1.8093   1.8882   2.1187   2.2347   2.5919   2.6266   2.7601   2.8256
     3.0676   3.1286   3.1897

          k = 0.0000 0.0433 0.0000 (102491 PWs)   bands (ev):

   -36.0420 -34.8876 -34.2791 -22.1425 -20.8979 -20.2328 -19.8230 -19.2956
   -19.2342 -18.9751 -18.6602 -18.2551 -18.1066 -17.1426 -16.8535 -16.8046
   -16.2509 -15.7986 -15.6862 -15.3938 -15.2506 -15.1024 -14.9519 -14.8532
   -14.2814 -14.1846 -13.8464 -13.5721 -13.3741 -13.1801 -13.0729 -12.9790
   -12.9100 -12.5877 -12.4649 -12.2640 -11.9299 -11.7620 -11.4461 -11.2168
   -11.1819 -10.9042 -10.8676 -10.6572 -10.4479 -10.3041  -9.8574  -9.6520
    -9.2551  -9.2105  -9.1049  -8.8422  -8.7446  -8.4022  -8.2507  -8.0501
    -7.3071  -7.1277  -6.9532  -6.8612  -6.4349  -6.3090  -5.9960  -5.8119
    -5.6843  -5.5768  -5.4326  -5.2736  -5.1865  -5.0941  -5.0053  -4.9308
    -4.8664  -4.8370  -4.5456  -4.4042  -4.2340  -4.0135  -3.7051  -3.5185
    -3.4533  -3.3480  -3.2853  -3.1287  -3.0988  -2.9941  -2.8567  -2.7562
    -2.2831  -2.1832  -1.7348  -1.5999  -1.4847  -1.0994  -0.9312  -0.4435
    -0.1784   0.2050   0.5378   0.7531   1.0679   1.2022   1.2686   1.3905
     1.8063   1.8876   2.1241   2.2293   2.5963   2.6277   2.7606   2.8284
     3.0598   3.1252   3.1919

          k = 0.0000 0.0325 0.0000 (102489 PWs)   bands (ev):

   -36.0420 -34.8876 -34.2791 -22.1425 -20.8979 -20.2328 -19.8230 -19.2950
   -19.2361 -18.9717 -18.6645 -18.2494 -18.1102 -17.1425 -16.8535 -16.8046
   -16.2509 -15.7976 -15.6877 -15.3933 -15.2507 -15.1022 -14.9519 -14.8535
   -14.2815 -14.1843 -13.8466 -13.5720 -13.3743 -13.1800 -13.0735 -12.9790
   -12.9094 -12.5874 -12.4655 -12.2635 -11.9302 -11.7619 -11.4425 -11.2203
   -11.1836 -10.9035 -10.8684 -10.6550 -10.4467 -10.3062  -9.8579  -9.6510
    -9.2533  -9.2114  -9.1050  -8.8422  -8.7455  -8.3982  -8.2553  -8.0492
    -7.3074  -7.1284  -6.9532  -6.8606  -6.4335  -6.3129  -5.9965  -5.8121
    -5.6758  -5.5766  -5.4329  -5.2697  -5.1900  -5.0941  -5.0005  -4.9364
    -4.8707  -4.8387  -4.5470  -4.4058  -4.2348  -4.0121  -3.6976  -3.5183
    -3.4546  -3.3478  -3.2855  -3.1272  -3.1014  -2.9939  -2.8563  -2.7576
    -2.2833  -2.1833  -1.7357  -1.5994  -1.4827  -1.1016  -0.9306  -0.4444
    -0.1772   0.2044   0.5420   0.7483   1.0678   1.2038   1.2683   1.3913
     1.8039   1.8872   2.1288   2.2247   2.6001   2.6286   2.7609   2.8311
     3.0530   3.1224   3.1942

          k = 0.0000 0.0217 0.0000 (102537 PWs)   bands (ev):

   -36.0420 -34.8876 -34.2791 -22.1425 -20.8979 -20.2329 -19.8229 -19.2945
   -19.2375 -18.9692 -18.6676 -18.2451 -18.1131 -17.1425 -16.8535 -16.8046
   -16.2509 -15.7969 -15.6888 -15.3929 -15.2508 -15.1021 -14.9519 -14.8537
   -14.2816 -14.1840 -13.8467 -13.5719 -13.3744 -13.1800 -13.0739 -12.9791
   -12.9089 -12.5873 -12.4659 -12.2631 -11.9304 -11.7619 -11.4398 -11.2231
   -11.1846 -10.9029 -10.8689 -10.6535 -10.4458 -10.3077  -9.8583  -9.6503
    -9.2520  -9.2121  -9.1050  -8.8422  -8.7462  -8.3952  -8.2588  -8.0486
    -7.3076  -7.1290  -6.9533  -6.8601  -6.4325  -6.3157  -5.9968  -5.8122
    -5.6690  -5.5772  -5.4329  -5.2666  -5.1928  -5.0942  -4.9958  -4.9421
    -4.8737  -4.8399  -4.5480  -4.4070  -4.2354  -4.0111  -3.6921  -3.5181
    -3.4558  -3.3477  -3.2857  -3.1260  -3.1035  -2.9937  -2.8559  -2.7586
    -2.2835  -2.1834  -1.7363  -1.5991  -1.4812  -1.1032  -0.9303  -0.4452
    -0.1764   0.2040   0.5451   0.7446   1.0677   1.2049   1.2681   1.3918
     1.8021   1.8869   2.1324   2.2210   2.6031   2.6290   2.7610   2.8332
     3.0478   3.1205   3.1966

          k = 0.0000 0.0108 0.0000 (102533 PWs)   bands (ev):

   -36.0420 -34.8876 -34.2791 -22.1426 -20.8979 -20.2329 -19.8229 -19.2942
   -19.2383 -18.9677 -18.6695 -18.2424 -18.1149 -17.1425 -16.8534 -16.8045
   -16.2509 -15.7964 -15.6895 -15.3926 -15.2508 -15.1020 -14.9519 -14.8538
   -14.2816 -14.1839 -13.8468 -13.5719 -13.3744 -13.1800 -13.0742 -12.9791
   -12.9086 -12.5872 -12.4662 -12.2629 -11.9306 -11.7619 -11.4381 -11.2249
   -11.1852 -10.9025 -10.8693 -10.6525 -10.4452 -10.3087  -9.8586  -9.6498
    -9.2512  -9.2126  -9.1051  -8.8423  -8.7466  -8.3932  -8.2610  -8.0482
    -7.3078  -7.1293  -6.9533  -6.8598  -6.4318  -6.3175  -5.9970  -5.8124
    -5.6646  -5.5778  -5.4328  -5.2647  -5.1945  -5.0942  -4.9922  -4.9465
    -4.8754  -4.8406  -4.5486  -4.4078  -4.2358  -4.0106  -3.6886  -3.5179
    -3.4565  -3.3477  -3.2858  -3.1252  -3.1049  -2.9935  -2.8557  -2.7593
    -2.2836  -2.1834  -1.7367  -1.5989  -1.4803  -1.1041  -0.9300  -0.4456
    -0.1761   0.2038   0.5471   0.7423   1.0676   1.2056   1.2681   1.3921
     1.8010   1.8867   2.1348   2.2186   2.6050   2.6291   2.7610   2.8346
     3.0445   3.1192   3.1975

     Writing output data file graphene.save
 
     init_run     :      0.82s CPU      1.27s WALL (       1 calls)
     electrons    :    318.07s CPU    355.06s WALL (       1 calls)

     Called by init_run:
     wfcinit      :      0.00s CPU      0.01s WALL (       1 calls)
     potinit      :      0.10s CPU      0.24s WALL (       1 calls)

     Called by electrons:
     c_bands      :    318.07s CPU    354.91s WALL (       1 calls)
     v_of_rho     :      0.02s CPU      0.03s WALL (       1 calls)
     v_h          :      0.00s CPU      0.00s WALL (       1 calls)
     v_xc         :      0.02s CPU      0.03s WALL (       1 calls)

     Called by c_bands:
     init_us_2    :      0.07s CPU      0.10s WALL (     120 calls)
     cegterg      :    238.06s CPU    262.08s WALL (     120 calls)

     Called by sum_band:

     Called by *egterg:
     h_psi        :    131.86s CPU    145.76s WALL (    1799 calls)
     g_psi        :      0.74s CPU      0.81s WALL (    1559 calls)
     cdiaghg      :     92.48s CPU    101.74s WALL (    1679 calls)
     cegterg:over :     27.06s CPU     28.17s WALL (    1559 calls)
     cegterg:upda :     28.07s CPU     31.38s WALL (    1559 calls)
     cegterg:last :     10.63s CPU     11.00s WALL (     240 calls)
     cdiaghg:chol :      6.02s CPU      6.95s WALL (    1679 calls)
     cdiaghg:inve :      3.07s CPU      3.36s WALL (    1679 calls)
     cdiaghg:para :      6.23s CPU      7.64s WALL (    3358 calls)

     Called by h_psi:
     h_psi:vloc   :    122.66s CPU    135.41s WALL (    1799 calls)
     h_psi:vnl    :      7.39s CPU      8.13s WALL (    1799 calls)
     add_vuspsi   :      3.41s CPU      3.97s WALL (    1799 calls)

     General routines
     calbec       :      3.98s CPU      4.16s WALL (    1799 calls)
     fft          :      0.46s CPU      0.71s WALL (      10 calls)
     fftw         :    114.75s CPU    126.09s WALL (  250302 calls)
     davcio       :      0.80s CPU      7.91s WALL (     240 calls)
 
     Parallel routines
     fft_scatter  :     49.74s CPU     52.54s WALL (  250312 calls)
 
     PWSCF        :  6m41.68s CPU     7m52.58s WALL

 
   This run was terminated on:  15:17:22  11Apr2017            

=------------------------------------------------------------------------------=
   JOB DONE.
=------------------------------------------------------------------------------=
