
     Program BANDS v.5.4.0 starts on 11Apr2017 at 18:18:14 

     This program is part of the open-source Quantum ESPRESSO suite
     for quantum simulation of materials; please cite
         "P. Giannozzi et al., J. Phys.:Condens. Matter 21 395502 (2009);
          URL http://www.quantum-espresso.org", 
     in publications or presentations arising from this work. More details at
     http://www.quantum-espresso.org/quote

     Parallel version (MPI & OpenMP), running on      56 processor cores
     Number of MPI processes:                56
     Threads/MPI process:                     1
     R & G space division:  proc/nbgrp/npool/nimage =      56

     Reading data from directory:
     ./graphene.save

   Info: using nr1, nr2, nr3 values from input

   Info: using nr1, nr2, nr3 values from input

     IMPORTANT: XC functional enforced from input :
     Exchange-correlation      =  SLA  PW   PBX  PBC ( 1  4  3  4 0 0)
     Any further DFT definition will be discarded
     Please, verify this is what you really want

 
     Parallelization info
     --------------------
     sticks:   dense  smooth     PW     G-vecs:    dense   smooth      PW
     Min         204     204     54                14646    14646    1986
     Max         205     205     55                14650    14650    1989
     Sum       11433   11433   3039               820307   820307  111305
 
     high-symmetry point:  0.0000 0.0000 0.0000   x coordinate   0.0000
     high-symmetry point:  0.3333 0.4330 0.0000   x coordinate   0.5465
     high-symmetry point:  0.0000 0.4330 0.0000   x coordinate   0.8798
     high-symmetry point:  0.0000 0.0108 0.0000   x coordinate   1.3020

     Plottable bands written to file bands.dat.gnu
     Bands written to file bands.dat

 **************************************************************************

                    xk=(   0.00000,   0.00000,   0.00000  )

     point group C_1 (1)    
     there are  1 classes
     the character table:

       E    
A      1.00

     the symmetry operations in each class and the name of the first element:

     E        1
                                                                 

     Band symmetry, C_1 (1)     point group:

     e(  1 -  1) =    -36.04204  eV     1   --> A              
     e(  2 -  2) =    -34.88757  eV     1   --> A              
     e(  3 -  3) =    -34.27915  eV     1   --> A              
     e(  4 -  4) =    -22.14254  eV     1   --> A              
     e(  5 -  5) =    -20.89787  eV     1   --> A              
     e(  6 -  6) =    -20.23286  eV     1   --> A              
     e(  7 -  7) =    -19.82290  eV     1   --> A              
     e(  8 -  8) =    -19.29413  eV     1   --> A              
     e(  9 -  9) =    -19.23858  eV     1   --> A              
     e( 10 - 10) =    -18.96714  eV     1   --> A              
     e( 11 - 11) =    -18.67019  eV     1   --> A              
     e( 12 - 12) =    -18.24149  eV     1   --> A              
     e( 13 - 13) =    -18.11548  eV     1   --> A              
     e( 14 - 14) =    -17.14248  eV     1   --> A              
     e( 15 - 15) =    -16.85345  eV     1   --> A              
     e( 16 - 16) =    -16.80454  eV     1   --> A              
     e( 17 - 17) =    -16.25089  eV     1   --> A              
     e( 18 - 18) =    -15.79624  eV     1   --> A              
     e( 19 - 19) =    -15.68968  eV     1   --> A              
     e( 20 - 20) =    -15.39254  eV     1   --> A              
     e( 21 - 21) =    -15.25084  eV     1   --> A              
     e( 22 - 22) =    -15.10193  eV     1   --> A              
     e( 23 - 23) =    -14.95187  eV     1   --> A              
     e( 24 - 24) =    -14.85384  eV     1   --> A              
     e( 25 - 25) =    -14.28165  eV     1   --> A              
     e( 26 - 26) =    -14.18383  eV     1   --> A              
     e( 27 - 27) =    -13.84679  eV     1   --> A              
     e( 28 - 28) =    -13.57190  eV     1   --> A              
     e( 29 - 29) =    -13.37446  eV     1   --> A              
     e( 30 - 30) =    -13.17996  eV     1   --> A              
     e( 31 - 31) =    -13.07430  eV     1   --> A              
     e( 32 - 32) =    -12.97911  eV     1   --> A              
     e( 33 - 33) =    -12.90849  eV     1   --> A              
     e( 34 - 34) =    -12.58713  eV     1   --> A              
     e( 35 - 35) =    -12.46627  eV     1   --> A              
     e( 36 - 36) =    -12.26278  eV     1   --> A              
     e( 37 - 37) =    -11.93061  eV     1   --> A              
     e( 38 - 38) =    -11.76188  eV     1   --> A              
     e( 39 - 39) =    -11.43757  eV     1   --> A              
     e( 40 - 40) =    -11.22557  eV     1   --> A              
     e( 41 - 41) =    -11.18541  eV     1   --> A              
     e( 42 - 42) =    -10.90241  eV     1   --> A              
     e( 43 - 43) =    -10.86943  eV     1   --> A              
     e( 44 - 44) =    -10.65221  eV     1   --> A              
     e( 45 - 45) =    -10.44500  eV     1   --> A              
     e( 46 - 46) =    -10.30902  eV     1   --> A              
     e( 47 - 47) =     -9.85864  eV     1   --> A              
     e( 48 - 48) =     -9.64967  eV     1   --> A              
     e( 49 - 49) =     -9.25094  eV     1   --> A              
     e( 50 - 50) =     -9.21279  eV     1   --> A              
     e( 51 - 51) =     -9.10510  eV     1   --> A              
     e( 52 - 52) =     -8.84227  eV     1   --> A              
     e( 53 - 53) =     -8.74670  eV     1   --> A              
     e( 54 - 54) =     -8.39259  eV     1   --> A              
     e( 55 - 55) =     -8.26177  eV     1   --> A              
     e( 56 - 56) =     -8.04804  eV     1   --> A              
     e( 57 - 57) =     -7.30784  eV     1   --> A              
     e( 58 - 58) =     -7.12940  eV     1   --> A              
     e( 59 - 59) =     -6.95328  eV     1   --> A              
     e( 60 - 60) =     -6.85975  eV     1   --> A              
     e( 61 - 61) =     -6.43162  eV     1   --> A              
     e( 62 - 62) =     -6.31807  eV     1   --> A              
     e( 63 - 63) =     -5.99703  eV     1   --> A              
     e( 64 - 64) =     -5.81240  eV     1   --> A              
     e( 65 - 65) =     -5.66307  eV     1   --> A              
     e( 66 - 66) =     -5.57809  eV     1   --> A              
     e( 67 - 67) =     -5.43279  eV     1   --> A              
     e( 68 - 68) =     -5.26414  eV     1   --> A              
     e( 69 - 69) =     -5.19515  eV     1   --> A              
     e( 70 - 70) =     -5.09425  eV     1   --> A              
     e( 71 - 71) =     -4.99069  eV     1   --> A              
     e( 72 - 72) =     -4.94827  eV     1   --> A              
     e( 73 - 73) =     -4.87591  eV     1   --> A              
     e( 74 - 74) =     -4.84086  eV     1   --> A              
     e( 75 - 75) =     -4.54878  eV     1   --> A              
     e( 76 - 76) =     -4.40799  eV     1   --> A              
     e( 77 - 77) =     -4.23588  eV     1   --> A              
     e( 78 - 78) =     -4.01038  eV     1   --> A              
     e( 79 - 79) =     -3.68746  eV     1   --> A              
     e( 80 - 80) =     -3.51786  eV     1   --> A              
     e( 81 - 81) =     -3.45672  eV     1   --> A              
     e( 82 - 82) =     -3.34771  eV     1   --> A              
     e( 83 - 83) =     -3.28588  eV     1   --> A              
     e( 84 - 84) =     -3.12490  eV     1   --> A              
     e( 85 - 85) =     -3.10533  eV     1   --> A              
     e( 86 - 86) =     -2.99345  eV     1   --> A              
     e( 87 - 87) =     -2.85560  eV     1   --> A              
     e( 88 - 88) =     -2.75951  eV     1   --> A              
     e( 89 - 89) =     -2.28360  eV     1   --> A              
     e( 90 - 90) =     -2.18344  eV     1   --> A              
     e( 91 - 91) =     -1.73686  eV     1   --> A              
     e( 92 - 92) =     -1.59878  eV     1   --> A              
     e( 93 - 93) =     -1.48000  eV     1   --> A              
     e( 94 - 94) =     -1.10444  eV     1   --> A              
     e( 95 - 95) =     -0.92993  eV     1   --> A              
     e( 96 - 96) =     -0.44574  eV     1   --> A              
     e( 97 - 97) =     -0.17576  eV     1   --> A              
     e( 98 - 98) =      0.20368  eV     1   --> A              
     e( 99 - 99) =      0.54775  eV     1   --> A              
     e(100 -100) =      0.74154  eV     1   --> A              
     e(101 -101) =      1.06757  eV     1   --> A              
     e(102 -102) =      1.20578  eV     1   --> A              
     e(103 -103) =      1.26808  eV     1   --> A              
     e(104 -104) =      1.39223  eV     1   --> A              
     e(105 -105) =      1.80065  eV     1   --> A              
     e(106 -106) =      1.88665  eV     1   --> A              
     e(107 -107) =      2.13562  eV     1   --> A              
     e(108 -108) =      2.21778  eV     1   --> A              
     e(109 -109) =      2.60561  eV     1   --> A              
     e(110 -110) =      2.62918  eV     1   --> A              
     e(111 -111) =      2.76097  eV     1   --> A              
     e(112 -112) =      2.83501  eV     1   --> A              
     e(113 -113) =      3.04327  eV     1   --> A              
     e(114 -114) =      3.11882  eV     1   --> A              
     e(115 -115) =      3.19777  eV     1   --> A              

 **************************************************************************

 **************************************************************************

                    xk=(   0.00833,   0.01083,   0.00000  )

     Band symmetry, C_1 (1)     point group:

     e(  1 -  1) =    -36.04204  eV     1   --> A              
     e(  2 -  2) =    -34.88757  eV     1   --> A              
     e(  3 -  3) =    -34.27915  eV     1   --> A              
     e(  4 -  4) =    -22.14255  eV     1   --> A              
     e(  5 -  5) =    -20.89787  eV     1   --> A              
     e(  6 -  6) =    -20.23286  eV     1   --> A              
     e(  7 -  7) =    -19.82291  eV     1   --> A              
     e(  8 -  8) =    -19.29422  eV     1   --> A              
     e(  9 -  9) =    -19.23829  eV     1   --> A              
     e( 10 - 10) =    -18.96766  eV     1   --> A              
     e( 11 - 11) =    -18.66954  eV     1   --> A              
     e( 12 - 12) =    -18.24241  eV     1   --> A              
     e( 13 - 13) =    -18.11487  eV     1   --> A              
     e( 14 - 14) =    -17.14247  eV     1   --> A              
     e( 15 - 15) =    -16.85348  eV     1   --> A              
     e( 16 - 16) =    -16.80464  eV     1   --> A              
     e( 17 - 17) =    -16.25088  eV     1   --> A              
     e( 18 - 18) =    -15.79630  eV     1   --> A              
     e( 19 - 19) =    -15.68942  eV     1   --> A              
     e( 20 - 20) =    -15.39253  eV     1   --> A              
     e( 21 - 21) =    -15.25094  eV     1   --> A              
     e( 22 - 22) =    -15.10199  eV     1   --> A              
     e( 23 - 23) =    -14.95195  eV     1   --> A              
     e( 24 - 24) =    -14.85389  eV     1   --> A              
     e( 25 - 25) =    -14.28160  eV     1   --> A              
     e( 26 - 26) =    -14.18394  eV     1   --> A              
     e( 27 - 27) =    -13.84660  eV     1   --> A              
     e( 28 - 28) =    -13.57200  eV     1   --> A              
     e( 29 - 29) =    -13.37410  eV     1   --> A              
     e( 30 - 30) =    -13.17994  eV     1   --> A              
     e( 31 - 31) =    -13.07413  eV     1   --> A              
     e( 32 - 32) =    -12.97945  eV     1   --> A              
     e( 33 - 33) =    -12.90824  eV     1   --> A              
     e( 34 - 34) =    -12.58727  eV     1   --> A              
     e( 35 - 35) =    -12.46627  eV     1   --> A              
     e( 36 - 36) =    -12.26299  eV     1   --> A              
     e( 37 - 37) =    -11.93069  eV     1   --> A              
     e( 38 - 38) =    -11.76151  eV     1   --> A              
     e( 39 - 39) =    -11.43826  eV     1   --> A              
     e( 40 - 40) =    -11.22476  eV     1   --> A              
     e( 41 - 41) =    -11.18510  eV     1   --> A              
     e( 42 - 42) =    -10.90253  eV     1   --> A              
     e( 43 - 43) =    -10.86959  eV     1   --> A              
     e( 44 - 44) =    -10.65219  eV     1   --> A              
     e( 45 - 45) =    -10.44514  eV     1   --> A              
     e( 46 - 46) =    -10.30846  eV     1   --> A              
     e( 47 - 47) =     -9.85869  eV     1   --> A              
     e( 48 - 48) =     -9.65101  eV     1   --> A              
     e( 49 - 49) =     -9.25099  eV     1   --> A              
     e( 50 - 50) =     -9.21314  eV     1   --> A              
     e( 51 - 51) =     -9.10534  eV     1   --> A              
     e( 52 - 52) =     -8.84558  eV     1   --> A              
     e( 53 - 53) =     -8.74250  eV     1   --> A              
     e( 54 - 54) =     -8.39287  eV     1   --> A              
     e( 55 - 55) =     -8.26074  eV     1   --> A              
     e( 56 - 56) =     -8.04871  eV     1   --> A              
     e( 57 - 57) =     -7.30817  eV     1   --> A              
     e( 58 - 58) =     -7.12988  eV     1   --> A              
     e( 59 - 59) =     -6.95333  eV     1   --> A              
     e( 60 - 60) =     -6.85896  eV     1   --> A              
     e( 61 - 61) =     -6.43159  eV     1   --> A              
     e( 62 - 62) =     -6.31757  eV     1   --> A              
     e( 63 - 63) =     -5.99709  eV     1   --> A              
     e( 64 - 64) =     -5.81193  eV     1   --> A              
     e( 65 - 65) =     -5.66408  eV     1   --> A              
     e( 66 - 66) =     -5.57759  eV     1   --> A              
     e( 67 - 67) =     -5.43298  eV     1   --> A              
     e( 68 - 68) =     -5.26521  eV     1   --> A              
     e( 69 - 69) =     -5.19454  eV     1   --> A              
     e( 70 - 70) =     -5.09434  eV     1   --> A              
     e( 71 - 71) =     -4.99188  eV     1   --> A              
     e( 72 - 72) =     -4.94645  eV     1   --> A              
     e( 73 - 73) =     -4.87563  eV     1   --> A              
     e( 74 - 74) =     -4.84040  eV     1   --> A              
     e( 75 - 75) =     -4.54844  eV     1   --> A              
     e( 76 - 76) =     -4.40769  eV     1   --> A              
     e( 77 - 77) =     -4.23558  eV     1   --> A              
     e( 78 - 78) =     -4.01050  eV     1   --> A              
     e( 79 - 79) =     -3.68884  eV     1   --> A              
     e( 80 - 80) =     -3.51783  eV     1   --> A              
     e( 81 - 81) =     -3.45667  eV     1   --> A              
     e( 82 - 82) =     -3.34782  eV     1   --> A              
     e( 83 - 83) =     -3.28621  eV     1   --> A              
     e( 84 - 84) =     -3.12479  eV     1   --> A              
     e( 85 - 85) =     -3.10477  eV     1   --> A              
     e( 86 - 86) =     -2.99352  eV     1   --> A              
     e( 87 - 87) =     -2.85574  eV     1   --> A              
     e( 88 - 88) =     -2.75936  eV     1   --> A              
     e( 89 - 89) =     -2.28365  eV     1   --> A              
     e( 90 - 90) =     -2.18339  eV     1   --> A              
     e( 91 - 91) =     -1.73687  eV     1   --> A              
     e( 92 - 92) =     -1.59898  eV     1   --> A              
     e( 93 - 93) =     -1.48026  eV     1   --> A              
     e( 94 - 94) =     -1.10419  eV     1   --> A              
     e( 95 - 95) =     -0.93000  eV     1   --> A              
     e( 96 - 96) =     -0.44564  eV     1   --> A              
     e( 97 - 97) =     -0.17602  eV     1   --> A              
     e( 98 - 98) =      0.20374  eV     1   --> A              
     e( 99 - 99) =      0.54704  eV     1   --> A              
     e(100 -100) =      0.74232  eV     1   --> A              
     e(101 -101) =      1.06742  eV     1   --> A              
     e(102 -102) =      1.20570  eV     1   --> A              
     e(103 -103) =      1.26807  eV     1   --> A              
     e(104 -104) =      1.39219  eV     1   --> A              
     e(105 -105) =      1.80092  eV     1   --> A              
     e(106 -106) =      1.88680  eV     1   --> A              
     e(107 -107) =      2.13466  eV     1   --> A              
     e(108 -108) =      2.21872  eV     1   --> A              
     e(109 -109) =      2.60540  eV     1   --> A              
     e(110 -110) =      2.62898  eV     1   --> A              
     e(111 -111) =      2.76067  eV     1   --> A              
     e(112 -112) =      2.83446  eV     1   --> A              
     e(113 -113) =      3.04461  eV     1   --> A              
     e(114 -114) =      3.11919  eV     1   --> A              
     e(115 -115) =      3.19748  eV     1   --> A              

 **************************************************************************

 **************************************************************************

                    xk=(   0.01667,   0.02165,   0.00000  )

     Band symmetry, C_1 (1)     point group:

     e(  1 -  1) =    -36.04203  eV     1   --> A              
     e(  2 -  2) =    -34.88756  eV     1   --> A              
     e(  3 -  3) =    -34.27914  eV     1   --> A              
     e(  4 -  4) =    -22.14254  eV     1   --> A              
     e(  5 -  5) =    -20.89787  eV     1   --> A              
     e(  6 -  6) =    -20.23285  eV     1   --> A              
     e(  7 -  7) =    -19.82291  eV     1   --> A              
     e(  8 -  8) =    -19.29450  eV     1   --> A              
     e(  9 -  9) =    -19.23745  eV     1   --> A              
     e( 10 - 10) =    -18.96919  eV     1   --> A              
     e( 11 - 11) =    -18.66761  eV     1   --> A              
     e( 12 - 12) =    -18.24510  eV     1   --> A              
     e( 13 - 13) =    -18.11308  eV     1   --> A              
     e( 14 - 14) =    -17.14242  eV     1   --> A              
     e( 15 - 15) =    -16.85356  eV     1   --> A              
     e( 16 - 16) =    -16.80493  eV     1   --> A              
     e( 17 - 17) =    -16.25083  eV     1   --> A              
     e( 18 - 18) =    -15.79646  eV     1   --> A              
     e( 19 - 19) =    -15.68864  eV     1   --> A              
     e( 20 - 20) =    -15.39249  eV     1   --> A              
     e( 21 - 21) =    -15.25121  eV     1   --> A              
     e( 22 - 22) =    -15.10216  eV     1   --> A              
     e( 23 - 23) =    -14.95221  eV     1   --> A              
     e( 24 - 24) =    -14.85405  eV     1   --> A              
     e( 25 - 25) =    -14.28145  eV     1   --> A              
     e( 26 - 26) =    -14.18429  eV     1   --> A              
     e( 27 - 27) =    -13.84604  eV     1   --> A              
     e( 28 - 28) =    -13.57232  eV     1   --> A              
     e( 29 - 29) =    -13.37301  eV     1   --> A              
     e( 30 - 30) =    -13.17988  eV     1   --> A              
     e( 31 - 31) =    -13.07360  eV     1   --> A              
     e( 32 - 32) =    -12.98048  eV     1   --> A              
     e( 33 - 33) =    -12.90748  eV     1   --> A              
     e( 34 - 34) =    -12.58769  eV     1   --> A              
     e( 35 - 35) =    -12.46626  eV     1   --> A              
     e( 36 - 36) =    -12.26363  eV     1   --> A              
     e( 37 - 37) =    -11.93092  eV     1   --> A              
     e( 38 - 38) =    -11.76041  eV     1   --> A              
     e( 39 - 39) =    -11.44029  eV     1   --> A              
     e( 40 - 40) =    -11.22247  eV     1   --> A              
     e( 41 - 41) =    -11.18410  eV     1   --> A              
     e( 42 - 42) =    -10.90287  eV     1   --> A              
     e( 43 - 43) =    -10.87004  eV     1   --> A              
     e( 44 - 44) =    -10.65210  eV     1   --> A              
     e( 45 - 45) =    -10.44552  eV     1   --> A              
     e( 46 - 46) =    -10.30680  eV     1   --> A              
     e( 47 - 47) =     -9.85886  eV     1   --> A              
     e( 48 - 48) =     -9.65498  eV     1   --> A              
     e( 49 - 49) =     -9.25123  eV     1   --> A              
     e( 50 - 50) =     -9.21415  eV     1   --> A              
     e( 51 - 51) =     -9.10617  eV     1   --> A              
     e( 52 - 52) =     -8.85392  eV     1   --> A              
     e( 53 - 53) =     -8.73150  eV     1   --> A              
     e( 54 - 54) =     -8.39366  eV     1   --> A              
     e( 55 - 55) =     -8.25773  eV     1   --> A              
     e( 56 - 56) =     -8.05067  eV     1   --> A              
     e( 57 - 57) =     -7.30916  eV     1   --> A              
     e( 58 - 58) =     -7.13127  eV     1   --> A              
     e( 59 - 59) =     -6.95352  eV     1   --> A              
     e( 60 - 60) =     -6.85661  eV     1   --> A              
     e( 61 - 61) =     -6.43147  eV     1   --> A              
     e( 62 - 62) =     -6.31616  eV     1   --> A              
     e( 63 - 63) =     -5.99730  eV     1   --> A              
     e( 64 - 64) =     -5.81054  eV     1   --> A              
     e( 65 - 65) =     -5.66699  eV     1   --> A              
     e( 66 - 66) =     -5.57621  eV     1   --> A              
     e( 67 - 67) =     -5.43351  eV     1   --> A              
     e( 68 - 68) =     -5.26846  eV     1   --> A              
     e( 69 - 69) =     -5.19280  eV     1   --> A              
     e( 70 - 70) =     -5.09460  eV     1   --> A              
     e( 71 - 71) =     -4.99483  eV     1   --> A              
     e( 72 - 72) =     -4.94174  eV     1   --> A              
     e( 73 - 73) =     -4.87480  eV     1   --> A              
     e( 74 - 74) =     -4.83901  eV     1   --> A              
     e( 75 - 75) =     -4.54743  eV     1   --> A              
     e( 76 - 76) =     -4.40678  eV     1   --> A              
     e( 77 - 77) =     -4.23465  eV     1   --> A              
     e( 78 - 78) =     -4.01087  eV     1   --> A              
     e( 79 - 79) =     -3.69292  eV     1   --> A              
     e( 80 - 80) =     -3.51779  eV     1   --> A              
     e( 81 - 81) =     -3.45652  eV     1   --> A              
     e( 82 - 82) =     -3.34815  eV     1   --> A              
     e( 83 - 83) =     -3.28720  eV     1   --> A              
     e( 84 - 84) =     -3.12463  eV     1   --> A              
     e( 85 - 85) =     -3.10303  eV     1   --> A              
     e( 86 - 86) =     -2.99369  eV     1   --> A              
     e( 87 - 87) =     -2.85614  eV     1   --> A              
     e( 88 - 88) =     -2.75889  eV     1   --> A              
     e( 89 - 89) =     -2.28377  eV     1   --> A              
     e( 90 - 90) =     -2.18325  eV     1   --> A              
     e( 91 - 91) =     -1.73690  eV     1   --> A              
     e( 92 - 92) =     -1.59956  eV     1   --> A              
     e( 93 - 93) =     -1.48105  eV     1   --> A              
     e( 94 - 94) =     -1.10346  eV     1   --> A              
     e( 95 - 95) =     -0.93021  eV     1   --> A              
     e( 96 - 96) =     -0.44536  eV     1   --> A              
     e( 97 - 97) =     -0.17676  eV     1   --> A              
     e( 98 - 98) =      0.20394  eV     1   --> A              
     e( 99 - 99) =      0.54495  eV     1   --> A              
     e(100 -100) =      0.74460  eV     1   --> A              
     e(101 -101) =      1.06696  eV     1   --> A              
     e(102 -102) =      1.20540  eV     1   --> A              
     e(103 -103) =      1.26806  eV     1   --> A              
     e(104 -104) =      1.39206  eV     1   --> A              
     e(105 -105) =      1.80175  eV     1   --> A              
     e(106 -106) =      1.88726  eV     1   --> A              
     e(107 -107) =      2.13189  eV     1   --> A              
     e(108 -108) =      2.22140  eV     1   --> A              
     e(109 -109) =      2.60472  eV     1   --> A              
     e(110 -110) =      2.62832  eV     1   --> A              
     e(111 -111) =      2.75977  eV     1   --> A              
     e(112 -112) =      2.83271  eV     1   --> A              
     e(113 -113) =      3.04836  eV     1   --> A              
     e(114 -114) =      3.12028  eV     1   --> A              
     e(115 -115) =      3.19602  eV     1   --> A              

 **************************************************************************

 **************************************************************************

                    xk=(   0.02500,   0.03248,   0.00000  )

     Band symmetry, C_1 (1)     point group:

     e(  1 -  1) =    -36.04203  eV     1   --> A              
     e(  2 -  2) =    -34.88755  eV     1   --> A              
     e(  3 -  3) =    -34.27914  eV     1   --> A              
     e(  4 -  4) =    -22.14253  eV     1   --> A              
     e(  5 -  5) =    -20.89787  eV     1   --> A              
     e(  6 -  6) =    -20.23286  eV     1   --> A              
     e(  7 -  7) =    -19.82292  eV     1   --> A              
     e(  8 -  8) =    -19.29495  eV     1   --> A              
     e(  9 -  9) =    -19.23607  eV     1   --> A              
     e( 10 - 10) =    -18.97167  eV     1   --> A              
     e( 11 - 11) =    -18.66445  eV     1   --> A              
     e( 12 - 12) =    -18.24940  eV     1   --> A              
     e( 13 - 13) =    -18.11028  eV     1   --> A              
     e( 14 - 14) =    -17.14233  eV     1   --> A              
     e( 15 - 15) =    -16.85371  eV     1   --> A              
     e( 16 - 16) =    -16.80540  eV     1   --> A              
     e( 17 - 17) =    -16.25077  eV     1   --> A              
     e( 18 - 18) =    -15.79672  eV     1   --> A              
     e( 19 - 19) =    -15.68737  eV     1   --> A              
     e( 20 - 20) =    -15.39241  eV     1   --> A              
     e( 21 - 21) =    -15.25166  eV     1   --> A              
     e( 22 - 22) =    -15.10244  eV     1   --> A              
     e( 23 - 23) =    -14.95263  eV     1   --> A              
     e( 24 - 24) =    -14.85431  eV     1   --> A              
     e( 25 - 25) =    -14.28121  eV     1   --> A              
     e( 26 - 26) =    -14.18485  eV     1   --> A              
     e( 27 - 27) =    -13.84511  eV     1   --> A              
     e( 28 - 28) =    -13.57286  eV     1   --> A              
     e( 29 - 29) =    -13.37117  eV     1   --> A              
     e( 30 - 30) =    -13.17977  eV     1   --> A              
     e( 31 - 31) =    -13.07276  eV     1   --> A              
     e( 32 - 32) =    -12.98217  eV     1   --> A              
     e( 33 - 33) =    -12.90623  eV     1   --> A              
     e( 34 - 34) =    -12.58839  eV     1   --> A              
     e( 35 - 35) =    -12.46625  eV     1   --> A              
     e( 36 - 36) =    -12.26468  eV     1   --> A              
     e( 37 - 37) =    -11.93130  eV     1   --> A              
     e( 38 - 38) =    -11.75858  eV     1   --> A              
     e( 39 - 39) =    -11.44348  eV     1   --> A              
     e( 40 - 40) =    -11.21911  eV     1   --> A              
     e( 41 - 41) =    -11.18220  eV     1   --> A              
     e( 42 - 42) =    -10.90343  eV     1   --> A              
     e( 43 - 43) =    -10.87078  eV     1   --> A              
     e( 44 - 44) =    -10.65195  eV     1   --> A              
     e( 45 - 45) =    -10.44615  eV     1   --> A              
     e( 46 - 46) =    -10.30410  eV     1   --> A              
     e( 47 - 47) =     -9.85918  eV     1   --> A              
     e( 48 - 48) =     -9.66140  eV     1   --> A              
     e( 49 - 49) =     -9.25181  eV     1   --> A              
     e( 50 - 50) =     -9.21568  eV     1   --> A              
     e( 51 - 51) =     -9.10780  eV     1   --> A              
     e( 52 - 52) =     -8.86437  eV     1   --> A              
     e( 53 - 53) =     -8.71649  eV     1   --> A              
     e( 54 - 54) =     -8.39479  eV     1   --> A              
     e( 55 - 55) =     -8.25290  eV     1   --> A              
     e( 56 - 56) =     -8.05384  eV     1   --> A              
     e( 57 - 57) =     -7.31087  eV     1   --> A              
     e( 58 - 58) =     -7.13348  eV     1   --> A              
     e( 59 - 59) =     -6.95396  eV     1   --> A              
     e( 60 - 60) =     -6.85267  eV     1   --> A              
     e( 61 - 61) =     -6.43125  eV     1   --> A              
     e( 62 - 62) =     -6.31383  eV     1   --> A              
     e( 63 - 63) =     -5.99760  eV     1   --> A              
     e( 64 - 64) =     -5.80834  eV     1   --> A              
     e( 65 - 65) =     -5.67148  eV     1   --> A              
     e( 66 - 66) =     -5.57431  eV     1   --> A              
     e( 67 - 67) =     -5.43433  eV     1   --> A              
     e( 68 - 68) =     -5.27342  eV     1   --> A              
     e( 69 - 69) =     -5.19014  eV     1   --> A              
     e( 70 - 70) =     -5.09500  eV     1   --> A              
     e( 71 - 71) =     -4.99838  eV     1   --> A              
     e( 72 - 72) =     -4.93554  eV     1   --> A              
     e( 73 - 73) =     -4.87341  eV     1   --> A              
     e( 74 - 74) =     -4.83664  eV     1   --> A              
     e( 75 - 75) =     -4.54580  eV     1   --> A              
     e( 76 - 76) =     -4.40525  eV     1   --> A              
     e( 77 - 77) =     -4.23311  eV     1   --> A              
     e( 78 - 78) =     -4.01153  eV     1   --> A              
     e( 79 - 79) =     -3.69952  eV     1   --> A              
     e( 80 - 80) =     -3.51775  eV     1   --> A              
     e( 81 - 81) =     -3.45628  eV     1   --> A              
     e( 82 - 82) =     -3.34867  eV     1   --> A              
     e( 83 - 83) =     -3.28879  eV     1   --> A              
     e( 84 - 84) =     -3.12474  eV     1   --> A              
     e( 85 - 85) =     -3.10001  eV     1   --> A              
     e( 86 - 86) =     -2.99392  eV     1   --> A              
     e( 87 - 87) =     -2.85678  eV     1   --> A              
     e( 88 - 88) =     -2.75812  eV     1   --> A              
     e( 89 - 89) =     -2.28399  eV     1   --> A              
     e( 90 - 90) =     -2.18302  eV     1   --> A              
     e( 91 - 91) =     -1.73696  eV     1   --> A              
     e( 92 - 92) =     -1.60051  eV     1   --> A              
     e( 93 - 93) =     -1.48235  eV     1   --> A              
     e( 94 - 94) =     -1.10227  eV     1   --> A              
     e( 95 - 95) =     -0.93055  eV     1   --> A              
     e( 96 - 96) =     -0.44492  eV     1   --> A              
     e( 97 - 97) =     -0.17799  eV     1   --> A              
     e( 98 - 98) =      0.20426  eV     1   --> A              
     e( 99 - 99) =      0.54159  eV     1   --> A              
     e(100 -100) =      0.74826  eV     1   --> A              
     e(101 -101) =      1.06621  eV     1   --> A              
     e(102 -102) =      1.20485  eV     1   --> A              
     e(103 -103) =      1.26814  eV     1   --> A              
     e(104 -104) =      1.39181  eV     1   --> A              
     e(105 -105) =      1.80311  eV     1   --> A              
     e(106 -106) =      1.88798  eV     1   --> A              
     e(107 -107) =      2.12764  eV     1   --> A              
     e(108 -108) =      2.22552  eV     1   --> A              
     e(109 -109) =      2.60355  eV     1   --> A              
     e(110 -110) =      2.62723  eV     1   --> A              
     e(111 -111) =      2.75825  eV     1   --> A              
     e(112 -112) =      2.83006  eV     1   --> A              
     e(113 -113) =      3.05401  eV     1   --> A              
     e(114 -114) =      3.12221  eV     1   --> A              
     e(115 -115) =      3.19365  eV     1   --> A              

 **************************************************************************

 **************************************************************************

                    xk=(   0.03333,   0.04330,   0.00000  )

     Band symmetry, C_1 (1)     point group:

     e(  1 -  1) =    -36.04203  eV     1   --> A              
     e(  2 -  2) =    -34.88755  eV     1   --> A              
     e(  3 -  3) =    -34.27914  eV     1   --> A              
     e(  4 -  4) =    -22.14253  eV     1   --> A              
     e(  5 -  5) =    -20.89787  eV     1   --> A              
     e(  6 -  6) =    -20.23286  eV     1   --> A              
     e(  7 -  7) =    -19.82293  eV     1   --> A              
     e(  8 -  8) =    -19.29554  eV     1   --> A              
     e(  9 -  9) =    -19.23419  eV     1   --> A              
     e( 10 - 10) =    -18.97504  eV     1   --> A              
     e( 11 - 11) =    -18.66016  eV     1   --> A              
     e( 12 - 12) =    -18.25508  eV     1   --> A              
     e( 13 - 13) =    -18.10669  eV     1   --> A              
     e( 14 - 14) =    -17.14222  eV     1   --> A              
     e( 15 - 15) =    -16.85391  eV     1   --> A              
     e( 16 - 16) =    -16.80607  eV     1   --> A              
     e( 17 - 17) =    -16.25068  eV     1   --> A              
     e( 18 - 18) =    -15.79704  eV     1   --> A              
     e( 19 - 19) =    -15.68564  eV     1   --> A              
     e( 20 - 20) =    -15.39231  eV     1   --> A              
     e( 21 - 21) =    -15.25230  eV     1   --> A              
     e( 22 - 22) =    -15.10283  eV     1   --> A              
     e( 23 - 23) =    -14.95321  eV     1   --> A              
     e( 24 - 24) =    -14.85468  eV     1   --> A              
     e( 25 - 25) =    -14.28092  eV     1   --> A              
     e( 26 - 26) =    -14.18560  eV     1   --> A              
     e( 27 - 27) =    -13.84384  eV     1   --> A              
     e( 28 - 28) =    -13.57360  eV     1   --> A              
     e( 29 - 29) =    -13.36861  eV     1   --> A              
     e( 30 - 30) =    -13.17963  eV     1   --> A              
     e( 31 - 31) =    -13.07165  eV     1   --> A              
     e( 32 - 32) =    -12.98450  eV     1   --> A              
     e( 33 - 33) =    -12.90451  eV     1   --> A              
     e( 34 - 34) =    -12.58937  eV     1   --> A              
     e( 35 - 35) =    -12.46623  eV     1   --> A              
     e( 36 - 36) =    -12.26610  eV     1   --> A              
     e( 37 - 37) =    -11.93185  eV     1   --> A              
     e( 38 - 38) =    -11.75605  eV     1   --> A              
     e( 39 - 39) =    -11.44759  eV     1   --> A              
     e( 40 - 40) =    -11.21534  eV     1   --> A              
     e( 41 - 41) =    -11.17903  eV     1   --> A              
     e( 42 - 42) =    -10.90420  eV     1   --> A              
     e( 43 - 43) =    -10.87180  eV     1   --> A              
     e( 44 - 44) =    -10.65170  eV     1   --> A              
     e( 45 - 45) =    -10.44699  eV     1   --> A              
     e( 46 - 46) =    -10.30042  eV     1   --> A              
     e( 47 - 47) =     -9.85971  eV     1   --> A              
     e( 48 - 48) =     -9.67001  eV     1   --> A              
     e( 49 - 49) =     -9.25301  eV     1   --> A              
     e( 50 - 50) =     -9.21753  eV     1   --> A              
     e( 51 - 51) =     -9.11056  eV     1   --> A              
     e( 52 - 52) =     -8.87482  eV     1   --> A              
     e( 53 - 53) =     -8.69949  eV     1   --> A              
     e( 54 - 54) =     -8.39604  eV     1   --> A              
     e( 55 - 55) =     -8.24652  eV     1   --> A              
     e( 56 - 56) =     -8.05810  eV     1   --> A              
     e( 57 - 57) =     -7.31334  eV     1   --> A              
     e( 58 - 58) =     -7.13637  eV     1   --> A              
     e( 59 - 59) =     -6.95478  eV     1   --> A              
     e( 60 - 60) =     -6.84709  eV     1   --> A              
     e( 61 - 61) =     -6.43091  eV     1   --> A              
     e( 62 - 62) =     -6.31066  eV     1   --> A              
     e( 63 - 63) =     -5.99798  eV     1   --> A              
     e( 64 - 64) =     -5.80543  eV     1   --> A              
     e( 65 - 65) =     -5.67718  eV     1   --> A              
     e( 66 - 66) =     -5.57232  eV     1   --> A              
     e( 67 - 67) =     -5.43533  eV     1   --> A              
     e( 68 - 68) =     -5.27955  eV     1   --> A              
     e( 69 - 69) =     -5.18681  eV     1   --> A              
     e( 70 - 70) =     -5.09549  eV     1   --> A              
     e( 71 - 71) =     -5.00177  eV     1   --> A              
     e( 72 - 72) =     -4.92898  eV     1   --> A              
     e( 73 - 73) =     -4.87143  eV     1   --> A              
     e( 74 - 74) =     -4.83327  eV     1   --> A              
     e( 75 - 75) =     -4.54362  eV     1   --> A              
     e( 76 - 76) =     -4.40310  eV     1   --> A              
     e( 77 - 77) =     -4.23100  eV     1   --> A              
     e( 78 - 78) =     -4.01248  eV     1   --> A              
     e( 79 - 79) =     -3.70836  eV     1   --> A              
     e( 80 - 80) =     -3.51779  eV     1   --> A              
     e( 81 - 81) =     -3.45596  eV     1   --> A              
     e( 82 - 82) =     -3.34936  eV     1   --> A              
     e( 83 - 83) =     -3.29087  eV     1   --> A              
     e( 84 - 84) =     -3.12538  eV     1   --> A              
     e( 85 - 85) =     -3.09576  eV     1   --> A              
     e( 86 - 86) =     -2.99412  eV     1   --> A              
     e( 87 - 87) =     -2.85761  eV     1   --> A              
     e( 88 - 88) =     -2.75704  eV     1   --> A              
     e( 89 - 89) =     -2.28435  eV     1   --> A              
     e( 90 - 90) =     -2.18272  eV     1   --> A              
     e( 91 - 91) =     -1.73709  eV     1   --> A              
     e( 92 - 92) =     -1.60177  eV     1   --> A              
     e( 93 - 93) =     -1.48415  eV     1   --> A              
     e( 94 - 94) =     -1.10065  eV     1   --> A              
     e( 95 - 95) =     -0.93105  eV     1   --> A              
     e( 96 - 96) =     -0.44431  eV     1   --> A              
     e( 97 - 97) =     -0.17969  eV     1   --> A              
     e( 98 - 98) =      0.20473  eV     1   --> A              
     e( 99 - 99) =      0.53713  eV     1   --> A              
     e(100 -100) =      0.75311  eV     1   --> A              
     e(101 -101) =      1.06519  eV     1   --> A              
     e(102 -102) =      1.20393  eV     1   --> A              
     e(103 -103) =      1.26849  eV     1   --> A              
     e(104 -104) =      1.39141  eV     1   --> A              
     e(105 -105) =      1.80500  eV     1   --> A              
     e(106 -106) =      1.88897  eV     1   --> A              
     e(107 -107) =      2.12232  eV     1   --> A              
     e(108 -108) =      2.23067  eV     1   --> A              
     e(109 -109) =      2.60189  eV     1   --> A              
     e(110 -110) =      2.62584  eV     1   --> A              
     e(111 -111) =      2.75608  eV     1   --> A              
     e(112 -112) =      2.82679  eV     1   --> A              
     e(113 -113) =      3.06097  eV     1   --> A              
     e(114 -114) =      3.12528  eV     1   --> A              
     e(115 -115) =      3.19117  eV     1   --> A              

 **************************************************************************

 **************************************************************************

                    xk=(   0.04167,   0.05413,   0.00000  )

     Band symmetry, C_1 (1)     point group:

     e(  1 -  1) =    -36.04202  eV     1   --> A              
     e(  2 -  2) =    -34.88755  eV     1   --> A              
     e(  3 -  3) =    -34.27913  eV     1   --> A              
     e(  4 -  4) =    -22.14253  eV     1   --> A              
     e(  5 -  5) =    -20.89787  eV     1   --> A              
     e(  6 -  6) =    -20.23286  eV     1   --> A              
     e(  7 -  7) =    -19.82294  eV     1   --> A              
     e(  8 -  8) =    -19.29624  eV     1   --> A              
     e(  9 -  9) =    -19.23186  eV     1   --> A              
     e( 10 - 10) =    -18.97918  eV     1   --> A              
     e( 11 - 11) =    -18.65484  eV     1   --> A              
     e( 12 - 12) =    -18.26189  eV     1   --> A              
     e( 13 - 13) =    -18.10254  eV     1   --> A              
     e( 14 - 14) =    -17.14207  eV     1   --> A              
     e( 15 - 15) =    -16.85417  eV     1   --> A              
     e( 16 - 16) =    -16.80692  eV     1   --> A              
     e( 17 - 17) =    -16.25057  eV     1   --> A              
     e( 18 - 18) =    -15.79740  eV     1   --> A              
     e( 19 - 19) =    -15.68348  eV     1   --> A              
     e( 20 - 20) =    -15.39217  eV     1   --> A              
     e( 21 - 21) =    -15.25311  eV     1   --> A              
     e( 22 - 22) =    -15.10334  eV     1   --> A              
     e( 23 - 23) =    -14.95393  eV     1   --> A              
     e( 24 - 24) =    -14.85514  eV     1   --> A              
     e( 25 - 25) =    -14.28060  eV     1   --> A              
     e( 26 - 26) =    -14.18651  eV     1   --> A              
     e( 27 - 27) =    -13.84225  eV     1   --> A              
     e( 28 - 28) =    -13.57450  eV     1   --> A              
     e( 29 - 29) =    -13.36529  eV     1   --> A              
     e( 30 - 30) =    -13.17944  eV     1   --> A              
     e( 31 - 31) =    -13.07030  eV     1   --> A              
     e( 32 - 32) =    -12.98744  eV     1   --> A              
     e( 33 - 33) =    -12.90232  eV     1   --> A              
     e( 34 - 34) =    -12.59064  eV     1   --> A              
     e( 35 - 35) =    -12.46620  eV     1   --> A              
     e( 36 - 36) =    -12.26786  eV     1   --> A              
     e( 37 - 37) =    -11.93257  eV     1   --> A              
     e( 38 - 38) =    -11.75282  eV     1   --> A              
     e( 39 - 39) =    -11.45236  eV     1   --> A              
     e( 40 - 40) =    -11.21186  eV     1   --> A              
     e( 41 - 41) =    -11.17420  eV     1   --> A              
     e( 42 - 42) =    -10.90516  eV     1   --> A              
     e( 43 - 43) =    -10.87305  eV     1   --> A              
     e( 44 - 44) =    -10.65134  eV     1   --> A              
     e( 45 - 45) =    -10.44804  eV     1   --> A              
     e( 46 - 46) =    -10.29586  eV     1   --> A              
     e( 47 - 47) =     -9.86053  eV     1   --> A              
     e( 48 - 48) =     -9.68045  eV     1   --> A              
     e( 49 - 49) =     -9.25519  eV     1   --> A              
     e( 50 - 50) =     -9.21939  eV     1   --> A              
     e( 51 - 51) =     -9.11473  eV     1   --> A              
     e( 52 - 52) =     -8.88402  eV     1   --> A              
     e( 53 - 53) =     -8.68165  eV     1   --> A              
     e( 54 - 54) =     -8.39721  eV     1   --> A              
     e( 55 - 55) =     -8.23884  eV     1   --> A              
     e( 56 - 56) =     -8.06325  eV     1   --> A              
     e( 57 - 57) =     -7.31663  eV     1   --> A              
     e( 58 - 58) =     -7.13981  eV     1   --> A              
     e( 59 - 59) =     -6.95612  eV     1   --> A              
     e( 60 - 60) =     -6.83986  eV     1   --> A              
     e( 61 - 61) =     -6.43043  eV     1   --> A              
     e( 62 - 62) =     -6.30669  eV     1   --> A              
     e( 63 - 63) =     -5.99838  eV     1   --> A              
     e( 64 - 64) =     -5.80201  eV     1   --> A              
     e( 65 - 65) =     -5.68375  eV     1   --> A              
     e( 66 - 66) =     -5.57067  eV     1   --> A              
     e( 67 - 67) =     -5.43633  eV     1   --> A              
     e( 68 - 68) =     -5.28628  eV     1   --> A              
     e( 69 - 69) =     -5.18302  eV     1   --> A              
     e( 70 - 70) =     -5.09603  eV     1   --> A              
     e( 71 - 71) =     -5.00459  eV     1   --> A              
     e( 72 - 72) =     -4.92281  eV     1   --> A              
     e( 73 - 73) =     -4.86883  eV     1   --> A              
     e( 74 - 74) =     -4.82888  eV     1   --> A              
     e( 75 - 75) =     -4.54096  eV     1   --> A              
     e( 76 - 76) =     -4.40032  eV     1   --> A              
     e( 77 - 77) =     -4.22829  eV     1   --> A              
     e( 78 - 78) =     -4.01378  eV     1   --> A              
     e( 79 - 79) =     -3.71906  eV     1   --> A              
     e( 80 - 80) =     -3.51801  eV     1   --> A              
     e( 81 - 81) =     -3.45557  eV     1   --> A              
     e( 82 - 82) =     -3.35020  eV     1   --> A              
     e( 83 - 83) =     -3.29337  eV     1   --> A              
     e( 84 - 84) =     -3.12663  eV     1   --> A              
     e( 85 - 85) =     -3.09070  eV     1   --> A              
     e( 86 - 86) =     -2.99412  eV     1   --> A              
     e( 87 - 87) =     -2.85856  eV     1   --> A              
     e( 88 - 88) =     -2.75567  eV     1   --> A              
     e( 89 - 89) =     -2.28484  eV     1   --> A              
     e( 90 - 90) =     -2.18233  eV     1   --> A              
     e( 91 - 91) =     -1.73729  eV     1   --> A              
     e( 92 - 92) =     -1.60329  eV     1   --> A              
     e( 93 - 93) =     -1.48641  eV     1   --> A              
     e( 94 - 94) =     -1.09865  eV     1   --> A              
     e( 95 - 95) =     -0.93169  eV     1   --> A              
     e( 96 - 96) =     -0.44358  eV     1   --> A              
     e( 97 - 97) =     -0.18181  eV     1   --> A              
     e( 98 - 98) =      0.20531  eV     1   --> A              
     e( 99 - 99) =      0.53180  eV     1   --> A              
     e(100 -100) =      0.75893  eV     1   --> A              
     e(101 -101) =      1.06392  eV     1   --> A              
     e(102 -102) =      1.20252  eV     1   --> A              
     e(103 -103) =      1.26925  eV     1   --> A              
     e(104 -104) =      1.39079  eV     1   --> A              
     e(105 -105) =      1.80739  eV     1   --> A              
     e(106 -106) =      1.89019  eV     1   --> A              
     e(107 -107) =      2.11626  eV     1   --> A              
     e(108 -108) =      2.23654  eV     1   --> A              
     e(109 -109) =      2.59964  eV     1   --> A              
     e(110 -110) =      2.62413  eV     1   --> A              
     e(111 -111) =      2.75326  eV     1   --> A              
     e(112 -112) =      2.82312  eV     1   --> A              
     e(113 -113) =      3.06791  eV     1   --> A              
     e(114 -114) =      3.12995  eV     1   --> A              
     e(115 -115) =      3.18894  eV     1   --> A              

 **************************************************************************

 **************************************************************************

                    xk=(   0.05000,   0.06495,   0.00000  )

     Band symmetry, C_1 (1)     point group:

     e(  1 -  1) =    -36.04203  eV     1   --> A              
     e(  2 -  2) =    -34.88755  eV     1   --> A              
     e(  3 -  3) =    -34.27913  eV     1   --> A              
     e(  4 -  4) =    -22.14253  eV     1   --> A              
     e(  5 -  5) =    -20.89787  eV     1   --> A              
     e(  6 -  6) =    -20.23286  eV     1   --> A              
     e(  7 -  7) =    -19.82295  eV     1   --> A              
     e(  8 -  8) =    -19.29701  eV     1   --> A              
     e(  9 -  9) =    -19.22914  eV     1   --> A              
     e( 10 - 10) =    -18.98397  eV     1   --> A              
     e( 11 - 11) =    -18.64861  eV     1   --> A              
     e( 12 - 12) =    -18.26959  eV     1   --> A              
     e( 13 - 13) =    -18.09806  eV     1   --> A              
     e( 14 - 14) =    -17.14188  eV     1   --> A              
     e( 15 - 15) =    -16.85449  eV     1   --> A              
     e( 16 - 16) =    -16.80795  eV     1   --> A              
     e( 17 - 17) =    -16.25044  eV     1   --> A              
     e( 18 - 18) =    -15.79777  eV     1   --> A              
     e( 19 - 19) =    -15.68095  eV     1   --> A              
     e( 20 - 20) =    -15.39200  eV     1   --> A              
     e( 21 - 21) =    -15.25410  eV     1   --> A              
     e( 22 - 22) =    -15.10396  eV     1   --> A              
     e( 23 - 23) =    -14.95480  eV     1   --> A              
     e( 24 - 24) =    -14.85569  eV     1   --> A              
     e( 25 - 25) =    -14.28030  eV     1   --> A              
     e( 26 - 26) =    -14.18753  eV     1   --> A              
     e( 27 - 27) =    -13.84035  eV     1   --> A              
     e( 28 - 28) =    -13.57555  eV     1   --> A              
     e( 29 - 29) =    -13.36123  eV     1   --> A              
     e( 30 - 30) =    -13.17921  eV     1   --> A              
     e( 31 - 31) =    -13.06879  eV     1   --> A              
     e( 32 - 32) =    -12.99093  eV     1   --> A              
     e( 33 - 33) =    -12.89970  eV     1   --> A              
     e( 34 - 34) =    -12.59220  eV     1   --> A              
     e( 35 - 35) =    -12.46617  eV     1   --> A              
     e( 36 - 36) =    -12.26991  eV     1   --> A              
     e( 37 - 37) =    -11.93346  eV     1   --> A              
     e( 38 - 38) =    -11.74894  eV     1   --> A              
     e( 39 - 39) =    -11.45753  eV     1   --> A              
     e( 40 - 40) =    -11.20915  eV     1   --> A              
     e( 41 - 41) =    -11.16755  eV     1   --> A              
     e( 42 - 42) =    -10.90632  eV     1   --> A              
     e( 43 - 43) =    -10.87449  eV     1   --> A              
     e( 44 - 44) =    -10.65083  eV     1   --> A              
     e( 45 - 45) =    -10.44926  eV     1   --> A              
     e( 46 - 46) =    -10.29054  eV     1   --> A              
     e( 47 - 47) =     -9.86175  eV     1   --> A              
     e( 48 - 48) =     -9.69230  eV     1   --> A              
     e( 49 - 49) =     -9.25873  eV     1   --> A              
     e( 50 - 50) =     -9.22101  eV     1   --> A              
     e( 51 - 51) =     -9.12047  eV     1   --> A              
     e( 52 - 52) =     -8.89134  eV     1   --> A              
     e( 53 - 53) =     -8.66367  eV     1   --> A              
     e( 54 - 54) =     -8.39814  eV     1   --> A              
     e( 55 - 55) =     -8.23007  eV     1   --> A              
     e( 56 - 56) =     -8.06906  eV     1   --> A              
     e( 57 - 57) =     -7.32079  eV     1   --> A              
     e( 58 - 58) =     -7.14366  eV     1   --> A              
     e( 59 - 59) =     -6.95808  eV     1   --> A              
     e( 60 - 60) =     -6.83097  eV     1   --> A              
     e( 61 - 61) =     -6.42979  eV     1   --> A              
     e( 62 - 62) =     -6.30200  eV     1   --> A              
     e( 63 - 63) =     -5.99873  eV     1   --> A              
     e( 64 - 64) =     -5.79832  eV     1   --> A              
     e( 65 - 65) =     -5.69090  eV     1   --> A              
     e( 66 - 66) =     -5.56966  eV     1   --> A              
     e( 67 - 67) =     -5.43716  eV     1   --> A              
     e( 68 - 68) =     -5.29304  eV     1   --> A              
     e( 69 - 69) =     -5.17893  eV     1   --> A              
     e( 70 - 70) =     -5.09657  eV     1   --> A              
     e( 71 - 71) =     -5.00673  eV     1   --> A              
     e( 72 - 72) =     -4.91749  eV     1   --> A              
     e( 73 - 73) =     -4.86560  eV     1   --> A              
     e( 74 - 74) =     -4.82345  eV     1   --> A              
     e( 75 - 75) =     -4.53797  eV     1   --> A              
     e( 76 - 76) =     -4.39690  eV     1   --> A              
     e( 77 - 77) =     -4.22504  eV     1   --> A              
     e( 78 - 78) =     -4.01550  eV     1   --> A              
     e( 79 - 79) =     -3.73122  eV     1   --> A              
     e( 80 - 80) =     -3.51847  eV     1   --> A              
     e( 81 - 81) =     -3.45507  eV     1   --> A              
     e( 82 - 82) =     -3.35115  eV     1   --> A              
     e( 83 - 83) =     -3.29616  eV     1   --> A              
     e( 84 - 84) =     -3.12846  eV     1   --> A              
     e( 85 - 85) =     -3.08532  eV     1   --> A              
     e( 86 - 86) =     -2.99378  eV     1   --> A              
     e( 87 - 87) =     -2.85951  eV     1   --> A              
     e( 88 - 88) =     -2.75403  eV     1   --> A              
     e( 89 - 89) =     -2.28554  eV     1   --> A              
     e( 90 - 90) =     -2.18188  eV     1   --> A              
     e( 91 - 91) =     -1.73760  eV     1   --> A              
     e( 92 - 92) =     -1.60501  eV     1   --> A              
     e( 93 - 93) =     -1.48912  eV     1   --> A              
     e( 94 - 94) =     -1.09634  eV     1   --> A              
     e( 95 - 95) =     -0.93246  eV     1   --> A              
     e( 96 - 96) =     -0.44275  eV     1   --> A              
     e( 97 - 97) =     -0.18455  eV     1   --> A              
     e( 98 - 98) =      0.20603  eV     1   --> A              
     e( 99 - 99) =      0.52575  eV     1   --> A              
     e(100 -100) =      0.76548  eV     1   --> A              
     e(101 -101) =      1.06244  eV     1   --> A              
     e(102 -102) =      1.20053  eV     1   --> A              
     e(103 -103) =      1.27058  eV     1   --> A              
     e(104 -104) =      1.38992  eV     1   --> A              
     e(105 -105) =      1.81025  eV     1   --> A              
     e(106 -106) =      1.89158  eV     1   --> A              
     e(107 -107) =      2.10979  eV     1   --> A              
     e(108 -108) =      2.24288  eV     1   --> A              
     e(109 -109) =      2.59700  eV     1   --> A              
     e(110 -110) =      2.62212  eV     1   --> A              
     e(111 -111) =      2.74984  eV     1   --> A              
     e(112 -112) =      2.81961  eV     1   --> A              
     e(113 -113) =      3.07432  eV     1   --> A              
     e(114 -114) =      3.13672  eV     1   --> A              
     e(115 -115) =      3.18767  eV     1   --> A              

 **************************************************************************

 **************************************************************************

                    xk=(   0.05833,   0.07578,   0.00000  )

     Band symmetry, C_1 (1)     point group:

     e(  1 -  1) =    -36.04202  eV     1   --> A              
     e(  2 -  2) =    -34.88755  eV     1   --> A              
     e(  3 -  3) =    -34.27913  eV     1   --> A              
     e(  4 -  4) =    -22.14253  eV     1   --> A              
     e(  5 -  5) =    -20.89787  eV     1   --> A              
     e(  6 -  6) =    -20.23286  eV     1   --> A              
     e(  7 -  7) =    -19.82296  eV     1   --> A              
     e(  8 -  8) =    -19.29781  eV     1   --> A              
     e(  9 -  9) =    -19.22608  eV     1   --> A              
     e( 10 - 10) =    -18.98930  eV     1   --> A              
     e( 11 - 11) =    -18.64160  eV     1   --> A              
     e( 12 - 12) =    -18.27798  eV     1   --> A              
     e( 13 - 13) =    -18.09339  eV     1   --> A              
     e( 14 - 14) =    -17.14167  eV     1   --> A              
     e( 15 - 15) =    -16.85487  eV     1   --> A              
     e( 16 - 16) =    -16.80914  eV     1   --> A              
     e( 17 - 17) =    -16.25029  eV     1   --> A              
     e( 18 - 18) =    -15.79810  eV     1   --> A              
     e( 19 - 19) =    -15.67810  eV     1   --> A              
     e( 20 - 20) =    -15.39178  eV     1   --> A              
     e( 21 - 21) =    -15.25526  eV     1   --> A              
     e( 22 - 22) =    -15.10469  eV     1   --> A              
     e( 23 - 23) =    -14.95577  eV     1   --> A              
     e( 24 - 24) =    -14.85633  eV     1   --> A              
     e( 25 - 25) =    -14.28007  eV     1   --> A              
     e( 26 - 26) =    -14.18861  eV     1   --> A              
     e( 27 - 27) =    -13.83818  eV     1   --> A              
     e( 28 - 28) =    -13.57670  eV     1   --> A              
     e( 29 - 29) =    -13.35642  eV     1   --> A              
     e( 30 - 30) =    -13.17895  eV     1   --> A              
     e( 31 - 31) =    -13.06716  eV     1   --> A              
     e( 32 - 32) =    -12.99491  eV     1   --> A              
     e( 33 - 33) =    -12.89668  eV     1   --> A              
     e( 34 - 34) =    -12.59402  eV     1   --> A              
     e( 35 - 35) =    -12.46613  eV     1   --> A              
     e( 36 - 36) =    -12.27218  eV     1   --> A              
     e( 37 - 37) =    -11.93453  eV     1   --> A              
     e( 38 - 38) =    -11.74442  eV     1   --> A              
     e( 39 - 39) =    -11.46287  eV     1   --> A              
     e( 40 - 40) =    -11.20732  eV     1   --> A              
     e( 41 - 41) =    -11.15933  eV     1   --> A              
     e( 42 - 42) =    -10.90766  eV     1   --> A              
     e( 43 - 43) =    -10.87605  eV     1   --> A              
     e( 44 - 44) =    -10.65016  eV     1   --> A              
     e( 45 - 45) =    -10.45061  eV     1   --> A              
     e( 46 - 46) =    -10.28457  eV     1   --> A              
     e( 47 - 47) =     -9.86354  eV     1   --> A              
     e( 48 - 48) =     -9.70508  eV     1   --> A              
     e( 49 - 49) =     -9.26399  eV     1   --> A              
     e( 50 - 50) =     -9.22222  eV     1   --> A              
     e( 51 - 51) =     -9.12772  eV     1   --> A              
     e( 52 - 52) =     -8.89658  eV     1   --> A              
     e( 53 - 53) =     -8.64598  eV     1   --> A              
     e( 54 - 54) =     -8.39878  eV     1   --> A              
     e( 55 - 55) =     -8.22041  eV     1   --> A              
     e( 56 - 56) =     -8.07525  eV     1   --> A              
     e( 57 - 57) =     -7.32582  eV     1   --> A              
     e( 58 - 58) =     -7.14786  eV     1   --> A              
     e( 59 - 59) =     -6.96071  eV     1   --> A              
     e( 60 - 60) =     -6.82046  eV     1   --> A              
     e( 61 - 61) =     -6.42897  eV     1   --> A              
     e( 62 - 62) =     -6.29671  eV     1   --> A              
     e( 63 - 63) =     -5.99898  eV     1   --> A              
     e( 64 - 64) =     -5.79464  eV     1   --> A              
     e( 65 - 65) =     -5.69844  eV     1   --> A              
     e( 66 - 66) =     -5.56948  eV     1   --> A              
     e( 67 - 67) =     -5.43764  eV     1   --> A              
     e( 68 - 68) =     -5.29931  eV     1   --> A              
     e( 69 - 69) =     -5.17470  eV     1   --> A              
     e( 70 - 70) =     -5.09707  eV     1   --> A              
     e( 71 - 71) =     -5.00819  eV     1   --> A              
     e( 72 - 72) =     -4.91327  eV     1   --> A              
     e( 73 - 73) =     -4.86177  eV     1   --> A              
     e( 74 - 74) =     -4.81727  eV     1   --> A              
     e( 75 - 75) =     -4.53477  eV     1   --> A              
     e( 76 - 76) =     -4.39287  eV     1   --> A              
     e( 77 - 77) =     -4.22128  eV     1   --> A              
     e( 78 - 78) =     -4.01772  eV     1   --> A              
     e( 79 - 79) =     -3.74438  eV     1   --> A              
     e( 80 - 80) =     -3.51934  eV     1   --> A              
     e( 81 - 81) =     -3.45441  eV     1   --> A              
     e( 82 - 82) =     -3.35223  eV     1   --> A              
     e( 83 - 83) =     -3.29916  eV     1   --> A              
     e( 84 - 84) =     -3.13082  eV     1   --> A              
     e( 85 - 85) =     -3.08023  eV     1   --> A              
     e( 86 - 86) =     -2.99286  eV     1   --> A              
     e( 87 - 87) =     -2.86032  eV     1   --> A              
     e( 88 - 88) =     -2.75215  eV     1   --> A              
     e( 89 - 89) =     -2.28643  eV     1   --> A              
     e( 90 - 90) =     -2.18138  eV     1   --> A              
     e( 91 - 91) =     -1.73806  eV     1   --> A              
     e( 92 - 92) =     -1.60683  eV     1   --> A              
     e( 93 - 93) =     -1.49219  eV     1   --> A              
     e( 94 - 94) =     -1.09373  eV     1   --> A              
     e( 95 - 95) =     -0.93337  eV     1   --> A              
     e( 96 - 96) =     -0.44185  eV     1   --> A              
     e( 97 - 97) =     -0.18747  eV     1   --> A              
     e( 98 - 98) =      0.20687  eV     1   --> A              
     e( 99 - 99) =      0.51922  eV     1   --> A              
     e(100 -100) =      0.77254  eV     1   --> A              
     e(101 -101) =      1.06078  eV     1   --> A              
     e(102 -102) =      1.19790  eV     1   --> A              
     e(103 -103) =      1.27259  eV     1   --> A              
     e(104 -104) =      1.38875  eV     1   --> A              
     e(105 -105) =      1.81354  eV     1   --> A              
     e(106 -106) =      1.89312  eV     1   --> A              
     e(107 -107) =      2.10312  eV     1   --> A              
     e(108 -108) =      2.24949  eV     1   --> A              
     e(109 -109) =      2.59390  eV     1   --> A              
     e(110 -110) =      2.61986  eV     1   --> A              
     e(111 -111) =      2.74581  eV     1   --> A              
     e(112 -112) =      2.81633  eV     1   --> A              
     e(113 -113) =      3.07913  eV     1   --> A              
     e(114 -114) =      3.14540  eV     1   --> A              
     e(115 -115) =      3.18820  eV     1   --> A              

 **************************************************************************

 **************************************************************************

                    xk=(   0.06667,   0.08660,   0.00000  )

     Band symmetry, C_1 (1)     point group:

     e(  1 -  1) =    -36.04202  eV     1   --> A              
     e(  2 -  2) =    -34.88755  eV     1   --> A              
     e(  3 -  3) =    -34.27913  eV     1   --> A              
     e(  4 -  4) =    -22.14253  eV     1   --> A              
     e(  5 -  5) =    -20.89788  eV     1   --> A              
     e(  6 -  6) =    -20.23287  eV     1   --> A              
     e(  7 -  7) =    -19.82297  eV     1   --> A              
     e(  8 -  8) =    -19.29862  eV     1   --> A              
     e(  9 -  9) =    -19.22273  eV     1   --> A              
     e( 10 - 10) =    -18.99503  eV     1   --> A              
     e( 11 - 11) =    -18.63397  eV     1   --> A              
     e( 12 - 12) =    -18.28688  eV     1   --> A              
     e( 13 - 13) =    -18.08873  eV     1   --> A              
     e( 14 - 14) =    -17.14142  eV     1   --> A              
     e( 15 - 15) =    -16.85531  eV     1   --> A              
     e( 16 - 16) =    -16.81051  eV     1   --> A              
     e( 17 - 17) =    -16.25011  eV     1   --> A              
     e( 18 - 18) =    -15.79837  eV     1   --> A              
     e( 19 - 19) =    -15.67496  eV     1   --> A              
     e( 20 - 20) =    -15.39151  eV     1   --> A              
     e( 21 - 21) =    -15.25658  eV     1   --> A              
     e( 22 - 22) =    -15.10555  eV     1   --> A              
     e( 23 - 23) =    -14.95684  eV     1   --> A              
     e( 24 - 24) =    -14.85705  eV     1   --> A              
     e( 25 - 25) =    -14.27996  eV     1   --> A              
     e( 26 - 26) =    -14.18971  eV     1   --> A              
     e( 27 - 27) =    -13.83577  eV     1   --> A              
     e( 28 - 28) =    -13.57793  eV     1   --> A              
     e( 29 - 29) =    -13.35089  eV     1   --> A              
     e( 30 - 30) =    -13.17866  eV     1   --> A              
     e( 31 - 31) =    -13.06548  eV     1   --> A              
     e( 32 - 32) =    -12.99931  eV     1   --> A              
     e( 33 - 33) =    -12.89332  eV     1   --> A              
     e( 34 - 34) =    -12.59612  eV     1   --> A              
     e( 35 - 35) =    -12.46609  eV     1   --> A              
     e( 36 - 36) =    -12.27462  eV     1   --> A              
     e( 37 - 37) =    -11.93579  eV     1   --> A              
     e( 38 - 38) =    -11.73933  eV     1   --> A              
     e( 39 - 39) =    -11.46817  eV     1   --> A              
     e( 40 - 40) =    -11.20622  eV     1   --> A              
     e( 41 - 41) =    -11.14997  eV     1   --> A              
     e( 42 - 42) =    -10.90921  eV     1   --> A              
     e( 43 - 43) =    -10.87764  eV     1   --> A              
     e( 44 - 44) =    -10.64934  eV     1   --> A              
     e( 45 - 45) =    -10.45209  eV     1   --> A              
     e( 46 - 46) =    -10.27808  eV     1   --> A              
     e( 47 - 47) =     -9.86613  eV     1   --> A              
     e( 48 - 48) =     -9.71827  eV     1   --> A              
     e( 49 - 49) =     -9.27116  eV     1   --> A              
     e( 50 - 50) =     -9.22298  eV     1   --> A              
     e( 51 - 51) =     -9.13617  eV     1   --> A              
     e( 52 - 52) =     -8.89985  eV     1   --> A              
     e( 53 - 53) =     -8.62889  eV     1   --> A              
     e( 54 - 54) =     -8.39918  eV     1   --> A              
     e( 55 - 55) =     -8.20998  eV     1   --> A              
     e( 56 - 56) =     -8.08151  eV     1   --> A              
     e( 57 - 57) =     -7.33172  eV     1   --> A              
     e( 58 - 58) =     -7.15239  eV     1   --> A              
     e( 59 - 59) =     -6.96398  eV     1   --> A              
     e( 60 - 60) =     -6.80841  eV     1   --> A              
     e( 61 - 61) =     -6.42798  eV     1   --> A              
     e( 62 - 62) =     -6.29089  eV     1   --> A              
     e( 63 - 63) =     -5.99905  eV     1   --> A              
     e( 64 - 64) =     -5.79130  eV     1   --> A              
     e( 65 - 65) =     -5.70621  eV     1   --> A              
     e( 66 - 66) =     -5.57011  eV     1   --> A              
     e( 67 - 67) =     -5.43761  eV     1   --> A              
     e( 68 - 68) =     -5.30464  eV     1   --> A              
     e( 69 - 69) =     -5.17045  eV     1   --> A              
     e( 70 - 70) =     -5.09753  eV     1   --> A              
     e( 71 - 71) =     -5.00902  eV     1   --> A              
     e( 72 - 72) =     -4.91016  eV     1   --> A              
     e( 73 - 73) =     -4.85747  eV     1   --> A              
     e( 74 - 74) =     -4.81043  eV     1   --> A              
     e( 75 - 75) =     -4.53152  eV     1   --> A              
     e( 76 - 76) =     -4.38830  eV     1   --> A              
     e( 77 - 77) =     -4.21707  eV     1   --> A              
     e( 78 - 78) =     -4.02052  eV     1   --> A              
     e( 79 - 79) =     -3.75803  eV     1   --> A              
     e( 80 - 80) =     -3.52072  eV     1   --> A              
     e( 81 - 81) =     -3.45354  eV     1   --> A              
     e( 82 - 82) =     -3.35346  eV     1   --> A              
     e( 83 - 83) =     -3.30223  eV     1   --> A              
     e( 84 - 84) =     -3.13367  eV     1   --> A              
     e( 85 - 85) =     -3.07602  eV     1   --> A              
     e( 86 - 86) =     -2.99121  eV     1   --> A              
     e( 87 - 87) =     -2.86080  eV     1   --> A              
     e( 88 - 88) =     -2.75010  eV     1   --> A              
     e( 89 - 89) =     -2.28759  eV     1   --> A              
     e( 90 - 90) =     -2.18084  eV     1   --> A              
     e( 91 - 91) =     -1.73872  eV     1   --> A              
     e( 92 - 92) =     -1.60867  eV     1   --> A              
     e( 93 - 93) =     -1.49560  eV     1   --> A              
     e( 94 - 94) =     -1.09097  eV     1   --> A              
     e( 95 - 95) =     -0.93442  eV     1   --> A              
     e( 96 - 96) =     -0.44092  eV     1   --> A              
     e( 97 - 97) =     -0.19070  eV     1   --> A              
     e( 98 - 98) =      0.20783  eV     1   --> A              
     e( 99 - 99) =      0.51236  eV     1   --> A              
     e(100 -100) =      0.77988  eV     1   --> A              
     e(101 -101) =      1.05900  eV     1   --> A              
     e(102 -102) =      1.19463  eV     1   --> A              
     e(103 -103) =      1.27532  eV     1   --> A              
     e(104 -104) =      1.38725  eV     1   --> A              
     e(105 -105) =      1.81719  eV     1   --> A              
     e(106 -106) =      1.89471  eV     1   --> A              
     e(107 -107) =      2.09641  eV     1   --> A              
     e(108 -108) =      2.25625  eV     1   --> A              
     e(109 -109) =      2.59031  eV     1   --> A              
     e(110 -110) =      2.61727  eV     1   --> A              
     e(111 -111) =      2.74137  eV     1   --> A              
     e(112 -112) =      2.81340  eV     1   --> A              
     e(113 -113) =      3.08208  eV     1   --> A              
     e(114 -114) =      3.15489  eV     1   --> A              
     e(115 -115) =      3.19186  eV     1   --> A              

 **************************************************************************

 **************************************************************************

                    xk=(   0.07500,   0.09743,   0.00000  )

     Band symmetry, C_1 (1)     point group:

     e(  1 -  1) =    -36.04202  eV     1   --> A              
     e(  2 -  2) =    -34.88755  eV     1   --> A              
     e(  3 -  3) =    -34.27913  eV     1   --> A              
     e(  4 -  4) =    -22.14254  eV     1   --> A              
     e(  5 -  5) =    -20.89789  eV     1   --> A              
     e(  6 -  6) =    -20.23287  eV     1   --> A              
     e(  7 -  7) =    -19.82297  eV     1   --> A              
     e(  8 -  8) =    -19.29942  eV     1   --> A              
     e(  9 -  9) =    -19.21915  eV     1   --> A              
     e( 10 - 10) =    -19.00102  eV     1   --> A              
     e( 11 - 11) =    -18.62584  eV     1   --> A              
     e( 12 - 12) =    -18.29613  eV     1   --> A              
     e( 13 - 13) =    -18.08416  eV     1   --> A              
     e( 14 - 14) =    -17.14114  eV     1   --> A              
     e( 15 - 15) =    -16.85581  eV     1   --> A              
     e( 16 - 16) =    -16.81202  eV     1   --> A              
     e( 17 - 17) =    -16.24991  eV     1   --> A              
     e( 18 - 18) =    -15.79856  eV     1   --> A              
     e( 19 - 19) =    -15.67161  eV     1   --> A              
     e( 20 - 20) =    -15.39121  eV     1   --> A              
     e( 21 - 21) =    -15.25805  eV     1   --> A              
     e( 22 - 22) =    -15.10652  eV     1   --> A              
     e( 23 - 23) =    -14.95799  eV     1   --> A              
     e( 24 - 24) =    -14.85786  eV     1   --> A              
     e( 25 - 25) =    -14.28003  eV     1   --> A              
     e( 26 - 26) =    -14.19075  eV     1   --> A              
     e( 27 - 27) =    -13.83317  eV     1   --> A              
     e( 28 - 28) =    -13.57918  eV     1   --> A              
     e( 29 - 29) =    -13.34466  eV     1   --> A              
     e( 30 - 30) =    -13.17833  eV     1   --> A              
     e( 31 - 31) =    -13.06379  eV     1   --> A              
     e( 32 - 32) =    -13.00403  eV     1   --> A              
     e( 33 - 33) =    -12.88967  eV     1   --> A              
     e( 34 - 34) =    -12.59847  eV     1   --> A              
     e( 35 - 35) =    -12.46608  eV     1   --> A              
     e( 36 - 36) =    -12.27713  eV     1   --> A              
     e( 37 - 37) =    -11.93723  eV     1   --> A              
     e( 38 - 38) =    -11.73370  eV     1   --> A              
     e( 39 - 39) =    -11.47328  eV     1   --> A              
     e( 40 - 40) =    -11.20563  eV     1   --> A              
     e( 41 - 41) =    -11.13998  eV     1   --> A              
     e( 42 - 42) =    -10.91098  eV     1   --> A              
     e( 43 - 43) =    -10.87912  eV     1   --> A              
     e( 44 - 44) =    -10.64835  eV     1   --> A              
     e( 45 - 45) =    -10.45366  eV     1   --> A              
     e( 46 - 46) =    -10.27118  eV     1   --> A              
     e( 47 - 47) =     -9.86977  eV     1   --> A              
     e( 48 - 48) =     -9.73128  eV     1   --> A              
     e( 49 - 49) =     -9.28030  eV     1   --> A              
     e( 50 - 50) =     -9.22341  eV     1   --> A              
     e( 51 - 51) =     -9.14540  eV     1   --> A              
     e( 52 - 52) =     -8.90144  eV     1   --> A              
     e( 53 - 53) =     -8.61261  eV     1   --> A              
     e( 54 - 54) =     -8.39946  eV     1   --> A              
     e( 55 - 55) =     -8.19889  eV     1   --> A              
     e( 56 - 56) =     -8.08748  eV     1   --> A              
     e( 57 - 57) =     -7.33843  eV     1   --> A              
     e( 58 - 58) =     -7.15728  eV     1   --> A              
     e( 59 - 59) =     -6.96778  eV     1   --> A              
     e( 60 - 60) =     -6.79493  eV     1   --> A              
     e( 61 - 61) =     -6.42676  eV     1   --> A              
     e( 62 - 62) =     -6.28465  eV     1   --> A              
     e( 63 - 63) =     -5.99887  eV     1   --> A              
     e( 64 - 64) =     -5.78869  eV     1   --> A              
     e( 65 - 65) =     -5.71413  eV     1   --> A              
     e( 66 - 66) =     -5.57139  eV     1   --> A              
     e( 67 - 67) =     -5.43692  eV     1   --> A              
     e( 68 - 68) =     -5.30870  eV     1   --> A              
     e( 69 - 69) =     -5.16626  eV     1   --> A              
     e( 70 - 70) =     -5.09792  eV     1   --> A              
     e( 71 - 71) =     -5.00931  eV     1   --> A              
     e( 72 - 72) =     -4.90802  eV     1   --> A              
     e( 73 - 73) =     -4.85265  eV     1   --> A              
     e( 74 - 74) =     -4.80310  eV     1   --> A              
     e( 75 - 75) =     -4.52838  eV     1   --> A              
     e( 76 - 76) =     -4.38327  eV     1   --> A              
     e( 77 - 77) =     -4.21254  eV     1   --> A              
     e( 78 - 78) =     -4.02396  eV     1   --> A              
     e( 79 - 79) =     -3.77167  eV     1   --> A              
     e( 80 - 80) =     -3.52266  eV     1   --> A              
     e( 81 - 81) =     -3.45240  eV     1   --> A              
     e( 82 - 82) =     -3.35484  eV     1   --> A              
     e( 83 - 83) =     -3.30528  eV     1   --> A              
     e( 84 - 84) =     -3.13695  eV     1   --> A              
     e( 85 - 85) =     -3.07309  eV     1   --> A              
     e( 86 - 86) =     -2.98874  eV     1   --> A              
     e( 87 - 87) =     -2.86076  eV     1   --> A              
     e( 88 - 88) =     -2.74794  eV     1   --> A              
     e( 89 - 89) =     -2.28906  eV     1   --> A              
     e( 90 - 90) =     -2.18028  eV     1   --> A              
     e( 91 - 91) =     -1.73964  eV     1   --> A              
     e( 92 - 92) =     -1.61043  eV     1   --> A              
     e( 93 - 93) =     -1.49929  eV     1   --> A              
     e( 94 - 94) =     -1.08807  eV     1   --> A              
     e( 95 - 95) =     -0.93558  eV     1   --> A              
     e( 96 - 96) =     -0.44001  eV     1   --> A              
     e( 97 - 97) =     -0.19422  eV     1   --> A              
     e( 98 - 98) =      0.20890  eV     1   --> A              
     e( 99 - 99) =      0.50516  eV     1   --> A              
     e(100 -100) =      0.78730  eV     1   --> A              
     e(101 -101) =      1.05718  eV     1   --> A              
     e(102 -102) =      1.19078  eV     1   --> A              
     e(103 -103) =      1.27878  eV     1   --> A              
     e(104 -104) =      1.38541  eV     1   --> A              
     e(105 -105) =      1.82115  eV     1   --> A              
     e(106 -106) =      1.89633  eV     1   --> A              
     e(107 -107) =      2.08987  eV     1   --> A              
     e(108 -108) =      2.26305  eV     1   --> A              
     e(109 -109) =      2.58634  eV     1   --> A              
     e(110 -110) =      2.61446  eV     1   --> A              
     e(111 -111) =      2.73668  eV     1   --> A              
     e(112 -112) =      2.81095  eV     1   --> A              
     e(113 -113) =      3.08383  eV     1   --> A              
     e(114 -114) =      3.16289  eV     1   --> A              
     e(115 -115) =      3.20028  eV     1   --> A              

 **************************************************************************

 **************************************************************************

                    xk=(   0.08333,   0.10825,   0.00000  )

     Band symmetry, C_1 (1)     point group:

     e(  1 -  1) =    -36.04203  eV     1   --> A              
     e(  2 -  2) =    -34.88756  eV     1   --> A              
     e(  3 -  3) =    -34.27913  eV     1   --> A              
     e(  4 -  4) =    -22.14254  eV     1   --> A              
     e(  5 -  5) =    -20.89790  eV     1   --> A              
     e(  6 -  6) =    -20.23287  eV     1   --> A              
     e(  7 -  7) =    -19.82298  eV     1   --> A              
     e(  8 -  8) =    -19.30018  eV     1   --> A              
     e(  9 -  9) =    -19.21541  eV     1   --> A              
     e( 10 - 10) =    -19.00717  eV     1   --> A              
     e( 11 - 11) =    -18.61738  eV     1   --> A              
     e( 12 - 12) =    -18.30557  eV     1   --> A              
     e( 13 - 13) =    -18.07980  eV     1   --> A              
     e( 14 - 14) =    -17.14083  eV     1   --> A              
     e( 15 - 15) =    -16.85637  eV     1   --> A              
     e( 16 - 16) =    -16.81368  eV     1   --> A              
     e( 17 - 17) =    -16.24969  eV     1   --> A              
     e( 18 - 18) =    -15.79862  eV     1   --> A              
     e( 19 - 19) =    -15.66808  eV     1   --> A              
     e( 20 - 20) =    -15.39086  eV     1   --> A              
     e( 21 - 21) =    -15.25965  eV     1   --> A              
     e( 22 - 22) =    -15.10763  eV     1   --> A              
     e( 23 - 23) =    -14.95921  eV     1   --> A              
     e( 24 - 24) =    -14.85874  eV     1   --> A              
[...]
     e( 48 - 48) =     -9.65098  eV     1   --> A              
     e( 49 - 49) =     -9.25334  eV     1   --> A              
     e( 50 - 50) =     -9.21140  eV     1   --> A              
     e( 51 - 51) =     -9.10497  eV     1   --> A              
     e( 52 - 52) =     -8.84222  eV     1   --> A              
     e( 53 - 53) =     -8.74549  eV     1   --> A              
     e( 54 - 54) =     -8.39823  eV     1   --> A              
     e( 55 - 55) =     -8.25525  eV     1   --> A              
     e( 56 - 56) =     -8.04923  eV     1   --> A              
     e( 57 - 57) =     -7.30740  eV     1   --> A              
     e( 58 - 58) =     -7.12840  eV     1   --> A              
     e( 59 - 59) =     -6.95323  eV     1   --> A              
     e( 60 - 60) =     -6.86057  eV     1   --> A              
     e( 61 - 61) =     -6.43350  eV     1   --> A              
     e( 62 - 62) =     -6.31285  eV     1   --> A              
     e( 63 - 63) =     -5.99647  eV     1   --> A              
     e( 64 - 64) =     -5.81207  eV     1   --> A              
     e( 65 - 65) =     -5.67576  eV     1   --> A              
     e( 66 - 66) =     -5.57665  eV     1   --> A              
     e( 67 - 67) =     -5.43290  eV     1   --> A              
     e( 68 - 68) =     -5.26966  eV     1   --> A              
     e( 69 - 69) =     -5.19001  eV     1   --> A              
     e( 70 - 70) =     -5.09412  eV     1   --> A              
     e( 71 - 71) =     -5.00051  eV     1   --> A              
     e( 72 - 72) =     -4.93641  eV     1   --> A              
     e( 73 - 73) =     -4.87072  eV     1   --> A              
     e( 74 - 74) =     -4.83868  eV     1   --> A              
     e( 75 - 75) =     -4.54702  eV     1   --> A              
     e( 76 - 76) =     -4.40585  eV     1   --> A              
     e( 77 - 77) =     -4.23482  eV     1   --> A              
     e( 78 - 78) =     -4.01207  eV     1   --> A              
     e( 79 - 79) =     -3.69762  eV     1   --> A              
     e( 80 - 80) =     -3.51827  eV     1   --> A              
     e( 81 - 81) =     -3.45465  eV     1   --> A              
     e( 82 - 82) =     -3.34778  eV     1   --> A              
     e( 83 - 83) =     -3.28554  eV     1   --> A              
     e( 84 - 84) =     -3.12722  eV     1   --> A              
     e( 85 - 85) =     -3.10141  eV     1   --> A              
     e( 86 - 86) =     -2.99389  eV     1   --> A              
     e( 87 - 87) =     -2.85625  eV     1   --> A              
     e( 88 - 88) =     -2.75760  eV     1   --> A              
     e( 89 - 89) =     -2.28331  eV     1   --> A              
     e( 90 - 90) =     -2.18331  eV     1   --> A              
     e( 91 - 91) =     -1.73567  eV     1   --> A              
     e( 92 - 92) =     -1.59942  eV     1   --> A              
     e( 93 - 93) =     -1.48266  eV     1   --> A              
     e( 94 - 94) =     -1.10157  eV     1   --> A              
     e( 95 - 95) =     -0.93065  eV     1   --> A              
     e( 96 - 96) =     -0.44443  eV     1   --> A              
     e( 97 - 97) =     -0.17725  eV     1   --> A              
     e( 98 - 98) =      0.20445  eV     1   --> A              
     e( 99 - 99) =      0.54197  eV     1   --> A              
     e(100 -100) =      0.74826  eV     1   --> A              
     e(101 -101) =      1.06777  eV     1   --> A              
     e(102 -102) =      1.20379  eV     1   --> A              
     e(103 -103) =      1.26829  eV     1   --> A              
     e(104 -104) =      1.39126  eV     1   --> A              
     e(105 -105) =      1.80385  eV     1   --> A              
     e(106 -106) =      1.88722  eV     1   --> A              
     e(107 -107) =      2.12876  eV     1   --> A              
     e(108 -108) =      2.22465  eV     1   --> A              
     e(109 -109) =      2.60014  eV     1   --> A              
     e(110 -110) =      2.62856  eV     1   --> A              
     e(111 -111) =      2.76090  eV     1   --> A              
     e(112 -112) =      2.83106  eV     1   --> A              
     e(113 -113) =      3.05298  eV     1   --> A              
     e(114 -114) =      3.12243  eV     1   --> A              
     e(115 -115) =      3.19424  eV     1   --> A              

 **************************************************************************

 **************************************************************************

                    xk=(   0.00000,   0.02165,   0.00000  )

     Band symmetry, C_1 (1)     point group:

     e(  1 -  1) =    -36.04204  eV     1   --> A              
     e(  2 -  2) =    -34.88757  eV     1   --> A              
     e(  3 -  3) =    -34.27915  eV     1   --> A              
     e(  4 -  4) =    -22.14255  eV     1   --> A              
     e(  5 -  5) =    -20.89787  eV     1   --> A              
     e(  6 -  6) =    -20.23285  eV     1   --> A              
     e(  7 -  7) =    -19.82293  eV     1   --> A              
     e(  8 -  8) =    -19.29452  eV     1   --> A              
     e(  9 -  9) =    -19.23745  eV     1   --> A              
     e( 10 - 10) =    -18.96920  eV     1   --> A              
     e( 11 - 11) =    -18.66762  eV     1   --> A              
     e( 12 - 12) =    -18.24511  eV     1   --> A              
     e( 13 - 13) =    -18.11306  eV     1   --> A              
     e( 14 - 14) =    -17.14250  eV     1   --> A              
     e( 15 - 15) =    -16.85345  eV     1   --> A              
     e( 16 - 16) =    -16.80455  eV     1   --> A              
     e( 17 - 17) =    -16.25089  eV     1   --> A              
     e( 18 - 18) =    -15.79687  eV     1   --> A              
     e( 19 - 19) =    -15.68878  eV     1   --> A              
     e( 20 - 20) =    -15.39287  eV     1   --> A              
     e( 21 - 21) =    -15.25080  eV     1   --> A              
     e( 22 - 22) =    -15.10206  eV     1   --> A              
     e( 23 - 23) =    -14.95187  eV     1   --> A              
     e( 24 - 24) =    -14.85368  eV     1   --> A              
     e( 25 - 25) =    -14.28158  eV     1   --> A              
     e( 26 - 26) =    -14.18402  eV     1   --> A              
     e( 27 - 27) =    -13.84670  eV     1   --> A              
     e( 28 - 28) =    -13.57193  eV     1   --> A              
     e( 29 - 29) =    -13.37438  eV     1   --> A              
     e( 30 - 30) =    -13.18001  eV     1   --> A              
     e( 31 - 31) =    -13.07394  eV     1   --> A              
     e( 32 - 32) =    -12.97907  eV     1   --> A              
     e( 33 - 33) =    -12.90888  eV     1   --> A              
     e( 34 - 34) =    -12.58727  eV     1   --> A              
     e( 35 - 35) =    -12.46593  eV     1   --> A              
     e( 36 - 36) =    -12.26309  eV     1   --> A              
     e( 37 - 37) =    -11.93044  eV     1   --> A              
     e( 38 - 38) =    -11.76190  eV     1   --> A              
     e( 39 - 39) =    -11.43983  eV     1   --> A              
     e( 40 - 40) =    -11.22313  eV     1   --> A              
     e( 41 - 41) =    -11.18463  eV     1   --> A              
     e( 42 - 42) =    -10.90290  eV     1   --> A              
     e( 43 - 43) =    -10.86894  eV     1   --> A              
     e( 44 - 44) =    -10.65348  eV     1   --> A              
     e( 45 - 45) =    -10.44577  eV     1   --> A              
     e( 46 - 46) =    -10.30775  eV     1   --> A              
     e( 47 - 47) =     -9.85832  eV     1   --> A              
     e( 48 - 48) =     -9.65026  eV     1   --> A              
     e( 49 - 49) =     -9.25205  eV     1   --> A              
     e( 50 - 50) =     -9.21214  eV     1   --> A              
     e( 51 - 51) =     -9.10505  eV     1   --> A              
     e( 52 - 52) =     -8.84225  eV     1   --> A              
     e( 53 - 53) =     -8.74616  eV     1   --> A              
     e( 54 - 54) =     -8.39519  eV     1   --> A              
     e( 55 - 55) =     -8.25878  eV     1   --> A              
     e( 56 - 56) =     -8.04858  eV     1   --> A              
     e( 57 - 57) =     -7.30764  eV     1   --> A              
     e( 58 - 58) =     -7.12897  eV     1   --> A              
     e( 59 - 59) =     -6.95326  eV     1   --> A              
     e( 60 - 60) =     -6.86012  eV     1   --> A              
     e( 61 - 61) =     -6.43249  eV     1   --> A              
     e( 62 - 62) =     -6.31571  eV     1   --> A              
     e( 63 - 63) =     -5.99678  eV     1   --> A              
     e( 64 - 64) =     -5.81224  eV     1   --> A              
     e( 65 - 65) =     -5.66899  eV     1   --> A              
     e( 66 - 66) =     -5.57718  eV     1   --> A              
     e( 67 - 67) =     -5.43292  eV     1   --> A              
     e( 68 - 68) =     -5.26665  eV     1   --> A              
     e( 69 - 69) =     -5.19277  eV     1   --> A              
     e( 70 - 70) =     -5.09417  eV     1   --> A              
     e( 71 - 71) =     -4.99585  eV     1   --> A              
     e( 72 - 72) =     -4.94207  eV     1   --> A              
     e( 73 - 73) =     -4.87369  eV     1   --> A              
     e( 74 - 74) =     -4.83989  eV     1   --> A              
     e( 75 - 75) =     -4.54801  eV     1   --> A              
     e( 76 - 76) =     -4.40705  eV     1   --> A              
     e( 77 - 77) =     -4.23541  eV     1   --> A              
     e( 78 - 78) =     -4.01112  eV     1   --> A              
     e( 79 - 79) =     -3.69207  eV     1   --> A              
     e( 80 - 80) =     -3.51806  eV     1   --> A              
     e( 81 - 81) =     -3.45575  eV     1   --> A              
     e( 82 - 82) =     -3.34772  eV     1   --> A              
     e( 83 - 83) =     -3.28573  eV     1   --> A              
     e( 84 - 84) =     -3.12601  eV     1   --> A              
     e( 85 - 85) =     -3.10349  eV     1   --> A              
     e( 86 - 86) =     -2.99367  eV     1   --> A              
     e( 87 - 87) =     -2.85590  eV     1   --> A              
     e( 88 - 88) =     -2.75865  eV     1   --> A              
     e( 89 - 89) =     -2.28349  eV     1   --> A              
     e( 90 - 90) =     -2.18338  eV     1   --> A              
     e( 91 - 91) =     -1.73633  eV     1   --> A              
     e( 92 - 92) =     -1.59907  eV     1   --> A              
     e( 93 - 93) =     -1.48120  eV     1   --> A              
     e( 94 - 94) =     -1.10315  eV     1   --> A              
     e( 95 - 95) =     -0.93025  eV     1   --> A              
     e( 96 - 96) =     -0.44516  eV     1   --> A              
     e( 97 - 97) =     -0.17644  eV     1   --> A              
     e( 98 - 98) =      0.20402  eV     1   --> A              
     e( 99 - 99) =      0.54512  eV     1   --> A              
     e(100 -100) =      0.74460  eV     1   --> A              
     e(101 -101) =      1.06765  eV     1   --> A              
     e(102 -102) =      1.20491  eV     1   --> A              
     e(103 -103) =      1.26814  eV     1   --> A              
     e(104 -104) =      1.39180  eV     1   --> A              
     e(105 -105) =      1.80208  eV     1   --> A              
     e(106 -106) =      1.88691  eV     1   --> A              
     e(107 -107) =      2.13243  eV     1   --> A              
     e(108 -108) =      2.22098  eV     1   --> A              
     e(109 -109) =      2.60309  eV     1   --> A              
     e(110 -110) =      2.62897  eV     1   --> A              
     e(111 -111) =      2.76099  eV     1   --> A              
     e(112 -112) =      2.83320  eV     1   --> A              
     e(113 -113) =      3.04779  eV     1   --> A              
     e(114 -114) =      3.12046  eV     1   --> A              
     e(115 -115) =      3.19662  eV     1   --> A              

 **************************************************************************

 **************************************************************************

                    xk=(   0.00000,   0.01083,   0.00000  )

     Band symmetry, C_1 (1)     point group:

     e(  1 -  1) =    -36.04204  eV     1   --> A              
     e(  2 -  2) =    -34.88757  eV     1   --> A              
     e(  3 -  3) =    -34.27915  eV     1   --> A              
     e(  4 -  4) =    -22.14255  eV     1   --> A              
     e(  5 -  5) =    -20.89787  eV     1   --> A              
     e(  6 -  6) =    -20.23286  eV     1   --> A              
     e(  7 -  7) =    -19.82291  eV     1   --> A              
     e(  8 -  8) =    -19.29423  eV     1   --> A              
     e(  9 -  9) =    -19.23830  eV     1   --> A              
     e( 10 - 10) =    -18.96766  eV     1   --> A              
     e( 11 - 11) =    -18.66954  eV     1   --> A              
     e( 12 - 12) =    -18.24241  eV     1   --> A              
     e( 13 - 13) =    -18.11486  eV     1   --> A              
     e( 14 - 14) =    -17.14249  eV     1   --> A              
     e( 15 - 15) =    -16.85345  eV     1   --> A              
     e( 16 - 16) =    -16.80455  eV     1   --> A              
     e( 17 - 17) =    -16.25089  eV     1   --> A              
     e( 18 - 18) =    -15.79640  eV     1   --> A              
     e( 19 - 19) =    -15.68945  eV     1   --> A              
     e( 20 - 20) =    -15.39263  eV     1   --> A              
     e( 21 - 21) =    -15.25083  eV     1   --> A              
     e( 22 - 22) =    -15.10197  eV     1   --> A              
     e( 23 - 23) =    -14.95187  eV     1   --> A              
     e( 24 - 24) =    -14.85380  eV     1   --> A              
     e( 25 - 25) =    -14.28163  eV     1   --> A              
     e( 26 - 26) =    -14.18387  eV     1   --> A              
     e( 27 - 27) =    -13.84676  eV     1   --> A              
     e( 28 - 28) =    -13.57190  eV     1   --> A              
     e( 29 - 29) =    -13.37444  eV     1   --> A              
     e( 30 - 30) =    -13.17997  eV     1   --> A              
     e( 31 - 31) =    -13.07421  eV     1   --> A              
     e( 32 - 32) =    -12.97910  eV     1   --> A              
     e( 33 - 33) =    -12.90859  eV     1   --> A              
     e( 34 - 34) =    -12.58716  eV     1   --> A              
     e( 35 - 35) =    -12.46619  eV     1   --> A              
     e( 36 - 36) =    -12.26286  eV     1   --> A              
     e( 37 - 37) =    -11.93057  eV     1   --> A              
     e( 38 - 38) =    -11.76189  eV     1   --> A              
     e( 39 - 39) =    -11.43814  eV     1   --> A              
     e( 40 - 40) =    -11.22494  eV     1   --> A              
     e( 41 - 41) =    -11.18522  eV     1   --> A              
     e( 42 - 42) =    -10.90253  eV     1   --> A              
     e( 43 - 43) =    -10.86931  eV     1   --> A              
     e( 44 - 44) =    -10.65253  eV     1   --> A              
     e( 45 - 45) =    -10.44520  eV     1   --> A              
     e( 46 - 46) =    -10.30870  eV     1   --> A              
     e( 47 - 47) =     -9.85855  eV     1   --> A              
     e( 48 - 48) =     -9.64982  eV     1   --> A              
     e( 49 - 49) =     -9.25122  eV     1   --> A              
     e( 50 - 50) =     -9.21262  eV     1   --> A              
     e( 51 - 51) =     -9.10509  eV     1   --> A              
     e( 52 - 52) =     -8.84226  eV     1   --> A              
     e( 53 - 53) =     -8.74656  eV     1   --> A              
     e( 54 - 54) =     -8.39325  eV     1   --> A              
     e( 55 - 55) =     -8.26101  eV     1   --> A              
     e( 56 - 56) =     -8.04818  eV     1   --> A              
     e( 57 - 57) =     -7.30779  eV     1   --> A              
     e( 58 - 58) =     -7.12929  eV     1   --> A              
     e( 59 - 59) =     -6.95327  eV     1   --> A              
     e( 60 - 60) =     -6.85984  eV     1   --> A              
     e( 61 - 61) =     -6.43184  eV     1   --> A              
     e( 62 - 62) =     -6.31745  eV     1   --> A              
     e( 63 - 63) =     -5.99696  eV     1   --> A              
     e( 64 - 64) =     -5.81235  eV     1   --> A              
     e( 65 - 65) =     -5.66460  eV     1   --> A              
     e( 66 - 66) =     -5.57782  eV     1   --> A              
     e( 67 - 67) =     -5.43284  eV     1   --> A              
     e( 68 - 68) =     -5.26473  eV     1   --> A              
     e( 69 - 69) =     -5.19454  eV     1   --> A              
     e( 70 - 70) =     -5.09423  eV     1   --> A              
     e( 71 - 71) =     -4.99216  eV     1   --> A              
     e( 72 - 72) =     -4.94651  eV     1   --> A              
     e( 73 - 73) =     -4.87536  eV     1   --> A              
     e( 74 - 74) =     -4.84062  eV     1   --> A              
     e( 75 - 75) =     -4.54858  eV     1   --> A              
     e( 76 - 76) =     -4.40777  eV     1   --> A              
     e( 77 - 77) =     -4.23577  eV     1   --> A              
     e( 78 - 78) =     -4.01056  eV     1   --> A              
     e( 79 - 79) =     -3.68863  eV     1   --> A              
     e( 80 - 80) =     -3.51791  eV     1   --> A              
     e( 81 - 81) =     -3.45648  eV     1   --> A              
     e( 82 - 82) =     -3.34771  eV     1   --> A              
     e( 83 - 83) =     -3.28584  eV     1   --> A              
     e( 84 - 84) =     -3.12519  eV     1   --> A              
     e( 85 - 85) =     -3.10485  eV     1   --> A              
     e( 86 - 86) =     -2.99351  eV     1   --> A              
     e( 87 - 87) =     -2.85567  eV     1   --> A              
     e( 88 - 88) =     -2.75929  eV     1   --> A              
     e( 89 - 89) =     -2.28357  eV     1   --> A              
     e( 90 - 90) =     -2.18342  eV     1   --> A              
     e( 91 - 91) =     -1.73672  eV     1   --> A              
     e( 92 - 92) =     -1.59885  eV     1   --> A              
     e( 93 - 93) =     -1.48031  eV     1   --> A              
     e( 94 - 94) =     -1.10413  eV     1   --> A              
     e( 95 - 95) =     -0.93001  eV     1   --> A              
     e( 96 - 96) =     -0.44559  eV     1   --> A              
     e( 97 - 97) =     -0.17613  eV     1   --> A              
     e( 98 - 98) =      0.20375  eV     1   --> A              
     e( 99 - 99) =      0.54709  eV     1   --> A              
     e(100 -100) =      0.74232  eV     1   --> A              
     e(101 -101) =      1.06759  eV     1   --> A              
     e(102 -102) =      1.20557  eV     1   --> A              
     e(103 -103) =      1.26810  eV     1   --> A              
     e(104 -104) =      1.39212  eV     1   --> A              
     e(105 -105) =      1.80101  eV     1   --> A              
     e(106 -106) =      1.88671  eV     1   --> A              
     e(107 -107) =      2.13481  eV     1   --> A              
     e(108 -108) =      2.21860  eV     1   --> A              
     e(109 -109) =      2.60498  eV     1   --> A              
     e(110 -110) =      2.62914  eV     1   --> A              
     e(111 -111) =      2.76098  eV     1   --> A              
     e(112 -112) =      2.83459  eV     1   --> A              
     e(113 -113) =      3.04447  eV     1   --> A              
     e(114 -114) =      3.11924  eV     1   --> A              
     e(115 -115) =      3.19751  eV     1   --> A              

 **************************************************************************
 
     BANDS        :  1m39.56s CPU     4m38.05s WALL

 
   This run was terminated on:  18:22:52  11Apr2017            

=------------------------------------------------------------------------------=
   JOB DONE.
=------------------------------------------------------------------------------=
