
     Program PWSCF v.5.4.0 starts on 19Apr2017 at 17:53:37 

     This program is part of the open-source Quantum ESPRESSO suite
     for quantum simulation of materials; please cite
         "P. Giannozzi et al., J. Phys.:Condens. Matter 21 395502 (2009);
          URL http://www.quantum-espresso.org", 
     in publications or presentations arising from this work. More details at
     http://www.quantum-espresso.org/quote

     Parallel version (MPI & OpenMP), running on      56 processor cores
     Number of MPI processes:                56
     Threads/MPI process:                     1
     R & G space division:  proc/nbgrp/npool/nimage =      56
     Waiting for input...
     Reading input from standard input
Warning: card &IONS ignored
Warning: card / ignored

     Current dimensions of program PWSCF are:
     Max number of different atomic species (ntypx) = 10
     Max number of k-points (npk) =  40000
     Max angular momentum in pseudopotentials (lmaxx) =  3

     -------------------------------------
     Parameters for Dispersion Correction:
     -------------------------------------
       atom      VdW radius       C_6     

        C          2.744         60.710

     Subspace diagonalization in iterative solution of the eigenvalue problem:
     one sub-group per band group will be used
     scalapack distributed-memory algorithm (size of sub-group:  5*  5 procs)

 
     Parallelization info
     --------------------
     sticks:   dense  smooth     PW     G-vecs:    dense   smooth      PW
     Min         204     204     54                14646    14646    1986
     Max         205     205     55                14650    14650    1989
     Sum       11433   11433   3039               820307   820307  111297
 


     bravais-lattice index     =            0
     lattice parameter (alat)  =      13.9425  a.u.
     unit-cell volume          =    8483.6351 (a.u.)^3
     number of atoms/cell      =           48
     number of atomic types    =            1
     number of electrons       =       192.00
     number of Kohn-Sham states=          115
     kinetic-energy cutoff     =      80.0000  Ry
     charge density cutoff     =     320.0000  Ry
     convergence threshold     =      1.0E-10
     mixing beta               =       0.7000
     number of iterations used =            8  local-TF  mixing
     Exchange-correlation      =  SLA  PW   PBX  PBC ( 1  4  3  4 0 0)

     celldm(1)=  13.942539  celldm(2)=   0.000000  celldm(3)=   0.000000
     celldm(4)=   0.000000  celldm(5)=   0.000000  celldm(6)=   0.000000

     crystal axes: (cart. coord. in units of alat)
               a(1) = (   1.000000   0.000000   0.000000 )  
               a(2) = (   0.000000   2.309401   0.000000 )  
               a(3) = (   0.000000   0.000000   1.355367 )  

     reciprocal axes: (cart. coord. in units 2 pi/alat)
               b(1) = (  1.000000  0.000000  0.000000 )  
               b(2) = (  0.000000  0.433013  0.000000 )  
               b(3) = (  0.000000  0.000000  0.737807 )  


     PseudoPot. # 1 for C  read from file:
     /home/549/hxw549/Short/pseudopotentials/C.pbe-mt_gipaw.UPF
     MD5 check sum: 5ac2f21f2c440b14befe521540822c15
     Pseudo is Norm-conserving, Zval =  4.0
     Generated by new atomic code, or converted to UPF format
     Using radial grid of 1073 points,  1 beta functions with: 
                l(1) =   0

     atomic species   valence    mass     pseudopotential
        C              4.00    12.01070     C ( 1.00)

      2 Sym. Ops. (no inversion) found


                                    s                        frac. trans.

      isym =  1     identity                                     

 cryst.   s( 1) = (     1          0          0      )
                  (     0          1          0      )
                  (     0          0          1      )

 cart.    s( 1) = (  1.0000000  0.0000000  0.0000000 )
                  (  0.0000000  1.0000000  0.0000000 )
                  (  0.0000000  0.0000000  1.0000000 )


      isym =  2     inv. 180 deg rotation - cart. axis [1,0,0]   

 cryst.   s( 2) = (    -1          0          0      )
                  (     0          1          0      )
                  (     0          0          1      )

 cart.    s( 2) = ( -1.0000000  0.0000000  0.0000000 )
                  (  0.0000000  1.0000000  0.0000000 )
                  (  0.0000000  0.0000000  1.0000000 )


   Cartesian axes

     site n.     atom                  positions (alat units)
         1           C   tau(   1) = (   0.0000000   0.0962962   0.6811249  )
         2           C   tau(   2) = (   0.0000000   0.2886925   0.6823081  )
         3           C   tau(   3) = (   0.1666323   0.0000435   0.6800813  )
         4           C   tau(   4) = (   0.1664900   0.3848966   0.6809121  )
         5           C   tau(   5) = (   0.3331238   0.0962174   0.6782529  )
         6           C   tau(   6) = (   0.3331280   0.2886629   0.6779195  )
         7           C   tau(   7) = (   0.5000000  -0.0000818   0.6768054  )
         8           C   tau(   8) = (   0.5000000   0.3849277   0.6764760  )
         9           C   tau(   9) = (   0.6668762   0.0962174   0.6782529  )
        10           C   tau(  10) = (   0.6668720   0.2886629   0.6779195  )
        11           C   tau(  11) = (   0.8333677   0.0000435   0.6800813  )
        12           C   tau(  12) = (   0.8335100   0.3848966   0.6809121  )
        13           C   tau(  13) = (   0.0000000   0.6735163   0.6814882  )
        14           C   tau(  14) = (   0.0000000   0.8659398   0.6793331  )
        15           C   tau(  15) = (   0.1664759   0.5773226   0.6805218  )
        16           C   tau(  16) = (   0.1667428   0.9622141   0.6792640  )
        17           C   tau(  17) = (   0.3332094   0.6735984   0.6780415  )
        18           C   tau(  18) = (   0.3332031   0.8660537   0.6788520  )
        19           C   tau(  19) = (   0.5000000   0.5773685   0.6770832  )
        20           C   tau(  20) = (   0.5000000   0.9623380   0.6783193  )
        21           C   tau(  21) = (   0.6667906   0.6735984   0.6780415  )
        22           C   tau(  22) = (   0.6667969   0.8660537   0.6788520  )
        23           C   tau(  23) = (   0.8335241   0.5773226   0.6805218  )
        24           C   tau(  24) = (   0.8332572   0.9622141   0.6792640  )
        25           C   tau(  25) = (   0.0000000   1.2508867   0.6775061  )
        26           C   tau(  26) = (   0.0000000   1.4433300   0.6763242  )
        27           C   tau(  27) = (   0.1667360   1.1546708   0.6782068  )
        28           C   tau(  28) = (   0.1668939   1.5396104   0.6779547  )
        29           C   tau(  29) = (   0.3335095   1.2509657   0.6801328  )
        30           C   tau(  30) = (   0.3334866   1.4433958   0.6808972  )
        31           C   tau(  31) = (   0.5000000   1.1547731   0.6807888  )
        32           C   tau(  32) = (   0.5000000   1.5396099   0.6823800  )
        33           C   tau(  33) = (   0.6664905   1.2509657   0.6801328  )
        34           C   tau(  34) = (   0.6665134   1.4433958   0.6808972  )
        35           C   tau(  35) = (   0.8332640   1.1546708   0.6782068  )
        36           C   tau(  36) = (   0.8331061   1.5396104   0.6779547  )
        37           C   tau(  37) = (   0.0000000   1.8283510   0.6764394  )
        38           C   tau(  38) = (   0.0000000   2.0207949   0.6785768  )
        39           C   tau(  39) = (   0.1668959   1.7320513   0.6781079  )
        40           C   tau(  40) = (   0.1666186   2.1169980   0.6787706  )
        41           C   tau(  41) = (   0.3334155   1.8282368   0.6804527  )
        42           C   tau(  42) = (   0.3334352   2.0206763   0.6791935  )
        43           C   tau(  43) = (   0.5000000   1.7319961   0.6817768  )
        44           C   tau(  44) = (   0.5000000   2.1168754   0.6792572  )
        45           C   tau(  45) = (   0.6665845   1.8282368   0.6804527  )
        46           C   tau(  46) = (   0.6665648   2.0206763   0.6791935  )
        47           C   tau(  47) = (   0.8331041   1.7320513   0.6781079  )
        48           C   tau(  48) = (   0.8333814   2.1169980   0.6787706  )

   Crystallographic axes

     site n.     atom                  positions (cryst. coord.)
         1           C   tau(   1) = (  0.0000000  0.0416975  0.5025390  )
         2           C   tau(   2) = (  0.0000000  0.1250075  0.5034120  )
         3           C   tau(   3) = (  0.1666323  0.0000188  0.5017690  )
         4           C   tau(   4) = (  0.1664900  0.1666651  0.5023820  )
         5           C   tau(   5) = (  0.3331238  0.0416634  0.5004200  )
         6           C   tau(   6) = (  0.3331280  0.1249947  0.5001740  )
         7           C   tau(   7) = (  0.5000000 -0.0000354  0.4993520  )
         8           C   tau(   8) = (  0.5000000  0.1666786  0.4991090  )
         9           C   tau(   9) = (  0.6668762  0.0416634  0.5004200  )
        10           C   tau(  10) = (  0.6668720  0.1249947  0.5001740  )
        11           C   tau(  11) = (  0.8333677  0.0000188  0.5017690  )
        12           C   tau(  12) = (  0.8335100  0.1666651  0.5023820  )
        13           C   tau(  13) = (  0.0000000  0.2916411  0.5028070  )
        14           C   tau(  14) = (  0.0000000  0.3749629  0.5012170  )
        15           C   tau(  15) = (  0.1664759  0.2499880  0.5020940  )
        16           C   tau(  16) = (  0.1667428  0.4166509  0.5011660  )
        17           C   tau(  17) = (  0.3332094  0.2916767  0.5002640  )
        18           C   tau(  18) = (  0.3332031  0.3750123  0.5008620  )
        19           C   tau(  19) = (  0.5000000  0.2500079  0.4995570  )
        20           C   tau(  20) = (  0.5000000  0.4167046  0.5004690  )
        21           C   tau(  21) = (  0.6667906  0.2916767  0.5002640  )
        22           C   tau(  22) = (  0.6667969  0.3750123  0.5008620  )
        23           C   tau(  23) = (  0.8335241  0.2499880  0.5020940  )
        24           C   tau(  24) = (  0.8332572  0.4166509  0.5011660  )
        25           C   tau(  25) = (  0.0000000  0.5416498  0.4998690  )
        26           C   tau(  26) = (  0.0000000  0.6249802  0.4989970  )
        27           C   tau(  27) = (  0.1667360  0.4999871  0.5003860  )
        28           C   tau(  28) = (  0.1668939  0.6666708  0.5002000  )
        29           C   tau(  29) = (  0.3335095  0.5416841  0.5018070  )
        30           C   tau(  30) = (  0.3334866  0.6250087  0.5023710  )
        31           C   tau(  31) = (  0.5000000  0.5000314  0.5022910  )
        32           C   tau(  32) = (  0.5000000  0.6666706  0.5034650  )
        33           C   tau(  33) = (  0.6664905  0.5416841  0.5018070  )
        34           C   tau(  34) = (  0.6665134  0.6250087  0.5023710  )
        35           C   tau(  35) = (  0.8332640  0.4999871  0.5003860  )
        36           C   tau(  36) = (  0.8331061  0.6666708  0.5002000  )
        37           C   tau(  37) = (  0.0000000  0.7916992  0.4990820  )
        38           C   tau(  38) = (  0.0000000  0.8750298  0.5006590  )
        39           C   tau(  39) = (  0.1668959  0.7500002  0.5003130  )
        40           C   tau(  40) = (  0.1666186  0.9166870  0.5008020  )
        41           C   tau(  41) = (  0.3334155  0.7916498  0.5020430  )
        42           C   tau(  42) = (  0.3334352  0.8749785  0.5011140  )
        43           C   tau(  43) = (  0.5000000  0.7499763  0.5030200  )
        44           C   tau(  44) = (  0.5000000  0.9166339  0.5011610  )
        45           C   tau(  45) = (  0.6665845  0.7916498  0.5020430  )
        46           C   tau(  46) = (  0.6665648  0.8749785  0.5011140  )
        47           C   tau(  47) = (  0.8331041  0.7500002  0.5003130  )
        48           C   tau(  48) = (  0.8333814  0.9166870  0.5008020  )

     number of k points=     6  gaussian smearing, width (Ry)=  0.1000
                       cart. coord. in units 2pi/alat
        k(    1) = (   0.0000000   0.0000000   0.0000000), wk =   0.2500000
        k(    2) = (   0.0000000  -0.2165064   0.0000000), wk =   0.2500000
        k(    3) = (   0.2500000   0.0000000   0.0000000), wk =   0.5000000
        k(    4) = (   0.2500000  -0.2165064   0.0000000), wk =   0.5000000
        k(    5) = (  -0.5000000   0.0000000   0.0000000), wk =   0.2500000
        k(    6) = (  -0.5000000  -0.2165064   0.0000000), wk =   0.2500000

                       cryst. coord.
        k(    1) = (   0.0000000   0.0000000   0.0000000), wk =   0.2500000
        k(    2) = (   0.0000000  -0.5000000   0.0000000), wk =   0.2500000
        k(    3) = (   0.2500000   0.0000000   0.0000000), wk =   0.5000000
        k(    4) = (   0.2500000  -0.5000000   0.0000000), wk =   0.5000000
        k(    5) = (  -0.5000000   0.0000000   0.0000000), wk =   0.2500000
        k(    6) = (  -0.5000000  -0.5000000   0.0000000), wk =   0.2500000

     Dense  grid:   820307 G-vectors     FFT dimensions: (  80, 192, 108)

     Largest allocated arrays     est. size (Mb)     dimensions
        Kohn-Sham Wavefunctions         3.24 Mb     (    1845,  115)
        NL pseudopotentials             1.35 Mb     (    1845,   48)
        Each V/rho on FFT grid          0.47 Mb     (   30720)
        Each G-vector array             0.11 Mb     (   14650)
        G-vector shells                 0.06 Mb     (    7248)
     Largest temporary arrays     est. size (Mb)     dimensions
        Auxiliary wavefunctions        12.95 Mb     (    1845,  460)
        Each subspace H/S matrix        0.13 Mb     (      92,   92)
        Each <psi_i|beta_j> matrix      0.08 Mb     (      48,  115)
        Arrays for rho mixing           3.75 Mb     (   30720,    8)

     Initial potential from superposition of free atoms

     starting charge  167.99994, renormalised to  192.00000

     negative rho (up, down):  2.497E-06 0.000E+00
     Starting wfc are  384 randomized atomic wfcs

     total cpu time spent up to now is        6.1 secs

     Self-consistent Calculation

     iteration #  1     ecut=    80.00 Ry     beta=0.70
     Davidson diagonalization with overlap
     ethr =  1.00E-04,  avg # of iterations =  6.3

     total cpu time spent up to now is       18.1 secs

     total energy              =    -547.77030257 Ry
     Harris-Foulkes estimate   =    -547.99751598 Ry
     estimated scf accuracy    <       1.17345575 Ry

     iteration #  2     ecut=    80.00 Ry     beta=0.70
     Davidson diagonalization with overlap
     ethr =  6.11E-04,  avg # of iterations =  1.0

     total cpu time spent up to now is       21.6 secs

     total energy              =    -547.70576443 Ry
     Harris-Foulkes estimate   =    -547.79602659 Ry
     estimated scf accuracy    <       0.25463249 Ry

     iteration #  3     ecut=    80.00 Ry     beta=0.70
     Davidson diagonalization with overlap
     ethr =  1.33E-04,  avg # of iterations =  2.0

     total cpu time spent up to now is       25.7 secs

     total energy              =    -547.72773232 Ry
     Harris-Foulkes estimate   =    -547.72937462 Ry
     estimated scf accuracy    <       0.00572295 Ry

     iteration #  4     ecut=    80.00 Ry     beta=0.70
     Davidson diagonalization with overlap
     ethr =  2.98E-06,  avg # of iterations =  8.2

     total cpu time spent up to now is       33.0 secs

     total energy              =    -547.72784349 Ry
     Harris-Foulkes estimate   =    -547.72851061 Ry
     estimated scf accuracy    <       0.00158481 Ry

     iteration #  5     ecut=    80.00 Ry     beta=0.70
     Davidson diagonalization with overlap
     ethr =  8.25E-07,  avg # of iterations =  2.0

     total cpu time spent up to now is       37.1 secs

     total energy              =    -547.72843328 Ry
     Harris-Foulkes estimate   =    -547.72795532 Ry
     estimated scf accuracy    <       0.00044060 Ry

     iteration #  6     ecut=    80.00 Ry     beta=0.70
     Davidson diagonalization with overlap
     ethr =  2.29E-07,  avg # of iterations =  3.0

     total cpu time spent up to now is       41.9 secs

     total energy              =    -547.72862442 Ry
     Harris-Foulkes estimate   =    -547.72848046 Ry
     estimated scf accuracy    <       0.00003009 Ry

     iteration #  7     ecut=    80.00 Ry     beta=0.70
     Davidson diagonalization with overlap
     ethr =  1.57E-08,  avg # of iterations =  3.0

     total cpu time spent up to now is       50.6 secs

     total energy              =    -547.72865555 Ry
     Harris-Foulkes estimate   =    -547.72862787 Ry
     estimated scf accuracy    <       0.00000360 Ry

     iteration #  8     ecut=    80.00 Ry     beta=0.70
     Davidson diagonalization with overlap
     ethr =  1.87E-09,  avg # of iterations =  3.3

     total cpu time spent up to now is       58.8 secs

     total energy              =    -547.72865612 Ry
     Harris-Foulkes estimate   =    -547.72865632 Ry
     estimated scf accuracy    <       0.00000006 Ry

     iteration #  9     ecut=    80.00 Ry     beta=0.70
     Davidson diagonalization with overlap
     ethr =  2.92E-11,  avg # of iterations =  4.0

     total cpu time spent up to now is       66.0 secs

     total energy              =    -547.72865615 Ry
     Harris-Foulkes estimate   =    -547.72865616 Ry
     estimated scf accuracy    <          3.8E-09 Ry

     iteration # 10     ecut=    80.00 Ry     beta=0.70
     Davidson diagonalization with overlap
     ethr =  1.96E-12,  avg # of iterations =  3.0

     total cpu time spent up to now is       70.9 secs

     total energy              =    -547.72865616 Ry
     Harris-Foulkes estimate   =    -547.72865615 Ry
     estimated scf accuracy    <          2.4E-10 Ry

     iteration # 11     ecut=    80.00 Ry     beta=0.70
     Davidson diagonalization with overlap
     ethr =  1.26E-13,  avg # of iterations =  3.7

     total cpu time spent up to now is       76.1 secs

     End of self-consistent calculation

          k = 0.0000 0.0000 0.0000 (102525 PWs)   bands (ev):

   -19.9568 -19.5854 -19.5850 -18.4806 -18.4806 -17.9967 -17.9950 -17.6349
   -17.6343 -17.6331 -17.6328 -16.6835 -16.6827 -16.5670 -16.5669 -16.5650
   -16.5649 -14.8753 -14.8747 -14.8741 -14.8734 -14.6655 -13.6733 -12.9914
   -12.9907 -12.9903 -12.9886 -12.1139 -12.1129 -12.1128 -12.1121 -11.1240
   -11.1229 -11.0492 -11.0491 -11.0482 -11.0482 -11.0346 -11.0339  -9.4937
    -9.4931  -9.4923  -9.4914  -9.3327  -9.3322  -9.3318  -9.3310  -8.1860
    -8.1840  -8.0852  -7.8547  -7.8547  -7.6440  -7.6435  -7.0453  -7.0452
    -7.0448  -7.0447  -6.8979  -6.8825  -6.8818  -6.5346  -6.5334  -6.3496
    -6.3495  -6.2284  -6.2279  -6.2276  -6.2273  -5.7872  -5.7858  -5.5226
    -5.5226  -5.3857  -5.3853  -5.3842  -5.3838  -4.8711  -4.8706  -4.3620
    -4.3614  -4.2271  -4.2263  -4.2224  -4.2223  -4.2066  -4.2061  -3.5055
    -3.5037  -2.8040  -2.4613  -2.4611  -2.4611  -2.4599  -0.4344  -0.4322
    -0.4312  -0.4301   1.2604   1.4905   1.4929   1.4934   1.4942   2.6761
     3.1801   3.1802   3.3089   3.3090   3.3115   3.3116   3.3787   3.3800
     4.2541   4.6949   4.6949

     occupation numbers 
     1.0000   1.0000   1.0000   1.0000   1.0000   1.0000   1.0000   1.0000
     1.0000   1.0000   1.0000   1.0000   1.0000   1.0000   1.0000   1.0000
     1.0000   1.0000   1.0000   1.0000   1.0000   1.0000   1.0000   1.0000
     1.0000   1.0000   1.0000   1.0000   1.0000   1.0000   1.0000   1.0000
     1.0000   1.0000   1.0000   1.0000   1.0000   1.0000   1.0000   1.0000
     1.0000   1.0000   1.0000   1.0000   1.0000   1.0000   1.0000   1.0000
     1.0000   1.0000   1.0000   1.0000   1.0000   1.0000   1.0000   1.0000
     1.0000   1.0000   1.0000   1.0000   1.0000   1.0000   1.0000   1.0000
     1.0000   1.0000   1.0000   1.0000   1.0000   1.0000   1.0000   1.0000
     1.0000   1.0000   1.0000   1.0000   1.0000   1.0000   1.0000   1.0000
     1.0000   0.9999   0.9999   0.9999   0.9999   0.9999   0.9999   0.9991
     0.9991   0.9916   0.9790   0.9790   0.9790   0.9789   0.4706   0.4696
     0.4693   0.4688   0.0332   0.0190   0.0189   0.0189   0.0188   0.0005
     0.0001   0.0001   0.0000   0.0000   0.0000   0.0000   0.0000   0.0000
     0.0000   0.0000   0.0000

          k = 0.0000-0.2165 0.0000 (102536 PWs)   bands (ev):

   -19.8638 -19.8637 -19.1230 -19.1230 -17.9059 -17.9058 -17.9043 -17.9042
   -17.6639 -17.6637 -17.1903 -17.1886 -17.1820 -17.1802 -15.7907 -15.7896
   -15.7871 -15.7856 -15.5661 -15.5659 -13.8824 -13.8822 -13.8811 -13.8809
   -12.6379 -12.6378 -12.4792 -12.4790 -12.4786 -12.4785 -11.6514 -11.6505
   -11.6503 -11.6493 -10.4749 -10.4749 -10.4740 -10.4739 -10.3234 -10.3222
   -10.3133 -10.3116  -9.5040  -9.5039  -8.6645  -8.6642  -8.6627  -8.6625
    -8.1097  -8.1089  -8.1046  -8.1038  -7.9745  -7.9744  -7.0983  -7.0983
    -6.8059  -6.8058  -6.5526  -6.5525  -6.5520  -6.5516  -6.3729  -6.3727
    -6.3642  -6.3640  -6.2649  -6.2647  -6.0968  -6.0966  -5.6862  -5.6861
    -5.6846  -5.6845  -5.4198  -5.4196  -4.8965  -4.8950  -4.8900  -4.8886
    -4.8636  -4.8633  -3.8749  -3.8746  -3.7007  -3.7004  -3.4042  -3.4039
    -3.3983  -3.3977  -3.3269  -3.3266  -1.4526  -1.4525  -1.4524  -1.4523
     0.5536   0.5537   0.5549   0.5551   1.9275   1.9278   2.3980   2.4012
     2.4049   2.4075   2.8023   2.8024   3.8128   3.8129   4.2055   4.2093
     4.2126   4.2166   4.3794

     occupation numbers 
     1.0000   1.0000   1.0000   1.0000   1.0000   1.0000   1.0000   1.0000
     1.0000   1.0000   1.0000   1.0000   1.0000   1.0000   1.0000   1.0000
     1.0000   1.0000   1.0000   1.0000   1.0000   1.0000   1.0000   1.0000
     1.0000   1.0000   1.0000   1.0000   1.0000   1.0000   1.0000   1.0000
     1.0000   1.0000   1.0000   1.0000   1.0000   1.0000   1.0000   1.0000
     1.0000   1.0000   1.0000   1.0000   1.0000   1.0000   1.0000   1.0000
     1.0000   1.0000   1.0000   1.0000   1.0000   1.0000   1.0000   1.0000
     1.0000   1.0000   1.0000   1.0000   1.0000   1.0000   1.0000   1.0000
     1.0000   1.0000   1.0000   1.0000   1.0000   1.0000   1.0000   1.0000
     1.0000   1.0000   1.0000   1.0000   1.0000   1.0000   1.0000   1.0000
     1.0000   1.0000   0.9998   0.9998   0.9996   0.9996   0.9987   0.9987
     0.9987   0.9987   0.9983   0.9983   0.8376   0.8375   0.8375   0.8375
     0.1355   0.1355   0.1352   0.1352   0.0057   0.0057   0.0013   0.0013
     0.0012   0.0012   0.0003   0.0003   0.0000   0.0000   0.0000   0.0000
     0.0000   0.0000   0.0000

          k = 0.2500 0.0000 0.0000 (102480 PWs)   bands (ev):

   -19.8328 -19.4619 -19.4615 -18.8470 -18.4809 -18.4805 -18.3589 -18.3588
   -17.3951 -17.3951 -16.9206 -16.5669 -16.5661 -16.5661 -16.5656 -15.6464
   -15.6456 -15.5384 -15.5384 -14.5607 -14.2463 -14.2452 -14.2363 -13.7205
   -13.5687 -13.2687 -13.2683 -12.8694 -12.6138 -12.6138 -12.0573 -11.0498
   -11.0489 -11.0488 -11.0479 -10.9340 -10.9328 -10.4704 -10.1979  -9.6311
    -9.4315  -9.4315  -9.4197  -9.4192  -8.6926  -8.6918  -8.1881  -7.9385
    -7.8757  -7.8756  -7.8534  -7.8532  -7.4977  -7.4973  -7.4159  -7.1282
    -7.1282  -7.0461  -7.0451  -7.0447  -7.0440  -6.9405  -6.9405  -6.7742
    -6.6553  -6.3497  -6.3494  -6.2071  -6.2071  -5.9906  -5.9906  -5.6136
    -5.5233  -5.5227  -5.1708  -5.1702  -5.1072  -5.1071  -4.5690  -4.5216
    -4.5213  -4.2239  -4.2233  -4.2232  -4.2227  -3.9825  -3.7737  -3.2921
    -3.2921  -3.1824  -3.1819  -2.6532  -2.2045  -2.2038  -1.7417  -1.4592
     0.5209   0.8639   1.0304   1.0318   1.2195   1.9190   1.9190   2.3961
     2.3980   2.8442   3.3088   3.3102   3.3105   3.3110   3.3500   3.3501
     4.1271   4.1924   4.4212

     occupation numbers 
     1.0000   1.0000   1.0000   1.0000   1.0000   1.0000   1.0000   1.0000
     1.0000   1.0000   1.0000   1.0000   1.0000   1.0000   1.0000   1.0000
     1.0000   1.0000   1.0000   1.0000   1.0000   1.0000   1.0000   1.0000
     1.0000   1.0000   1.0000   1.0000   1.0000   1.0000   1.0000   1.0000
     1.0000   1.0000   1.0000   1.0000   1.0000   1.0000   1.0000   1.0000
     1.0000   1.0000   1.0000   1.0000   1.0000   1.0000   1.0000   1.0000
     1.0000   1.0000   1.0000   1.0000   1.0000   1.0000   1.0000   1.0000
     1.0000   1.0000   1.0000   1.0000   1.0000   1.0000   1.0000   1.0000
     1.0000   1.0000   1.0000   1.0000   1.0000   1.0000   1.0000   1.0000
     1.0000   1.0000   1.0000   1.0000   1.0000   1.0000   1.0000   1.0000
     1.0000   0.9999   0.9999   0.9999   0.9999   0.9998   0.9997   0.9981
     0.9981   0.9973   0.9973   0.9872   0.9613   0.9612   0.9006   0.8392
     0.1430   0.0773   0.0552   0.0550   0.0365   0.0059   0.0059   0.0013
     0.0013   0.0002   0.0000   0.0000   0.0000   0.0000   0.0000   0.0000
     0.0000   0.0000   0.0000

          k = 0.2500-0.2165 0.0000 (102520 PWs)   bands (ev):

   -19.7399 -19.7398 -19.0003 -19.0003 -18.7551 -18.7551 -18.0256 -18.0256
   -17.5442 -17.5440 -16.8317 -16.8316 -16.5971 -16.5969 -16.1304 -16.1304
   -15.4546 -15.4544 -14.8339 -14.8337 -14.5767 -14.5765 -14.1929 -14.1929
   -13.1460 -13.1460 -12.6246 -12.6245 -12.5439 -12.5438 -11.9839 -11.9837
   -11.8937 -11.8934 -10.1685 -10.1684 -10.1426 -10.1424 -10.0258 -10.0257
    -9.7992  -9.7991  -9.4639  -9.4638  -8.6683  -8.6680  -8.3429  -8.3428
    -7.8273  -7.8272  -7.7065  -7.7064  -7.6601  -7.6600  -7.3224  -7.3222
    -7.0772  -7.0769  -6.9538  -6.9538  -6.7261  -6.7259  -6.6676  -6.6676
    -6.5941  -6.5940  -6.3936  -6.3934  -6.1065  -6.1064  -5.8257  -5.8256
    -5.4614  -5.4611  -5.2800  -5.2799  -5.2721  -5.2718  -4.4809  -4.4809
    -4.3288  -4.3286  -4.2137  -4.2136  -3.9487  -3.9483  -3.8146  -3.8145
    -3.1847  -3.1844  -2.7210  -2.7209  -2.1086  -2.1084  -1.8580  -1.8579
     0.8883   0.8884   1.2087   1.2089   1.3762   1.3764   1.8843   1.8845
     2.5976   2.5978   2.9711   2.9712   3.6199   3.6205   3.8922   3.8923
     3.9823   3.9824   4.5461

     occupation numbers 
     1.0000   1.0000   1.0000   1.0000   1.0000   1.0000   1.0000   1.0000
     1.0000   1.0000   1.0000   1.0000   1.0000   1.0000   1.0000   1.0000
     1.0000   1.0000   1.0000   1.0000   1.0000   1.0000   1.0000   1.0000
     1.0000   1.0000   1.0000   1.0000   1.0000   1.0000   1.0000   1.0000
     1.0000   1.0000   1.0000   1.0000   1.0000   1.0000   1.0000   1.0000
     1.0000   1.0000   1.0000   1.0000   1.0000   1.0000   1.0000   1.0000
     1.0000   1.0000   1.0000   1.0000   1.0000   1.0000   1.0000   1.0000
     1.0000   1.0000   1.0000   1.0000   1.0000   1.0000   1.0000   1.0000
     1.0000   1.0000   1.0000   1.0000   1.0000   1.0000   1.0000   1.0000
     1.0000   1.0000   1.0000   1.0000   1.0000   1.0000   1.0000   1.0000
     1.0000   1.0000   0.9999   0.9999   0.9998   0.9998   0.9997   0.9997
     0.9973   0.9973   0.9894   0.9894   0.9522   0.9522   0.9201   0.9201
     0.0737   0.0737   0.0374   0.0374   0.0252   0.0252   0.0065   0.0065
     0.0006   0.0006   0.0002   0.0002   0.0000   0.0000   0.0000   0.0000
     0.0000   0.0000   0.0000

          k =-0.5000 0.0000 0.0000 (102516 PWs)   bands (ev):

   -19.4618 -19.4617 -19.0924 -19.0923 -19.0921 -19.0920 -17.9962 -17.9962
   -17.9955 -17.9955 -16.2188 -16.2188 -16.2180 -16.2179 -15.6460 -15.6460
   -15.3159 -15.3157 -15.3152 -15.3150 -14.6667 -14.6667 -14.2450 -14.2449
   -13.6723 -13.6723 -13.2697 -13.2696 -12.4304 -12.4302 -12.4297 -12.4295
   -10.9330 -10.9330 -10.8661 -10.8660 -10.8643 -10.8641  -9.4204  -9.4204
    -8.6920  -8.6920  -8.2739  -8.2738  -8.2731  -8.2729  -8.1870  -8.1870
    -8.1853  -8.1853  -7.8952  -7.8952  -7.8945  -7.8945  -7.4976  -7.4976
    -7.0623  -7.0622  -7.0620  -7.0619  -6.8979  -6.8978  -6.8817  -6.8817
    -6.8803  -6.8803  -6.2913  -6.2911  -6.2906  -6.2904  -5.7865  -5.7865
    -5.7861  -5.7861  -5.1691  -5.1691  -4.9775  -4.9774  -4.9768  -4.9767
    -4.5232  -4.5232  -3.8172  -3.8172  -3.8165  -3.8165  -3.1825  -3.1825
    -3.0089  -3.0088  -3.0083  -3.0081  -2.8047  -2.8047  -2.2032  -2.2031
     1.0294   1.0294   1.2623   1.2623   1.8154   1.8158   1.8167   1.8170
     2.3982   2.3983   3.0281   3.0283   3.0299   3.0302   3.3502   3.3502
     3.8550   3.8551   3.8553

     occupation numbers 
     1.0000   1.0000   1.0000   1.0000   1.0000   1.0000   1.0000   1.0000
     1.0000   1.0000   1.0000   1.0000   1.0000   1.0000   1.0000   1.0000
     1.0000   1.0000   1.0000   1.0000   1.0000   1.0000   1.0000   1.0000
     1.0000   1.0000   1.0000   1.0000   1.0000   1.0000   1.0000   1.0000
     1.0000   1.0000   1.0000   1.0000   1.0000   1.0000   1.0000   1.0000
     1.0000   1.0000   1.0000   1.0000   1.0000   1.0000   1.0000   1.0000
     1.0000   1.0000   1.0000   1.0000   1.0000   1.0000   1.0000   1.0000
     1.0000   1.0000   1.0000   1.0000   1.0000   1.0000   1.0000   1.0000
     1.0000   1.0000   1.0000   1.0000   1.0000   1.0000   1.0000   1.0000
     1.0000   1.0000   1.0000   1.0000   1.0000   1.0000   1.0000   1.0000
     1.0000   1.0000   0.9997   0.9997   0.9997   0.9997   0.9973   0.9973
     0.9954   0.9954   0.9954   0.9954   0.9916   0.9916   0.9612   0.9612
     0.0553   0.0553   0.0331   0.0331   0.0079   0.0079   0.0079   0.0079
     0.0013   0.0013   0.0001   0.0001   0.0001   0.0001   0.0000   0.0000
     0.0000   0.0000   0.0000

          k =-0.5000-0.2165 0.0000 (102520 PWs)   bands (ev):

   -19.3740 -19.3740 -19.3643 -19.3643 -18.6332 -18.6332 -18.6331 -18.6331
   -17.1871 -17.1870 -17.1869 -17.1868 -15.5619 -15.5619 -15.5618 -15.5618
   -15.1239 -15.1239 -15.1188 -15.1188 -14.9420 -14.9420 -14.9420 -14.9420
   -13.2454 -13.2454 -13.2452 -13.2451 -12.2811 -12.2811 -12.2805 -12.2805
   -11.5165 -11.5165 -11.5163 -11.5163  -9.4434  -9.4433  -9.4432  -9.4432
    -8.8196  -8.8196  -8.8195  -8.8195  -8.5892  -8.5891  -8.5881  -8.5881
    -7.7208  -7.7208  -7.7207  -7.7207  -7.3923  -7.3923  -7.3846  -7.3846
    -7.1745  -7.1744  -7.1739  -7.1738  -7.1700  -7.1699  -7.1692  -7.1691
    -6.5246  -6.5245  -6.5245  -6.5245  -5.8480  -5.8480  -5.8478  -5.8477
    -5.5456  -5.5455  -5.5380  -5.5379  -4.8686  -4.8685  -4.8684  -4.8683
    -4.5588  -4.5586  -4.5535  -4.5534  -3.1341  -3.1341  -3.1340  -3.1340
    -2.8684  -2.8684  -2.8684  -2.8683  -2.7680  -2.7679  -2.7609  -2.7609
     1.4233   1.4234   1.4236   1.4236   1.6884   1.6885   1.6928   1.6929
     2.2228   2.2228   2.2230   2.2230   3.4758   3.4758   3.4769   3.4769
     4.5165   4.5170   4.5172

     occupation numbers 
     1.0000   1.0000   1.0000   1.0000   1.0000   1.0000   1.0000   1.0000
     1.0000   1.0000   1.0000   1.0000   1.0000   1.0000   1.0000   1.0000
     1.0000   1.0000   1.0000   1.0000   1.0000   1.0000   1.0000   1.0000
     1.0000   1.0000   1.0000   1.0000   1.0000   1.0000   1.0000   1.0000
     1.0000   1.0000   1.0000   1.0000   1.0000   1.0000   1.0000   1.0000
     1.0000   1.0000   1.0000   1.0000   1.0000   1.0000   1.0000   1.0000
     1.0000   1.0000   1.0000   1.0000   1.0000   1.0000   1.0000   1.0000
     1.0000   1.0000   1.0000   1.0000   1.0000   1.0000   1.0000   1.0000
     1.0000   1.0000   1.0000   1.0000   1.0000   1.0000   1.0000   1.0000
     1.0000   1.0000   1.0000   1.0000   1.0000   1.0000   1.0000   1.0000
     1.0000   1.0000   1.0000   1.0000   0.9969   0.9969   0.9969   0.9969
     0.9930   0.9930   0.9930   0.9930   0.9907   0.9907   0.9905   0.9905
     0.0225   0.0225   0.0225   0.0225   0.0113   0.0113   0.0112   0.0112
     0.0023   0.0023   0.0023   0.0023   0.0000   0.0000   0.0000   0.0000
     0.0000   0.0000   0.0000

     the Fermi energy is    -0.5054 ev

!    total energy              =    -547.72865616 Ry
     Harris-Foulkes estimate   =    -547.72865616 Ry
     estimated scf accuracy    <          9.6E-12 Ry

     The total energy is the sum of the following terms:

     one-electron contribution =   -2189.49207316 Ry
     hartree contribution      =    1136.94492018 Ry
     xc contribution           =    -168.59391760 Ry
     ewald contribution        =     673.79121756 Ry
     Dispersion Correction     =      -0.19411171 Ry
     smearing contrib. (-TS)   =      -0.18469142 Ry

     convergence has been achieved in  11 iterations

     Writing output data file graphene.save
 
     init_run     :      4.71s CPU      5.63s WALL (       1 calls)
     electrons    :     61.75s CPU     70.24s WALL (       1 calls)

     Called by init_run:
     wfcinit      :      3.87s CPU      4.52s WALL (       1 calls)
     potinit      :      0.07s CPU      0.10s WALL (       1 calls)

     Called by electrons:
     c_bands      :     45.80s CPU     51.94s WALL (      11 calls)
     sum_band     :      4.14s CPU      4.66s WALL (      11 calls)
     v_of_rho     :      0.23s CPU      0.35s WALL (      12 calls)
     v_h          :      0.02s CPU      0.03s WALL (      12 calls)
     v_xc         :      0.21s CPU      0.32s WALL (      12 calls)
     mix_rho      :     11.51s CPU     13.02s WALL (      11 calls)

     Called by c_bands:
     init_us_2    :      0.09s CPU      0.11s WALL (     138 calls)
     cegterg      :     45.37s CPU     51.35s WALL (      66 calls)

     Called by sum_band:

     Called by *egterg:
     h_psi        :     23.73s CPU     26.57s WALL (     309 calls)
     g_psi        :      0.14s CPU      0.15s WALL (     237 calls)
     cdiaghg      :     11.74s CPU     13.23s WALL (     303 calls)
     cegterg:over :      4.39s CPU      4.60s WALL (     237 calls)
     cegterg:upda :      4.80s CPU      5.30s WALL (     237 calls)
     cegterg:last :      1.90s CPU      2.01s WALL (      72 calls)
     cdiaghg:chol :      0.86s CPU      1.07s WALL (     303 calls)
     cdiaghg:inve :      0.45s CPU      0.47s WALL (     303 calls)
     cdiaghg:para :      0.87s CPU      1.10s WALL (     606 calls)

     Called by h_psi:
     h_psi:vloc   :     22.00s CPU     24.65s WALL (     309 calls)
     h_psi:vnl    :      1.36s CPU      1.50s WALL (     309 calls)
     add_vuspsi   :      0.65s CPU      0.76s WALL (     309 calls)

     General routines
     calbec       :      0.71s CPU      0.73s WALL (     309 calls)
     fft          :      0.22s CPU      0.40s WALL (     131 calls)
     ffts         :      6.76s CPU      7.92s WALL (    4386 calls)
     fftw         :     24.19s CPU     26.76s WALL (   52164 calls)
 
     Parallel routines
     fft_scatter  :     15.97s CPU     16.85s WALL (   56681 calls)
 
     PWSCF        :  1m10.51s CPU     1m22.74s WALL

 
   This run was terminated on:  17:54:59  19Apr2017            

=------------------------------------------------------------------------------=
   JOB DONE.
=------------------------------------------------------------------------------=
