mpirun: INFO: switching to OpenMPI runtime version 1.10.2

     Program PWSCF v.5.4.0 starts on  6Sep2017 at 16:56:52 

     This program is part of the open-source Quantum ESPRESSO suite
     for quantum simulation of materials; please cite
         "P. Giannozzi et al., J. Phys.:Condens. Matter 21 395502 (2009);
          URL http://www.quantum-espresso.org", 
     in publications or presentations arising from this work. More details at
     http://www.quantum-espresso.org/quote

     Parallel version (MPI & OpenMP), running on      28 processor cores
     Number of MPI processes:                28
     Threads/MPI process:                     1
     R & G space division:  proc/nbgrp/npool/nimage =      28
     Waiting for input...
     Reading input from standard input
Warning: card &IONS ignored
Warning: card / ignored

     Current dimensions of program PWSCF are:
     Max number of different atomic species (ntypx) = 10
     Max number of k-points (npk) =  40000
     Max angular momentum in pseudopotentials (lmaxx) =  3
     WARNING: atomic wfc #  2 for atom type 4 has zero norm
     WARNING: atomic wfc #  4 for atom type 4 has zero norm
     WARNING: atomic wfc #  5 for atom type 4 has zero norm

     -------------------------------------
     Parameters for Dispersion Correction:
     -------------------------------------
       atom      VdW radius       C_6     

        Cu         2.952        374.666
        C_h        2.744         60.710
        C          2.744         60.710
        O          2.536         24.284
        H          1.892          4.857

     Subspace diagonalization in iterative solution of the eigenvalue problem:
     one sub-group per band group will be used
     scalapack distributed-memory algorithm (size of sub-group:  3*  3 procs)

 
     Parallelization info
     --------------------
     sticks:   dense  smooth     PW     G-vecs:    dense   smooth      PW
     Min         408     408    108                73226    73226    9928
     Max         410     410    109                73231    73231    9931
     Sum       11433   11433   3039              2050409  2050409  278033
 


     bravais-lattice index     =            0
     lattice parameter (alat)  =      13.9425  a.u.
     unit-cell volume          =   21209.0878 (a.u.)^3
     number of atoms/cell      =          150
     number of atomic types    =            5
     number of electrons       =      1302.00
     number of Kohn-Sham states=          781
     kinetic-energy cutoff     =      80.0000  Ry
     charge density cutoff     =     320.0000  Ry
     convergence threshold     =      1.0E-08
     mixing beta               =       0.7000
     number of iterations used =            8  local-TF  mixing
     Exchange-correlation      =  SLA  PW   PBE  PBE ( 1  4  3  4 0 0)

     celldm(1)=  13.942539  celldm(2)=   0.000000  celldm(3)=   0.000000
     celldm(4)=   0.000000  celldm(5)=   0.000000  celldm(6)=   0.000000

     crystal axes: (cart. coord. in units of alat)
               a(1) = (   1.000000   0.000000   0.000000 )  
               a(2) = (   0.000000   2.309401   0.000000 )  
               a(3) = (   0.000000   0.000000   3.388418 )  

     reciprocal axes: (cart. coord. in units 2 pi/alat)
               b(1) = (  1.000000  0.000000  0.000000 )  
               b(2) = (  0.000000  0.433013  0.000000 )  
               b(3) = (  0.000000  0.000000  0.295123 )  


     PseudoPot. # 1 for Cu read from file:
     /home/549/hxw549/Short/pseudopotentials/Cu.pbe-n-van_ak.UPF
     MD5 check sum: 601f7c30f7467666bec936e0661ce3e1
     Pseudo is Ultrasoft + core correction, Zval = 11.0
     Generated by new atomic code, or converted to UPF format
     Using radial grid of  867 points,  6 beta functions with: 
                l(1) =   0
                l(2) =   0
                l(3) =   1
                l(4) =   1
                l(5) =   2
                l(6) =   2
     Q(r) pseudized with  8 coefficients,  rinner =    1.400   1.400   1.400
                                                       1.400   1.400

     PseudoPot. # 2 for C  read from file:
     /home/549/hxw549/Short/pseudopotentials/C.star1s-pbe-mt_gipaw.UPF
     MD5 check sum: ef0cb3dee31bd9e4ba2a832a2c716264
     Pseudo is Norm-conserving, Zval =  5.0
     Generated by new atomic code, or converted to UPF format
     Using radial grid of 1073 points,  1 beta functions with: 
                l(1) =   0

     PseudoPot. # 3 for C  read from file:
     /home/549/hxw549/Short/pseudopotentials/C.pbe-mt_gipaw.UPF
     MD5 check sum: 5ac2f21f2c440b14befe521540822c15
     Pseudo is Norm-conserving, Zval =  4.0
     Generated by new atomic code, or converted to UPF format
     Using radial grid of 1073 points,  1 beta functions with: 
                l(1) =   0

     PseudoPot. # 4 for O  read from file:
     /home/549/hxw549/Short/pseudopotentials/O.pbe-van_gipaw.UPF
     MD5 check sum: 5ce2a047509d4f331db576c963e74b29
     Pseudo is Ultrasoft, Zval =  6.0
     Generated by new atomic code, or converted to UPF format
     Using radial grid of 1095 points,  4 beta functions with: 
                l(1) =   0
                l(2) =   0
                l(3) =   1
                l(4) =   1
     Q(r) pseudized with 0 coefficients 


     PseudoPot. # 5 for H  read from file:
     /home/549/hxw549/Short/pseudopotentials/H.pbe-van_ak.UPF
     MD5 check sum: 077eb6d537518a38cb46c6de387227b7
     Pseudo is Ultrasoft, Zval =  1.0
     Generated by new atomic code, or converted to UPF format
     Using radial grid of  615 points,  1 beta functions with: 
                l(1) =   0
     Q(r) pseudized with  8 coefficients,  rinner =    0.800

     atomic species   valence    mass     pseudopotential
        Cu            11.00    63.54600     Cu( 1.00)
        C_h            5.00    12.01070     C ( 1.00)
        C              4.00    12.01070     C ( 1.00)
        O              6.00    15.99940     O ( 1.00)
        H              1.00     1.00783     H ( 1.00)

     No symmetry found



   Cartesian axes

     site n.     atom                  positions (alat units)
         1           Cu  tau(   1) = (   0.0000796  -0.0010194   0.9996711  )
         2           Cu  tau(   2) = (   0.2500655   0.2302525   0.9998070  )
         3           Cu  tau(   3) = (   0.5000782  -0.0009871   0.9997096  )
         4           Cu  tau(   4) = (   0.7500925   0.2302455   0.9998059  )
         5           Cu  tau(   5) = (   0.0000785   0.4612871   0.9997269  )
         6           Cu  tau(   6) = (   0.2500641   0.6920697   0.9993800  )
         7           Cu  tau(   7) = (   0.5000814   0.4612918   0.9996504  )
         8           Cu  tau(   8) = (   0.7500985   0.6920755   0.9993862  )
         9           Cu  tau(   9) = (   0.0000831   0.9226495   0.9992261  )
        10           Cu  tau(  10) = (   0.2501082   1.1530621   0.9994448  )
        11           Cu  tau(  11) = (   0.5000823   0.9225993   0.9992402  )
        12           Cu  tau(  12) = (   0.7500588   1.1530635   0.9994423  )
        13           Cu  tau(  13) = (   0.0000837   1.3835599   0.9997329  )
        14           Cu  tau(  14) = (   0.2500624   1.6144357   0.9998048  )
        15           Cu  tau(  15) = (   0.5000842   1.3836349   0.9997726  )
        16           Cu  tau(  16) = (   0.7501032   1.6144320   0.9998040  )
        17           Cu  tau(  17) = (   0.0000797   1.8456347   0.9996583  )
        18           Cu  tau(  18) = (   0.2500996   2.0770019   0.9995635  )
        19           Cu  tau(  19) = (   0.5000828   1.8455838   0.9996249  )
        20           Cu  tau(  20) = (   0.7500601   2.0770024   0.9995695  )
        21           Cu  tau(  21) = (   0.0000762   0.2300880   1.2478020  )
        22           Cu  tau(  22) = (   0.2500749  -0.0011159   1.2475204  )
        23           Cu  tau(  23) = (   0.5000774   0.2302010   1.2477392  )
        24           Cu  tau(  24) = (   0.7500776  -0.0011076   1.2475295  )
        25           Cu  tau(  25) = (   0.0000791   0.6922011   1.2480278  )
        26           Cu  tau(  26) = (   0.2500708   0.4613499   1.2479295  )
        27           Cu  tau(  27) = (   0.5000781   0.6921136   1.2479976  )
        28           Cu  tau(  28) = (   0.7500843   0.4613461   1.2479221  )
        29           Cu  tau(  29) = (   0.0000792   1.1528664   1.2482450  )
        30           Cu  tau(  30) = (   0.2500767   0.9225201   1.2481436  )
        31           Cu  tau(  31) = (   0.5000811   1.1528467   1.2482331  )
        32           Cu  tau(  32) = (   0.7500827   0.9225211   1.2481488  )
        33           Cu  tau(  33) = (   0.0000796   1.6146638   1.2478472  )
        34           Cu  tau(  34) = (   0.2500780   1.3835920   1.2481526  )
        35           Cu  tau(  35) = (   0.5000826   1.6147432   1.2478907  )
        36           Cu  tau(  36) = (   0.7500845   1.3835882   1.2481608  )
        37           Cu  tau(  37) = (   0.0000753   2.0771625   1.2473394  )
        38           Cu  tau(  38) = (   0.2500797   1.8459518   1.2474804  )
        39           Cu  tau(  39) = (   0.5000788   2.0770921   1.2473374  )
        40           Cu  tau(  40) = (   0.7500786   1.8459481   1.2474855  )
        41           Cu  tau(  41) = (   0.0000736  -0.0014157   1.4968003  )
        42           Cu  tau(  42) = (   0.2501054   0.2298053   1.4967075  )
        43           Cu  tau(  43) = (   0.5000753  -0.0013072   1.4965172  )
        44           Cu  tau(  44) = (   0.7500440   0.2298195   1.4967296  )
        45           Cu  tau(  45) = (   0.0000715   0.4610974   1.4969703  )
        46           Cu  tau(  46) = (   0.2500888   0.6919294   1.4977424  )
        47           Cu  tau(  47) = (   0.5000768   0.4610199   1.4971307  )
        48           Cu  tau(  48) = (   0.7500576   0.6919217   1.4977398  )
        49           Cu  tau(  49) = (   0.0000730   0.9224488   1.4981802  )
        50           Cu  tau(  50) = (   0.2499887   1.1529644   1.4978341  )
        51           Cu  tau(  51) = (   0.5000709   0.9223233   1.4980553  )
        52           Cu  tau(  52) = (   0.7501545   1.1529594   1.4978490  )
        53           Cu  tau(  53) = (   0.0000770   1.3839580   1.4973583  )
        54           Cu  tau(  54) = (   0.2500530   1.6153014   1.4967700  )
        55           Cu  tau(  55) = (   0.5000690   1.3839959   1.4971714  )
        56           Cu  tau(  56) = (   0.7500984   1.6153015   1.4967707  )
        57           Cu  tau(  57) = (   0.0000733   1.8464668   1.4964703  )
        58           Cu  tau(  58) = (   0.2500842   2.0772456   1.4966335  )
        59           Cu  tau(  59) = (   0.5000792   1.8465124   1.4966717  )
        60           Cu  tau(  60) = (   0.7500644   2.0772510   1.4966332  )
        61           Cu  tau(  61) = (   0.0000638   0.2297751   1.7451486  )
        62           Cu  tau(  62) = (   0.2501701  -0.0014366   1.7457736  )
        63           Cu  tau(  63) = (   0.5000844   0.2291468   1.7456708  )
        64           Cu  tau(  64) = (   0.7499824  -0.0014424   1.7457830  )
        65           Cu  tau(  65) = (   0.0000602   0.6911029   1.7467899  )
        66           Cu  tau(  66) = (   0.2504221   0.4603267   1.7458317  )
        67           Cu  tau(  67) = (   0.5000727   0.6914519   1.7472561  )
        68           Cu  tau(  68) = (   0.7497202   0.4603534   1.7458865  )
        69           Cu  tau(  69) = (   0.0000719   1.1535755   1.7474669  )
        70           Cu  tau(  70) = (   0.2500072   0.9224186   1.7476215  )
        71           Cu  tau(  71) = (   0.5000490   1.1535692   1.7465697  )
        72           Cu  tau(  72) = (   0.7501153   0.9223864   1.7476191  )
        73           Cu  tau(  73) = (   0.0000638   1.6160732   1.7455026  )
        74           Cu  tau(  74) = (   0.2497330   1.3847176   1.7458671  )
        75           Cu  tau(  75) = (   0.5000631   1.6156467   1.7451393  )
        76           Cu  tau(  76) = (   0.7503862   1.3847369   1.7458435  )
        77           Cu  tau(  77) = (   0.0000770   2.0769447   1.7462625  )
        78           Cu  tau(  78) = (   0.2499949   1.8466574   1.7457450  )
        79           Cu  tau(  79) = (   0.5000721   2.0775977   1.7461689  )
        80           Cu  tau(  80) = (   0.7501471   1.8466631   1.7457456  )
        81           Cu  tau(  81) = (   0.0000732  -0.0004834   1.9909889  )
        82           Cu  tau(  82) = (   0.2501819   0.2294912   1.9912558  )
        83           Cu  tau(  83) = (   0.5000861  -0.0013523   1.9930947  )
        84           Cu  tau(  84) = (   0.7499715   0.2294701   1.9913129  )
        85           Cu  tau(  85) = (   0.0000570   0.4600464   1.9913092  )
        86           Cu  tau(  86) = (   0.2514505   0.6901905   1.9922810  )
        87           Cu  tau(  87) = (   0.5000863   0.4587665   1.9928792  )
        88           Cu  tau(  88) = (   0.7486661   0.6902270   1.9924293  )
        89           Cu  tau(  89) = (   0.0000432   0.9207000   1.9928486  )
        90           Cu  tau(  90) = (   0.2487672   1.1547418   1.9923022  )
        91           Cu  tau(  91) = (   0.5000624   0.9240642   1.9932645  )
        92           Cu  tau(  92) = (   0.7513422   1.1547327   1.9922105  )
        93           Cu  tau(  93) = (   0.0000302   1.3866843   1.9926055  )
        94           Cu  tau(  94) = (   0.2503901   1.6157236   1.9912853  )
        95           Cu  tau(  95) = (   0.5000722   1.3850823   1.9909882  )
        96           Cu  tau(  96) = (   0.7497148   1.6157477   1.9912993  )
        97           Cu  tau(  97) = (   0.0000745   1.8457983   1.9931296  )
        98           Cu  tau(  98) = (   0.2496101   2.0772360   1.9921726  )
        99           Cu  tau(  99) = (   0.5000544   1.8462656   1.9910722  )
       100           Cu  tau( 100) = (   0.7505374   2.0772188   1.9921776  )
       101           C   tau( 101) = (   0.0003514   0.0996206   2.3875980  )
       102           C   tau( 102) = (   0.0003701   0.2920050   2.3890198  )
       103           C   tau( 103) = (   0.1669612   0.0033417   2.3866707  )
       104           C   tau( 104) = (   0.1668783   0.3881831   2.3878569  )
       105           C   tau( 105) = (   0.3334610   0.0995345   2.3840961  )
       106           C   tau( 106) = (   0.3334624   0.2919976   2.3846407  )
       107           C   tau( 107) = (   0.5003433   0.0032210   2.3815949  )
       108           C   tau( 108) = (   0.5003848   0.3882447   2.3835900  )
       109           C   tau( 109) = (   0.6672318   0.0995321   2.3842977  )
       110           C   tau( 110) = (   0.6672623   0.2919796   2.3848652  )
       111           C   tau( 111) = (   0.8337338   0.0033419   2.3867885  )
       112           C   tau( 112) = (   0.8338733   0.3881847   2.3880842  )
       113           C   tau( 113) = (   0.0003755   0.6768170   2.3872017  )
       114           C   tau( 114) = (   0.0003705   0.8692143   2.3829758  )
       115           C   tau( 115) = (   0.1668213   0.5806199   2.3868163  )
       116           C   tau( 116) = (   0.1671458   0.9654808   2.3827998  )
       117           C   tau( 117) = (   0.3336031   0.6768600   2.3840505  )
       118           C   tau( 118) = (   0.3335861   0.8693009   2.3828900  )
       119           C   tau( 119) = (   0.5003895   0.5806735   2.3843175  )
       120           C   tau( 120) = (   0.5004091   0.9655913   2.3819279  )
       121           C   tau( 121) = (   0.6671518   0.6768504   2.3841477  )
       122           C   tau( 122) = (   0.6671644   0.8692819   2.3832393  )
       123           C   tau( 123) = (   0.8339022   0.5806086   2.3869446  )
       124           C   tau( 124) = (   0.8336023   0.9654704   2.3831168  )
       125           C   tau( 125) = (   0.0004181   1.2541496   2.3826128  )
       126           C   tau( 126) = (   0.0003993   1.4466513   2.3825401  )
       127           C   tau( 127) = (   0.1671589   1.1579558   2.3821526  )
       128           C   tau( 128) = (   0.1673137   1.5428735   2.3850149  )
       129           C   tau( 129) = (   0.3339620   1.2542045   2.3853071  )
       130           C   tau( 130) = (   0.3338989   1.4466168   2.3880294  )
       131           C   tau( 131) = (   0.5004018   1.1580276   2.3849937  )
       132           C   tau( 132) = (   0.5004021   1.5428398   2.3904590  )
       133           C   tau( 133) = (   0.6668434   1.2542120   2.3856468  )
       134           C   tau( 134) = (   0.6668966   1.4466375   2.3882526  )
       135           C   tau( 135) = (   0.8336471   1.1579389   2.3824963  )
       136           C   tau( 136) = (   0.8335007   1.5428799   2.3852986  )
       137           C   tau( 137) = (   0.0003615   1.8316508   2.3835264  )
       138           C   tau( 138) = (   0.0003333   2.0241360   2.3864695  )
       139           C   tau( 139) = (   0.1672436   1.7353275   2.3855411  )
       140           C   tau( 140) = (   0.1669289   2.1203047   2.3860356  )
       141           C   tau( 141) = (   0.3337845   1.8314735   2.3877347  )
       142           C   tau( 142) = (   0.3337475   2.0239656   2.3853679  )
       143           C   tau( 143) = (   0.5003620   1.7352461   2.3894686  )
       144           C   tau( 144) = (   0.5003277   2.1201495   2.3841265  )
       145           C   tau( 145) = (   0.6669386   1.8314724   2.3878035  )
       146           C   tau( 146) = (   0.6669171   2.0239714   2.3854075  )
       147           C   tau( 147) = (   0.8334847   1.7353460   2.3856745  )
       148           C   tau( 148) = (   0.8337301   2.1203065   2.3860703  )
       149           C_h tau( 149) = (   0.4817526   0.9548742   2.8124093  )
       150           O   tau( 150) = (   0.3804061   1.0742193   2.8105827  )

     number of k points=     6  gaussian smearing, width (Ry)=  0.1000
                       cart. coord. in units 2pi/alat
        k(    1) = (   0.0000000   0.0000000   0.0000000), wk =   0.2500000
        k(    2) = (   0.0000000  -0.2165064   0.0000000), wk =   0.2500000
        k(    3) = (   0.2500000   0.0000000   0.0000000), wk =   0.5000000
        k(    4) = (   0.2500000  -0.2165064   0.0000000), wk =   0.5000000
        k(    5) = (  -0.5000000   0.0000000   0.0000000), wk =   0.2500000
        k(    6) = (  -0.5000000  -0.2165064   0.0000000), wk =   0.2500000

     Dense  grid:  2050409 G-vectors     FFT dimensions: (  80, 192, 270)

     Largest allocated arrays     est. size (Mb)     dimensions
        Kohn-Sham Wavefunctions       109.29 Mb     (    9171,  781)
        NL pseudopotentials           259.87 Mb     (    9171, 1857)
        Each V/rho on FFT grid          2.34 Mb     (  153600)
        Each G-vector array             0.56 Mb     (   73230)
        G-vector shells                 0.27 Mb     (   35784)
     Largest temporary arrays     est. size (Mb)     dimensions
        Auxiliary wavefunctions       437.17 Mb     (    9171, 3124)
        Each subspace H/S matrix       16.54 Mb     (    1041, 1041)
        Each <psi_i|beta_j> matrix     22.13 Mb     (    1857,  781)
        Arrays for rho mixing          18.75 Mb     (  153600,    8)

     Initial potential from superposition of free atoms
     Check: negative starting charge=   -0.001649

     starting charge 1276.31751, renormalised to 1302.00000

     negative rho (up, down):  1.683E-03 0.000E+00
     Starting wfc are 1296 randomized atomic wfcs

     total cpu time spent up to now is      205.2 secs

     Self-consistent Calculation

     iteration #  1     ecut=    80.00 Ry     beta=0.70
     Davidson diagonalization with overlap
     ethr =  1.00E-04,  avg # of iterations = 21.2

     negative rho (up, down):  2.896E+01 0.000E+00

     total cpu time spent up to now is     3929.5 secs

     total energy              =   -9522.06301471 Ry
     Harris-Foulkes estimate   =  -17458.66303675 Ry
     estimated scf accuracy    <  185367.54293139 Ry

     iteration #  2     ecut=    80.00 Ry     beta=0.70
     Davidson diagonalization with overlap
     ethr =  1.00E-02,  avg # of iterations = 14.0

     negative rho (up, down):  3.234E+01 0.000E+00

     total cpu time spent up to now is     5847.2 secs

     total energy              =  -12048.20798957 Ry
     Harris-Foulkes estimate   =  -13780.60510127 Ry
     estimated scf accuracy    <   28739.65296405 Ry

     iteration #  3     ecut=    80.00 Ry     beta=0.70
     Davidson diagonalization with overlap
     ethr =  1.00E-02,  avg # of iterations =  7.8

     negative rho (up, down):  3.201E+01 0.000E+00

     total cpu time spent up to now is     6976.0 secs

     total energy              =  -12463.09181566 Ry
     Harris-Foulkes estimate   =  -13520.98524270 Ry
     estimated scf accuracy    <    6155.80786747 Ry

     iteration #  4     ecut=    80.00 Ry     beta=0.70
     Davidson diagonalization with overlap
     ethr =  1.00E-02,  avg # of iterations =  5.3

     negative rho (up, down):  2.041E+01 0.000E+00

     total cpu time spent up to now is     8086.9 secs

     total energy              =  -12894.46137337 Ry
     Harris-Foulkes estimate   =  -13127.22619780 Ry
     estimated scf accuracy    <    1022.97505226 Ry

     iteration #  5     ecut=    80.00 Ry     beta=0.70
     Davidson diagonalization with overlap
     ethr =  1.00E-02,  avg # of iterations =  2.0

     negative rho (up, down):  1.771E+01 0.000E+00

     total cpu time spent up to now is     8555.1 secs

     total energy              =  -12898.00459838 Ry
     Harris-Foulkes estimate   =  -12960.69550076 Ry
     estimated scf accuracy    <    1553.45238328 Ry

     iteration #  6     ecut=    80.00 Ry     beta=0.70
     Davidson diagonalization with overlap
     ethr =  1.00E-02,  avg # of iterations =  2.0

     negative rho (up, down):  1.099E+01 0.000E+00

     total cpu time spent up to now is     8903.8 secs

     total energy              =  -12860.58840486 Ry
     Harris-Foulkes estimate   =  -12929.01017991 Ry
     estimated scf accuracy    <     537.25454105 Ry

     iteration #  7     ecut=    80.00 Ry     beta=0.70
     Davidson diagonalization with overlap
     ethr =  1.00E-02,  avg # of iterations =  2.0

     negative rho (up, down):  8.806E+00 0.000E+00

     total cpu time spent up to now is     9256.5 secs

     total energy              =  -12847.17888557 Ry
     Harris-Foulkes estimate   =  -12875.36221689 Ry
     estimated scf accuracy    <     492.68249352 Ry

     iteration #  8     ecut=    80.00 Ry     beta=0.70
     Davidson diagonalization with overlap
     ethr =  1.00E-02,  avg # of iterations =  2.0

     negative rho (up, down):  6.613E+00 0.000E+00

     total cpu time spent up to now is     9606.0 secs

     total energy              =  -12831.44500543 Ry
     Harris-Foulkes estimate   =  -12857.87362722 Ry
     estimated scf accuracy    <     286.75020035 Ry

     iteration #  9     ecut=    80.00 Ry     beta=0.70
     Davidson diagonalization with overlap
     ethr =  1.00E-02,  avg # of iterations =  1.0

     negative rho (up, down):  4.472E+00 0.000E+00

     total cpu time spent up to now is     9932.7 secs

     total energy              =  -12809.82117037 Ry
     Harris-Foulkes estimate   =  -12834.02676552 Ry
     estimated scf accuracy    <     232.22584614 Ry

     iteration # 10     ecut=    80.00 Ry     beta=0.70
     Davidson diagonalization with overlap
     ethr =  1.00E-02,  avg # of iterations =  2.0

     negative rho (up, down):  6.933E-01 0.000E+00

     total cpu time spent up to now is    10282.4 secs

     total energy              =  -12769.93525791 Ry
     Harris-Foulkes estimate   =  -12814.50049844 Ry
     estimated scf accuracy    <     218.09717419 Ry

     iteration # 11     ecut=    80.00 Ry     beta=0.70
     Davidson diagonalization with overlap
     ethr =  1.00E-02,  avg # of iterations =  3.3

     negative rho (up, down):  9.138E-01 0.000E+00

     total cpu time spent up to now is    10669.5 secs

     total energy              =  -12765.78928905 Ry
     Harris-Foulkes estimate   =  -12777.46964674 Ry
     estimated scf accuracy    <      91.27848188 Ry

     iteration # 12     ecut=    80.00 Ry     beta=0.70
     Davidson diagonalization with overlap
     ethr =  7.01E-03,  avg # of iterations =  2.5

     negative rho (up, down):  1.710E+00 0.000E+00

     total cpu time spent up to now is    11029.4 secs

     total energy              =  -12762.18235404 Ry
     Harris-Foulkes estimate   =  -12769.93794378 Ry
     estimated scf accuracy    <      38.84411066 Ry

     iteration # 13     ecut=    80.00 Ry     beta=0.70
     Davidson diagonalization with overlap
     ethr =  2.98E-03,  avg # of iterations =  4.0

     negative rho (up, down):  4.340E+00 0.000E+00

     total cpu time spent up to now is    11421.2 secs

     total energy              =  -12757.36091981 Ry
     Harris-Foulkes estimate   =  -12764.02476059 Ry
     estimated scf accuracy    <      34.02641604 Ry

     iteration # 14     ecut=    80.00 Ry     beta=0.70
     Davidson diagonalization with overlap
     ethr =  2.61E-03,  avg # of iterations =  3.0

     negative rho (up, down):  3.499E+00 0.000E+00

     total cpu time spent up to now is    11796.7 secs

     total energy              =  -12755.48308713 Ry
     Harris-Foulkes estimate   =  -12759.54284102 Ry
     estimated scf accuracy    <      36.42532249 Ry

     iteration # 15     ecut=    80.00 Ry     beta=0.70
     Davidson diagonalization with overlap
     ethr =  2.61E-03,  avg # of iterations =  2.3

     negative rho (up, down):  4.898E+00 0.000E+00

     total cpu time spent up to now is    12154.8 secs

     total energy              =  -12756.18826430 Ry
     Harris-Foulkes estimate   =  -12758.52183067 Ry
     estimated scf accuracy    <      18.89753113 Ry

     iteration # 16     ecut=    80.00 Ry     beta=0.70
     Davidson diagonalization with overlap
     ethr =  1.45E-03,  avg # of iterations =  7.5

     negative rho (up, down):  4.284E+00 0.000E+00

     total cpu time spent up to now is    12635.6 secs

     total energy              =  -12755.88651506 Ry
     Harris-Foulkes estimate   =  -12756.89380027 Ry
     estimated scf accuracy    <      11.50358632 Ry

     iteration # 17     ecut=    80.00 Ry     beta=0.70
     Davidson diagonalization with overlap
     ethr =  8.84E-04,  avg # of iterations =  3.7

     negative rho (up, down):  3.299E+00 0.000E+00

     total cpu time spent up to now is    13019.0 secs

     total energy              =  -12754.82674823 Ry
     Harris-Foulkes estimate   =  -12756.02219163 Ry
     estimated scf accuracy    <       8.98401914 Ry

     iteration # 18     ecut=    80.00 Ry     beta=0.70
     Davidson diagonalization with overlap
     ethr =  6.90E-04,  avg # of iterations =  3.0

     negative rho (up, down):  2.460E+00 0.000E+00

     total cpu time spent up to now is    13390.9 secs

     total energy              =  -12753.43533568 Ry
     Harris-Foulkes estimate   =  -12755.02046044 Ry
     estimated scf accuracy    <       8.68734004 Ry

     iteration # 19     ecut=    80.00 Ry     beta=0.70
     Davidson diagonalization with overlap
     ethr =  6.67E-04,  avg # of iterations =  7.0

     negative rho (up, down):  2.083E+00 0.000E+00

     total cpu time spent up to now is    13853.0 secs

     total energy              =  -12753.20561628 Ry
     Harris-Foulkes estimate   =  -12753.67656043 Ry
     estimated scf accuracy    <       6.55495437 Ry

     iteration # 20     ecut=    80.00 Ry     beta=0.70
     Davidson diagonalization with overlap
     ethr =  5.03E-04,  avg # of iterations =  1.2

     negative rho (up, down):  8.241E-01 0.000E+00

     total cpu time spent up to now is    14186.2 secs

     total energy              =  -12752.11223504 Ry
     Harris-Foulkes estimate   =  -12753.30116680 Ry
     estimated scf accuracy    <       5.16619775 Ry

     iteration # 21     ecut=    80.00 Ry     beta=0.70
     Davidson diagonalization with overlap
     ethr =  3.97E-04,  avg # of iterations =  6.8

     negative rho (up, down):  3.413E-01 0.000E+00

     total cpu time spent up to now is    14638.9 secs

     total energy              =  -12751.53314177 Ry
     Harris-Foulkes estimate   =  -12752.28740340 Ry
     estimated scf accuracy    <      10.25695120 Ry

     iteration # 22     ecut=    80.00 Ry     beta=0.70
     Davidson diagonalization with overlap
     ethr =  3.97E-04,  avg # of iterations =  7.7

     negative rho (up, down):  7.526E-02 0.000E+00

     total cpu time spent up to now is    15110.2 secs

     total energy              =  -12751.06371152 Ry
     Harris-Foulkes estimate   =  -12751.73543150 Ry
     estimated scf accuracy    <       4.07677269 Ry

     iteration # 23     ecut=    80.00 Ry     beta=0.70
     Davidson diagonalization with overlap
     ethr =  3.13E-04,  avg # of iterations =  2.7

     negative rho (up, down):  5.604E-01 0.000E+00

     total cpu time spent up to now is    15474.6 secs

     total energy              =  -12750.43678068 Ry
     Harris-Foulkes estimate   =  -12751.08454260 Ry
     estimated scf accuracy    <       2.73991857 Ry

     iteration # 24     ecut=    80.00 Ry     beta=0.70
     Davidson diagonalization with overlap
     ethr =  2.10E-04,  avg # of iterations =  8.5

     negative rho (up, down):  4.112E-01 0.000E+00

     total cpu time spent up to now is    15975.9 secs

     total energy              =  -12750.12467944 Ry
     Harris-Foulkes estimate   =  -12750.63615728 Ry
     estimated scf accuracy    <       5.43856894 Ry

     iteration # 25     ecut=    80.00 Ry     beta=0.70
     Davidson diagonalization with overlap
     ethr =  2.10E-04,  avg # of iterations =  8.5

     negative rho (up, down):  4.827E-01 0.000E+00

     total cpu time spent up to now is    16471.5 secs

     total energy              =  -12750.24991917 Ry
     Harris-Foulkes estimate   =  -12750.48156965 Ry
     estimated scf accuracy    <       1.50133910 Ry

     iteration # 26     ecut=    80.00 Ry     beta=0.70
     Davidson diagonalization with overlap
     ethr =  1.15E-04,  avg # of iterations =  9.7

     negative rho (up, down):  4.907E-01 0.000E+00

     total cpu time spent up to now is    17028.1 secs

     total energy              =  -12750.24533503 Ry
     Harris-Foulkes estimate   =  -12750.29613006 Ry
     estimated scf accuracy    <       0.60064525 Ry

     iteration # 27     ecut=    80.00 Ry     beta=0.70
     Davidson diagonalization with overlap
     ethr =  4.61E-05,  avg # of iterations = 10.5

     negative rho (up, down):  3.737E-01 0.000E+00

     total cpu time spent up to now is    17583.8 secs

     total energy              =  -12750.26543710 Ry
     Harris-Foulkes estimate   =  -12750.27343708 Ry
     estimated scf accuracy    <       0.07590785 Ry

     iteration # 28     ecut=    80.00 Ry     beta=0.70
     Davidson diagonalization with overlap
     ethr =  5.83E-06,  avg # of iterations =  7.8

     negative rho (up, down):  2.473E-01 0.000E+00

     total cpu time spent up to now is    18088.1 secs

     total energy              =  -12750.25945664 Ry
     Harris-Foulkes estimate   =  -12750.27081616 Ry
     estimated scf accuracy    <       0.05317705 Ry

     iteration # 29     ecut=    80.00 Ry     beta=0.70
     Davidson diagonalization with overlap
     ethr =  4.08E-06,  avg # of iterations =  9.8

     negative rho (up, down):  1.407E-01 0.000E+00

     total cpu time spent up to now is    18634.2 secs

     total energy              =  -12750.25740836 Ry
     Harris-Foulkes estimate   =  -12750.26263857 Ry
     estimated scf accuracy    <       0.02006889 Ry

     iteration # 30     ecut=    80.00 Ry     beta=0.70
     Davidson diagonalization with overlap
     ethr =  1.54E-06,  avg # of iterations = 13.3

     negative rho (up, down):  8.805E-02 0.000E+00

     total cpu time spent up to now is    19297.6 secs

     total energy              =  -12750.25611276 Ry
     Harris-Foulkes estimate   =  -12750.25854019 Ry
     estimated scf accuracy    <       0.00558947 Ry

     iteration # 31     ecut=    80.00 Ry     beta=0.70
     Davidson diagonalization with overlap
     c_bands:  1 eigenvalues not converged
     c_bands:  1 eigenvalues not converged
     ethr =  4.29E-07,  avg # of iterations = 15.5

     negative rho (up, down):  2.877E-02 0.000E+00

     total cpu time spent up to now is    19978.1 secs

     total energy              =  -12750.25424809 Ry
     Harris-Foulkes estimate   =  -12750.25665721 Ry
     estimated scf accuracy    <       0.00830244 Ry

     iteration # 32     ecut=    80.00 Ry     beta=0.70
     Davidson diagonalization with overlap
     c_bands:  1 eigenvalues not converged
     c_bands:  4 eigenvalues not converged
     ethr =  4.29E-07,  avg # of iterations = 14.0

     negative rho (up, down):  2.034E-02 0.000E+00

     total cpu time spent up to now is    20629.9 secs

     total energy              =  -12750.25438513 Ry
     Harris-Foulkes estimate   =  -12750.25457961 Ry
     estimated scf accuracy    <       0.00137189 Ry

     iteration # 33     ecut=    80.00 Ry     beta=0.70
     Davidson diagonalization with overlap
     c_bands:  2 eigenvalues not converged
     ethr =  1.05E-07,  avg # of iterations = 11.0

     negative rho (up, down):  7.720E-03 0.000E+00

     total cpu time spent up to now is    21207.8 secs

     total energy              =  -12750.25424156 Ry
     Harris-Foulkes estimate   =  -12750.25448482 Ry
     estimated scf accuracy    <       0.00020184 Ry

     iteration # 34     ecut=    80.00 Ry     beta=0.70
     Davidson diagonalization with overlap
     c_bands:  1 eigenvalues not converged
     c_bands:  1 eigenvalues not converged
     ethr =  1.55E-08,  avg # of iterations = 10.8

     negative rho (up, down):  3.026E-03 0.000E+00

     total cpu time spent up to now is    21777.9 secs

     total energy              =  -12750.25418440 Ry
     Harris-Foulkes estimate   =  -12750.25425851 Ry
     estimated scf accuracy    <       0.00008810 Ry

     iteration # 35     ecut=    80.00 Ry     beta=0.70
     Davidson diagonalization with overlap
     ethr =  6.77E-09,  avg # of iterations = 10.5

     negative rho (up, down):  2.103E-03 0.000E+00

     total cpu time spent up to now is    22338.9 secs

     total energy              =  -12750.25418653 Ry
     Harris-Foulkes estimate   =  -12750.25419079 Ry
     estimated scf accuracy    <       0.00001302 Ry

     iteration # 36     ecut=    80.00 Ry     beta=0.70
     Davidson diagonalization with overlap
     ethr =  1.00E-09,  avg # of iterations =  5.3

     negative rho (up, down):  1.677E-03 0.000E+00

     total cpu time spent up to now is    22792.4 secs

     total energy              =  -12750.25419044 Ry
     Harris-Foulkes estimate   =  -12750.25418810 Ry
     estimated scf accuracy    <       0.00000582 Ry

     iteration # 37     ecut=    80.00 Ry     beta=0.70
     Davidson diagonalization with overlap
     ethr =  4.47E-10,  avg # of iterations =  3.0

     negative rho (up, down):  1.726E-03 0.000E+00

     total cpu time spent up to now is    23177.3 secs

     total energy              =  -12750.25419216 Ry
     Harris-Foulkes estimate   =  -12750.25419098 Ry
     estimated scf accuracy    <       0.00000185 Ry

     iteration # 38     ecut=    80.00 Ry     beta=0.70
     Davidson diagonalization with overlap
     ethr =  1.42E-10,  avg # of iterations =  3.0

     negative rho (up, down):  1.838E-03 0.000E+00

     total cpu time spent up to now is    23579.2 secs

     total energy              =  -12750.25419224 Ry
     Harris-Foulkes estimate   =  -12750.25419235 Ry
     estimated scf accuracy    <       0.00000080 Ry

     iteration # 39     ecut=    80.00 Ry     beta=0.70
     Davidson diagonalization with overlap
     ethr =  6.12E-11,  avg # of iterations =  2.7

     negative rho (up, down):  1.839E-03 0.000E+00

     total cpu time spent up to now is    23976.5 secs

     total energy              =  -12750.25419238 Ry
     Harris-Foulkes estimate   =  -12750.25419236 Ry
     estimated scf accuracy    <       0.00000026 Ry

     iteration # 40     ecut=    80.00 Ry     beta=0.70
     Davidson diagonalization with overlap
     ethr =  2.02E-11,  avg # of iterations =  2.3

     negative rho (up, down):  1.830E-03 0.000E+00

     total cpu time spent up to now is    24362.4 secs

     total energy              =  -12750.25419244 Ry
     Harris-Foulkes estimate   =  -12750.25419241 Ry
     estimated scf accuracy    <       0.00000009 Ry

     iteration # 41     ecut=    80.00 Ry     beta=0.70
     Davidson diagonalization with overlap
     ethr =  6.58E-12,  avg # of iterations =  2.5

     negative rho (up, down):  1.836E-03 0.000E+00

     total cpu time spent up to now is    24751.3 secs

     total energy              =  -12750.25419244 Ry
     Harris-Foulkes estimate   =  -12750.25419245 Ry
     estimated scf accuracy    <       0.00000002 Ry

     iteration # 42     ecut=    80.00 Ry     beta=0.70
     Davidson diagonalization with overlap
     ethr =  1.81E-12,  avg # of iterations =  2.5

     negative rho (up, down):  1.854E-03 0.000E+00

     total cpu time spent up to now is    25123.7 secs

     End of self-consistent calculation

          k = 0.0000 0.0000 0.0000 (256287 PWs)   bands (ev):

   -22.7710 -16.3420 -15.9724 -15.9671 -14.8643 -14.8629 -14.3791 -14.3775
   -14.0188 -14.0177 -14.0143 -14.0121 -13.0647 -13.0623 -12.9481 -12.9470
   -12.9467 -12.9451 -11.2545 -11.2532 -11.2523 -11.2508 -11.0448 -10.0496
    -9.3681  -9.3671  -9.3652  -9.3650  -8.4909  -8.4884  -8.4880  -8.4844
    -7.4995  -7.4967  -7.4255  -7.4236  -7.4224  -7.4205  -7.4080  -7.4075
    -7.2809  -6.0209  -5.8686  -5.8663  -5.8648  -5.8623  -5.7048  -5.7037
    -5.7031  -5.7021  -5.4877  -5.4855  -5.0940  -4.7720  -4.6586  -4.5863
    -4.5806  -4.5555  -4.5541  -4.5064  -4.2258  -4.2252  -4.0990  -4.0867
    -3.9898  -3.9896  -3.4148  -3.4132  -3.4129  -3.4119  -3.4092  -3.4085
    -3.2654  -3.2518  -3.2501  -3.2236  -3.2175  -3.1724  -3.0107  -3.0100
    -3.0082  -3.0081  -2.9032  -2.8998  -2.8839  -2.8054  -2.7754  -2.7329
    -2.7202  -2.6624  -2.6476  -2.5965  -2.5958  -2.5951  -2.5933  -2.3630
    -2.3613  -2.3609  -2.3581  -2.2985  -2.2912  -2.1942  -2.1941  -2.1546
    -2.1544  -2.1541  -2.1538  -2.0293  -2.0246  -2.0233  -2.0222  -2.0222
    -2.0211  -2.0210  -2.0179  -1.9523  -1.8903  -1.8895  -1.8393  -1.7781
    -1.7381  -1.7379  -1.7373  -1.7372  -1.6830  -1.6824  -1.6727  -1.6599
    -1.6576  -1.5966  -1.5878  -1.5636  -1.5631  -1.5616  -1.5598  -1.5269
    -1.5267  -1.5255  -1.5243  -1.5167  -1.5147  -1.4344  -1.4336  -1.4147
    -1.3693  -1.3682  -1.3680  -1.3665  -1.3529  -1.2990  -1.2629  -1.2612
    -1.2516  -1.2413  -1.2369  -1.2119  -1.2110  -1.1921  -1.1896  -1.1671
    -1.1638  -1.1152  -1.1092  -1.0911  -1.0909  -1.0896  -1.0878  -1.0468
    -1.0437  -1.0314  -1.0229  -1.0222  -1.0206  -1.0204  -1.0191  -1.0186
    -1.0145  -1.0143  -0.9960  -0.9584  -0.9566  -0.9507  -0.9247  -0.9237
    -0.9218  -0.9166  -0.9162  -0.9152  -0.8576  -0.8563  -0.8553  -0.8552
    -0.8540  -0.8532  -0.8524  -0.8498  -0.8491  -0.8484  -0.8483  -0.8459
    -0.8435  -0.8423  -0.8422  -0.8252  -0.8251  -0.7845  -0.7713  -0.7700
    -0.7681  -0.7653  -0.6888  -0.6888  -0.6842  -0.6839  -0.6564  -0.6553
    -0.6409  -0.6409  -0.6171  -0.6170  -0.6015  -0.6012  -0.6004  -0.6000
    -0.5832  -0.5785  -0.5749  -0.5629  -0.5626  -0.5604  -0.5599  -0.5515
    -0.5507  -0.5387  -0.5381  -0.4909  -0.4908  -0.4378  -0.4376  -0.4255
    -0.4239  -0.4233  -0.4222  -0.4061  -0.4060  -0.4025  -0.4025  -0.4021
    -0.4021  -0.3992  -0.3991  -0.3834  -0.3834  -0.3683  -0.3681  -0.3677
    -0.3675  -0.3514  -0.3507  -0.2979  -0.2955  -0.2951  -0.2885  -0.2883
    -0.2615  -0.2614  -0.2605  -0.2604  -0.2429  -0.2426  -0.2414  -0.2414
    -0.2404  -0.2162  -0.2158  -0.2150  -0.2145  -0.2097  -0.2095  -0.2088
    -0.2086  -0.2071  -0.2038  -0.1871  -0.1863  -0.1857  -0.1849  -0.1843
    -0.1654  -0.1167  -0.1165  -0.1143  -0.1141  -0.1078  -0.0652  -0.0647
    -0.0632  -0.0626  -0.0604  -0.0602  -0.0598  -0.0597  -0.0594  -0.0420
    -0.0410  -0.0062  -0.0053  -0.0010  -0.0005   0.0008   0.0253   0.0255
     0.0289   0.0291   0.0300   0.0334   0.0488   0.0496   0.0498   0.0500
     0.0513   0.0519   0.0671   0.0673   0.0676   0.0677   0.0801   0.0805
     0.0806   0.0814   0.1043   0.1052   0.1266   0.1293   0.1385   0.1399
     0.1710   0.1714   0.1727   0.1733   0.1970   0.2004   0.2397   0.2401
     0.2409   0.2418   0.2427   0.2460   0.2765   0.2787   0.2787   0.2796
     0.2801   0.2821   0.2891   0.2902   0.3277   0.3472   0.3473   0.3518
     0.3536   0.3543   0.3555   0.3558   0.3794   0.3892   0.3900   0.3902
     0.3904   0.4244   0.4268   0.4271   0.4279   0.4283   0.4434   0.4446
     0.4453   0.4460   0.4856   0.4859   0.4989   0.4994   0.5001   0.5016
     0.5019   0.5142   0.5314   0.5336   0.5363   0.5385   0.5394   0.5410
     0.5412   0.5413   0.5479   0.5505   0.5511   0.5598   0.5608   0.5611
     0.5620   0.5705   0.5706   0.5985   0.6120   0.6122   0.6212   0.6229
     0.6543   0.6548   0.6551   0.6555   0.6580   0.6580   0.6581   0.6583
     0.6694   0.6704   0.6808   0.6844   0.6848   0.6864   0.6889   0.6940
     0.6940   0.7057   0.7066   0.7155   0.7264   0.7267   0.7268   0.7272
     0.7379   0.7384   0.7496   0.7531   0.7551   0.7551   0.7590   0.7601
     0.7604   0.7630   0.7739   0.8046   0.8089   0.8116   0.8117   0.8119
     0.8189   0.8246   0.8255   0.8302   0.8304   0.8306   0.8317   0.8618
     0.8625   0.8780   0.8789   0.8821   0.8823   0.8968   0.8969   0.9055
     0.9068   0.9083   0.9090   0.9132   0.9282   0.9419   0.9444   0.9450
     0.9467   0.9472   0.9485   0.9667   0.9727   0.9820   0.9914   0.9914
     1.0007   1.0173   1.0178   1.0186   1.0188   1.0193   1.0248   1.0263
     1.0297   1.0298   1.0345   1.0353   1.0355   1.0357   1.0376   1.0460
     1.0510   1.0513   1.0700   1.0702   1.0730   1.0735   1.0788   1.0819
     1.1107   1.1117   1.1174   1.1186   1.1189   1.1196   1.1201   1.1203
     1.1264   1.1265   1.1268   1.1272   1.1298   1.1301   1.1427   1.1427
     1.1861   1.1891   1.1913   1.1934   1.2079   1.2103   1.2110   1.2117
     1.2147   1.2154   1.2284   1.2370   1.2379   1.2444   1.2463   1.2466
     1.2474   1.2518   1.2519   1.2528   1.2533   1.2539   1.2598   1.2806
     1.2818   1.2833   1.2839   1.2840   1.2842   1.2853   1.2859   1.3010
     1.3012   1.3021   1.3090   1.3171   1.3172   1.3182   1.3184   1.3219
     1.3273   1.3326   1.3342   1.3514   1.3598   1.3616   1.3629   1.3634
     1.3676   1.3732   1.3743   1.3799   1.3895   1.3923   1.3927   1.3967
     1.3994   1.4100   1.4232   1.4235   1.4307   1.4308   1.4421   1.4427
     1.4429   1.4430   1.4430   1.4438   1.4445   1.4449   1.4452   1.4469
     1.4560   1.4562   1.4568   1.4740   1.4743   1.4751   1.4753   1.4772
     1.4887   1.4894   1.5231   1.5245   1.5265   1.5275   1.5277   1.5655
     1.5662   1.5695   1.5701   1.5834   1.5906   1.5912   1.5932   1.5973
     1.6102   1.6370   1.6404   1.6411   1.6428   1.6431   1.6476   1.6509
     1.6511   1.9044   1.9625   2.1219   2.1220   2.1712   2.1735   2.2123
     2.2126   2.2129   2.2132   2.2342   2.2349   2.2351   2.2358   2.4163
     2.4164   2.4791   2.4795   2.4817   2.4821   2.4918   2.4926   2.7333
     2.7335   2.7349   2.7352   3.1110   3.1294   3.1367   3.1385   3.2051
     3.5438   3.5448   3.8321   3.8325   3.8621   3.8638   3.8643   3.8667
     3.9041   3.9549   3.9558   3.9732   4.0128   4.0133   4.0138   4.0143
     4.0163   4.0298   4.0387   4.0452   4.2692   4.2702   4.2749   4.2790
     4.4516   4.6189   4.7662   4.9985   5.0012   5.0267   5.0344   5.3148
     5.4344   5.4443   5.4584   5.7419   5.7455   5.7470   5.7535   5.9338
     5.9377   6.3809   6.3838   6.3973   6.4178   6.4997   6.5011   6.5038
     6.5083   6.6676   6.6681   6.6694   6.6714   6.8285   6.8330   6.8351
     6.8381   6.9167   6.9351   7.0652   7.1048   7.1075   7.1092   7.1110
     7.1165   7.3647   7.3689   7.5942   7.5947   7.6940   7.7077   7.7080
     7.7224   7.7259   8.1146   8.1442   8.2272   8.2464   8.2553   8.3386
     8.3387   8.3460   8.3531   8.3711   8.3974   8.4003   8.4517   8.4629
     8.5631   8.6319   8.6399   8.6434   8.6440   8.7000   8.7017   8.7036
     8.7058   8.8591   8.8600   8.8605   8.8624   8.8644   8.8712   9.1412
     9.1457   9.1486   9.1503   9.1524   9.1661   9.1884   9.3569   9.3607
     9.5364   9.5433   9.5519   9.5865   9.5868   9.6047   9.7298   9.7418
     9.8364  10.0486  10.0492  10.2005  10.2252

          k = 0.0000-0.2165 0.0000 (256176 PWs)   bands (ev):

   -22.7710 -16.2511 -16.2465 -15.5077 -15.5061 -14.2904 -14.2890 -14.2860
   -14.2842 -14.0460 -14.0453 -13.5721 -13.5702 -13.5629 -13.5615 -12.1764
   -12.1745 -12.1606 -12.1594 -11.9465 -11.9448 -10.2598 -10.2590 -10.2589
   -10.2577  -9.0148  -9.0133  -8.8561  -8.8543  -8.8539  -8.8517  -8.0276
    -8.0261  -8.0238  -8.0227  -7.2831  -6.8489  -6.8482  -6.8462  -6.8456
    -6.6956  -6.6923  -6.6905  -6.6860  -5.8862  -5.8860  -5.8766  -5.8761
    -5.0390  -5.0368  -5.0349  -5.0323  -4.9930  -4.9549  -4.8416  -4.8403
    -4.7143  -4.6561  -4.4800  -4.4796  -4.4740  -4.4726  -4.4444  -4.4054
    -3.9995  -3.9937  -3.5407  -3.5375  -3.3053  -3.3049  -3.3048  -3.3043
    -3.1750  -3.1714  -3.0617  -3.0584  -3.0332  -3.0328  -2.9225  -2.9208
    -2.9203  -2.9186  -2.8483  -2.7375  -2.7361  -2.7350  -2.7339  -2.6350
    -2.6338  -2.5820  -2.5812  -2.5810  -2.5806  -2.5804  -2.5760  -2.5756
    -2.5645  -2.4649  -2.4636  -2.3192  -2.3166  -2.2373  -2.2363  -2.2300
    -2.2271  -2.2270  -2.2150  -2.1433  -2.1431  -2.1428  -2.1425  -1.9877
    -1.9876  -1.9780  -1.9735  -1.9623  -1.9623  -1.8591  -1.8573  -1.7661
    -1.7658  -1.7550  -1.7545  -1.7523  -1.7514  -1.7511  -1.7502  -1.7414
    -1.7413  -1.7241  -1.7233  -1.6469  -1.6461  -1.5312  -1.5306  -1.5297
    -1.5273  -1.4585  -1.4584  -1.4580  -1.4573  -1.3754  -1.3747  -1.3697
    -1.3692  -1.3169  -1.3166  -1.2781  -1.2776  -1.2753  -1.2747  -1.2729
    -1.2719  -1.2411  -1.2401  -1.2323  -1.2299  -1.2298  -1.2286  -1.2213
    -1.2213  -1.2064  -1.2060  -1.1376  -1.1372  -1.1356  -1.1347  -1.1307
    -1.1304  -1.0884  -1.0882  -1.0508  -1.0507  -1.0476  -1.0473  -1.0028
    -1.0008  -0.9845  -0.9836  -0.9834  -0.9823  -0.9760  -0.9758  -0.9262
    -0.9260  -0.9192  -0.9186  -0.9087  -0.9086  -0.8940  -0.8936  -0.8936
    -0.8932  -0.8257  -0.8239  -0.8170  -0.8169  -0.8119  -0.8113  -0.8082
    -0.8079  -0.7936  -0.7933  -0.7796  -0.7786  -0.7539  -0.7538  -0.7463
    -0.7460  -0.6556  -0.6552  -0.6543  -0.6539  -0.6337  -0.6335  -0.6057
    -0.6052  -0.6041  -0.6037  -0.6013  -0.6012  -0.5712  -0.5707  -0.5400
    -0.5400  -0.5391  -0.5390  -0.5383  -0.5380  -0.5325  -0.5313  -0.5013
    -0.5012  -0.4802  -0.4802  -0.4780  -0.4765  -0.4449  -0.4444  -0.4440
    -0.4435  -0.4343  -0.4340  -0.4337  -0.4334  -0.4220  -0.4209  -0.3572
    -0.3568  -0.3552  -0.3548  -0.3255  -0.3238  -0.2999  -0.2998  -0.2939
    -0.2939  -0.2909  -0.2905  -0.2670  -0.2666  -0.2654  -0.2647  -0.2465
    -0.2459  -0.2449  -0.2444  -0.2440  -0.2439  -0.2432  -0.2432  -0.2408
    -0.2407  -0.2394  -0.2375  -0.2275  -0.2272  -0.2036  -0.2035  -0.2016
    -0.2015  -0.1373  -0.1372  -0.1370  -0.1367  -0.1289  -0.1280  -0.1277
    -0.1223  -0.1221  -0.1179  -0.1031  -0.0982  -0.0822  -0.0805  -0.0799
    -0.0795  -0.0787  -0.0778  -0.0734  -0.0727  -0.0724  -0.0718  -0.0701
    -0.0687  -0.0676  -0.0640  -0.0142  -0.0133  -0.0092  -0.0078   0.0085
     0.0088   0.0103   0.0120   0.0122   0.0124   0.0299   0.0310   0.0314
     0.0323   0.0345   0.0409   0.0611   0.0620   0.0629   0.0732   0.0790
     0.0793   0.0796   0.0796   0.0955   0.0992   0.1132   0.1135   0.1282
     0.1286   0.1410   0.1418   0.1418   0.1426   0.1819   0.1827   0.1858
     0.1865   0.2005   0.2020   0.2025   0.2031   0.2335   0.2340   0.2667
     0.2672   0.2710   0.2727   0.3008   0.3028   0.3612   0.3617   0.3892
     0.3894   0.3900   0.3903   0.4180   0.4189   0.4191   0.4194   0.4388
     0.4419   0.4589   0.4601   0.4615   0.4617   0.4621   0.4627   0.4627
     0.4655   0.4663   0.4710   0.4816   0.4823   0.4846   0.4849   0.4879
     0.4891   0.4892   0.4921   0.5206   0.5208   0.5334   0.5336   0.5336
     0.5344   0.5426   0.5426   0.5587   0.5601   0.5641   0.5644   0.5649
     0.5652   0.5656   0.5662   0.5788   0.5836   0.5839   0.5853   0.5866
     0.5872   0.5873   0.5880   0.5920   0.5921   0.6067   0.6086   0.6499
     0.6502   0.6630   0.6632   0.6738   0.6742   0.6745   0.6748   0.6821
     0.6830   0.6833   0.6842   0.6889   0.6889   0.6891   0.6892   0.7291
     0.7293   0.7309   0.7316   0.7468   0.7470   0.7484   0.7492   0.7501
     0.7513   0.7666   0.7678   0.7793   0.7799   0.7871   0.7874   0.7883
     0.7884   0.8402   0.8409   0.8923   0.8925   0.8961   0.8985   0.8990
     0.9016   0.9092   0.9094   0.9157   0.9160   0.9232   0.9238   0.9310
     0.9313   0.9326   0.9327   0.9444   0.9451   0.9479   0.9480   0.9482
     0.9501   0.9600   0.9615   0.9726   0.9729   0.9729   0.9729   0.9753
     0.9759   0.9806   0.9818   0.9856   0.9863   0.9957   0.9957   0.9997
     1.0001   1.0003   1.0008   1.0170   1.0172   1.0306   1.0315   1.0333
     1.0338   1.0352   1.0357   1.0442   1.0447   1.0452   1.0456   1.0457
     1.0457   1.0949   1.0964   1.1278   1.1321   1.1326   1.1330   1.1525
     1.1530   1.1611   1.1633   1.1637   1.1652   1.1752   1.1761   1.1922
     1.1934   1.1994   1.1996   1.2046   1.2054   1.2067   1.2068   1.2078
     1.2080   1.2088   1.2096   1.2096   1.2101   1.2160   1.2164   1.2305
     1.2332   1.2380   1.2390   1.2392   1.2400   1.2470   1.2481   1.2760
     1.2761   1.2774   1.2781   1.2833   1.2836   1.2865   1.2875   1.3042
     1.3044   1.3050   1.3053   1.3178   1.3179   1.3197   1.3204   1.3231
     1.3233   1.3387   1.3392   1.3403   1.3405   1.3580   1.3583   1.3616
     1.3620   1.3802   1.3805   1.3863   1.3868   1.3876   1.3880   1.4016
     1.4018   1.4027   1.4030   1.4195   1.4201   1.4331   1.4331   1.4332
     1.4339   1.4529   1.4537   1.4558   1.4563   1.4573   1.4575   1.4577
     1.4580   1.4867   1.4867   1.4940   1.4945   1.5006   1.5010   1.5153
     1.5163   1.5275   1.5280   1.5284   1.5288   1.5319   1.5337   1.5444
     1.5468   1.5964   1.5969   1.5970   1.5973   1.7005   1.7008   1.7287
     1.7307   1.7437   1.7439   1.7441   1.7446   1.7954   1.7976   1.7977
     1.8003   1.8211   1.8214   1.8217   1.8222   1.8580   1.8617   2.1905
     2.1934   2.1943   2.1992   2.4312   2.4314   2.4314   2.4315   2.5026
     2.5034   2.5758   2.5761   2.5795   2.5798   2.5870   2.5873   2.7154
     2.7173   2.7804   2.7816   2.7949   2.7951   2.9281   2.9291   3.1756
     3.1756   3.2029   3.2030   3.4410   3.4427   3.6794   3.6804   3.9225
     3.9419   4.0296   4.0370   4.0465   4.0591   4.1544   4.1573   4.1673
     4.1911   4.3443   4.3446   4.3449   4.3473   4.5216   4.5242   4.7245
     4.7351   4.8020   4.8098   5.1043   5.1046   5.1056   5.1144   5.3638
     5.3650   5.3653   5.3663   5.4511   5.4554   5.6897   5.6993   5.8554
     5.8690   5.9166   5.9298   6.4301   6.4359   6.4650   6.4685   6.4723
     6.4761   6.5752   6.5777   6.6745   6.6752   6.8444   6.8461   7.0311
     7.0427   7.0651   7.0733   7.0895   7.0929   7.1362   7.1379   7.1475
     7.1476   7.3641   7.3652   7.4307   7.4352   7.4727   7.4759   7.7585
     7.8076   7.8108   7.8487   7.8572   7.8987   8.1650   8.1653   8.3653
     8.3657   8.4698   8.4762   8.4799   8.4812   8.4864   8.4936   8.6047
     8.6088   8.7154   8.7281   8.7313   8.7363   8.7385   8.7754   8.7757
     8.8565   8.9667   8.9721   9.0446   9.0484   9.1763   9.1781   9.2637
     9.2789   9.2833   9.2869   9.3088   9.3774   9.3884   9.3905   9.3915
     9.3919   9.5041   9.5085   9.5231   9.5257   9.5321   9.5462   9.6994
     9.6999   9.7894   9.7901   9.8950   9.8950

          k = 0.2500 0.0000 0.0000 (256240 PWs)   bands (ev):

   -22.7710 -16.2178 -15.8487 -15.8435 -15.2307 -14.8662 -14.8611 -14.7426
   -14.7413 -13.7773 -13.7760 -13.3016 -12.9496 -12.9479 -12.9453 -12.9442
   -12.0270 -12.0247 -11.9179 -11.9165 -10.9393 -10.6253 -10.6225 -10.6133
   -10.0979  -9.9448  -9.6453  -9.6444  -9.2446  -8.9902  -8.9891  -8.4326
    -7.4251  -7.4242  -7.4224  -7.4210  -7.3081  -7.3071  -7.2804  -6.8430
    -6.5705  -6.0040  -5.8412  -5.8047  -5.8033  -5.7926  -5.7902  -5.3146
    -5.3124  -5.0636  -5.0619  -4.9379  -4.7308  -4.6577  -4.5591  -4.4680
    -4.4293  -4.4227  -4.3809  -4.2472  -4.2464  -4.2257  -4.2236  -4.0032
    -4.0006  -3.9514  -3.9441  -3.8426  -3.8424  -3.7844  -3.6546  -3.4975
    -3.4967  -3.4153  -3.4140  -3.4124  -3.4114  -3.3092  -3.3087  -3.2507
    -3.2422  -3.2176  -3.0970  -3.0890  -3.0256  -3.0235  -2.8953  -2.8522
    -2.8016  -2.8013  -2.7886  -2.6983  -2.6723  -2.6141  -2.6032  -2.4027
    -2.3593  -2.3586  -2.3338  -2.3334  -2.1014  -2.1014  -2.0854  -2.0833
    -1.9970  -1.9817  -1.9320  -1.9292  -1.8917  -1.8903  -1.8888  -1.8862
    -1.8303  -1.8026  -1.8026  -1.7951  -1.7951  -1.7751  -1.7442  -1.7256
    -1.7104  -1.7098  -1.6870  -1.6847  -1.6469  -1.6460  -1.6043  -1.5845
    -1.5825  -1.5791  -1.5790  -1.5774  -1.5773  -1.5382  -1.5357  -1.5222
    -1.5143  -1.5053  -1.5031  -1.4890  -1.4874  -1.3713  -1.3334  -1.3325
    -1.3128  -1.2788  -1.2684  -1.2682  -1.2436  -1.2428  -1.2380  -1.2222
    -1.2220  -1.2122  -1.2116  -1.2087  -1.1853  -1.1838  -1.1775  -1.1663
    -1.1362  -1.1338  -1.1288  -1.1285  -1.1258  -1.1256  -1.1120  -1.1102
    -1.0802  -1.0718  -1.0468  -1.0462  -1.0458  -1.0454  -1.0425  -1.0379
    -1.0162  -1.0117  -1.0098  -1.0005  -0.9933  -0.9931  -0.9799  -0.9796
    -0.9785  -0.9785  -0.9751  -0.9748  -0.9626  -0.9446  -0.9412  -0.9406
    -0.9033  -0.9029  -0.8992  -0.8984  -0.8937  -0.8893  -0.8879  -0.8779
    -0.8749  -0.8512  -0.8504  -0.8163  -0.8163  -0.7969  -0.7958  -0.7813
    -0.7698  -0.7694  -0.7575  -0.7532  -0.7511  -0.7490  -0.7405  -0.7393
    -0.7206  -0.5986  -0.5972  -0.5961  -0.5945  -0.5671  -0.5639  -0.5639
    -0.5489  -0.5488  -0.5476  -0.5454  -0.5254  -0.5252  -0.5250  -0.5248
    -0.5107  -0.5103  -0.4822  -0.4819  -0.4811  -0.4806  -0.4798  -0.4796
    -0.4585  -0.4584  -0.4583  -0.3976  -0.3974  -0.3973  -0.3942  -0.3906
    -0.3886  -0.3778  -0.3703  -0.3702  -0.3546  -0.3544  -0.3510  -0.3325
    -0.3281  -0.3280  -0.3250  -0.2912  -0.2912  -0.2910  -0.2908  -0.2773
    -0.2772  -0.2666  -0.2630  -0.2629  -0.2520  -0.2519  -0.2311  -0.2300
    -0.2252  -0.1993  -0.1954  -0.1936  -0.1931  -0.1923  -0.1786  -0.1773
    -0.1771  -0.1768  -0.1486  -0.1483  -0.1464  -0.1457  -0.1401  -0.1339
    -0.1316  -0.1124  -0.1067  -0.1065  -0.0930  -0.0919  -0.0630  -0.0611
    -0.0563  -0.0524  -0.0511  -0.0427  -0.0136  -0.0135  -0.0066  -0.0061
    -0.0052   0.0001   0.0004   0.0047   0.0069   0.0079   0.0082   0.0125
     0.0136   0.0170   0.0351   0.0353   0.0395   0.0398   0.0458   0.0460
     0.0645   0.0648   0.0770   0.0782   0.0952   0.1178   0.1183   0.1188
     0.1204   0.1208   0.1262   0.1282   0.1431   0.1446   0.1450   0.1458
     0.1459   0.1469   0.1834   0.1835   0.2273   0.2280   0.2577   0.2594
     0.2596   0.2727   0.2742   0.2786   0.2788   0.2814   0.2841   0.2845
     0.2863   0.2894   0.2913   0.3024   0.3045   0.3051   0.3100   0.3102
     0.3151   0.3152   0.3266   0.3269   0.3303   0.3329   0.3360   0.3422
     0.3620   0.3651   0.3659   0.4062   0.4065   0.4109   0.4198   0.4255
     0.4302   0.4304   0.4476   0.4481   0.4501   0.4534   0.4650   0.4672
     0.4835   0.4857   0.4860   0.4877   0.4892   0.4977   0.4979   0.4991
     0.4993   0.5217   0.5310   0.5311   0.5468   0.5470   0.5530   0.5531
     0.5566   0.5567   0.5580   0.5616   0.5618   0.5826   0.5837   0.5838
     0.5971   0.5979   0.5988   0.5994   0.6011   0.6160   0.6162   0.6197
     0.6224   0.6228   0.6413   0.6417   0.6631   0.6635   0.6705   0.6714
     0.6760   0.6761   0.6799   0.6959   0.7073   0.7105   0.7299   0.7333
     0.7425   0.7451   0.7452   0.7483   0.7488   0.7579   0.7710   0.7775
     0.7803   0.7842   0.7846   0.7974   0.7984   0.8084   0.8095   0.8102
     0.8202   0.8286   0.8288   0.8294   0.8390   0.8582   0.8616   0.8618
     0.8623   0.8675   0.8846   0.8882   0.8964   0.8971   0.8982   0.9002
     0.9070   0.9081   0.9089   0.9098   0.9168   0.9543   0.9581   0.9586
     0.9612   0.9612   0.9636   0.9689   0.9746   0.9765   0.9954   0.9968
     0.9985   0.9988   1.0057   1.0060   1.0088   1.0222   1.0230   1.0238
     1.0255   1.0269   1.0276   1.0319   1.0347   1.0351   1.0373   1.0382
     1.0407   1.0474   1.0525   1.0669   1.0675   1.0679   1.0755   1.0755
     1.0778   1.0823   1.0828   1.0847   1.0966   1.0966   1.1111   1.1142
     1.1147   1.1158   1.1175   1.1286   1.1410   1.1439   1.1444   1.1533
     1.1533   1.1616   1.1625   1.1679   1.1692   1.1765   1.1862   1.1907
     1.1958   1.1987   1.1995   1.2215   1.2379   1.2417   1.2450   1.2514
     1.2526   1.2528   1.2595   1.2595   1.2611   1.2616   1.2689   1.2804
     1.2841   1.2842   1.2864   1.2865   1.3043   1.3046   1.3064   1.3069
     1.3081   1.3126   1.3186   1.3207   1.3211   1.3235   1.3248   1.3293
     1.3299   1.3342   1.3349   1.3395   1.3478   1.3553   1.3574   1.3625
     1.3643   1.3644   1.3666   1.3675   1.3868   1.3870   1.3876   1.3967
     1.3988   1.4108   1.4112   1.4174   1.4248   1.4260   1.4289   1.4294
     1.4328   1.4345   1.4345   1.4380   1.4408   1.4419   1.4486   1.4492
     1.4584   1.4711   1.4712   1.4727   1.4745   1.4749   1.4767   1.4772
     1.4899   1.4903   1.5007   1.5027   1.5134   1.5137   1.5191   1.5202
     1.5204   1.5259   1.5357   1.5544   1.5571   1.5896   1.5924   1.5971
     1.6310   1.6323   1.6360   1.6725   1.6916   1.7018   1.7611   1.7680
     1.7688   1.7689   1.7866   1.8080   1.8434   1.8976   2.0142   2.0357
     2.0829   2.0831   2.0990   2.0990   2.1907   2.2018   2.2705   2.2729
     2.5694   2.5735   2.5742   2.5772   2.9794   2.9795   3.0308   3.1986
     3.1989   3.2226   3.2227   3.2937   3.2993   3.4786   3.5019   3.6007
     3.6020   3.6387   3.6390   3.7107   3.7110   3.7281   3.7308   3.7557
     3.8807   3.8826   3.9461   3.9513   3.9876   3.9963   4.0791   4.2028
     4.2185   4.2278   4.2833   4.4132   4.4673   4.4879   4.6727   4.8071
     4.8409   4.8413   5.1918   5.2256   5.2259   5.2378   5.3702   5.3736
     5.3811   5.4821   5.4860   5.5153   5.5847   5.6145   5.6360   5.7201
     5.7304   5.7530   5.7596   5.8569   5.8578   5.9049   5.9161   6.0128
     6.0149   6.0745   6.0753   6.6432   6.7138   6.7153   6.7334   6.7598
     6.8316   6.8451   6.8574   6.9137   7.0046   7.0279   7.0493   7.0625
     7.0634   7.0862   7.2773   7.2798   7.3406   7.3443   7.5425   7.5620
     7.5656   7.5805   7.6923   7.8078   7.8109   7.8296   7.8610   8.0162
     8.0252   8.0751   8.0754   8.2609   8.2745   8.2806   8.3325   8.3338
     8.3525   8.3573   8.3991   8.4300   8.4465   8.4708   8.5228   8.6619
     8.6633   8.9499   8.9684   9.0296   9.0313   9.1440   9.1607   9.1927
     9.2079   9.2301   9.2668   9.2723   9.2835   9.2979   9.3475   9.4406
     9.4422   9.4531   9.4585   9.5730   9.6336   9.7276   9.7353   9.7355
     9.7839   9.8824   9.8993   9.9855  10.0246

          k = 0.2500-0.2165 0.0000 (256316 PWs)   bands (ev):

   -22.7710 -16.1270 -16.1223 -15.3848 -15.3832 -15.1410 -15.1364 -14.4088
   -14.4072 -13.9263 -13.9256 -13.2148 -13.2103 -12.9780 -12.9772 -12.5112
   -12.5097 -11.8347 -11.8329 -11.2126 -11.2119 -10.9555 -10.9538 -10.5725
   -10.5684  -9.5229  -9.5217  -9.0013  -8.9990  -8.9202  -8.9187  -8.3591
    -8.3575  -8.2693  -8.2681  -7.2830  -6.5421  -6.5396  -6.5166  -6.5158
    -6.4002  -6.3964  -6.1722  -6.1699  -5.8364  -5.8360  -5.7080  -5.7078
    -5.0408  -5.0395  -4.8607  -4.7918  -4.7142  -4.7137  -4.6852  -4.6773
    -4.6633  -4.6535  -4.3494  -4.3487  -4.2912  -4.2689  -4.0767  -4.0746
    -4.0293  -4.0287  -3.8536  -3.8497  -3.6927  -3.6890  -3.5525  -3.5479
    -3.4607  -3.4607  -3.4496  -3.4474  -3.4060  -3.4037  -3.1305  -3.1213
    -3.0936  -3.0928  -2.9633  -2.9619  -2.9236  -2.9155  -2.9115  -2.9111
    -2.8326  -2.7896  -2.7658  -2.7630  -2.7606  -2.4755  -2.4736  -2.4403
    -2.4292  -2.3170  -2.3163  -2.2382  -2.2361  -2.1713  -2.1711  -2.1708
    -2.1693  -2.0104  -2.0102  -1.9634  -1.9624  -1.9012  -1.8968  -1.8302
    -1.8282  -1.8157  -1.8154  -1.8124  -1.8115  -1.7472  -1.7454  -1.7230
    -1.7230  -1.7113  -1.7107  -1.6932  -1.6922  -1.6770  -1.6769  -1.6760
    -1.6758  -1.6692  -1.6690  -1.6412  -1.6390  -1.5838  -1.5829  -1.4689
    -1.4688  -1.3604  -1.3596  -1.3525  -1.3516  -1.3291  -1.3289  -1.2772
    -1.2772  -1.2637  -1.2636  -1.2580  -1.2542  -1.2484  -1.2483  -1.2375
    -1.2369  -1.2200  -1.2198  -1.2137  -1.2126  -1.1984  -1.1978  -1.1956
    -1.1953  -1.1885  -1.1872  -1.1314  -1.1296  -1.1272  -1.1262  -1.1140
    -1.1139  -1.1046  -1.1024  -1.0781  -1.0773  -1.0710  -1.0704  -1.0381
    -1.0380  -1.0260  -1.0259  -1.0209  -1.0205  -0.9968  -0.9966  -0.9728
    -0.9707  -0.9607  -0.9605  -0.9546  -0.9541  -0.9469  -0.9467  -0.9223
    -0.9221  -0.9004  -0.9003  -0.8692  -0.8679  -0.8624  -0.8619  -0.7765
    -0.7751  -0.7744  -0.7737  -0.7729  -0.7725  -0.7521  -0.7508  -0.7198
    -0.7193  -0.7110  -0.7109  -0.7072  -0.7070  -0.6971  -0.6955  -0.6923
    -0.6919  -0.6504  -0.6503  -0.6469  -0.6464  -0.6135  -0.6130  -0.5655
    -0.5649  -0.5641  -0.5636  -0.5443  -0.5440  -0.5298  -0.5294  -0.5192
    -0.5180  -0.4994  -0.4984  -0.4864  -0.4861  -0.4529  -0.4528  -0.4471
    -0.4466  -0.4436  -0.4430  -0.4054  -0.4053  -0.3939  -0.3938  -0.3749
    -0.3746  -0.3643  -0.3641  -0.3636  -0.3632  -0.3583  -0.3573  -0.3543
    -0.3540  -0.3480  -0.3477  -0.3324  -0.3310  -0.3163  -0.3158  -0.3146
    -0.3137  -0.2863  -0.2853  -0.2690  -0.2686  -0.2530  -0.2525  -0.2374
    -0.2373  -0.2238  -0.2236  -0.2135  -0.2131  -0.2089  -0.2076  -0.1746
    -0.1743  -0.1499  -0.1497  -0.1124  -0.1122  -0.1039  -0.1038  -0.1016
    -0.1007  -0.0828  -0.0828  -0.0772  -0.0757  -0.0655  -0.0654  -0.0520
    -0.0519  -0.0461  -0.0454  -0.0365  -0.0360  -0.0350  -0.0341  -0.0130
    -0.0125  -0.0030  -0.0020  -0.0011   0.0003   0.0027   0.0034   0.0039
     0.0040   0.0121   0.0128   0.0359   0.0361   0.0363   0.0364   0.0700
     0.0703   0.0777   0.0781   0.0834   0.0841   0.1025   0.1030   0.1209
     0.1221   0.1381   0.1383   0.1424   0.1440   0.1517   0.1543   0.1581
     0.1584   0.1605   0.1614   0.1720   0.1723   0.1803   0.1805   0.2084
     0.2089   0.2750   0.2751   0.2825   0.2827   0.2863   0.2866   0.2907
     0.2912   0.2922   0.2925   0.2964   0.2974   0.3181   0.3200   0.3245
     0.3254   0.3357   0.3361   0.3374   0.3376   0.3383   0.3384   0.3734
     0.3745   0.3860   0.3868   0.3974   0.3980   0.4093   0.4096   0.4494
     0.4501   0.4560   0.4567   0.4601   0.4603   0.4676   0.4689   0.4717
     0.4720   0.4836   0.4837   0.4857   0.4860   0.4861   0.4872   0.5179
     0.5186   0.5223   0.5224   0.5409   0.5411   0.5699   0.5700   0.5708
     0.5720   0.6050   0.6058   0.6108   0.6115   0.6133   0.6136   0.6194
     0.6196   0.6203   0.6228   0.6303   0.6321   0.6351   0.6365   0.6407
     0.6411   0.6532   0.6543   0.6655   0.6663   0.6715   0.6716   0.6764
     0.6765   0.6871   0.6875   0.6934   0.6938   0.6940   0.6943   0.7117
     0.7123   0.7163   0.7165   0.7213   0.7214   0.7244   0.7256   0.7269
     0.7279   0.7620   0.7621   0.7736   0.7746   0.7937   0.7999   0.8126
     0.8137   0.8271   0.8272   0.8300   0.8302   0.8350   0.8354   0.8581
     0.8586   0.8603   0.8604   0.8614   0.8616   0.8727   0.8730   0.8879
     0.8883   0.8890   0.8899   0.8996   0.9001   0.9096   0.9100   0.9337
     0.9338   0.9590   0.9592   0.9653   0.9661   0.9670   0.9684   0.9701
     0.9702   0.9747   0.9756   1.0046   1.0052   1.0088   1.0094   1.0240
     1.0242   1.0368   1.0369   1.0426   1.0432   1.0701   1.0717   1.0747
     1.0765   1.0852   1.0859   1.0929   1.0929   1.0953   1.0958   1.0959
     1.0965   1.1012   1.1020   1.1112   1.1118   1.1231   1.1235   1.1256
     1.1262   1.1442   1.1443   1.1711   1.1713   1.1778   1.1781   1.1816
     1.1820   1.1838   1.1844   1.1898   1.1916   1.1967   1.1967   1.2029
     1.2032   1.2091   1.2093   1.2097   1.2100   1.2178   1.2195   1.2284
     1.2285   1.2297   1.2300   1.2316   1.2321   1.2455   1.2460   1.2511
     1.2515   1.2765   1.2767   1.2842   1.2846   1.3002   1.3003   1.3043
     1.3050   1.3166   1.3169   1.3282   1.3292   1.3297   1.3306   1.3377
     1.3380   1.3414   1.3431   1.3539   1.3542   1.3546   1.3551   1.3665
     1.3667   1.3805   1.3806   1.3880   1.3880   1.3881   1.3884   1.3916
     1.3921   1.3993   1.3995   1.4113   1.4114   1.4164   1.4166   1.4272
     1.4299   1.4338   1.4343   1.4405   1.4407   1.4437   1.4438   1.4481
     1.4490   1.4503   1.4503   1.4600   1.4600   1.4605   1.4626   1.4852
     1.4852   1.4907   1.4918   1.5077   1.5077   1.5280   1.5286   1.5345
     1.5347   1.5571   1.5576   1.5641   1.5643   1.5887   1.5894   1.6564
     1.6581   1.6621   1.6645   1.6744   1.6749   1.7571   1.7600   1.7762
     1.7785   1.7947   1.7953   1.7966   1.7972   1.8491   1.8506   1.8587
     1.8602   2.1312   2.1317   2.1653   2.1653   2.2956   2.2957   2.5881
     2.5882   2.7910   2.7916   2.7984   2.7985   2.8115   2.8120   2.8515
     2.8527   2.9896   2.9898   3.0964   3.0968   3.5478   3.5488   3.6251
     3.6267   3.7003   3.7015   3.8435   3.8441   3.8543   3.8546   3.9488
     3.9576   4.0015   4.0062   4.0638   4.0648   4.1655   4.1664   4.3783
     4.3787   4.4207   4.4261   4.5672   4.5695   4.6727   4.6752   4.7536
     4.7578   4.8273   4.8329   4.9582   4.9591   5.0521   5.0689   5.1680
     5.1770   5.3058   5.3092   5.4547   5.4554   5.4685   5.4691   5.5002
     5.5040   5.7653   5.7656   5.9097   5.9107   5.9566   5.9653   6.0721
     6.0757   6.6006   6.6022   6.6555   6.6607   6.7634   6.7657   6.8818
     6.8861   7.0765   7.0835   7.1052   7.1082   7.1094   7.1134   7.1982
     7.2005   7.2263   7.2270   7.3346   7.3385   7.3558   7.3570   7.4364
     7.4412   7.4477   7.4485   7.6877   7.6908   7.8123   7.8129   7.9242
     8.0030   8.0146   8.0489   8.1987   8.1997   8.2657   8.2674   8.5158
     8.5179   8.6015   8.6026   8.6422   8.6494   8.6673   8.6690   8.7274
     8.7298   8.8741   8.9457   8.9504   8.9625   8.9691   8.9720   9.1598
     9.1617   9.1902   9.1907   9.2291   9.2303   9.2352   9.2814   9.2832
     9.3079   9.3702   9.3716   9.3803   9.3880   9.4824   9.4989   9.5385
     9.5627   9.6705   9.6921  10.0059  10.0155

          k =-0.5000 0.0000 0.0000 (256496 PWs)   bands (ev):

   -22.7710 -15.8471 -15.8451 -15.4803 -15.4772 -15.4743 -15.4727 -14.3801
   -14.3786 -14.3777 -14.3766 -12.6009 -12.5987 -12.5980 -12.5964 -12.0257
   -12.0251 -11.6979 -11.6959 -11.6924 -11.6918 -11.0458 -11.0443 -10.6242
   -10.6223 -10.0497 -10.0487  -9.6461  -9.6444  -8.8080  -8.8064  -8.8049
    -8.8031  -7.3093  -7.3065  -7.2825  -7.2399  -7.2387  -7.2381  -7.2364
    -5.7922  -5.7918  -5.3118  -5.3115  -5.0635  -5.0623  -4.8106  -4.8062
    -4.8060  -4.8038  -4.7445  -4.6606  -4.6458  -4.6438  -4.6424  -4.6409
    -4.5579  -4.5569  -4.5567  -4.5556  -4.4298  -4.4095  -4.2663  -4.2651
    -4.2621  -4.2607  -3.9757  -3.9719  -3.9713  -3.9660  -3.9448  -3.9342
    -3.5236  -3.5215  -3.5208  -3.5187  -3.4217  -3.4216  -3.4213  -3.4213
    -3.2652  -3.2642  -3.2515  -3.2510  -3.2504  -3.2495  -2.8503  -2.7434
    -2.7420  -2.7417  -2.7190  -2.6617  -2.6606  -2.6599  -2.6593  -2.5983
    -2.5945  -2.3929  -2.3920  -2.3909  -2.3729  -2.2957  -2.2951  -2.2922
    -2.2870  -1.8814  -1.8814  -1.8807  -1.8806  -1.8784  -1.8784  -1.7482
    -1.7479  -1.7476  -1.7463  -1.6510  -1.6509  -1.6508  -1.6506  -1.6047
    -1.6043  -1.6027  -1.6024  -1.5395  -1.5383  -1.5007  -1.5001  -1.4862
    -1.4861  -1.4257  -1.4257  -1.4253  -1.4251  -1.4077  -1.4076  -1.3588
    -1.3588  -1.3554  -1.3553  -1.3459  -1.3448  -1.3441  -1.3432  -1.3404
    -1.3402  -1.3366  -1.3364  -1.3317  -1.3305  -1.2905  -1.2904  -1.2888
    -1.2885  -1.2685  -1.2684  -1.2679  -1.2679  -1.2040  -1.2039  -1.1831
    -1.1828  -1.1824  -1.1821  -1.1496  -1.1494  -1.1488  -1.1487  -1.1487
    -1.1485  -1.1482  -1.1481  -1.1067  -1.1066  -1.1056  -1.1055  -1.0871
    -1.0870  -1.0560  -1.0559  -1.0080  -1.0079  -0.9819  -0.9818  -0.9801
    -0.9800  -0.9503  -0.9502  -0.9498  -0.9497  -0.9425  -0.9422  -0.9415
    -0.9413  -0.9304  -0.9302  -0.9281  -0.9279  -0.9004  -0.9003  -0.8901
    -0.8890  -0.8393  -0.8391  -0.8366  -0.8365  -0.7930  -0.7928  -0.7121
    -0.7121  -0.7115  -0.7115  -0.6740  -0.6738  -0.6717  -0.6715  -0.6703
    -0.6703  -0.6605  -0.6583  -0.6529  -0.6512  -0.6296  -0.6293  -0.6272
    -0.6267  -0.6128  -0.6125  -0.5952  -0.5949  -0.5934  -0.5931  -0.4954
    -0.4941  -0.4936  -0.4923  -0.4649  -0.4641  -0.4628  -0.4620  -0.4534
    -0.4533  -0.4027  -0.4025  -0.4022  -0.4019  -0.4018  -0.4014  -0.4001
    -0.3999  -0.3704  -0.3703  -0.3642  -0.3641  -0.3638  -0.3638  -0.3270
    -0.3268  -0.3254  -0.3252  -0.2935  -0.2935  -0.2933  -0.2933  -0.2831
    -0.2831  -0.2494  -0.2494  -0.2477  -0.2477  -0.2294  -0.2291  -0.2289
    -0.2286  -0.2014  -0.2010  -0.1911  -0.1904  -0.1318  -0.1318  -0.1307
    -0.1306  -0.1251  -0.1251  -0.1240  -0.1240  -0.0854  -0.0852  -0.0831
    -0.0829  -0.0500  -0.0497  -0.0199  -0.0195  -0.0176  -0.0175  -0.0163
    -0.0162  -0.0160  -0.0158  -0.0155  -0.0153  -0.0148  -0.0148   0.0445
     0.0453   0.0642   0.0649   0.0699   0.0700   0.0717   0.0717   0.0733
     0.0734   0.0739   0.0740   0.0816   0.0819   0.0836   0.0837   0.0891
     0.0906   0.0965   0.0970   0.1083   0.1083   0.1224   0.1226   0.1235
     0.1235   0.1236   0.1237   0.1316   0.1316   0.1320   0.1320   0.1464
     0.1464   0.1588   0.1589   0.1590   0.1592   0.1622   0.1624   0.1853
     0.1854   0.2802   0.2862   0.2912   0.2912   0.2936   0.2937   0.2996
     0.3039   0.3227   0.3230   0.3245   0.3254   0.3377   0.3379   0.3425
     0.3427   0.3459   0.3462   0.3496   0.3498   0.3543   0.3545   0.3554
     0.3557   0.3572   0.3575   0.3699   0.3699   0.3912   0.3921   0.3923
     0.3927   0.3973   0.3977   0.3981   0.3989   0.4092   0.4095   0.4662
     0.4665   0.4946   0.4947   0.4982   0.4989   0.5093   0.5096   0.5279
     0.5281   0.5312   0.5313   0.5339   0.5339   0.5344   0.5347   0.5387
     0.5391   0.5399   0.5401   0.5414   0.5418   0.5500   0.5502   0.5505
     0.5506   0.5751   0.5752   0.5892   0.5893   0.6102   0.6107   0.6230
     0.6239   0.6278   0.6285   0.6287   0.6290   0.6346   0.6350   0.6356
     0.6357   0.6389   0.6392   0.6554   0.6555   0.6584   0.6585   0.6742
     0.6745   0.6752   0.6757   0.7096   0.7098   0.7108   0.7109   0.7125
     0.7130   0.7308   0.7308   0.7673   0.7675   0.7712   0.7720   0.7729
     0.7737   0.7738   0.7741   0.8207   0.8213   0.8426   0.8427   0.8452
     0.8454   0.8468   0.8468   0.8544   0.8546   0.8570   0.8571   0.8603
     0.8607   0.8708   0.8713   0.8901   0.8903   0.8919   0.8920   0.9101
     0.9103   0.9110   0.9112   0.9123   0.9126   0.9165   0.9171   0.9526
     0.9528   0.9537   0.9539   1.0168   1.0177   1.0182   1.0183   1.0192
     1.0192   1.0520   1.0520   1.0523   1.0525   1.0651   1.0652   1.0726
     1.0726   1.0826   1.0827   1.0987   1.0990   1.1092   1.1101   1.1202
     1.1204   1.1226   1.1229   1.1235   1.1240   1.1289   1.1290   1.1323
     1.1324   1.1410   1.1412   1.1423   1.1424   1.1430   1.1431   1.1470
     1.1471   1.1814   1.1814   1.1829   1.1832   1.2127   1.2129   1.2190
     1.2192   1.2192   1.2194   1.2249   1.2251   1.2372   1.2374   1.2470
     1.2471   1.2476   1.2477   1.2580   1.2583   1.2597   1.2598   1.2683
     1.2686   1.2873   1.2877   1.2920   1.2922   1.3051   1.3053   1.3196
     1.3197   1.3219   1.3220   1.3222   1.3223   1.3255   1.3256   1.3352
     1.3353   1.3358   1.3360   1.3384   1.3384   1.3399   1.3402   1.3479
     1.3480   1.3486   1.3488   1.3491   1.3494   1.3557   1.3558   1.3702
     1.3703   1.3926   1.3930   1.3953   1.3966   1.3979   1.3980   1.3996
     1.3996   1.4160   1.4160   1.4191   1.4192   1.4346   1.4347   1.4420
     1.4421   1.4551   1.4551   1.4555   1.4555   1.4748   1.4750   1.4787
     1.4789   1.4851   1.4852   1.4858   1.4861   1.4876   1.4880   1.5031
     1.5033   1.5053   1.5054   1.5195   1.5195   1.5199   1.5200   1.5318
     1.5321   1.5444   1.5450   1.5853   1.5854   1.6138   1.6138   1.6179
     1.6181   1.6578   1.6599   2.0421   2.0423   2.0425   2.0427   2.2401
     2.2401   2.2687   2.2697   2.2884   2.2884   2.2959   2.2960   2.6343
     2.6347   2.6363   2.6376   2.8366   2.8367   2.8419   2.8422   3.1864
     3.1871   3.1904   3.1912   3.4787   3.4790   3.7700   3.7746   3.7751
     3.7755   3.9186   3.9294   3.9312   3.9337   3.9591   3.9687   4.0751
     4.0768   4.0812   4.0830   4.2147   4.2172   4.4792   4.4815   4.5970
     4.6046   4.7757   4.7776   4.7800   4.7835   4.8276   4.8281   4.8795
     4.8805   5.0220   5.0226   5.0494   5.0497   5.0577   5.0591   5.0859
     5.0859   5.1084   5.1095   5.2020   5.2079   5.2183   5.2243   5.5578
     5.5588   5.5672   5.5678   5.7067   5.7112   5.9377   5.9392   5.9986
     6.0007   6.0110   6.0138   6.0614   6.0629   6.0723   6.0737   6.4674
     6.4688   6.5037   6.5136   6.5381   6.5404   6.5519   6.5539   7.1139
     7.1148   7.1289   7.1302   7.1479   7.1480   7.6058   7.6062   7.6079
     7.6082   7.6091   7.6095   7.6544   7.6551   7.8172   7.8173   7.9031
     7.9037   7.9058   7.9067   8.0720   8.0734   8.0785   8.0803   8.1602
     8.1636   8.1679   8.1712   8.2637   8.3936   8.7395   8.7520   8.7771
     8.8454   8.8455   8.8505   8.8515   8.9995   9.0300   9.0923   9.0957
     9.1005   9.1013   9.1328   9.2664   9.2665   9.5251   9.5271   9.5299
     9.5302   9.5368   9.5380   9.5381   9.5462   9.5521   9.5532   9.5573
     9.5618   9.5641   9.5677   9.8090   9.8707

          k =-0.5000-0.2165 0.0000 (256328 PWs)   bands (ev):

   -22.7710 -15.7578 -15.7547 -15.7516 -15.7498 -15.0184 -15.0166 -15.0159
   -15.0147 -13.5697 -13.5689 -13.5677 -13.5670 -11.9438 -11.9429 -11.9391
   -11.9387 -11.5024 -11.5007 -11.4999 -11.4987 -11.3228 -11.3207 -11.3191
   -11.3190  -9.6233  -9.6229  -9.6208  -9.6200  -8.6607  -8.6599  -8.6515
    -8.6509  -7.8925  -7.8924  -7.8899  -7.8898  -7.2827  -5.8162  -5.8156
    -5.8148  -5.8143  -5.1938  -5.1933  -5.1919  -5.1916  -5.1817  -5.1813
    -5.1811  -5.1807  -4.9668  -4.9646  -4.9543  -4.9521  -4.7477  -4.6584
    -4.3205  -4.3144  -4.3064  -4.2838  -4.2003  -4.2001  -4.2000  -4.1993
    -4.0921  -4.0912  -4.0908  -4.0899  -3.8427  -3.8399  -3.8357  -3.8261
    -3.5438  -3.5428  -3.5416  -3.5413  -3.5406  -3.5398  -3.5396  -3.5387
    -3.4315  -3.4287  -3.4270  -3.4260  -3.0483  -3.0231  -3.0227  -3.0213
    -2.7863  -2.5816  -2.5815  -2.5812  -2.5810  -2.5162  -2.5155  -2.5150
    -2.5089  -2.2178  -2.2171  -2.2156  -2.2152  -2.0941  -2.0938  -2.0938
    -2.0932  -2.0101  -2.0092  -2.0088  -2.0075  -1.9143  -1.9119  -1.9097
    -1.9072  -1.8051  -1.8050  -1.8037  -1.8035  -1.6989  -1.6979  -1.6968
    -1.6943  -1.4951  -1.4949  -1.4948  -1.4948  -1.4754  -1.4744  -1.4741
    -1.4716  -1.4518  -1.4512  -1.4480  -1.4470  -1.4326  -1.4324  -1.4300
    -1.4300  -1.3858  -1.3855  -1.3855  -1.3853  -1.3834  -1.3832  -1.3827
    -1.3823  -1.3585  -1.3584  -1.3582  -1.3581  -1.3076  -1.3071  -1.3066
    -1.3065  -1.2286  -1.2285  -1.2274  -1.2272  -1.1904  -1.1903  -1.1902
    -1.1901  -1.1719  -1.1718  -1.1717  -1.1715  -1.1194  -1.1194  -1.1192
    -1.1192  -1.1138  -1.1138  -1.1138  -1.1138  -1.0810  -1.0808  -1.0806
    -1.0800  -1.0580  -1.0580  -1.0570  -1.0566  -1.0409  -1.0408  -1.0399
    -1.0396  -1.0359  -1.0358  -1.0352  -1.0351  -0.9309  -0.9295  -0.9161
    -0.9147  -0.8808  -0.8808  -0.8800  -0.8797  -0.8536  -0.8536  -0.8532
    -0.8532  -0.7683  -0.7682  -0.7678  -0.7676  -0.7627  -0.7626  -0.7623
    -0.7622  -0.7597  -0.7595  -0.7593  -0.7591  -0.6995  -0.6995  -0.6992
    -0.6990  -0.6874  -0.6872  -0.6859  -0.6858  -0.6663  -0.6661  -0.6651
    -0.6648  -0.5700  -0.5699  -0.5695  -0.5694  -0.5646  -0.5646  -0.5635
    -0.5634  -0.4963  -0.4962  -0.4959  -0.4958  -0.4459  -0.4458  -0.4456
    -0.4454  -0.4250  -0.4250  -0.4246  -0.4244  -0.3983  -0.3982  -0.3964
    -0.3962  -0.3865  -0.3864  -0.3858  -0.3856  -0.3460  -0.3457  -0.3450
    -0.3447  -0.2730  -0.2728  -0.2717  -0.2716  -0.2555  -0.2555  -0.2548
    -0.2547  -0.2380  -0.2379  -0.2372  -0.2371  -0.1542  -0.1540  -0.1537
    -0.1535  -0.1500  -0.1500  -0.1493  -0.1492  -0.1470  -0.1469  -0.1467
    -0.1466  -0.1072  -0.1071  -0.1070  -0.1070  -0.0951  -0.0950  -0.0945
    -0.0944  -0.0926  -0.0926  -0.0924  -0.0924  -0.0229  -0.0228  -0.0218
    -0.0215   0.0015   0.0015   0.0024   0.0024   0.0538   0.0542   0.0589
     0.0589   0.0744   0.0756   0.0786   0.0789   0.0868   0.0871   0.0878
     0.0879   0.0924   0.0926   0.0945   0.0947   0.0951   0.0957   0.0969
     0.0970   0.1051   0.1052   0.1069   0.1069   0.1120   0.1120   0.1143
     0.1144   0.1278   0.1278   0.1283   0.1284   0.1566   0.1567   0.1571
     0.1572   0.1660   0.1661   0.1667   0.1668   0.2134   0.2136   0.2144
     0.2145   0.2465   0.2465   0.2466   0.2468   0.3180   0.3201   0.3231
     0.3235   0.3308   0.3312   0.3328   0.3329   0.3469   0.3473   0.3475
     0.3478   0.3624   0.3627   0.3646   0.3646   0.3654   0.3659   0.3676
     0.3683   0.3727   0.3734   0.3744   0.3746   0.3861   0.3874   0.3880
     0.3884   0.4098   0.4119   0.4136   0.4138   0.4594   0.4599   0.4603
     0.4608   0.4628   0.4629   0.4645   0.4647   0.4755   0.4755   0.4759
     0.4760   0.5117   0.5119   0.5134   0.5136   0.5138   0.5141   0.5148
     0.5149   0.5591   0.5593   0.5594   0.5597   0.5709   0.5709   0.5717
     0.5717   0.5779   0.5780   0.5791   0.5796   0.5801   0.5802   0.5804
     0.5810   0.5966   0.5968   0.5973   0.5975   0.6136   0.6138   0.6144
     0.6146   0.6821   0.6826   0.6847   0.6851   0.6862   0.6865   0.6870
     0.6878   0.6977   0.6978   0.6985   0.6987   0.7179   0.7184   0.7220
     0.7227   0.7342   0.7342   0.7351   0.7352   0.7370   0.7372   0.7375
     0.7375   0.7882   0.7884   0.7901   0.7903   0.8165   0.8168   0.8176
     0.8178   0.8440   0.8446   0.8462   0.8466   0.8522   0.8524   0.8529
     0.8530   0.8772   0.8777   0.8797   0.8799   0.9293   0.9294   0.9305
     0.9306   0.9634   0.9636   0.9646   0.9648   1.0167   1.0169   1.0179
     1.0180   1.0327   1.0329   1.0344   1.0352   1.0452   1.0453   1.0461
     1.0465   1.0501   1.0502   1.0506   1.0507   1.0537   1.0537   1.0551
     1.0553   1.0826   1.0829   1.0832   1.0833   1.0866   1.0869   1.0880
     1.0882   1.0911   1.0917   1.0922   1.0928   1.1058   1.1065   1.1067
     1.1074   1.1295   1.1296   1.1302   1.1305   1.1410   1.1416   1.1419
     1.1421   1.1506   1.1506   1.1508   1.1511   1.1994   1.1996   1.2009
     1.2013   1.2016   1.2017   1.2076   1.2080   1.2281   1.2282   1.2282
     1.2282   1.2442   1.2445   1.2487   1.2493   1.2674   1.2676   1.2679
     1.2680   1.2762   1.2763   1.2766   1.2766   1.2849   1.2851   1.2864
     1.2865   1.2931   1.2932   1.2935   1.2936   1.3586   1.3587   1.3594
     1.3594   1.3604   1.3604   1.3612   1.3612   1.3716   1.3717   1.3725
     1.3728   1.3798   1.3800   1.3811   1.3812   1.3882   1.3883   1.3892
     1.3893   1.3940   1.3942   1.3955   1.3960   1.4010   1.4010   1.4016
     1.4017   1.4135   1.4138   1.4151   1.4153   1.4219   1.4220   1.4230
     1.4231   1.4550   1.4551   1.4553   1.4554   1.4701   1.4702   1.4714
     1.4717   1.4857   1.4863   1.4874   1.4877   1.5074   1.5074   1.5075
     1.5076   1.5634   1.5639   1.5657   1.5660   1.5798   1.5798   1.5804
     1.5805   1.6102   1.6108   1.6120   1.6123   1.6199   1.6201   1.6205
     1.6206   1.6223   1.6224   1.6233   1.6238   1.8421   1.8421   1.8426
     1.8428   2.3565   2.3573   2.3603   2.3614   2.5618   2.5619   2.5643
     2.5644   2.8060   2.8063   2.8064   2.8065   3.1085   3.1089   3.1100
     3.1106   3.4554   3.4556   3.4560   3.4560   3.6479   3.6483   3.6506
     3.6509   3.9286   3.9309   3.9321   3.9323   3.9518   3.9609   4.2309
     4.2312   4.2342   4.2353   4.3579   4.3587   4.3659   4.3698   4.5741
     4.5755   4.5770   4.5781   4.6083   4.6120   4.6145   4.6167   4.9162
     4.9173   4.9199   4.9254   5.0846   5.0854   5.1102   5.1117   5.1859
     5.1863   5.1913   5.1915   5.3263   5.3300   5.3508   5.3534   5.3762
     5.3808   5.3813   5.3816   5.7497   5.7511   5.7516   5.7521   5.7694
     5.7698   5.7779   5.7780   5.9214   5.9223   5.9334   5.9441   6.7823
     6.7826   6.7883   6.7884   7.1362   7.1371   7.1397   7.1408   7.1708
     7.1710   7.1723   7.1724   7.3115   7.3127   7.3158   7.3234   7.3765
     7.3766   7.3771   7.3772   7.6428   7.6444   7.6476   7.6498   7.9900
     7.9940   7.9990   7.9994   8.0742   8.0765   8.0832   8.0860   8.2546
     8.2550   8.2621   8.2627   8.3472   8.4164   8.4335   8.6467   8.9114
     8.9115   8.9119   8.9121   8.9309   8.9322   8.9326   8.9440   8.9814
     8.9815   8.9818   8.9822   9.1545   9.1574   9.1612   9.1677   9.3552
     9.3771   9.4077   9.5548   9.5557   9.5760   9.5763   9.5953   9.6086
     9.6097   9.6133   9.6520   9.9609  10.0175

     the Fermi energy is     3.3280 ev

!    total energy              =  -12750.25419240 Ry
     Harris-Foulkes estimate   =  -12750.25419245 Ry
     estimated scf accuracy    <          6.0E-09 Ry

     The total energy is the sum of the following terms:

     one-electron contribution = -108198.78628637 Ry
     hartree contribution      =   55466.28494597 Ry
     xc contribution           =   -4458.01767728 Ry
     ewald contribution        =   44446.68307080 Ry
     Dispersion Correction     =      -3.00619749 Ry
     smearing contrib. (-TS)   =      -3.41204803 Ry

     convergence has been achieved in  42 iterations

     Writing output data file gc.save
 
     init_run     :    190.57s CPU    204.30s WALL (       1 calls)
     electrons    :  23419.23s CPU  24918.75s WALL (       1 calls)

     Called by init_run:
     wfcinit      :    187.49s CPU    200.44s WALL (       1 calls)
     potinit      :      1.02s CPU      1.11s WALL (       1 calls)

     Called by electrons:
     c_bands      :  21395.98s CPU  22729.92s WALL (      42 calls)
     sum_band     :   1637.26s CPU   1744.94s WALL (      42 calls)
     v_of_rho     :      5.28s CPU      6.60s WALL (      43 calls)
     newd         :     14.47s CPU     27.51s WALL (      43 calls)
     mix_rho      :    366.24s CPU    410.03s WALL (      42 calls)

     Called by c_bands:
     init_us_2    :     76.72s CPU     77.85s WALL (     510 calls)
     cegterg      :  21083.24s CPU  22403.96s WALL (     258 calls)

     Called by sum_band:
     sum_band:bec :      4.60s CPU      5.08s WALL (     252 calls)
     addusdens    :     20.46s CPU     31.60s WALL (      42 calls)

     Called by *egterg:
     h_psi        :   7534.68s CPU   8117.31s WALL (    1856 calls)
     s_psi        :   1834.00s CPU   1845.42s WALL (    1856 calls)
     g_psi        :     19.59s CPU     19.62s WALL (    1592 calls)
     cdiaghg      :   6177.34s CPU   6482.08s WALL (    1844 calls)

     Called by h_psi:
     add_vuspsi   :   1838.34s CPU   1851.23s WALL (    1856 calls)

     General routines
     calbec       :   2571.26s CPU   2590.94s WALL (    2108 calls)
     fft          :      4.46s CPU      5.35s WALL (     558 calls)
     ffts         :    159.08s CPU    190.20s WALL (   23527 calls)
     fftw         :   3743.43s CPU   4327.98s WALL ( 1239918 calls)
     davcio       :      0.35s CPU      9.39s WALL (       6 calls)
 
     Parallel routines
     fft_scatter  :   1934.33s CPU   2214.95s WALL ( 1264003 calls)
 
     PWSCF        :     6h33m CPU        6h59m WALL

 
   This run was terminated on:  23:55:53   6Sep2017            

=------------------------------------------------------------------------------=
   JOB DONE.
=------------------------------------------------------------------------------=
