
     Program PWSCF v.5.4.0 starts on 26Apr2017 at 21: 9:32 

     This program is part of the open-source Quantum ESPRESSO suite
     for quantum simulation of materials; please cite
         "P. Giannozzi et al., J. Phys.:Condens. Matter 21 395502 (2009);
          URL http://www.quantum-espresso.org", 
     in publications or presentations arising from this work. More details at
     http://www.quantum-espresso.org/quote

     Parallel version (MPI & OpenMP), running on      56 processor cores
     Number of MPI processes:                56
     Threads/MPI process:                     1
     R & G space division:  proc/nbgrp/npool/nimage =      56
     Waiting for input...
     Reading input from standard input
Warning: card &IONS ignored
Warning: card / ignored

     Current dimensions of program PWSCF are:
     Max number of different atomic species (ntypx) = 10
     Max number of k-points (npk) =  40000
     Max angular momentum in pseudopotentials (lmaxx) =  3

     -------------------------------------
     Parameters for Dispersion Correction:
     -------------------------------------
       atom      VdW radius       C_6     

        Cu         2.952        374.666
        C_h        2.744         60.710
        C          2.744         60.710

     Subspace diagonalization in iterative solution of the eigenvalue problem:
     one sub-group per band group will be used
     scalapack distributed-memory algorithm (size of sub-group:  5*  5 procs)

 
     Parallelization info
     --------------------
     sticks:   dense  smooth     PW     G-vecs:    dense   smooth      PW
     Min         204     204     54                36612    36612    4962
     Max         205     205     55                36617    36617    4968
     Sum       11433   11433   3039              2050409  2050409  278033
 


     bravais-lattice index     =            0
     lattice parameter (alat)  =      13.9425  a.u.
     unit-cell volume          =   21209.0878 (a.u.)^3
     number of atoms/cell      =          149
     number of atomic types    =            3
     number of electrons       =      1296.00
     number of Kohn-Sham states=          778
     kinetic-energy cutoff     =      80.0000  Ry
     charge density cutoff     =     320.0000  Ry
     convergence threshold     =      1.0E-08
     mixing beta               =       0.7000
     number of iterations used =            8  local-TF  mixing
     Exchange-correlation      =  SLA  PW   PBX  PBC ( 1  4  3  4 0 0)

     celldm(1)=  13.942539  celldm(2)=   0.000000  celldm(3)=   0.000000
     celldm(4)=   0.000000  celldm(5)=   0.000000  celldm(6)=   0.000000

     crystal axes: (cart. coord. in units of alat)
               a(1) = (   1.000000   0.000000   0.000000 )  
               a(2) = (   0.000000   2.309401   0.000000 )  
               a(3) = (   0.000000   0.000000   3.388418 )  

     reciprocal axes: (cart. coord. in units 2 pi/alat)
               b(1) = (  1.000000  0.000000  0.000000 )  
               b(2) = (  0.000000  0.433013  0.000000 )  
               b(3) = (  0.000000  0.000000  0.295123 )  


     PseudoPot. # 1 for Cu read from file:
     /home/549/hxw549/Short/pseudopotentials/Cu.pbe-n-van_ak.UPF
     MD5 check sum: 601f7c30f7467666bec936e0661ce3e1
     Pseudo is Ultrasoft + core correction, Zval = 11.0
     Generated by new atomic code, or converted to UPF format
     Using radial grid of  867 points,  6 beta functions with: 
                l(1) =   0
                l(2) =   0
                l(3) =   1
                l(4) =   1
                l(5) =   2
                l(6) =   2
     Q(r) pseudized with  8 coefficients,  rinner =    1.400   1.400   1.400
                                                       1.400   1.400

     PseudoPot. # 2 for C  read from file:
     /home/549/hxw549/Short/pseudopotentials/C.star1s-pbe-mt_gipaw.UPF
     MD5 check sum: ef0cb3dee31bd9e4ba2a832a2c716264
     Pseudo is Norm-conserving, Zval =  5.0
     Generated by new atomic code, or converted to UPF format
     Using radial grid of 1073 points,  1 beta functions with: 
                l(1) =   0

     PseudoPot. # 3 for C  read from file:
     /home/549/hxw549/Short/pseudopotentials/C.pbe-mt_gipaw.UPF
     MD5 check sum: 5ac2f21f2c440b14befe521540822c15
     Pseudo is Norm-conserving, Zval =  4.0
     Generated by new atomic code, or converted to UPF format
     Using radial grid of 1073 points,  1 beta functions with: 
                l(1) =   0

     atomic species   valence    mass     pseudopotential
        Cu            11.00    63.54600     Cu( 1.00)
        C_h            5.00    12.01070     C ( 1.00)
        C              4.00    12.01070     C ( 1.00)

     No symmetry found



   Cartesian axes

     site n.     atom                  positions (alat units)
         1           Cu  tau(   1) = (   0.0110438  -0.0114414   0.9956708  )
         2           Cu  tau(   2) = (   0.2614250   0.2200117   0.9954928  )
         3           Cu  tau(   3) = (   0.5115391  -0.0113269   0.9958217  )
         4           Cu  tau(   4) = (   0.7613891   0.2207663   0.9964136  )
         5           Cu  tau(   5) = (   0.0113943   0.4524409   0.9959458  )
         6           Cu  tau(   6) = (   0.2616259   0.6849598   0.9956623  )
         7           Cu  tau(   7) = (   0.5116233   0.4522664   0.9960070  )
         8           Cu  tau(   8) = (   0.7615468   0.6852408   0.9952534  )
         9           Cu  tau(   9) = (   0.0117907   0.9178219   0.9948203  )
        10           Cu  tau(  10) = (   0.2614792   1.1492807   0.9953844  )
        11           Cu  tau(  11) = (   0.5111147   0.9177905   0.9949121  )
        12           Cu  tau(  12) = (   0.7612765   1.1496612   0.9950202  )
        13           Cu  tau(  13) = (   0.0114254   1.3794539   0.9962709  )
        14           Cu  tau(  14) = (   0.2611847   1.6090776   0.9959988  )
        15           Cu  tau(  15) = (   0.5111112   1.3796813   0.9962249  )
        16           Cu  tau(  16) = (   0.7613800   1.6080727   0.9975318  )
        17           Cu  tau(  17) = (   0.0110525   1.8373497   0.9965526  )
        18           Cu  tau(  18) = (   0.2611022   2.0668146   0.9957100  )
        19           Cu  tau(  19) = (   0.5115353   1.8374206   0.9969094  )
        20           Cu  tau(  20) = (   0.7612623   2.0673174   0.9965234  )
        21           Cu  tau(  21) = (   0.0115865   0.2202931   1.2432999  )
        22           Cu  tau(  22) = (   0.2615067  -0.0113668   1.2436810  )
        23           Cu  tau(  23) = (   0.5121153   0.2200524   1.2432997  )
        24           Cu  tau(  24) = (   0.7615741  -0.0112684   1.2444258  )
        25           Cu  tau(  25) = (   0.0120879   0.6858149   1.2420612  )
        26           Cu  tau(  26) = (   0.2622035   0.4521150   1.2414827  )
        27           Cu  tau(  27) = (   0.5126220   0.6861224   1.2423676  )
        28           Cu  tau(  28) = (   0.7623117   0.4531408   1.2429278  )
        29           Cu  tau(  29) = (   0.0120951   1.1485183   1.2441321  )
        30           Cu  tau(  30) = (   0.2624932   0.9175385   1.2431955  )
        31           Cu  tau(  31) = (   0.5125517   1.1484323   1.2441895  )
        32           Cu  tau(  32) = (   0.7623301   0.9177824   1.2425979  )
        33           Cu  tau(  33) = (   0.0115999   1.6080459   1.2472319  )
        34           Cu  tau(  34) = (   0.2621348   1.3794321   1.2445920  )
        35           Cu  tau(  35) = (   0.5121119   1.6081595   1.2471170  )
        36           Cu  tau(  36) = (   0.7623837   1.3782062   1.2467795  )
        37           Cu  tau(  37) = (   0.0116806   2.0671470   1.2450539  )
        38           Cu  tau(  38) = (   0.2614328   1.8372499   1.2469863  )
        39           Cu  tau(  39) = (   0.5111922   2.0673891   1.2450768  )
        40           Cu  tau(  40) = (   0.7614783   1.8374249   1.2466590  )
        41           Cu  tau(  41) = (   0.0128307  -0.0113442   1.4927939  )
        42           Cu  tau(  42) = (   0.2627512   0.2210169   1.4909223  )
        43           Cu  tau(  43) = (   0.5122958  -0.0110577   1.4931574  )
        44           Cu  tau(  44) = (   0.7631788   0.2207633   1.4920526  )
        45           Cu  tau(  45) = (   0.0124689   0.4535341   1.4903636  )
        46           Cu  tau(  46) = (   0.2635812   0.6826929   1.4881866  )
        47           Cu  tau(  47) = (   0.5140215   0.4526925   1.4895506  )
        48           Cu  tau(  48) = (   0.7640315   0.6855347   1.4916045  )
        49           Cu  tau(  49) = (   0.0126120   0.9168690   1.4920031  )
        50           Cu  tau(  50) = (   0.2638222   1.1502126   1.4921598  )
        51           Cu  tau(  51) = (   0.5157245   0.9171270   1.4923349  )
        52           Cu  tau(  52) = (   0.7644218   1.1466844   1.4959148  )
        53           Cu  tau(  53) = (   0.0130865   1.3767647   1.4974788  )
        54           Cu  tau(  54) = (   0.2628014   1.6062265   1.4983366  )
        55           Cu  tau(  55) = (   0.5142526   1.3775647   1.4966766  )
        56           Cu  tau(  56) = (   0.7633736   1.6077250   1.4987595  )
        57           Cu  tau(  57) = (   0.0129415   1.8379035   1.4973478  )
        58           Cu  tau(  58) = (   0.2624971   2.0681420   1.4960341  )
        59           Cu  tau(  59) = (   0.5119507   1.8377261   1.4973559  )
        60           Cu  tau(  60) = (   0.7624206   2.0676490   1.4954378  )
        61           Cu  tau(  61) = (   0.0134450   0.2209352   1.7379697  )
        62           Cu  tau(  62) = (   0.2640583  -0.0083505   1.7427661  )
        63           Cu  tau(  63) = (   0.5142676   0.2217331   1.7387418  )
        64           Cu  tau(  64) = (   0.7635517  -0.0104522   1.7421749  )
        65           Cu  tau(  65) = (   0.0159796   0.6853904   1.7410080  )
        66           Cu  tau(  66) = (   0.2642682   0.4535023   1.7381376  )
        67           Cu  tau(  67) = (   0.5152794   0.6836224   1.7373122  )
        68           Cu  tau(  68) = (   0.7646843   0.4535537   1.7400127  )
        69           Cu  tau(  69) = (   0.0167247   1.1436236   1.7482164  )
        70           Cu  tau(  70) = (   0.2651031   0.9155579   1.7275724  )
        71           Cu  tau(  71) = (   0.5159326   1.1455380   1.7441761  )
        72           Cu  tau(  72) = (   0.7683541   0.9148126   1.7485706  )
        73           Cu  tau(  73) = (   0.0142639   1.6068766   1.7476196  )
        74           Cu  tau(  74) = (   0.2648584   1.3737826   1.7494837  )
        75           Cu  tau(  75) = (   0.5145170   1.6062944   1.7471497  )
        76           Cu  tau(  76) = (   0.7657115   1.3751659   1.7486079  )
        77           Cu  tau(  77) = (   0.0143418   2.0693287   1.7461899  )
        78           Cu  tau(  78) = (   0.2638754   1.8370321   1.7475232  )
        79           Cu  tau(  79) = (   0.5132425   2.0692373   1.7461080  )
        80           Cu  tau(  80) = (   0.7638619   1.8389410   1.7479219  )
        81           Cu  tau(  81) = (   0.0168958  -0.0053088   1.9879892  )
        82           Cu  tau(  82) = (   0.2657347   0.2263952   1.9859210  )
        83           Cu  tau(  83) = (   0.5118431  -0.0064075   1.9891185  )
        84           Cu  tau(  84) = (   0.7635667   0.2199764   1.9856613  )
        85           Cu  tau(  85) = (   0.0130974   0.4491110   1.9840499  )
        86           Cu  tau(  86) = (   0.2677388   0.6743016   1.9863443  )
        87           Cu  tau(  87) = (   0.5186636   0.4516565   1.9846776  )
        88           Cu  tau(  88) = (   0.7693270   0.6831601   1.9896207  )
        89           Cu  tau(  89) = (   0.0274231   0.9115854   2.0043395  )
        90           Cu  tau(  90) = (   0.2704243   1.1488631   2.0007915  )
        91           Cu  tau(  91) = (   0.5182627   0.9110942   1.9887177  )
        92           Cu  tau(  92) = (   0.7690708   1.1416007   1.9955897  )
        93           Cu  tau(  93) = (   0.0140537   1.3757942   1.9956399  )
        94           Cu  tau(  94) = (   0.2647042   1.6046237   1.9941680  )
        95           Cu  tau(  95) = (   0.5196994   1.3767956   1.9946082  )
        96           Cu  tau(  96) = (   0.7660924   1.6081435   1.9948951  )
        97           Cu  tau(  97) = (   0.0148999   1.8387651   1.9938407  )
        98           Cu  tau(  98) = (   0.2645305   2.0700384   1.9912808  )
        99           Cu  tau(  99) = (   0.5145875   1.8375178   1.9926260  )
       100           Cu  tau( 100) = (   0.7647940   2.0725016   1.9924674  )
       101           C   tau( 101) = (  -0.0251872   0.1151002   2.3847464  )
       102           C   tau( 102) = (  -0.0253734   0.3076615   2.3848541  )
       103           C   tau( 103) = (   0.1415161   0.0187037   2.3836317  )
       104           C   tau( 104) = (   0.1412840   0.4036702   2.3835015  )
       105           C   tau( 105) = (   0.3080420   0.1147424   2.3796059  )
       106           C   tau( 106) = (   0.3078839   0.3074059   2.3787516  )
       107           C   tau( 107) = (   0.4750024   0.0187577   2.3785528  )
       108           C   tau( 108) = (   0.4745346   0.4037861   2.3786007  )
       109           C   tau( 109) = (   0.6418476   0.1151567   2.3815264  )
       110           C   tau( 110) = (   0.6415739   0.3077287   2.3816382  )
       111           C   tau( 111) = (   0.8083298   0.0189081   2.3846765  )
       112           C   tau( 112) = (   0.8080686   0.4038635   2.3834607  )
       113           C   tau( 113) = (  -0.0258838   0.6927930   2.3877506  )
       114           C   tau( 114) = (  -0.0265292   0.8858155   2.4001940  )
       115           C   tau( 115) = (   0.1415205   0.5964469   2.3839271  )
       116           C   tau( 116) = (   0.1374721   0.9830981   2.3980172  )
       117           C   tau( 117) = (   0.3071235   0.6906498   2.3737503  )
       118           C   tau( 118) = (   0.3040917   0.8889408   2.3365195  )
       119           C   tau( 119) = (   0.4733060   0.5967538   2.3774762  )
       120           C   tau( 120) = (   0.4758280   0.9832966   2.3838909  )
       121           C_h tau( 121) = (   0.2828792   0.9073881   2.1186454  )
       122           C   tau( 122) = (   0.6408219   0.6930252   2.3798236  )
       123           C   tau( 123) = (   0.6397531   0.8863128   2.3897899  )
       124           C   tau( 124) = (   0.8076329   0.5970442   2.3829098  )
       125           C   tau( 125) = (   0.8065552   0.9816504   2.4042410  )
       126           C   tau( 126) = (  -0.0259380   1.2702329   2.4086560  )
       127           C   tau( 127) = (  -0.0253727   1.4625193   2.4030912  )
       128           C   tau( 128) = (   0.1399779   1.1734188   2.4072885  )
       129           C   tau( 129) = (   0.1414867   1.5585632   2.3987663  )
       130           C   tau( 130) = (   0.3074922   1.2698072   2.4008826  )
       131           C   tau( 131) = (   0.3079543   1.4616740   2.4001619  )
       132           C   tau( 132) = (   0.4746346   1.1732204   2.3987652  )
       133           C   tau( 133) = (   0.4746263   1.5583819   2.3985875  )
       134           C   tau( 134) = (   0.6408832   1.2700059   2.4047221  )
       135           C   tau( 135) = (   0.6410698   1.4623589   2.4027948  )
       136           C   tau( 136) = (   0.8073121   1.1738588   2.4065839  )
       137           C   tau( 137) = (   0.8078605   1.5585484   2.3993779  )
       138           C   tau( 138) = (  -0.0250717   1.8470642   2.3892338  )
       139           C   tau( 139) = (  -0.0250497   2.0395138   2.3882491  )
       140           C   tau( 140) = (   0.1418006   1.7508188   2.3921320  )
       141           C   tau( 141) = (   0.1414553   2.1356069   2.3853820  )
       142           C   tau( 142) = (   0.3083032   1.8470723   2.3891948  )
       143           C   tau( 143) = (   0.3083495   2.0394329   2.3832890  )
       144           C   tau( 144) = (   0.4747878   1.7506911   2.3925533  )
       145           C   tau( 145) = (   0.4750346   2.1356518   2.3814166  )
       146           C   tau( 146) = (   0.6415100   1.8470504   2.3898298  )
       147           C   tau( 147) = (   0.6415905   2.0395151   2.3848099  )
       148           C   tau( 148) = (   0.8080191   1.7508884   2.3921879  )
       149           C   tau( 149) = (   0.8083768   2.1358230   2.3856020  )

     number of k points=     6  gaussian smearing, width (Ry)=  0.1000
                       cart. coord. in units 2pi/alat
        k(    1) = (   0.0000000   0.0000000   0.0000000), wk =   0.2500000
        k(    2) = (   0.0000000  -0.2165064   0.0000000), wk =   0.2500000
        k(    3) = (   0.2500000   0.0000000   0.0000000), wk =   0.5000000
        k(    4) = (   0.2500000  -0.2165064   0.0000000), wk =   0.5000000
        k(    5) = (  -0.5000000   0.0000000   0.0000000), wk =   0.2500000
        k(    6) = (  -0.5000000  -0.2165064   0.0000000), wk =   0.2500000

     Dense  grid:  2050409 G-vectors     FFT dimensions: (  80, 192, 270)

     Largest allocated arrays     est. size (Mb)     dimensions
        Kohn-Sham Wavefunctions        54.66 Mb     (    4604,  778)
        NL pseudopotentials           129.89 Mb     (    4604, 1849)
        Each V/rho on FFT grid          1.17 Mb     (   76800)
        Each G-vector array             0.28 Mb     (   36616)
        G-vector shells                 0.14 Mb     (   17932)
     Largest temporary arrays     est. size (Mb)     dimensions
        Auxiliary wavefunctions       218.62 Mb     (    4604, 3112)
        Each subspace H/S matrix        5.90 Mb     (     622,  622)
        Each <psi_i|beta_j> matrix     21.95 Mb     (    1849,  778)
        Arrays for rho mixing           9.38 Mb     (   76800,    8)

     Initial potential from superposition of free atoms
     Check: negative starting charge=   -0.001820

     starting charge 1270.31751, renormalised to 1296.00000

     negative rho (up, down):  1.857E-03 0.000E+00
     Starting wfc are 1292 randomized atomic wfcs

     total cpu time spent up to now is      107.5 secs

     Self-consistent Calculation

     iteration #  1     ecut=    80.00 Ry     beta=0.70
     Davidson diagonalization with overlap
     c_bands:  1 eigenvalues not converged
     c_bands:  1 eigenvalues not converged
     c_bands:  2 eigenvalues not converged
     c_bands:  3 eigenvalues not converged
     ethr =  1.00E-04,  avg # of iterations = 38.2

     negative rho (up, down):  2.414E+01 0.000E+00

     total cpu time spent up to now is     2108.0 secs

     total energy              =   -9978.80753370 Ry
     Harris-Foulkes estimate   =  -17306.77348001 Ry
     estimated scf accuracy    <  174857.23864462 Ry

     iteration #  2     ecut=    80.00 Ry     beta=0.70
     Davidson diagonalization with overlap
     ethr =  1.00E-02,  avg # of iterations = 10.3

     negative rho (up, down):  2.995E+01 0.000E+00

     total cpu time spent up to now is     2996.3 secs

     total energy              =  -12163.12086133 Ry
     Harris-Foulkes estimate   =  -13638.90597402 Ry
     estimated scf accuracy    <   25982.80294398 Ry

     iteration #  3     ecut=    80.00 Ry     beta=0.70
     Davidson diagonalization with overlap
     ethr =  1.00E-02,  avg # of iterations =  7.0

     negative rho (up, down):  3.024E+01 0.000E+00

     total cpu time spent up to now is     3539.3 secs

     total energy              =  -12446.60192342 Ry
     Harris-Foulkes estimate   =  -13415.53172792 Ry
     estimated scf accuracy    <    5698.44967368 Ry

     iteration #  4     ecut=    80.00 Ry     beta=0.70
     Davidson diagonalization with overlap
     ethr =  1.00E-02,  avg # of iterations =  5.7

     negative rho (up, down):  2.167E+01 0.000E+00

     total cpu time spent up to now is     4114.2 secs

     total energy              =  -12822.87238022 Ry
     Harris-Foulkes estimate   =  -13059.83748597 Ry
     estimated scf accuracy    <    1314.80414334 Ry

     iteration #  5     ecut=    80.00 Ry     beta=0.70
     Davidson diagonalization with overlap
     ethr =  1.00E-02,  avg # of iterations =  3.0

     negative rho (up, down):  1.726E+01 0.000E+00

     total cpu time spent up to now is     4388.8 secs

     total energy              =  -12829.36178856 Ry
     Harris-Foulkes estimate   =  -12931.00771617 Ry
     estimated scf accuracy    <    1380.18532882 Ry

     iteration #  6     ecut=    80.00 Ry     beta=0.70
     Davidson diagonalization with overlap
     ethr =  1.00E-02,  avg # of iterations =  2.0

     negative rho (up, down):  1.222E+01 0.000E+00

     total cpu time spent up to now is     4574.9 secs

     total energy              =  -12819.29465286 Ry
     Harris-Foulkes estimate   =  -12890.54682104 Ry
     estimated scf accuracy    <     513.14465967 Ry

     iteration #  7     ecut=    80.00 Ry     beta=0.70
     Davidson diagonalization with overlap
     ethr =  1.00E-02,  avg # of iterations =  2.0

     negative rho (up, down):  8.356E+00 0.000E+00

     total cpu time spent up to now is     4760.2 secs

     total energy              =  -12804.45021034 Ry
     Harris-Foulkes estimate   =  -12842.46716800 Ry
     estimated scf accuracy    <     405.18921578 Ry

     iteration #  8     ecut=    80.00 Ry     beta=0.70
     Davidson diagonalization with overlap
     ethr =  1.00E-02,  avg # of iterations =  1.2

     negative rho (up, down):  6.201E+00 0.000E+00

     total cpu time spent up to now is     4927.4 secs

     total energy              =  -12786.17677515 Ry
     Harris-Foulkes estimate   =  -12813.05094877 Ry
     estimated scf accuracy    <     294.97710966 Ry

     iteration #  9     ecut=    80.00 Ry     beta=0.70
     Davidson diagonalization with overlap
     ethr =  1.00E-02,  avg # of iterations =  1.5

     negative rho (up, down):  5.222E+00 0.000E+00

     total cpu time spent up to now is     5098.5 secs

     total energy              =  -12782.11705136 Ry
     Harris-Foulkes estimate   =  -12791.65693003 Ry
     estimated scf accuracy    <     145.93447800 Ry

     iteration # 10     ecut=    80.00 Ry     beta=0.70
     Davidson diagonalization with overlap
     ethr =  1.00E-02,  avg # of iterations =  1.0

     negative rho (up, down):  7.912E-01 0.000E+00

     total cpu time spent up to now is     5264.4 secs

     total energy              =  -12744.51906994 Ry
     Harris-Foulkes estimate   =  -12783.13270595 Ry
     estimated scf accuracy    <     125.27425832 Ry

     iteration # 11     ecut=    80.00 Ry     beta=0.70
     Davidson diagonalization with overlap
     ethr =  9.67E-03,  avg # of iterations =  1.8

     negative rho (up, down):  9.442E-01 0.000E+00

     total cpu time spent up to now is     5440.0 secs

     total energy              =  -12734.94302620 Ry
     Harris-Foulkes estimate   =  -12751.27329569 Ry
     estimated scf accuracy    <     297.09262745 Ry

     iteration # 12     ecut=    80.00 Ry     beta=0.70
     Davidson diagonalization with overlap
     ethr =  9.67E-03,  avg # of iterations =  1.7

     negative rho (up, down):  1.507E+00 0.000E+00

     total cpu time spent up to now is     5613.6 secs

     total energy              =  -12729.06617549 Ry
     Harris-Foulkes estimate   =  -12742.94960772 Ry
     estimated scf accuracy    <     144.93336661 Ry

     iteration # 13     ecut=    80.00 Ry     beta=0.70
     Davidson diagonalization with overlap
     ethr =  9.67E-03,  avg # of iterations =  1.7

     negative rho (up, down):  4.985E+00 0.000E+00

     total cpu time spent up to now is     5786.7 secs

     total energy              =  -12726.08123115 Ry
     Harris-Foulkes estimate   =  -12737.43821562 Ry
     estimated scf accuracy    <     106.24446753 Ry

     iteration # 14     ecut=    80.00 Ry     beta=0.70
     Davidson diagonalization with overlap
     ethr =  8.20E-03,  avg # of iterations =  2.2

     negative rho (up, down):  5.023E+00 0.000E+00

     total cpu time spent up to now is     5966.8 secs

     total energy              =  -12725.55408407 Ry
     Harris-Foulkes estimate   =  -12732.36503753 Ry
     estimated scf accuracy    <      45.43427568 Ry

     iteration # 15     ecut=    80.00 Ry     beta=0.70
     Davidson diagonalization with overlap
     ethr =  3.51E-03,  avg # of iterations =  3.7

     negative rho (up, down):  5.466E+00 0.000E+00

     total cpu time spent up to now is     6163.0 secs

     total energy              =  -12726.64679351 Ry
     Harris-Foulkes estimate   =  -12729.46855927 Ry
     estimated scf accuracy    <      33.22494213 Ry

     iteration # 16     ecut=    80.00 Ry     beta=0.70
     Davidson diagonalization with overlap
     ethr =  2.56E-03,  avg # of iterations =  2.2

     negative rho (up, down):  5.416E+00 0.000E+00

     total cpu time spent up to now is     6341.0 secs

     total energy              =  -12725.43168733 Ry
     Harris-Foulkes estimate   =  -12727.81759084 Ry
     estimated scf accuracy    <      18.02701292 Ry

     iteration # 17     ecut=    80.00 Ry     beta=0.70
     Davidson diagonalization with overlap
     ethr =  1.39E-03,  avg # of iterations =  4.3

     negative rho (up, down):  4.097E+00 0.000E+00

     total cpu time spent up to now is     6545.0 secs

     total energy              =  -12724.31130296 Ry
     Harris-Foulkes estimate   =  -12726.04737763 Ry
     estimated scf accuracy    <      11.75435470 Ry

     iteration # 18     ecut=    80.00 Ry     beta=0.70
     Davidson diagonalization with overlap
     ethr =  9.07E-04,  avg # of iterations =  5.8

     negative rho (up, down):  3.383E+00 0.000E+00

     total cpu time spent up to now is     6767.2 secs

     total energy              =  -12723.34622431 Ry
     Harris-Foulkes estimate   =  -12724.67641243 Ry
     estimated scf accuracy    <       9.09843802 Ry

     iteration # 19     ecut=    80.00 Ry     beta=0.70
     Davidson diagonalization with overlap
     ethr =  7.02E-04,  avg # of iterations =  7.3

     negative rho (up, down):  3.902E+00 0.000E+00

     total cpu time spent up to now is     7012.9 secs

     total energy              =  -12723.27018465 Ry
     Harris-Foulkes estimate   =  -12723.72205897 Ry
     estimated scf accuracy    <      16.49426985 Ry

     iteration # 20     ecut=    80.00 Ry     beta=0.70
     Davidson diagonalization with overlap
     ethr =  7.02E-04,  avg # of iterations =  1.3

     negative rho (up, down):  3.381E+00 0.000E+00

     total cpu time spent up to now is     7182.0 secs

     total energy              =  -12722.90225538 Ry
     Harris-Foulkes estimate   =  -12723.59765826 Ry
     estimated scf accuracy    <       7.87519818 Ry

     iteration # 21     ecut=    80.00 Ry     beta=0.70
     Davidson diagonalization with overlap
     ethr =  6.08E-04,  avg # of iterations =  3.3

     negative rho (up, down):  1.610E+00 0.000E+00

     total cpu time spent up to now is     7374.4 secs

     total energy              =  -12721.54850412 Ry
     Harris-Foulkes estimate   =  -12722.96646687 Ry
     estimated scf accuracy    <       6.56653755 Ry

     iteration # 22     ecut=    80.00 Ry     beta=0.70
     Davidson diagonalization with overlap
     ethr =  5.07E-04,  avg # of iterations =  3.0

     negative rho (up, down):  9.017E-01 0.000E+00

     total cpu time spent up to now is     7562.9 secs

     total energy              =  -12720.07722599 Ry
     Harris-Foulkes estimate   =  -12721.75106659 Ry
     estimated scf accuracy    <       5.83590618 Ry

     iteration # 23     ecut=    80.00 Ry     beta=0.70
     Davidson diagonalization with overlap
     ethr =  4.50E-04,  avg # of iterations =  1.3

     negative rho (up, down):  4.241E-01 0.000E+00

     total cpu time spent up to now is     7732.8 secs

     total energy              =  -12719.27633209 Ry
     Harris-Foulkes estimate   =  -12720.23825783 Ry
     estimated scf accuracy    <       5.33593519 Ry

     iteration # 24     ecut=    80.00 Ry     beta=0.70
     Davidson diagonalization with overlap
     ethr =  4.12E-04,  avg # of iterations =  2.5

     negative rho (up, down):  2.013E-01 0.000E+00

     total cpu time spent up to now is     7915.4 secs

     total energy              =  -12719.21244543 Ry
     Harris-Foulkes estimate   =  -12719.46736145 Ry
     estimated scf accuracy    <       3.27121619 Ry

     iteration # 25     ecut=    80.00 Ry     beta=0.70
     Davidson diagonalization with overlap
     ethr =  2.52E-04,  avg # of iterations =  9.2

     negative rho (up, down):  4.375E-01 0.000E+00

     total cpu time spent up to now is     8177.0 secs

     total energy              =  -12718.81414669 Ry
     Harris-Foulkes estimate   =  -12719.32206895 Ry
     estimated scf accuracy    <       2.00071557 Ry

     iteration # 26     ecut=    80.00 Ry     beta=0.70
     Davidson diagonalization with overlap
     ethr =  1.54E-04,  avg # of iterations =  5.7

     negative rho (up, down):  4.726E-01 0.000E+00

     total cpu time spent up to now is     8399.2 secs

     total energy              =  -12718.59372983 Ry
     Harris-Foulkes estimate   =  -12718.86877438 Ry
     estimated scf accuracy    <       1.52772701 Ry

     iteration # 27     ecut=    80.00 Ry     beta=0.70
     Davidson diagonalization with overlap
     ethr =  1.18E-04,  avg # of iterations =  7.8

     negative rho (up, down):  5.587E-01 0.000E+00

     total cpu time spent up to now is     8651.1 secs

     total energy              =  -12718.49903055 Ry
     Harris-Foulkes estimate   =  -12718.65003576 Ry
     estimated scf accuracy    <       1.02118880 Ry

     iteration # 28     ecut=    80.00 Ry     beta=0.70
     Davidson diagonalization with overlap
     ethr =  7.88E-05,  avg # of iterations =  7.5

     negative rho (up, down):  5.022E-01 0.000E+00

     total cpu time spent up to now is     8906.6 secs

     total energy              =  -12718.50210510 Ry
     Harris-Foulkes estimate   =  -12718.54313406 Ry
     estimated scf accuracy    <       0.48247695 Ry

     iteration # 29     ecut=    80.00 Ry     beta=0.70
     Davidson diagonalization with overlap
     ethr =  3.72E-05,  avg # of iterations =  2.2

     negative rho (up, down):  1.163E-01 0.000E+00

     total cpu time spent up to now is     9091.8 secs

     total energy              =  -12718.47942326 Ry
     Harris-Foulkes estimate   =  -12718.54967853 Ry
     estimated scf accuracy    <       0.33444424 Ry

     iteration # 30     ecut=    80.00 Ry     beta=0.70
     Davidson diagonalization with overlap
     ethr =  2.58E-05,  avg # of iterations =  8.0

     negative rho (up, down):  6.751E-02 0.000E+00

     total cpu time spent up to now is     9363.4 secs

     total energy              =  -12718.49392830 Ry
     Harris-Foulkes estimate   =  -12718.50488872 Ry
     estimated scf accuracy    <       0.08935083 Ry

     iteration # 31     ecut=    80.00 Ry     beta=0.70
     Davidson diagonalization with overlap
     ethr =  6.89E-06,  avg # of iterations =  5.8

     negative rho (up, down):  5.382E-02 0.000E+00

     total cpu time spent up to now is     9594.5 secs

     total energy              =  -12718.50054702 Ry
     Harris-Foulkes estimate   =  -12718.50158909 Ry
     estimated scf accuracy    <       0.02454089 Ry

     iteration # 32     ecut=    80.00 Ry     beta=0.70
     Davidson diagonalization with overlap
     ethr =  1.89E-06,  avg # of iterations = 10.5

     negative rho (up, down):  3.545E-02 0.000E+00

     total cpu time spent up to now is     9899.6 secs

     total energy              =  -12718.50196312 Ry
     Harris-Foulkes estimate   =  -12718.50286181 Ry
     estimated scf accuracy    <       0.01051350 Ry

     iteration # 33     ecut=    80.00 Ry     beta=0.70
     Davidson diagonalization with overlap
     ethr =  8.11E-07,  avg # of iterations =  7.8

     negative rho (up, down):  2.088E-02 0.000E+00

     total cpu time spent up to now is    10152.7 secs

     total energy              =  -12718.50207493 Ry
     Harris-Foulkes estimate   =  -12718.50248526 Ry
     estimated scf accuracy    <       0.00398325 Ry

     iteration # 34     ecut=    80.00 Ry     beta=0.70
     Davidson diagonalization with overlap
     c_bands:  1 eigenvalues not converged
     ethr =  3.07E-07,  avg # of iterations = 12.0

     negative rho (up, down):  1.529E-02 0.000E+00

     total cpu time spent up to now is    10457.6 secs

     total energy              =  -12718.50235569 Ry
     Harris-Foulkes estimate   =  -12718.50241784 Ry
     estimated scf accuracy    <       0.00122467 Ry

     iteration # 35     ecut=    80.00 Ry     beta=0.70
     Davidson diagonalization with overlap
     c_bands:  1 eigenvalues not converged
     c_bands:  1 eigenvalues not converged
     ethr =  9.45E-08,  avg # of iterations = 11.3

     negative rho (up, down):  1.153E-02 0.000E+00

     total cpu time spent up to now is    10764.7 secs

     total energy              =  -12718.50244284 Ry
     Harris-Foulkes estimate   =  -12718.50248667 Ry
     estimated scf accuracy    <       0.00037871 Ry

     iteration # 36     ecut=    80.00 Ry     beta=0.70
     Davidson diagonalization with overlap
     ethr =  2.92E-08,  avg # of iterations =  6.5

     negative rho (up, down):  1.264E-02 0.000E+00

     total cpu time spent up to now is    11001.5 secs

     total energy              =  -12718.50245822 Ry
     Harris-Foulkes estimate   =  -12718.50247076 Ry
     estimated scf accuracy    <       0.00018062 Ry

     iteration # 37     ecut=    80.00 Ry     beta=0.70
     Davidson diagonalization with overlap
     c_bands:  1 eigenvalues not converged
     ethr =  1.39E-08,  avg # of iterations =  9.0

     negative rho (up, down):  1.021E-02 0.000E+00

     total cpu time spent up to now is    11281.5 secs

     total energy              =  -12718.50243385 Ry
     Harris-Foulkes estimate   =  -12718.50247655 Ry
     estimated scf accuracy    <       0.00008194 Ry

     iteration # 38     ecut=    80.00 Ry     beta=0.70
     Davidson diagonalization with overlap
     c_bands:  1 eigenvalues not converged
     ethr =  6.32E-09,  avg # of iterations =  5.5

     negative rho (up, down):  8.960E-03 0.000E+00

     total cpu time spent up to now is    11510.6 secs

     total energy              =  -12718.50241955 Ry
     Harris-Foulkes estimate   =  -12718.50244194 Ry
     estimated scf accuracy    <       0.00004009 Ry

     iteration # 39     ecut=    80.00 Ry     beta=0.70
     Davidson diagonalization with overlap
     ethr =  3.09E-09,  avg # of iterations =  7.5

     negative rho (up, down):  5.267E-03 0.000E+00

     total cpu time spent up to now is    11769.1 secs

     total energy              =  -12718.50236423 Ry
     Harris-Foulkes estimate   =  -12718.50242290 Ry
     estimated scf accuracy    <       0.00001611 Ry

     iteration # 40     ecut=    80.00 Ry     beta=0.70
     Davidson diagonalization with overlap
     c_bands:  1 eigenvalues not converged
     ethr =  1.24E-09,  avg # of iterations =  7.3

     negative rho (up, down):  2.838E-03 0.000E+00

     total cpu time spent up to now is    12019.5 secs

     total energy              =  -12718.50233901 Ry
     Harris-Foulkes estimate   =  -12718.50236522 Ry
     estimated scf accuracy    <       0.00000440 Ry

     iteration # 41     ecut=    80.00 Ry     beta=0.70
     Davidson diagonalization with overlap
     ethr =  3.40E-10,  avg # of iterations =  7.0

     negative rho (up, down):  2.295E-03 0.000E+00

     total cpu time spent up to now is    12273.8 secs

     total energy              =  -12718.50233798 Ry
     Harris-Foulkes estimate   =  -12718.50233968 Ry
     estimated scf accuracy    <       0.00000204 Ry

     iteration # 42     ecut=    80.00 Ry     beta=0.70
     Davidson diagonalization with overlap
     ethr =  1.57E-10,  avg # of iterations =  2.5

     negative rho (up, down):  2.300E-03 0.000E+00

     total cpu time spent up to now is    12460.9 secs

     total energy              =  -12718.50233812 Ry
     Harris-Foulkes estimate   =  -12718.50233816 Ry
     estimated scf accuracy    <       0.00000048 Ry

     iteration # 43     ecut=    80.00 Ry     beta=0.70
     Davidson diagonalization with overlap
     ethr =  3.72E-11,  avg # of iterations =  2.2

     negative rho (up, down):  2.126E-03 0.000E+00

     total cpu time spent up to now is    12646.5 secs

     total energy              =  -12718.50233819 Ry
     Harris-Foulkes estimate   =  -12718.50233817 Ry
     estimated scf accuracy    <       0.00000012 Ry

     iteration # 44     ecut=    80.00 Ry     beta=0.70
     Davidson diagonalization with overlap
     ethr =  8.90E-12,  avg # of iterations =  2.3

     negative rho (up, down):  2.088E-03 0.000E+00

     total cpu time spent up to now is    12851.6 secs

     total energy              =  -12718.50233826 Ry
     Harris-Foulkes estimate   =  -12718.50233821 Ry
     estimated scf accuracy    <       0.00000007 Ry

     iteration # 45     ecut=    80.00 Ry     beta=0.70
     Davidson diagonalization with overlap
     ethr =  5.53E-12,  avg # of iterations =  2.0

     negative rho (up, down):  2.065E-03 0.000E+00

     total cpu time spent up to now is    13037.7 secs

     total energy              =  -12718.50233830 Ry
     Harris-Foulkes estimate   =  -12718.50233827 Ry
     estimated scf accuracy    <       0.00000003 Ry

     iteration # 46     ecut=    80.00 Ry     beta=0.70
     Davidson diagonalization with overlap
     ethr =  2.12E-12,  avg # of iterations =  2.7

     negative rho (up, down):  2.093E-03 0.000E+00

     total cpu time spent up to now is    13223.8 secs

     End of self-consistent calculation

          k = 0.0000 0.0000 0.0000 (256287 PWs)   bands (ev):

   -16.3338 -15.9787 -15.9440 -14.8870 -14.8348 -14.3977 -14.3541 -14.0827
   -13.9968 -13.9913 -13.9743 -13.1394 -13.0368 -12.9789 -12.9320 -12.9160
   -12.9054 -11.4650 -11.2381 -11.2213 -11.2179 -11.0614 -10.1945  -9.9261
    -9.3521  -9.3356  -9.3311  -9.1140  -8.4656  -8.4600  -8.4403  -8.3742
    -7.4769  -7.4562  -7.4100  -7.3967  -7.3856  -7.3833  -7.3616  -7.3457
    -6.0464  -5.8981  -5.8629  -5.8390  -5.8162  -5.7026  -5.6885  -5.6671
    -5.6625  -5.5175  -5.4924  -5.0251  -4.7887  -4.6193  -4.5539  -4.5281
    -4.4082  -4.3539  -4.2313  -4.1627  -4.0921  -4.0267  -3.9882  -3.6350
    -3.5672  -3.5105  -3.4273  -3.4155  -3.3938  -3.3805  -3.3187  -3.2751
    -3.2337  -3.1519  -3.1500  -3.1116  -3.1090  -3.0501  -3.0390  -3.0129
    -3.0043  -2.8809  -2.8457  -2.7977  -2.7652  -2.7264  -2.6588  -2.6071
    -2.5994  -2.5955  -2.5665  -2.5533  -2.4396  -2.3851  -2.3753  -2.3158
    -2.3036  -2.2291  -2.2247  -2.2163  -2.1950  -2.1944  -2.1841  -2.1827
    -2.1782  -2.1259  -2.0580  -2.0506  -2.0476  -2.0152  -2.0062  -1.9666
    -1.9631  -1.8747  -1.8653  -1.8541  -1.8078  -1.7732  -1.7717  -1.7648
    -1.7383  -1.7192  -1.7037  -1.6903  -1.6854  -1.6846  -1.6735  -1.6608
    -1.6286  -1.6099  -1.6007  -1.5856  -1.5831  -1.5649  -1.5549  -1.5501
    -1.5408  -1.5363  -1.5224  -1.4991  -1.4677  -1.4459  -1.3927  -1.3861
    -1.3692  -1.3350  -1.3312  -1.2968  -1.2942  -1.2856  -1.2778  -1.2505
    -1.2489  -1.2273  -1.2251  -1.2132  -1.2105  -1.1999  -1.1972  -1.1529
    -1.1188  -1.1137  -1.1057  -1.0911  -1.0842  -1.0719  -1.0673  -1.0660
    -1.0627  -1.0554  -1.0544  -1.0521  -1.0500  -1.0360  -1.0341  -1.0232
    -1.0056  -0.9912  -0.9782  -0.9756  -0.9582  -0.9543  -0.9443  -0.9277
    -0.9219  -0.9047  -0.8970  -0.8968  -0.8966  -0.8935  -0.8880  -0.8871
    -0.8860  -0.8842  -0.8831  -0.8814  -0.8784  -0.8764  -0.8739  -0.8708
    -0.8616  -0.8388  -0.8252  -0.7927  -0.7689  -0.7575  -0.7431  -0.7352
    -0.7234  -0.7227  -0.7194  -0.7153  -0.7002  -0.6772  -0.6737  -0.6664
    -0.6547  -0.6533  -0.6468  -0.6367  -0.6328  -0.6234  -0.6142  -0.5984
    -0.5978  -0.5965  -0.5940  -0.5864  -0.5798  -0.5789  -0.5560  -0.5353
    -0.5331  -0.5306  -0.4784  -0.4757  -0.4730  -0.4630  -0.4620  -0.4605
    -0.4542  -0.4483  -0.4437  -0.4420  -0.4395  -0.4390  -0.4356  -0.4338
    -0.4301  -0.4242  -0.4233  -0.4138  -0.4021  -0.3986  -0.3947  -0.3857
    -0.3831  -0.3424  -0.3338  -0.3325  -0.3281  -0.3170  -0.3132  -0.3066
    -0.3021  -0.2995  -0.2967  -0.2883  -0.2853  -0.2789  -0.2777  -0.2674
    -0.2637  -0.2611  -0.2589  -0.2566  -0.2518  -0.2469  -0.2458  -0.2409
    -0.2388  -0.2350  -0.2266  -0.2206  -0.2188  -0.2077  -0.1909  -0.1697
    -0.1674  -0.1619  -0.1557  -0.1342  -0.1250  -0.1137  -0.1123  -0.1028
    -0.1012  -0.0972  -0.0929  -0.0881  -0.0857  -0.0806  -0.0625  -0.0539
    -0.0480  -0.0450  -0.0353  -0.0335  -0.0276  -0.0230  -0.0214  -0.0183
    -0.0122  -0.0037   0.0027   0.0081   0.0090   0.0101   0.0130   0.0167
     0.0233   0.0246   0.0261   0.0305   0.0530   0.0533   0.0564   0.0636
     0.0704   0.0818   0.0943   0.0982   0.1054   0.1195   0.1252   0.1315
     0.1525   0.1580   0.1738   0.1813   0.1824   0.1870   0.2006   0.2025
     0.2066   0.2138   0.2159   0.2239   0.2244   0.2265   0.2308   0.2351
     0.2391   0.2615   0.2810   0.2915   0.3000   0.3028   0.3052   0.3121
     0.3156   0.3328   0.3416   0.3458   0.3473   0.3498   0.3633   0.3699
     0.3791   0.3826   0.3843   0.3919   0.3965   0.3986   0.4061   0.4292
     0.4320   0.4409   0.4472   0.4541   0.4590   0.4636   0.4663   0.4688
     0.4699   0.4758   0.4856   0.4913   0.4936   0.4972   0.4985   0.5026
     0.5053   0.5096   0.5120   0.5160   0.5196   0.5217   0.5267   0.5342
     0.5462   0.5552   0.5635   0.5653   0.5673   0.5776   0.5861   0.5935
     0.5945   0.6024   0.6088   0.6099   0.6111   0.6133   0.6176   0.6240
     0.6313   0.6383   0.6432   0.6461   0.6481   0.6506   0.6521   0.6633
     0.6681   0.6708   0.6779   0.6819   0.6849   0.6955   0.6968   0.7042
     0.7058   0.7096   0.7105   0.7106   0.7111   0.7185   0.7195   0.7223
     0.7389   0.7551   0.7649   0.7671   0.7790   0.7826   0.7843   0.7942
     0.7974   0.7983   0.8010   0.8090   0.8101   0.8154   0.8266   0.8352
     0.8403   0.8428   0.8493   0.8530   0.8547   0.8626   0.8644   0.8715
     0.8746   0.8803   0.8854   0.8952   0.8960   0.9004   0.9014   0.9048
     0.9147   0.9253   0.9257   0.9344   0.9426   0.9460   0.9506   0.9573
     0.9583   0.9633   0.9691   0.9729   0.9734   0.9751   0.9758   0.9840
     0.9886   0.9930   0.9967   0.9992   1.0014   1.0061   1.0090   1.0116
     1.0135   1.0208   1.0292   1.0322   1.0386   1.0505   1.0560   1.0615
     1.0648   1.0684   1.0724   1.0755   1.0792   1.0806   1.0815   1.0839
     1.0852   1.0946   1.0971   1.1056   1.1120   1.1262   1.1282   1.1443
     1.1465   1.1487   1.1569   1.1594   1.1603   1.1678   1.1737   1.1756
     1.1801   1.1855   1.1884   1.1904   1.1922   1.1965   1.1986   1.2006
     1.2088   1.2113   1.2177   1.2234   1.2243   1.2247   1.2286   1.2302
     1.2316   1.2387   1.2428   1.2498   1.2544   1.2566   1.2593   1.2612
     1.2664   1.2694   1.2700   1.2750   1.2806   1.2819   1.2859   1.2942
     1.3014   1.3115   1.3192   1.3223   1.3266   1.3274   1.3333   1.3373
     1.3407   1.3461   1.3469   1.3517   1.3542   1.3614   1.3643   1.3695
     1.3762   1.3780   1.3804   1.3824   1.3841   1.3897   1.3912   1.3936
     1.3957   1.3983   1.4010   1.4014   1.4029   1.4055   1.4119   1.4208
     1.4216   1.4240   1.4258   1.4377   1.4389   1.4561   1.4704   1.4775
     1.4818   1.4843   1.4882   1.4906   1.4952   1.5014   1.5154   1.5182
     1.5282   1.5460   1.5483   1.5661   1.5723   1.5727   1.5823   1.5892
     1.5901   1.6026   1.6045   1.6081   1.7794   1.8276   1.8790   1.9182
     2.0076   2.0443   2.0791   2.1028   2.1473   2.1547   2.1700   2.1724
     2.1801   2.1858   2.1911   2.2194   2.2412   2.2816   2.3742   2.3850
     2.4220   2.4262   2.4358   2.5352   2.6277   2.6502   2.6804   2.7106
     2.9013   3.0478   3.1541   3.1866   3.2557   3.2766   3.5316   3.5368
     3.7724   3.7929   3.8063   3.8138   3.8274   3.8320   3.9215   3.9289
     3.9423   3.9647   3.9657   3.9672   3.9766   4.0124   4.0385   4.1162
     4.1648   4.2115   4.2348   4.3614   4.3877   4.7661   4.7960   5.0284
     5.0534   5.1390   5.1582   5.2916   5.3602   5.4108   5.5343   5.6573
     5.6858   5.7876   5.8715   5.8961   5.9240   6.1090   6.3131   6.3673
     6.3939   6.4251   6.4413   6.4588   6.4958   6.6403   6.6507   6.7184
     6.7389   6.8089   6.8140   6.8672   6.8875   6.9373   6.9551   7.0413
     7.0505   7.0835   7.1839   7.3139   7.3160   7.3667   7.5234   7.5546
     7.6230   7.6427   7.6677   7.7241   7.7403   7.8134   7.8537   8.1067
     8.1436   8.1589   8.2120   8.2384   8.2796   8.2985   8.3031   8.3149
     8.3505   8.3705   8.4030   8.4484   8.5282   8.5721   8.6107   8.6245
     8.6414   8.6573   8.6686   8.7105   8.7431   8.7996   8.8181   8.8190
     8.9268   8.9584   8.9711   9.0500   9.0722   9.0845   9.1063   9.1746
     9.2446   9.2939   9.3868   9.4430   9.5079   9.5389   9.5476   9.6123
     9.6502   9.7261   9.7322   9.8013   9.8726   9.9804  10.0090  10.0258
    10.1411  10.1995

          k = 0.0000-0.2165 0.0000 (256176 PWs)   bands (ev):

   -16.2539 -16.2267 -15.5213 -15.4783 -14.3450 -14.2912 -14.2896 -14.2289
   -14.0596 -14.0154 -13.6324 -13.5503 -13.5377 -13.5245 -12.3044 -12.1534
   -12.1436 -12.1283 -11.9587 -11.9261 -10.6378 -10.2442 -10.2317 -10.2288
    -9.7343  -8.9866  -8.9470  -8.8443  -8.8333  -8.8030  -8.6705  -8.0051
    -7.9960  -7.9728  -7.9498  -6.8452  -6.8405  -6.7866  -6.7790  -6.6907
    -6.6824  -6.6604  -6.6330  -5.9233  -5.9146  -5.8524  -5.8417  -5.1426
    -5.0467  -5.0356  -4.9958  -4.9785  -4.8892  -4.8720  -4.7695  -4.6106
    -4.4969  -4.4690  -4.4520  -4.4486  -4.4062  -4.0268  -3.9651  -3.8267
    -3.5624  -3.4335  -3.3491  -3.3371  -3.3122  -3.3004  -3.2562  -3.1787
    -3.1558  -3.1047  -3.0628  -3.0155  -2.9964  -2.9357  -2.9027  -2.8815
    -2.8330  -2.8230  -2.7229  -2.7085  -2.6531  -2.6382  -2.6149  -2.6141
    -2.6103  -2.6068  -2.5928  -2.5865  -2.5796  -2.4867  -2.4552  -2.4444
    -2.3460  -2.2979  -2.2858  -2.2467  -2.2453  -2.2309  -2.2147  -2.1997
    -2.1690  -2.1387  -2.1294  -2.0695  -2.0296  -2.0194  -2.0142  -2.0050
    -1.9702  -1.9524  -1.9148  -1.8810  -1.8638  -1.8305  -1.8040  -1.7877
    -1.7826  -1.7746  -1.7731  -1.7600  -1.7583  -1.7459  -1.7243  -1.6844
    -1.6743  -1.6567  -1.6398  -1.6236  -1.5310  -1.5129  -1.5033  -1.4981
    -1.4947  -1.4825  -1.4613  -1.4065  -1.3944  -1.3553  -1.3487  -1.3355
    -1.3143  -1.3123  -1.3074  -1.3027  -1.3010  -1.2961  -1.2833  -1.2744
    -1.2685  -1.2622  -1.2602  -1.2525  -1.2500  -1.2283  -1.2245  -1.2158
    -1.2015  -1.1907  -1.1736  -1.1623  -1.1259  -1.1225  -1.0997  -1.0883
    -1.0859  -1.0834  -1.0818  -1.0629  -1.0394  -1.0321  -1.0215  -1.0188
    -1.0168  -1.0128  -1.0047  -0.9976  -0.9738  -0.9648  -0.9541  -0.9505
    -0.9456  -0.9426  -0.9397  -0.9350  -0.9299  -0.9232  -0.8993  -0.8821
    -0.8597  -0.8550  -0.8540  -0.8526  -0.8482  -0.8351  -0.8282  -0.8256
    -0.7999  -0.7924  -0.7909  -0.7889  -0.7863  -0.7543  -0.7247  -0.6997
    -0.6964  -0.6830  -0.6821  -0.6700  -0.6695  -0.6606  -0.6459  -0.6435
    -0.6410  -0.6379  -0.6359  -0.6345  -0.6263  -0.6127  -0.5856  -0.5827
    -0.5776  -0.5720  -0.5716  -0.5692  -0.5661  -0.5486  -0.5419  -0.5353
    -0.5232  -0.5222  -0.5214  -0.4950  -0.4916  -0.4852  -0.4823  -0.4752
    -0.4722  -0.4660  -0.4593  -0.4557  -0.4238  -0.4048  -0.3963  -0.3932
    -0.3875  -0.3794  -0.3646  -0.3594  -0.3442  -0.3375  -0.3337  -0.3329
    -0.3302  -0.3294  -0.3230  -0.3179  -0.3052  -0.3012  -0.2974  -0.2962
    -0.2883  -0.2841  -0.2814  -0.2767  -0.2742  -0.2715  -0.2711  -0.2673
    -0.2580  -0.2468  -0.2443  -0.2409  -0.2390  -0.2378  -0.2290  -0.2148
    -0.1925  -0.1903  -0.1784  -0.1735  -0.1731  -0.1696  -0.1664  -0.1601
    -0.1568  -0.1536  -0.1390  -0.1349  -0.1278  -0.1225  -0.1183  -0.1138
    -0.1134  -0.1109  -0.1049  -0.1000  -0.0926  -0.0783  -0.0714  -0.0682
    -0.0573  -0.0537  -0.0503  -0.0451  -0.0378  -0.0322  -0.0298  -0.0232
    -0.0220  -0.0166  -0.0094  -0.0068  -0.0020   0.0050   0.0169   0.0204
     0.0229   0.0334   0.0351   0.0374   0.0398   0.0419   0.0569   0.0576
     0.0614   0.0654   0.0796   0.0843   0.0890   0.0919   0.0934   0.1024
     0.1050   0.1154   0.1293   0.1427   0.1475   0.1521   0.1593   0.1664
     0.1688   0.1709   0.1824   0.1870   0.2040   0.2254   0.2297   0.2365
     0.2535   0.2627   0.2749   0.2824   0.3255   0.3316   0.3336   0.3390
     0.3452   0.3564   0.3650   0.3693   0.3761   0.3786   0.3825   0.3846
     0.3982   0.4051   0.4070   0.4135   0.4160   0.4187   0.4244   0.4278
     0.4295   0.4332   0.4355   0.4362   0.4402   0.4418   0.4579   0.4687
     0.4770   0.4838   0.4847   0.4869   0.4891   0.4950   0.4978   0.4984
     0.5086   0.5103   0.5128   0.5136   0.5172   0.5234   0.5303   0.5348
     0.5371   0.5407   0.5434   0.5451   0.5489   0.5509   0.5527   0.5554
     0.5557   0.5611   0.5746   0.5831   0.5860   0.6027   0.6041   0.6174
     0.6191   0.6211   0.6239   0.6314   0.6332   0.6382   0.6392   0.6406
     0.6447   0.6453   0.6515   0.6615   0.6679   0.6826   0.6853   0.6882
     0.6887   0.6968   0.7023   0.7041   0.7079   0.7126   0.7160   0.7235
     0.7345   0.7373   0.7402   0.7410   0.7504   0.7845   0.7887   0.8003
     0.8130   0.8270   0.8289   0.8345   0.8392   0.8510   0.8531   0.8587
     0.8601   0.8635   0.8645   0.8694   0.8755   0.8781   0.8790   0.8811
     0.8833   0.8944   0.9005   0.9014   0.9022   0.9104   0.9114   0.9175
     0.9213   0.9239   0.9244   0.9279   0.9290   0.9332   0.9360   0.9441
     0.9472   0.9475   0.9487   0.9522   0.9527   0.9545   0.9576   0.9617
     0.9697   0.9747   0.9784   0.9810   0.9843   0.9872   0.9896   0.9898
     0.9976   0.9990   1.0051   1.0113   1.0173   1.0421   1.0449   1.0511
     1.0547   1.0573   1.0753   1.0839   1.0872   1.0927   1.0938   1.0981
     1.1042   1.1101   1.1220   1.1268   1.1358   1.1389   1.1414   1.1430
     1.1499   1.1528   1.1566   1.1570   1.1598   1.1608   1.1629   1.1656
     1.1674   1.1700   1.1722   1.1726   1.1774   1.1878   1.1901   1.1919
     1.1930   1.1955   1.2045   1.2121   1.2232   1.2275   1.2307   1.2321
     1.2352   1.2378   1.2404   1.2499   1.2536   1.2546   1.2591   1.2605
     1.2620   1.2639   1.2687   1.2753   1.2791   1.2793   1.2819   1.2912
     1.2958   1.3044   1.3082   1.3131   1.3200   1.3299   1.3315   1.3329
     1.3340   1.3382   1.3421   1.3443   1.3464   1.3539   1.3574   1.3651
     1.3722   1.3820   1.3876   1.3879   1.3945   1.4003   1.4032   1.4055
     1.4086   1.4091   1.4116   1.4119   1.4134   1.4337   1.4355   1.4434
     1.4477   1.4489   1.4555   1.4628   1.4644   1.4703   1.4723   1.4766
     1.4834   1.4855   1.4928   1.4988   1.5016   1.5032   1.5149   1.5450
     1.5470   1.5784   1.5984   1.6606   1.6772   1.6802   1.6851   1.6940
     1.7006   1.7072   1.7128   1.7359   1.7409   1.7631   1.7679   1.7754
     1.7765   1.8077   1.8219   1.9875   2.0021   2.0353   2.2042   2.2400
     2.2523   2.3757   2.3784   2.4055   2.4612   2.4656   2.5120   2.5279
     2.5347   2.5428   2.5499   2.6425   2.6648   2.6656   2.7265   2.7355
     2.8670   2.8803   2.8809   2.9539   2.9786   3.0128   3.1317   3.1322
     3.1588   3.3635   3.4005   3.5988   3.7796   3.7886   4.0156   4.0340
     4.1041   4.1091   4.1568   4.1864   4.2035   4.2875   4.2896   4.4027
     4.4750   4.5203   4.5328   4.6697   4.7062   4.7670   4.8091   5.0664
     5.0724   5.1264   5.2490   5.3006   5.3249   5.3290   5.3424   5.4161
     5.5702   5.6986   5.7040   5.8923   5.9452   6.0087   6.0140   6.3533
     6.3643   6.3827   6.4083   6.4512   6.5268   6.5386   6.6269   6.6715
     6.7176   6.7369   6.8055   6.9924   7.0042   7.0225   7.0437   7.0605
     7.0765   7.0965   7.1118   7.1688   7.2014   7.2310   7.3312   7.4122
     7.4252   7.6144   7.6889   7.7510   7.8031   7.8289   7.8728   7.8954
     8.0176   8.1013   8.1942   8.2616   8.3170   8.3446   8.4130   8.4241
     8.4321   8.4372   8.5035   8.5119   8.6001   8.6654   8.6718   8.7053
     8.7157   8.7593   8.7726   8.8330   8.8934   8.9334   8.9409   8.9529
     9.0252   9.1776   9.2142   9.2473   9.2649   9.2932   9.3185   9.3468
     9.3500   9.3526   9.3703   9.3848   9.4079   9.4597   9.4627   9.4670
     9.4716   9.5469   9.6118   9.7152   9.7514   9.8018   9.8486   9.8791
     9.8977  10.1898

          k = 0.2500 0.0000 0.0000 (256240 PWs)   bands (ev):

   -16.2100 -15.8566 -15.8204 -15.2249 -14.8894 -14.8381 -14.7478 -14.7108
   -13.8057 -13.7489 -13.3038 -13.0344 -12.9267 -12.9223 -12.9093 -12.1069
   -12.0002 -11.9309 -11.8922 -11.0475 -10.7654 -10.6288 -10.5809 -10.2047
    -9.9467  -9.7810  -9.6015  -9.4570  -9.1657  -8.9595  -8.8643  -8.3762
    -7.4112  -7.4070  -7.3746  -7.3699  -7.2860  -7.2626  -6.8051  -6.5422
    -6.0058  -5.8628  -5.8068  -5.7839  -5.7649  -5.7521  -5.3468  -5.3298
    -5.0780  -5.0329  -4.8678  -4.6901  -4.5462  -4.4881  -4.4455  -4.3505
    -4.2995  -4.2403  -4.2235  -4.1933  -4.0846  -4.0360  -4.0094  -3.9557
    -3.8822  -3.8783  -3.8123  -3.6915  -3.5818  -3.5632  -3.4768  -3.4511
    -3.4094  -3.4034  -3.3873  -3.3441  -3.3128  -3.2242  -3.2190  -3.1427
    -3.0727  -3.0275  -2.9981  -2.9466  -2.8485  -2.8401  -2.8347  -2.7557
    -2.7037  -2.6725  -2.5905  -2.5408  -2.4501  -2.4205  -2.3433  -2.3251
    -2.2900  -2.2439  -2.1581  -2.1277  -2.1221  -2.1075  -2.0934  -2.0144
    -1.9602  -1.9357  -1.8967  -1.8632  -1.8545  -1.8464  -1.8370  -1.8335
    -1.8289  -1.8275  -1.8057  -1.7861  -1.7778  -1.7487  -1.7177  -1.7075
    -1.6958  -1.6923  -1.6593  -1.6398  -1.6381  -1.6157  -1.6137  -1.6111
    -1.6061  -1.5987  -1.5897  -1.5510  -1.5406  -1.5372  -1.5294  -1.5269
    -1.5112  -1.4950  -1.4284  -1.4035  -1.3783  -1.3611  -1.3479  -1.3371
    -1.2820  -1.2761  -1.2758  -1.2722  -1.2636  -1.2469  -1.2440  -1.2408
    -1.2318  -1.2208  -1.2192  -1.2135  -1.2108  -1.2008  -1.1844  -1.1723
    -1.1700  -1.1538  -1.1501  -1.1455  -1.1410  -1.1393  -1.1260  -1.1065
    -1.0915  -1.0808  -1.0750  -1.0696  -1.0573  -1.0532  -1.0498  -1.0422
    -1.0384  -1.0372  -1.0207  -1.0204  -1.0164  -1.0131  -1.0122  -1.0112
    -1.0065  -0.9997  -0.9892  -0.9831  -0.9755  -0.9612  -0.9470  -0.9372
    -0.9169  -0.8945  -0.8894  -0.8825  -0.8619  -0.8537  -0.8498  -0.8467
    -0.8375  -0.8348  -0.8230  -0.8159  -0.8068  -0.8025  -0.7940  -0.7890
    -0.7869  -0.7840  -0.7772  -0.7717  -0.7402  -0.6987  -0.6845  -0.6420
    -0.6353  -0.6277  -0.6124  -0.6084  -0.6015  -0.5988  -0.5882  -0.5875
    -0.5860  -0.5752  -0.5746  -0.5645  -0.5630  -0.5578  -0.5443  -0.5403
    -0.5381  -0.5248  -0.5203  -0.5178  -0.5026  -0.4987  -0.4974  -0.4935
    -0.4925  -0.4403  -0.4387  -0.4375  -0.4338  -0.4267  -0.4215  -0.4203
    -0.4055  -0.4029  -0.4012  -0.3963  -0.3813  -0.3723  -0.3678  -0.3634
    -0.3480  -0.3362  -0.3350  -0.3321  -0.3278  -0.3207  -0.3195  -0.3118
    -0.3068  -0.3027  -0.2920  -0.2863  -0.2787  -0.2741  -0.2660  -0.2481
    -0.2471  -0.2428  -0.2376  -0.2312  -0.2246  -0.2215  -0.2191  -0.2149
    -0.1921  -0.1895  -0.1818  -0.1775  -0.1724  -0.1695  -0.1638  -0.1528
    -0.1440  -0.1274  -0.1166  -0.1108  -0.1063  -0.1036  -0.0987  -0.0899
    -0.0861  -0.0795  -0.0682  -0.0580  -0.0561  -0.0514  -0.0493  -0.0447
    -0.0410  -0.0398  -0.0355  -0.0327  -0.0283  -0.0264  -0.0185  -0.0104
    -0.0085  -0.0073  -0.0032   0.0047   0.0140   0.0182   0.0293   0.0357
     0.0364   0.0427   0.0575   0.0625   0.0646   0.0772   0.0829   0.0844
     0.0865   0.0931   0.1022   0.1053   0.1092   0.1129   0.1243   0.1308
     0.1480   0.1572   0.1751   0.1894   0.2036   0.2076   0.2180   0.2273
     0.2319   0.2361   0.2386   0.2407   0.2430   0.2463   0.2480   0.2502
     0.2551   0.2560   0.2629   0.2669   0.2713   0.2756   0.2779   0.2830
     0.2895   0.2904   0.2978   0.3007   0.3016   0.3086   0.3186   0.3316
     0.3460   0.3497   0.3657   0.3724   0.3745   0.3852   0.3883   0.3953
     0.4007   0.4036   0.4074   0.4184   0.4264   0.4331   0.4366   0.4416
     0.4436   0.4448   0.4499   0.4527   0.4591   0.4640   0.4668   0.4728
     0.4848   0.4876   0.4963   0.4986   0.5014   0.5112   0.5121   0.5157
     0.5193   0.5210   0.5255   0.5362   0.5430   0.5458   0.5550   0.5580
     0.5627   0.5645   0.5713   0.5777   0.5811   0.5828   0.5863   0.5984
     0.6062   0.6133   0.6185   0.6212   0.6236   0.6272   0.6325   0.6358
     0.6402   0.6583   0.6619   0.6689   0.6774   0.6906   0.6931   0.6997
     0.7032   0.7074   0.7100   0.7160   0.7246   0.7324   0.7344   0.7377
     0.7395   0.7422   0.7454   0.7472   0.7626   0.7706   0.7754   0.7813
     0.7906   0.8049   0.8141   0.8159   0.8171   0.8207   0.8352   0.8392
     0.8412   0.8445   0.8484   0.8510   0.8550   0.8567   0.8589   0.8677
     0.8705   0.8767   0.8838   0.8878   0.8947   0.9003   0.9044   0.9166
     0.9208   0.9304   0.9349   0.9403   0.9460   0.9475   0.9499   0.9546
     0.9566   0.9593   0.9627   0.9662   0.9710   0.9742   0.9757   0.9785
     0.9807   0.9836   0.9862   0.9891   0.9934   0.9950   0.9998   1.0058
     1.0133   1.0172   1.0229   1.0272   1.0296   1.0327   1.0350   1.0378
     1.0442   1.0465   1.0505   1.0552   1.0631   1.0665   1.0701   1.0756
     1.0831   1.0889   1.0920   1.0955   1.1003   1.1085   1.1139   1.1171
     1.1211   1.1239   1.1346   1.1449   1.1468   1.1490   1.1588   1.1597
     1.1743   1.1825   1.1923   1.1933   1.1998   1.2009   1.2057   1.2100
     1.2115   1.2156   1.2220   1.2241   1.2259   1.2317   1.2346   1.2368
     1.2405   1.2426   1.2471   1.2492   1.2536   1.2567   1.2604   1.2619
     1.2671   1.2683   1.2752   1.2794   1.2825   1.2844   1.2903   1.2929
     1.2991   1.3021   1.3071   1.3122   1.3150   1.3196   1.3203   1.3267
     1.3308   1.3317   1.3404   1.3428   1.3496   1.3539   1.3588   1.3718
     1.3744   1.3761   1.3792   1.3820   1.3829   1.3847   1.3858   1.3912
     1.3967   1.3996   1.4019   1.4036   1.4061   1.4140   1.4233   1.4247
     1.4256   1.4277   1.4294   1.4373   1.4423   1.4430   1.4483   1.4555
     1.4579   1.4656   1.4676   1.4701   1.4750   1.4818   1.5007   1.5155
     1.5193   1.5356   1.5431   1.5611   1.5769   1.5785   1.5862   1.6028
     1.6257   1.6545   1.6743   1.7077   1.7113   1.7155   1.7434   1.7880
     1.7918   1.7985   1.8726   1.9404   1.9890   2.0191   2.0366   2.0528
     2.0975   2.1704   2.1777   2.3105   2.3290   2.4510   2.5152   2.6121
     2.7002   2.7256   2.9343   2.9397   3.0163   3.0321   3.1526   3.1586
     3.1806   3.1832   3.2520   3.3690   3.4566   3.4735   3.5535   3.5718
     3.6116   3.6263   3.6673   3.6788   3.6901   3.7717   3.8288   3.8919
     3.9645   3.9745   4.1063   4.1539   4.1733   4.2452   4.3762   4.4334
     4.6004   4.6264   4.7126   4.7882   4.8138   4.9228   5.0476   5.1480
     5.1840   5.2038   5.2908   5.3506   5.4209   5.4380   5.4726   5.5234
     5.5470   5.5763   5.6224   5.6444   5.7018   5.7222   5.7496   5.7739
     5.8824   5.9560   5.9573   6.0135   6.0534   6.0984   6.3233   6.6259
     6.6626   6.7093   6.7153   6.7618   6.7897   6.8503   6.8714   6.8945
     6.9538   7.0060   7.0083   7.0470   7.0625   7.2167   7.2336   7.2776
     7.4086   7.4228   7.4723   7.4904   7.5294   7.6364   7.7051   7.7533
     7.8110   7.8184   7.9289   7.9810   8.0090   8.0323   8.0654   8.1810
     8.2469   8.2645   8.3010   8.3078   8.3244   8.3633   8.3897   8.4676
     8.4873   8.5393   8.5608   8.6762   8.8427   8.9312   8.9611   8.9896
     8.9961   9.0280   9.1123   9.1405   9.1556   9.1649   9.1970   9.2050
     9.2977   9.3204   9.3825   9.4007   9.4163   9.4475   9.5604   9.6142
     9.6396   9.6495   9.6954   9.7897   9.8058   9.8214   9.8473   9.8891
     9.9066   9.9660

          k = 0.2500-0.2165 0.0000 (256316 PWs)   bands (ev):

   -16.1299 -16.1036 -15.4027 -15.3561 -15.1439 -15.1157 -14.4298 -14.3800
   -13.9491 -13.8964 -13.2279 -13.2132 -13.0006 -12.9482 -12.5458 -12.4840
   -11.8921 -11.8152 -11.3280 -11.1906 -11.0057 -10.9366 -10.6315 -10.5628
    -9.9159  -9.4910  -9.3815  -8.9846  -8.9316  -8.8680  -8.8002  -8.3344
    -8.2897  -8.2434  -8.1809  -6.5409  -6.5288  -6.5022  -6.4739  -6.4002
    -6.3297  -6.1691  -6.1158  -5.8508  -5.8024  -5.7403  -5.7041  -5.0922
    -5.0236  -4.8173  -4.7605  -4.7248  -4.7201  -4.6856  -4.6369  -4.5041
    -4.3830  -4.3341  -4.3146  -4.1151  -4.0991  -4.0344  -4.0218  -3.9113
    -3.8438  -3.8327  -3.6969  -3.6380  -3.5699  -3.5055  -3.4948  -3.4764
    -3.4564  -3.4027  -3.3770  -3.2717  -3.1590  -3.1347  -3.0823  -3.0033
    -2.9803  -2.9666  -2.9501  -2.9405  -2.9255  -2.8827  -2.7919  -2.7516
    -2.7246  -2.6681  -2.5543  -2.5128  -2.3974  -2.3808  -2.3493  -2.3345
    -2.2993  -2.2302  -2.2213  -2.2025  -2.1946  -2.1552  -2.0864  -2.0589
    -2.0308  -2.0100  -1.9980  -1.9427  -1.8699  -1.8496  -1.8472  -1.8437
    -1.8156  -1.8014  -1.7892  -1.7624  -1.7476  -1.7379  -1.7356  -1.7229
    -1.7206  -1.7170  -1.7120  -1.7096  -1.7013  -1.6988  -1.6926  -1.6459
    -1.6283  -1.6228  -1.6194  -1.6077  -1.5645  -1.5103  -1.4887  -1.4785
    -1.3899  -1.3731  -1.3660  -1.3555  -1.3235  -1.3159  -1.3122  -1.2987
    -1.2938  -1.2895  -1.2860  -1.2788  -1.2768  -1.2662  -1.2659  -1.2592
    -1.2512  -1.2437  -1.2392  -1.2330  -1.2299  -1.2277  -1.2135  -1.2079
    -1.1709  -1.1675  -1.1564  -1.1544  -1.1499  -1.1474  -1.1431  -1.1416
    -1.1262  -1.1148  -1.0945  -1.0769  -1.0756  -1.0723  -1.0637  -1.0583
    -1.0518  -1.0339  -1.0317  -1.0299  -1.0156  -1.0037  -0.9984  -0.9940
    -0.9922  -0.9820  -0.9656  -0.9601  -0.9568  -0.9520  -0.9354  -0.9138
    -0.9050  -0.9006  -0.8960  -0.8889  -0.8767  -0.8460  -0.8163  -0.8140
    -0.8089  -0.8002  -0.7940  -0.7805  -0.7690  -0.7536  -0.7491  -0.7466
    -0.7415  -0.7386  -0.7349  -0.7171  -0.7141  -0.6865  -0.6738  -0.6629
    -0.6555  -0.6521  -0.6422  -0.6320  -0.6121  -0.6078  -0.6020  -0.5996
    -0.5953  -0.5876  -0.5744  -0.5707  -0.5612  -0.5532  -0.5401  -0.5327
    -0.5285  -0.5254  -0.5212  -0.4953  -0.4945  -0.4892  -0.4801  -0.4764
    -0.4581  -0.4538  -0.4496  -0.4345  -0.4324  -0.4261  -0.4170  -0.4163
    -0.4056  -0.4036  -0.3997  -0.3985  -0.3950  -0.3888  -0.3851  -0.3801
    -0.3761  -0.3688  -0.3660  -0.3506  -0.3476  -0.3284  -0.3152  -0.3085
    -0.3043  -0.2989  -0.2939  -0.2903  -0.2818  -0.2740  -0.2706  -0.2609
    -0.2572  -0.2526  -0.2500  -0.2447  -0.2344  -0.2128  -0.1992  -0.1930
    -0.1877  -0.1641  -0.1576  -0.1500  -0.1468  -0.1453  -0.1395  -0.1336
    -0.1301  -0.1149  -0.1121  -0.1074  -0.1050  -0.1017  -0.0933  -0.0870
    -0.0832  -0.0819  -0.0766  -0.0689  -0.0651  -0.0531  -0.0510  -0.0495
    -0.0437  -0.0400  -0.0380  -0.0355  -0.0331  -0.0304  -0.0269  -0.0256
    -0.0234  -0.0142  -0.0063  -0.0005   0.0061   0.0151   0.0166   0.0217
     0.0271   0.0454   0.0513   0.0621   0.0676   0.0813   0.0864   0.0914
     0.0967   0.1002   0.1047   0.1061   0.1092   0.1127   0.1210   0.1252
     0.1264   0.1359   0.1429   0.1535   0.1565   0.1756   0.1943   0.2159
     0.2215   0.2304   0.2354   0.2410   0.2438   0.2481   0.2505   0.2551
     0.2573   0.2623   0.2685   0.2749   0.2782   0.2817   0.2852   0.2886
     0.2919   0.2955   0.3018   0.3044   0.3148   0.3218   0.3303   0.3436
     0.3464   0.3573   0.3597   0.3653   0.3741   0.3812   0.3886   0.4073
     0.4121   0.4156   0.4183   0.4227   0.4256   0.4318   0.4350   0.4382
     0.4424   0.4436   0.4480   0.4512   0.4559   0.4701   0.4743   0.4798
     0.4902   0.4923   0.5013   0.5130   0.5287   0.5312   0.5354   0.5427
     0.5446   0.5519   0.5613   0.5647   0.5665   0.5685   0.5735   0.5765
     0.5822   0.5877   0.5896   0.5937   0.6050   0.6071   0.6082   0.6178
     0.6203   0.6239   0.6298   0.6306   0.6332   0.6350   0.6383   0.6427
     0.6443   0.6494   0.6514   0.6557   0.6620   0.6647   0.6673   0.6703
     0.6712   0.6755   0.6796   0.6820   0.6929   0.7054   0.7149   0.7195
     0.7262   0.7294   0.7497   0.7535   0.7592   0.7642   0.7699   0.7812
     0.7832   0.7858   0.7881   0.7986   0.8076   0.8111   0.8128   0.8143
     0.8154   0.8164   0.8175   0.8263   0.8308   0.8368   0.8428   0.8497
     0.8526   0.8626   0.8671   0.8722   0.8831   0.8870   0.8874   0.8900
     0.8971   0.9086   0.9142   0.9264   0.9270   0.9306   0.9344   0.9376
     0.9442   0.9490   0.9526   0.9610   0.9679   0.9756   0.9805   0.9895
     0.9935   1.0029   1.0113   1.0176   1.0246   1.0279   1.0360   1.0382
     1.0438   1.0465   1.0484   1.0504   1.0513   1.0538   1.0562   1.0614
     1.0629   1.0655   1.0734   1.0776   1.0802   1.0886   1.0910   1.0948
     1.1103   1.1158   1.1215   1.1257   1.1297   1.1325   1.1362   1.1393
     1.1423   1.1453   1.1475   1.1510   1.1519   1.1544   1.1568   1.1603
     1.1620   1.1671   1.1700   1.1717   1.1744   1.1766   1.1788   1.1843
     1.1926   1.1971   1.2020   1.2041   1.2106   1.2224   1.2296   1.2362
     1.2383   1.2401   1.2445   1.2488   1.2545   1.2570   1.2645   1.2683
     1.2693   1.2723   1.2795   1.2841   1.2853   1.2911   1.2926   1.2959
     1.3036   1.3057   1.3072   1.3112   1.3141   1.3239   1.3297   1.3352
     1.3384   1.3411   1.3421   1.3458   1.3480   1.3495   1.3507   1.3559
     1.3583   1.3647   1.3690   1.3708   1.3787   1.3859   1.3881   1.3910
     1.3959   1.3981   1.3988   1.4003   1.4011   1.4057   1.4085   1.4112
     1.4132   1.4152   1.4374   1.4377   1.4450   1.4540   1.4558   1.4588
     1.4618   1.4700   1.4737   1.4769   1.4793   1.4968   1.5005   1.5097
     1.5143   1.5178   1.5383   1.5423   1.5734   1.5919   1.6080   1.6350
     1.6437   1.6903   1.7073   1.7102   1.7184   1.7273   1.7333   1.7466
     1.7556   1.7814   1.8053   1.8283   1.9626   2.0654   2.0779   2.0894
     2.0994   2.1738   2.2456   2.3347   2.4567   2.5436   2.5661   2.7381
     2.7428   2.7510   2.7544   2.7700   2.7830   2.8900   2.9129   2.9426
     3.0227   3.0711   3.1297   3.2901   3.4921   3.5669   3.5873   3.6364
     3.6794   3.7469   3.8022   3.8139   3.9002   3.9067   3.9846   4.0335
     4.0907   4.1228   4.1393   4.2581   4.3426   4.4087   4.4361   4.5458
     4.5675   4.5875   4.6537   4.7568   4.7805   4.8576   4.9221   4.9296
     4.9550   4.9953   5.1186   5.1662   5.2416   5.2968   5.3460   5.4035
     5.4076   5.4184   5.4853   5.5602   5.7120   5.7274   5.8311   5.8533
     5.8936   5.9166   5.9737   6.1476   6.3356   6.4843   6.5639   6.5939
     6.6426   6.7232   6.7336   6.7618   6.8581   6.9155   7.0041   7.0425
     7.0538   7.0861   7.1390   7.1702   7.2027   7.2176   7.2785   7.3063
     7.3308   7.3667   7.3948   7.4068   7.4756   7.5675   7.6084   7.6655
     7.7615   7.8162   7.9066   7.9189   7.9586   8.0706   8.1135   8.1693
     8.1770   8.2108   8.2724   8.3437   8.5269   8.5571   8.5956   8.5996
     8.6122   8.6302   8.6672   8.6765   8.7841   8.8602   8.8794   8.9321
     8.9412   8.9645   8.9999   9.0200   9.0882   9.1403   9.1699   9.1831
     9.1991   9.2176   9.2348   9.2804   9.3030   9.3320   9.3529   9.4633
     9.5083   9.5134   9.5501   9.5860   9.6312   9.6441   9.7508   9.8969
     9.9487   9.9672

          k =-0.5000 0.0000 0.0000 (256496 PWs)   bands (ev):

   -15.8555 -15.8251 -15.5229 -15.4577 -15.4488 -15.4418 -14.4390 -14.3610
   -14.3464 -14.3446 -12.7335 -12.5844 -12.5669 -12.5624 -12.0870 -11.9995
   -11.8227 -11.6720 -11.6700 -11.6495 -11.1452 -11.0224 -10.7237 -10.6061
   -10.1440 -10.0023  -9.7583  -9.6172  -9.4352  -8.7917  -8.7724  -8.7468
    -8.6600  -7.2828  -7.2795  -7.2239  -7.2158  -7.2091  -7.1739  -5.7682
    -5.7600  -5.3413  -5.3399  -5.0798  -5.0560  -4.9156  -4.8460  -4.8383
    -4.8338  -4.7318  -4.6825  -4.6247  -4.6201  -4.6080  -4.5607  -4.5516
    -4.5381  -4.4163  -4.3554  -4.3131  -4.2855  -4.2626  -4.2326  -4.1435
    -3.9950  -3.9735  -3.9623  -3.9317  -3.8360  -3.7104  -3.5468  -3.5415
    -3.5254  -3.4864  -3.4617  -3.4452  -3.4131  -3.3037  -3.2705  -3.2513
    -3.2320  -3.2300  -3.2213  -3.0554  -2.8791  -2.8599  -2.7488  -2.6700
    -2.6665  -2.6561  -2.6413  -2.6232  -2.5989  -2.5544  -2.4252  -2.3952
    -2.3710  -2.3479  -2.3394  -2.3362  -2.2018  -2.0318  -1.9930  -1.9192
    -1.9128  -1.9099  -1.9068  -1.9022  -1.8963  -1.8748  -1.7837  -1.7648
    -1.7575  -1.6862  -1.6853  -1.6788  -1.6606  -1.6367  -1.6345  -1.6294
    -1.6282  -1.6130  -1.5399  -1.5284  -1.5249  -1.5139  -1.4808  -1.4708
    -1.4596  -1.4582  -1.4494  -1.4421  -1.4401  -1.4261  -1.3943  -1.3933
    -1.3896  -1.3829  -1.3795  -1.3761  -1.3746  -1.3688  -1.3571  -1.3435
    -1.3355  -1.3310  -1.3306  -1.3279  -1.3177  -1.3075  -1.3044  -1.3021
    -1.3011  -1.2551  -1.2482  -1.2393  -1.2374  -1.2256  -1.2197  -1.2161
    -1.2145  -1.2130  -1.1899  -1.1803  -1.1764  -1.1758  -1.1661  -1.1450
    -1.1436  -1.1434  -1.1401  -1.1222  -1.1172  -1.1015  -1.0953  -1.0914
    -1.0777  -1.0596  -1.0328  -1.0304  -1.0206  -1.0176  -1.0125  -1.0101
    -0.9913  -0.9858  -0.9743  -0.9723  -0.9698  -0.9657  -0.9625  -0.9616
    -0.9601  -0.9513  -0.9468  -0.9271  -0.9192  -0.9027  -0.8886  -0.8744
    -0.8617  -0.8357  -0.8298  -0.7986  -0.7772  -0.7575  -0.7508  -0.7455
    -0.7427  -0.7414  -0.7132  -0.7106  -0.7086  -0.7040  -0.7016  -0.6898
    -0.6761  -0.6740  -0.6708  -0.6648  -0.6615  -0.6537  -0.6489  -0.6471
    -0.6296  -0.6278  -0.6240  -0.6061  -0.6005  -0.5761  -0.5234  -0.5141
    -0.5079  -0.5062  -0.5015  -0.4978  -0.4924  -0.4750  -0.4648  -0.4519
    -0.4475  -0.4449  -0.4380  -0.4280  -0.4263  -0.4229  -0.4088  -0.4082
    -0.4052  -0.4039  -0.4016  -0.3997  -0.3919  -0.3780  -0.3720  -0.3696
    -0.3642  -0.3388  -0.3366  -0.3299  -0.3270  -0.3243  -0.3232  -0.2924
    -0.2913  -0.2859  -0.2854  -0.2715  -0.2662  -0.2525  -0.2486  -0.2244
    -0.2216  -0.2100  -0.1956  -0.1894  -0.1791  -0.1756  -0.1751  -0.1672
    -0.1636  -0.1627  -0.1526  -0.1435  -0.1299  -0.1245  -0.1079  -0.0971
    -0.0924  -0.0891  -0.0784  -0.0675  -0.0668  -0.0630  -0.0626  -0.0602
    -0.0577  -0.0545  -0.0518  -0.0475  -0.0466  -0.0458  -0.0363  -0.0051
     0.0056   0.0128   0.0181   0.0251   0.0265   0.0284   0.0323   0.0340
     0.0382   0.0403   0.0436   0.0461   0.0507   0.0535   0.0556   0.0585
     0.0622   0.0719   0.0749   0.0766   0.0790   0.0817   0.0850   0.0860
     0.0869   0.0898   0.0924   0.1038   0.1046   0.1062   0.1091   0.1124
     0.1149   0.1171   0.1213   0.1300   0.1334   0.1484   0.1581   0.1758
     0.2335   0.2388   0.2396   0.2475   0.2693   0.2774   0.2776   0.2810
     0.2864   0.2934   0.2955   0.2974   0.3021   0.3037   0.3049   0.3074
     0.3093   0.3117   0.3142   0.3192   0.3228   0.3251   0.3285   0.3330
     0.3349   0.3370   0.3381   0.3414   0.3467   0.3497   0.3534   0.3553
     0.3607   0.3673   0.3723   0.3896   0.4055   0.4227   0.4327   0.4415
     0.4453   0.4540   0.4570   0.4594   0.4730   0.4758   0.4837   0.4849
     0.4866   0.4875   0.4885   0.4916   0.4917   0.4960   0.4983   0.4996
     0.5026   0.5029   0.5049   0.5076   0.5179   0.5222   0.5285   0.5335
     0.5433   0.5445   0.5535   0.5593   0.5681   0.5697   0.5756   0.5824
     0.5864   0.5886   0.5928   0.5933   0.5960   0.5990   0.6008   0.6058
     0.6098   0.6150   0.6189   0.6236   0.6261   0.6274   0.6292   0.6460
     0.6556   0.6626   0.6705   0.6739   0.6764   0.6815   0.6862   0.6897
     0.6997   0.7055   0.7127   0.7259   0.7282   0.7306   0.7538   0.7649
     0.7678   0.7801   0.7919   0.7953   0.7971   0.8000   0.8000   0.8022
     0.8045   0.8052   0.8108   0.8158   0.8192   0.8220   0.8234   0.8293
     0.8348   0.8388   0.8435   0.8448   0.8491   0.8509   0.8630   0.8679
     0.8709   0.8724   0.8830   0.8924   0.8949   0.8992   0.9079   0.9125
     0.9219   0.9435   0.9517   0.9702   0.9715   0.9752   0.9837   0.9884
     0.9971   1.0074   1.0081   1.0194   1.0240   1.0281   1.0335   1.0361
     1.0450   1.0498   1.0514   1.0583   1.0604   1.0647   1.0673   1.0727
     1.0782   1.0809   1.0813   1.0859   1.0873   1.0898   1.0912   1.0938
     1.0962   1.0989   1.1031   1.1038   1.1114   1.1218   1.1352   1.1358
     1.1392   1.1405   1.1453   1.1490   1.1615   1.1624   1.1639   1.1703
     1.1760   1.1846   1.1918   1.1953   1.1966   1.1984   1.2027   1.2059
     1.2066   1.2090   1.2114   1.2142   1.2222   1.2296   1.2331   1.2375
     1.2455   1.2478   1.2508   1.2670   1.2683   1.2704   1.2718   1.2729
     1.2758   1.2771   1.2793   1.2801   1.2812   1.2834   1.2860   1.2888
     1.2915   1.2917   1.2937   1.2955   1.2963   1.2971   1.2997   1.3026
     1.3073   1.3091   1.3126   1.3202   1.3218   1.3241   1.3340   1.3373
     1.3401   1.3407   1.3449   1.3468   1.3681   1.3742   1.3766   1.3795
     1.3834   1.3844   1.3893   1.3923   1.3933   1.4013   1.4044   1.4090
     1.4136   1.4172   1.4208   1.4232   1.4247   1.4263   1.4301   1.4324
     1.4357   1.4387   1.4441   1.4467   1.4529   1.4561   1.4723   1.4739
     1.4742   1.4753   1.4764   1.4823   1.4918   1.5055   1.5321   1.5337
     1.5530   1.5655   1.5673   1.5705   1.5830   1.6170   1.7486   1.8073
     1.8627   1.9914   1.9951   2.1141   2.1628   2.1949   2.1968   2.2332
     2.2455   2.2515   2.3335   2.3728   2.3886   2.5755   2.6113   2.6665
     2.7160   2.7897   2.7914   2.8789   2.9743   3.0675   3.1394   3.1530
     3.1973   3.2396   3.4684   3.5318   3.7146   3.7278   3.7729   3.7964
     3.8782   3.8819   3.9830   4.0174   4.0338   4.0468   4.1027   4.1168
     4.2325   4.4115   4.5094   4.6401   4.6628   4.6975   4.7145   4.7573
     4.7721   4.7931   4.8372   4.8530   4.8716   4.9134   4.9761   4.9938
     4.9998   5.0100   5.0226   5.0297   5.0505   5.0929   5.1453   5.2128
     5.2604   5.3719   5.4099   5.4371   5.5168   5.5490   5.6116   5.7319
     5.7354   5.7934   5.9412   5.9669   5.9703   5.9785   5.9990   6.0063
     6.0874   6.0999   6.2663   6.3829   6.4072   6.4535   6.4606   6.5570
     6.5852   6.6331   6.9626   7.0403   7.0625   7.0697   7.1475   7.1874
     7.4754   7.5366   7.5581   7.5647   7.5678   7.5764   7.6624   7.6717
     7.7017   7.7609   7.7845   7.8437   7.8651   7.8825   7.9245   7.9712
     8.0175   8.0476   8.0536   8.0913   8.1567   8.3030   8.3264   8.3668
     8.5977   8.6210   8.7819   8.7857   8.8000   8.8022   8.8051   8.8180
     8.8435   8.8869   8.9893   8.9910   9.0132   9.0401   9.1224   9.1982
     9.2237   9.3314   9.4594   9.4700   9.4839   9.4940   9.4948   9.4962
     9.4976   9.5314   9.5427   9.5561   9.6093   9.6871   9.7447   9.8879
     9.8909   9.9779

          k =-0.5000-0.2165 0.0000 (256328 PWs)   bands (ev):

   -15.7758 -15.7572 -15.7512 -15.7015 -15.0669 -14.9994 -14.9860 -14.9826
   -13.6493 -13.5522 -13.5366 -13.5322 -12.1340 -11.9462 -11.9447 -11.8744
   -11.6466 -11.4909 -11.4739 -11.4669 -11.3723 -11.3061 -11.3011 -11.2747
   -10.0437  -9.6210  -9.5919  -9.5399  -9.3447  -8.6460  -8.6185  -8.6082
    -8.5260  -7.8883  -7.8790  -7.8317  -7.8032  -5.8594  -5.8010  -5.7875
    -5.7792  -5.2562  -5.2227  -5.2208  -5.2108  -5.1841  -5.1667  -5.1476
    -5.1419  -4.9738  -4.9663  -4.9423  -4.9303  -4.4929  -4.3691  -4.3436
    -4.3221  -4.2504  -4.2353  -4.2305  -4.2231  -4.0813  -4.0743  -4.0669
    -4.0564  -4.0018  -3.8662  -3.8602  -3.8258  -3.7322  -3.6106  -3.5944
    -3.5465  -3.5463  -3.5336  -3.5102  -3.5066  -3.4171  -3.3774  -3.3558
    -3.3395  -3.2134  -3.0248  -3.0038  -2.9982  -2.6776  -2.6633  -2.6235
    -2.6076  -2.5915  -2.5798  -2.5614  -2.5342  -2.4658  -2.4077  -2.3162
    -2.2004  -2.1949  -2.1510  -2.1316  -2.1184  -2.1021  -2.0877  -2.0814
    -2.0496  -1.9926  -1.9717  -1.9399  -1.9125  -1.8593  -1.8453  -1.8396
    -1.8258  -1.8183  -1.7882  -1.7177  -1.6936  -1.6277  -1.5963  -1.5772
    -1.5342  -1.5267  -1.5250  -1.5239  -1.4946  -1.4912  -1.4774  -1.4764
    -1.4747  -1.4659  -1.4655  -1.4597  -1.4411  -1.4365  -1.4298  -1.4236
    -1.4214  -1.4165  -1.4138  -1.4088  -1.4013  -1.3969  -1.3952  -1.3932
    -1.3768  -1.3675  -1.3654  -1.3431  -1.3409  -1.3372  -1.3129  -1.2680
    -1.2412  -1.2407  -1.2296  -1.2280  -1.2270  -1.2232  -1.2063  -1.2020
    -1.1956  -1.1886  -1.1796  -1.1767  -1.1575  -1.1562  -1.1545  -1.1515
    -1.1492  -1.1325  -1.1269  -1.1246  -1.1162  -1.1004  -1.0950  -1.0900
    -1.0859  -1.0818  -1.0796  -1.0756  -1.0746  -1.0724  -1.0684  -1.0654
    -1.0631  -1.0360  -1.0284  -0.9565  -0.9228  -0.9161  -0.9145  -0.9072
    -0.8912  -0.8898  -0.8882  -0.8866  -0.8829  -0.8577  -0.8407  -0.8392
    -0.8177  -0.8074  -0.8059  -0.8035  -0.8021  -0.7981  -0.7946  -0.7923
    -0.7850  -0.7410  -0.7394  -0.7353  -0.7339  -0.7319  -0.7311  -0.7274
    -0.7218  -0.7150  -0.7139  -0.7087  -0.6970  -0.6674  -0.6313  -0.6181
    -0.6142  -0.6129  -0.6062  -0.5946  -0.5909  -0.5684  -0.5610  -0.5537
    -0.5390  -0.5373  -0.5265  -0.5022  -0.4980  -0.4886  -0.4873  -0.4834
    -0.4833  -0.4668  -0.4662  -0.4595  -0.4385  -0.4356  -0.4346  -0.4322
    -0.4272  -0.4206  -0.4158  -0.3991  -0.3901  -0.3775  -0.3616  -0.3278
    -0.3237  -0.3120  -0.3099  -0.3031  -0.2991  -0.2912  -0.2893  -0.2884
    -0.2788  -0.2766  -0.2747  -0.2320  -0.2066  -0.2040  -0.2010  -0.1992
    -0.1968  -0.1921  -0.1901  -0.1869  -0.1837  -0.1818  -0.1788  -0.1586
    -0.1559  -0.1495  -0.1477  -0.1468  -0.1447  -0.1398  -0.1379  -0.1341
    -0.1337  -0.1250  -0.1240  -0.0885  -0.0767  -0.0744  -0.0583  -0.0550
    -0.0482  -0.0425  -0.0383  -0.0343  -0.0277  -0.0035   0.0055   0.0184
     0.0262   0.0329   0.0364   0.0385   0.0395   0.0417   0.0428   0.0471
     0.0490   0.0518   0.0537   0.0579   0.0583   0.0603   0.0631   0.0637
     0.0648   0.0675   0.0729   0.0749   0.0797   0.0806   0.0853   0.0899
     0.0921   0.0964   0.1002   0.1028   0.1079   0.1127   0.1214   0.1257
     0.1300   0.1365   0.1486   0.1663   0.1686   0.1739   0.1786   0.1936
     0.2009   0.2091   0.2095   0.2148   0.2654   0.2823   0.2864   0.2902
     0.2919   0.2957   0.2985   0.3009   0.3035   0.3069   0.3075   0.3138
     0.3175   0.3210   0.3233   0.3277   0.3281   0.3305   0.3367   0.3374
     0.3417   0.3435   0.3550   0.3568   0.3680   0.3743   0.3766   0.3808
     0.3864   0.3938   0.3955   0.4013   0.4088   0.4125   0.4143   0.4248
     0.4291   0.4304   0.4319   0.4368   0.4451   0.4542   0.4585   0.4637
     0.4650   0.4681   0.4756   0.4795   0.4843   0.4930   0.5011   0.5073
     0.5104   0.5145   0.5210   0.5238   0.5296   0.5314   0.5347   0.5359
     0.5371   0.5400   0.5424   0.5434   0.5465   0.5492   0.5526   0.5534
     0.5600   0.5660   0.5731   0.5777   0.5937   0.6032   0.6180   0.6245
     0.6323   0.6366   0.6412   0.6446   0.6465   0.6484   0.6534   0.6543
     0.6559   0.6625   0.6759   0.6787   0.6820   0.6840   0.6881   0.6887
     0.6908   0.6926   0.6940   0.6984   0.7122   0.7206   0.7336   0.7437
     0.7478   0.7521   0.7630   0.7727   0.7744   0.7769   0.7916   0.7971
     0.8017   0.8060   0.8101   0.8112   0.8134   0.8230   0.8309   0.8349
     0.8385   0.8548   0.8609   0.8828   0.8874   0.8878   0.9012   0.9101
     0.9175   0.9228   0.9304   0.9461   0.9586   0.9638   0.9675   0.9766
     0.9789   0.9812   0.9821   0.9878   0.9895   0.9941   0.9969   0.9992
     1.0037   1.0042   1.0055   1.0077   1.0082   1.0105   1.0160   1.0210
     1.0239   1.0257   1.0285   1.0322   1.0359   1.0389   1.0428   1.0457
     1.0486   1.0556   1.0640   1.0652   1.0678   1.0763   1.0840   1.0848
     1.0859   1.0884   1.0892   1.0907   1.0954   1.0986   1.1023   1.1040
     1.1077   1.1131   1.1297   1.1439   1.1484   1.1505   1.1550   1.1565
     1.1621   1.1687   1.1694   1.1766   1.1838   1.1859   1.1984   1.1997
     1.2034   1.2083   1.2127   1.2159   1.2223   1.2225   1.2233   1.2295
     1.2322   1.2372   1.2401   1.2420   1.2431   1.2465   1.2501   1.2523
     1.2817   1.2902   1.2921   1.2955   1.3017   1.3066   1.3106   1.3156
     1.3170   1.3181   1.3205   1.3222   1.3241   1.3267   1.3292   1.3308
     1.3344   1.3361   1.3373   1.3377   1.3428   1.3436   1.3465   1.3490
     1.3508   1.3516   1.3546   1.3573   1.3602   1.3641   1.3666   1.3677
     1.3685   1.3703   1.3726   1.3734   1.3917   1.4013   1.4024   1.4046
     1.4089   1.4100   1.4140   1.4184   1.4239   1.4261   1.4360   1.4378
     1.4558   1.4588   1.4612   1.4623   1.4798   1.5000   1.5068   1.5092
     1.5137   1.5191   1.5300   1.5334   1.5339   1.5408   1.5507   1.5567
     1.5574   1.5609   1.5640   1.5697   1.5722   1.5725   1.5780   1.5792
     1.7186   1.7227   1.7915   1.7924   1.9382   2.0450   2.1460   2.3004
     2.3204   2.3463   2.4540   2.5169   2.5201   2.5576   2.6956   2.7512
     2.7543   2.8207   2.8851   2.9909   3.0490   3.0897   3.1713   3.3529
     3.4124   3.4192   3.4803   3.4871   3.5989   3.6029   3.7377   3.7643
     3.8891   3.8958   3.9224   3.9423   4.1798   4.1932   4.2048   4.2524
     4.2832   4.3105   4.3407   4.3778   4.5097   4.5189   4.5614   4.5746
     4.6081   4.6632   4.7125   4.8778   4.8946   4.9125   4.9782   5.0379
     5.0722   5.1115   5.1275   5.1354   5.1470   5.1978   5.2372   5.2687
     5.2911   5.3067   5.3123   5.3571   5.5112   5.5559   5.6246   5.6522
     5.7045   5.7131   5.7358   5.7444   5.7669   5.7752   5.8437   5.8973
     5.9065   5.9734   6.6666   6.7233   6.7593   6.7778   6.8287   6.9405
     7.0720   7.0823   7.0959   7.1078   7.1138   7.1510   7.1738   7.2301
     7.2627   7.2824   7.2997   7.3285   7.3561   7.3702   7.4014   7.5345
     7.5596   7.7308   7.7512   7.8973   7.9302   7.9990   8.0673   8.0871
     8.1220   8.1265   8.1857   8.2109   8.2146   8.4099   8.4167   8.4212
     8.4696   8.5096   8.5891   8.8227   8.8423   8.8560   8.8665   8.8869
     8.8941   8.8982   8.9059   8.9283   8.9743   9.0588   9.0897   9.1115
     9.1155   9.1264   9.1569   9.3270   9.4392   9.4427   9.4480   9.4669
     9.4923   9.5152   9.5258   9.5363   9.5709   9.6688   9.7289   9.7939
     9.9982  10.0021

     the Fermi energy is     3.2827 ev

!    total energy              =  -12718.50233830 Ry
     Harris-Foulkes estimate   =  -12718.50233830 Ry
     estimated scf accuracy    <          6.5E-09 Ry

     The total energy is the sum of the following terms:

     one-electron contribution = -109520.40526564 Ry
     hartree contribution      =   56123.08154604 Ry
     xc contribution           =   -4451.25410959 Ry
     ewald contribution        =   45136.43333178 Ry
     Dispersion Correction     =      -3.00636478 Ry
     smearing contrib. (-TS)   =      -3.35147611 Ry

     convergence has been achieved in  46 iterations

     Writing output data file gc.save
 
     init_run     :     99.28s CPU    106.75s WALL (       1 calls)
     electrons    :  12272.09s CPU  13116.54s WALL (       1 calls)

     Called by init_run:
     wfcinit      :     96.77s CPU    103.63s WALL (       1 calls)
     potinit      :      0.60s CPU      0.64s WALL (       1 calls)

     Called by electrons:
     c_bands      :  11234.68s CPU  11979.81s WALL (      46 calls)
     sum_band     :    853.66s CPU    923.77s WALL (      46 calls)
     v_of_rho     :      3.03s CPU      3.78s WALL (      47 calls)
     newd         :      9.63s CPU     15.02s WALL (      47 calls)
     mix_rho      :    171.03s CPU    194.11s WALL (      46 calls)

     Called by c_bands:
     init_us_2    :     37.92s CPU     38.57s WALL (     558 calls)
     cegterg      :  11048.89s CPU  11788.08s WALL (     282 calls)

     Called by sum_band:
     sum_band:bec :      4.55s CPU      5.33s WALL (     276 calls)
     addusdens    :      9.06s CPU     14.67s WALL (      46 calls)

     Called by *egterg:
     h_psi        :   4144.59s CPU   4480.80s WALL (    1826 calls)
     s_psi        :    993.48s CPU   1004.68s WALL (    1826 calls)
     g_psi        :     10.37s CPU     10.37s WALL (    1538 calls)
     cdiaghg      :   3137.04s CPU   3254.26s WALL (    1814 calls)

     Called by h_psi:
     add_vuspsi   :    998.01s CPU   1010.78s WALL (    1826 calls)

     General routines
     calbec       :   1417.23s CPU   1427.04s WALL (    2102 calls)
     fft          :      4.78s CPU      5.47s WALL (     610 calls)
     ffts         :    100.36s CPU    114.16s WALL (   26673 calls)
     fftw         :   2414.07s CPU   2683.34s WALL ( 1327128 calls)
     davcio       :      0.30s CPU      2.65s WALL (       6 calls)
 
     Parallel routines
     fft_scatter  :   1575.56s CPU   1724.54s WALL ( 1354411 calls)
 
     PWSCF        :     3h26m CPU        3h40m WALL

 
   This run was terminated on:   0:50: 3  27Apr2017            

=------------------------------------------------------------------------------=
   JOB DONE.
=------------------------------------------------------------------------------=
