mpirun: INFO: switching to OpenMPI runtime version 1.10.2

     Program PWSCF v.5.4.0 starts on  7Sep2017 at 20:53:11 

     This program is part of the open-source Quantum ESPRESSO suite
     for quantum simulation of materials; please cite
         "P. Giannozzi et al., J. Phys.:Condens. Matter 21 395502 (2009);
          URL http://www.quantum-espresso.org", 
     in publications or presentations arising from this work. More details at
     http://www.quantum-espresso.org/quote

     Parallel version (MPI & OpenMP), running on      56 processor cores
     Number of MPI processes:                56
     Threads/MPI process:                     1
     R & G space division:  proc/nbgrp/npool/nimage =      56
     Waiting for input...
     Reading input from standard input
Warning: card &IONS ignored
Warning: card / ignored

     Current dimensions of program PWSCF are:
     Max number of different atomic species (ntypx) = 10
     Max number of k-points (npk) =  40000
     Max angular momentum in pseudopotentials (lmaxx) =  3

     -------------------------------------
     Parameters for Dispersion Correction:
     -------------------------------------
       atom      VdW radius       C_6     

        Cu         2.952        374.666
        C_h        2.744         60.710
        C          2.744         60.710

     Subspace diagonalization in iterative solution of the eigenvalue problem:
     one sub-group per band group will be used
     scalapack distributed-memory algorithm (size of sub-group:  5*  5 procs)

 
     Parallelization info
     --------------------
     sticks:   dense  smooth     PW     G-vecs:    dense   smooth      PW
     Min         204     204     54                36612    36612    4962
     Max         205     205     55                36617    36617    4968
     Sum       11433   11433   3039              2050409  2050409  278033
 


     bravais-lattice index     =            0
     lattice parameter (alat)  =      13.9425  a.u.
     unit-cell volume          =   21209.0878 (a.u.)^3
     number of atoms/cell      =          148
     number of atomic types    =            3
     number of electrons       =      1292.00
     number of Kohn-Sham states=          775
     kinetic-energy cutoff     =      80.0000  Ry
     charge density cutoff     =     320.0000  Ry
     convergence threshold     =      1.0E-08
     mixing beta               =       0.7000
     number of iterations used =            8  local-TF  mixing
     Exchange-correlation      =  SLA  PW   PBX  PBC ( 1  4  3  4 0 0)

     celldm(1)=  13.942539  celldm(2)=   0.000000  celldm(3)=   0.000000
     celldm(4)=   0.000000  celldm(5)=   0.000000  celldm(6)=   0.000000

     crystal axes: (cart. coord. in units of alat)
               a(1) = (   1.000000   0.000000   0.000000 )  
               a(2) = (   0.000000   2.309401   0.000000 )  
               a(3) = (   0.000000   0.000000   3.388418 )  

     reciprocal axes: (cart. coord. in units 2 pi/alat)
               b(1) = (  1.000000  0.000000  0.000000 )  
               b(2) = (  0.000000  0.433013  0.000000 )  
               b(3) = (  0.000000  0.000000  0.295123 )  


     PseudoPot. # 1 for Cu read from file:
     /home/549/hxw549/Short/pseudopotentials/Cu.pbe-n-van_ak.UPF
     MD5 check sum: 601f7c30f7467666bec936e0661ce3e1
     Pseudo is Ultrasoft + core correction, Zval = 11.0
     Generated by new atomic code, or converted to UPF format
     Using radial grid of  867 points,  6 beta functions with: 
                l(1) =   0
                l(2) =   0
                l(3) =   1
                l(4) =   1
                l(5) =   2
                l(6) =   2
     Q(r) pseudized with  8 coefficients,  rinner =    1.400   1.400   1.400
                                                       1.400   1.400

     PseudoPot. # 2 for C  read from file:
     /home/549/hxw549/Short/pseudopotentials/C.star1s-pbe-mt_gipaw.UPF
     MD5 check sum: ef0cb3dee31bd9e4ba2a832a2c716264
     Pseudo is Norm-conserving, Zval =  5.0
     Generated by new atomic code, or converted to UPF format
     Using radial grid of 1073 points,  1 beta functions with: 
                l(1) =   0

     PseudoPot. # 3 for C  read from file:
     /home/549/hxw549/Short/pseudopotentials/C.pbe-mt_gipaw.UPF
     MD5 check sum: 5ac2f21f2c440b14befe521540822c15
     Pseudo is Norm-conserving, Zval =  4.0
     Generated by new atomic code, or converted to UPF format
     Using radial grid of 1073 points,  1 beta functions with: 
                l(1) =   0

     atomic species   valence    mass     pseudopotential
        Cu            11.00    63.54600     Cu( 1.00)
        C_h            5.00    12.01070     C ( 1.00)
        C              4.00    12.01070     C ( 1.00)

     No symmetry found



   Cartesian axes

     site n.     atom                  positions (alat units)
         1           Cu  tau(   1) = (   0.0000000   0.0000567   0.9971194  )
         2           Cu  tau(   2) = (   0.2499927   0.2309760   0.9972946  )
         3           Cu  tau(   3) = (   0.5000000   0.0000313   0.9971490  )
         4           Cu  tau(   4) = (   0.7500073   0.2309760   0.9972946  )
         5           Cu  tau(   5) = (   0.0000000   0.4618437   0.9973425  )
         6           Cu  tau(   6) = (   0.2499840   0.6927701   0.9971914  )
         7           Cu  tau(   7) = (   0.5000000   0.4618722   0.9973119  )
         8           Cu  tau(   8) = (   0.7500160   0.6927701   0.9971914  )
         9           Cu  tau(   9) = (   0.0000000   0.9237521   0.9970621  )
        10           Cu  tau(  10) = (   0.2500157   1.1547420   0.9971373  )
        11           Cu  tau(  11) = (   0.5000000   0.9237453   0.9970727  )
        12           Cu  tau(  12) = (   0.7499843   1.1547420   0.9971373  )
        13           Cu  tau(  13) = (   0.0000000   1.3856555   0.9972830  )
        14           Cu  tau(  14) = (   0.2500029   1.6165618   0.9973242  )
        15           Cu  tau(  15) = (   0.5000000   1.3857014   0.9973005  )
        16           Cu  tau(  16) = (   0.7499971   1.6165618   0.9973242  )
        17           Cu  tau(  17) = (   0.0000000   1.8474941   0.9971969  )
        18           Cu  tau(  18) = (   0.2500043   2.0784518   0.9970745  )
        19           Cu  tau(  19) = (   0.5000000   1.8474499   0.9971773  )
        20           Cu  tau(  20) = (   0.7499957   2.0784518   0.9970745  )
        21           Cu  tau(  21) = (   0.0000000   0.2308065   1.2457643  )
        22           Cu  tau(  22) = (   0.2499892  -0.0001010   1.2455764  )
        23           Cu  tau(  23) = (   0.5000000   0.2308938   1.2456746  )
        24           Cu  tau(  24) = (   0.7500108  -0.0001010   1.2455764  )
        25           Cu  tau(  25) = (   0.0000000   0.6929786   1.2456406  )
        26           Cu  tau(  26) = (   0.2499874   0.4619293   1.2457459  )
        27           Cu  tau(  27) = (   0.5000000   0.6929012   1.2456074  )
        28           Cu  tau(  28) = (   0.7500126   0.4619293   1.2457459  )
        29           Cu  tau(  29) = (   0.0000000   1.1546142   1.2455676  )
        30           Cu  tau(  30) = (   0.2499981   0.9237849   1.2455149  )
        31           Cu  tau(  31) = (   0.5000000   1.1545763   1.2455800  )
        32           Cu  tau(  32) = (   0.7500019   0.9237849   1.2455149  )
        33           Cu  tau(  33) = (   0.0000000   1.6166029   1.2456910  )
        34           Cu  tau(  34) = (   0.2500161   1.3855492   1.2457134  )
        35           Cu  tau(  35) = (   0.5000000   1.6166555   1.2458019  )
        36           Cu  tau(  36) = (   0.7499839   1.3855492   1.2457134  )
        37           Cu  tau(  37) = (   0.0000000   2.0784993   1.2455162  )
        38           Cu  tau(  38) = (   0.2500161   1.8476387   1.2456210  )
        39           Cu  tau(  39) = (   0.5000000   2.0784755   1.2455152  )
        40           Cu  tau(  40) = (   0.7499839   1.8476387   1.2456210  )
        41           Cu  tau(  41) = (   0.0000000  -0.0003182   1.4954305  )
        42           Cu  tau(  42) = (   0.2500224   0.2307186   1.4951678  )
        43           Cu  tau(  43) = (   0.5000000  -0.0002059   1.4952775  )
        44           Cu  tau(  44) = (   0.7499776   0.2307186   1.4951678  )
        45           Cu  tau(  45) = (   0.0000000   0.4620254   1.4950571  )
        46           Cu  tau(  46) = (   0.2500339   0.6931225   1.4952807  )
        47           Cu  tau(  47) = (   0.5000000   0.4619896   1.4952144  )
        48           Cu  tau(  48) = (   0.7499661   0.6931225   1.4952807  )
        49           Cu  tau(  49) = (   0.0000000   0.9238798   1.4954544  )
        50           Cu  tau(  50) = (   0.2499708   1.1544329   1.4953374  )
        51           Cu  tau(  51) = (   0.5000000   0.9237633   1.4954072  )
        52           Cu  tau(  52) = (   0.7500292   1.1544329   1.4953374  )
        53           Cu  tau(  53) = (   0.0000000   1.3854453   1.4952066  )
        54           Cu  tau(  54) = (   0.2499861   1.6167017   1.4951298  )
        55           Cu  tau(  55) = (   0.5000000   1.3853760   1.4951346  )
        56           Cu  tau(  56) = (   0.7500139   1.6167017   1.4951298  )
        57           Cu  tau(  57) = (   0.0000000   1.8477718   1.4952308  )
        58           Cu  tau(  58) = (   0.2499930   2.0785254   1.4954090  )
        59           Cu  tau(  59) = (   0.5000000   1.8478762   1.4953503  )
        60           Cu  tau(  60) = (   0.7500070   2.0785254   1.4954090  )
        61           Cu  tau(  61) = (   0.0000000   0.2310733   1.7440777  )
        62           Cu  tau(  62) = (   0.2501089  -0.0001294   1.7450479  )
        63           Cu  tau(  63) = (   0.5000000   0.2306045   1.7445985  )
        64           Cu  tau(  64) = (   0.7498911  -0.0001294   1.7450479  )
        65           Cu  tau(  65) = (   0.0000000   0.6927994   1.7446059  )
        66           Cu  tau(  66) = (   0.2502918   0.4619532   1.7441197  )
        67           Cu  tau(  67) = (   0.5000000   0.6931011   1.7451318  )
        68           Cu  tau(  68) = (   0.7497082   0.4619532   1.7441197  )
        69           Cu  tau(  69) = (   0.0000000   1.1545789   1.7453503  )
        70           Cu  tau(  70) = (   0.2500220   0.9237908   1.7453835  )
        71           Cu  tau(  71) = (   0.5000000   1.1545999   1.7449118  )
        72           Cu  tau(  72) = (   0.7499780   0.9237908   1.7453835  )
        73           Cu  tau(  73) = (   0.0000000   1.6167791   1.7444075  )
        74           Cu  tau(  74) = (   0.2497438   1.3855115   1.7442733  )
        75           Cu  tau(  75) = (   0.5000000   1.6164906   1.7439233  )
        76           Cu  tau(  76) = (   0.7502562   1.3855115   1.7442733  )
        77           Cu  tau(  77) = (   0.0000000   2.0782721   1.7455014  )
        78           Cu  tau(  78) = (   0.2498426   1.8476765   1.7447807  )
        79           Cu  tau(  79) = (   0.5000000   2.0787016   1.7454002  )
        80           Cu  tau(  80) = (   0.7501574   1.8476765   1.7447807  )
        81           Cu  tau(  81) = (   0.0000000   0.0010732   1.9906710  )
        82           Cu  tau(  82) = (   0.2503054   0.2314650   1.9904877  )
        83           Cu  tau(  83) = (   0.5000000   0.0001335   1.9924670  )
        84           Cu  tau(  84) = (   0.7496946   0.2314650   1.9904877  )
        85           Cu  tau(  85) = (   0.0000000   0.4618379   1.9901778  )
        86           Cu  tau(  86) = (   0.2508441   0.6921348   1.9910282  )
        87           Cu  tau(  87) = (   0.5000000   0.4613052   1.9913358  )
        88           Cu  tau(  88) = (   0.7491559   0.6921348   1.9910282  )
        89           Cu  tau(  89) = (   0.0000000   0.9224699   1.9915918  )
        90           Cu  tau(  90) = (   0.2491275   1.1552920   1.9912642  )
        91           Cu  tau(  91) = (   0.5000000   0.9247757   1.9920574  )
        92           Cu  tau(  92) = (   0.7508725   1.1552920   1.9912642  )
        93           Cu  tau(  93) = (   0.0000000   1.3865904   1.9916296  )
        94           Cu  tau(  94) = (   0.2499532   1.6162906   1.9903050  )
        95           Cu  tau(  95) = (   0.5000000   1.3858063   1.9901800  )
        96           Cu  tau(  96) = (   0.7500468   1.6162906   1.9903050  )
        97           Cu  tau(  97) = (   0.0000000   1.8468318   1.9923212  )
        98           Cu  tau(  98) = (   0.2497561   2.0783183   1.9915134  )
        99           Cu  tau(  99) = (   0.5000000   1.8467805   1.9903847  )
       100           Cu  tau( 100) = (   0.7502439   2.0783183   1.9915134  )
       101           C   tau( 101) = (   0.0666515   0.0962962   2.3888871  )
       102           C   tau( 102) = (   0.0666515   0.2886925   2.3900713  )
       103           C   tau( 103) = (   0.2332845   0.0000435   2.3878440  )
       104           C   tau( 104) = (   0.2331421   0.3848966   2.3886743  )
       105           C   tau( 105) = (   0.3997751   0.0962174   2.3860158  )
       106           C   tau( 106) = (   0.3997791   0.2886629   2.3856823  )
       107           C   tau( 107) = (   0.5666519  -0.0000818   2.3845687  )
       108           C   tau( 108) = (   0.5666519   0.3849277   2.3842391  )
       109           C   tau( 109) = (   0.7335275   0.0962174   2.3860158  )
       110           C   tau( 110) = (   0.7335234   0.2886629   2.3856823  )
       111           C   tau( 111) = (   0.9000194   0.0000435   2.3878440  )
       112           C   tau( 112) = (   0.9001618   0.3848966   2.3886743  )
       113           C   tau( 113) = (   0.0666515   0.6735163   2.3892509  )
       114           C   tau( 114) = (   0.0666515   0.8659398   2.3870960  )
       115           C   tau( 115) = (   0.2331272   0.5773226   2.3882842  )
       116           C   tau( 116) = (   0.2333942   0.9622141   2.3870264  )
       117           C   tau( 117) = (   0.3998605   0.6735984   2.3858047  )
       118           C   tau( 118) = (   0.3998550   0.8660537   2.3866148  )
       119           C   tau( 119) = (   0.5666519   0.5773685   2.3848465  )
       120           C_h tau( 120) = (   0.5666519   0.9623380   2.3860825  )
       121           C   tau( 121) = (   0.7334421   0.6735984   2.3858047  )
       122           C   tau( 122) = (   0.7334489   0.8660537   2.3866148  )
       123           C   tau( 123) = (   0.9001753   0.5773226   2.3882842  )
       124           C   tau( 124) = (   0.8999083   0.9622141   2.3870264  )
       125           C   tau( 125) = (   0.0666515   1.2508867   2.3852683  )
       126           C   tau( 126) = (   0.0666515   1.4433300   2.3840871  )
       127           C   tau( 127) = (   0.2333875   1.1546708   2.3859697  )
       128           C   tau( 128) = (   0.2335460   1.5396104   2.3857176  )
       129           C   tau( 129) = (   0.4001613   1.2509657   2.3878953  )
       130           C   tau( 130) = (   0.4001383   1.4433958   2.3886602  )
       131           C   tau( 131) = (   0.5666519   1.1547731   2.3885512  )
       132           C   tau( 132) = (   0.5666519   1.5396099   2.3901428  )
       133           C   tau( 133) = (   0.7331426   1.2509657   2.3878953  )
       134           C   tau( 134) = (   0.7331656   1.4433958   2.3886602  )
       135           C   tau( 135) = (   0.8999151   1.1546708   2.3859697  )
       136           C   tau( 136) = (   0.8997579   1.5396104   2.3857176  )
       137           C   tau( 137) = (   0.0666515   1.8283510   2.3842019  )
       138           C   tau( 138) = (   0.0666515   2.0207949   2.3863399  )
       139           C   tau( 139) = (   0.2335474   1.7320513   2.3858703  )
       140           C   tau( 140) = (   0.2332696   2.1169980   2.3865340  )
       141           C   tau( 141) = (   0.4000665   1.8282368   2.3882160  )
       142           C   tau( 142) = (   0.4000868   2.0206763   2.3869561  )
       143           C   tau( 143) = (   0.5666519   1.7319961   2.3895398  )
       144           C   tau( 144) = (   0.5666519   2.1168754   2.3870198  )
       145           C   tau( 145) = (   0.7332361   1.8282368   2.3882160  )
       146           C   tau( 146) = (   0.7332157   2.0206763   2.3869561  )
       147           C   tau( 147) = (   0.8997551   1.7320513   2.3858703  )
       148           C   tau( 148) = (   0.9000330   2.1169980   2.3865340  )

     number of k points=     6  gaussian smearing, width (Ry)=  0.1000
                       cart. coord. in units 2pi/alat
        k(    1) = (   0.0000000   0.0000000   0.0000000), wk =   0.2500000
        k(    2) = (   0.0000000  -0.2165064   0.0000000), wk =   0.2500000
        k(    3) = (   0.2500000   0.0000000   0.0000000), wk =   0.5000000
        k(    4) = (   0.2500000  -0.2165064   0.0000000), wk =   0.5000000
        k(    5) = (  -0.5000000   0.0000000   0.0000000), wk =   0.2500000
        k(    6) = (  -0.5000000  -0.2165064   0.0000000), wk =   0.2500000

     Dense  grid:  2050409 G-vectors     FFT dimensions: (  80, 192, 270)

     Largest allocated arrays     est. size (Mb)     dimensions
        Kohn-Sham Wavefunctions        54.44 Mb     (    4604,  775)
        NL pseudopotentials           129.82 Mb     (    4604, 1848)
        Each V/rho on FFT grid          1.17 Mb     (   76800)
        Each G-vector array             0.28 Mb     (   36616)
        G-vector shells                 0.14 Mb     (   17932)
     Largest temporary arrays     est. size (Mb)     dimensions
        Auxiliary wavefunctions       217.78 Mb     (    4604, 3100)
        Each subspace H/S matrix        5.87 Mb     (     620,  620)
        Each <psi_i|beta_j> matrix     21.85 Mb     (    1848,  775)
        Arrays for rho mixing           9.38 Mb     (   76800,    8)

     Initial potential from superposition of free atoms
     Check: negative starting charge=   -0.001843

     starting charge 1266.81751, renormalised to 1292.00000

     negative rho (up, down):  1.879E-03 0.000E+00
     Starting wfc are 1284 randomized atomic wfcs

     total cpu time spent up to now is      105.1 secs

     Self-consistent Calculation

     iteration #  1     ecut=    80.00 Ry     beta=0.70
     Davidson diagonalization with overlap
     c_bands:  1 eigenvalues not converged
     c_bands:  2 eigenvalues not converged
     c_bands:  1 eigenvalues not converged
     ethr =  1.00E-04,  avg # of iterations = 36.0

     negative rho (up, down):  2.723E+01 0.000E+00

     total cpu time spent up to now is     2041.5 secs

     total energy              =   -9476.96381173 Ry
     Harris-Foulkes estimate   =  -17310.57341958 Ry
     estimated scf accuracy    <  180105.58859033 Ry

     iteration #  2     ecut=    80.00 Ry     beta=0.70
     Davidson diagonalization with overlap
     ethr =  1.00E-02,  avg # of iterations = 12.3

     negative rho (up, down):  3.149E+01 0.000E+00

     total cpu time spent up to now is     2942.2 secs

     total energy              =  -12202.43355316 Ry
     Harris-Foulkes estimate   =  -13665.76287651 Ry
     estimated scf accuracy    <   24005.08757023 Ry

     iteration #  3     ecut=    80.00 Ry     beta=0.70
     Davidson diagonalization with overlap
     ethr =  1.00E-02,  avg # of iterations =  7.3

     negative rho (up, down):  3.205E+01 0.000E+00

     total cpu time spent up to now is     3468.2 secs

     total energy              =  -12462.50933371 Ry
     Harris-Foulkes estimate   =  -13406.76072789 Ry
     estimated scf accuracy    <    5813.56341491 Ry

     iteration #  4     ecut=    80.00 Ry     beta=0.70
     Davidson diagonalization with overlap
     ethr =  1.00E-02,  avg # of iterations =  5.8

     negative rho (up, down):  2.381E+01 0.000E+00

     total cpu time spent up to now is     3951.9 secs

     total energy              =  -12847.22774380 Ry
     Harris-Foulkes estimate   =  -13084.01636457 Ry
     estimated scf accuracy    <    1761.36840335 Ry

     iteration #  5     ecut=    80.00 Ry     beta=0.70
     Davidson diagonalization with overlap
     ethr =  1.00E-02,  avg # of iterations =  3.2

     negative rho (up, down):  1.866E+01 0.000E+00

     total cpu time spent up to now is     4209.8 secs

     total energy              =  -12845.63174527 Ry
     Harris-Foulkes estimate   =  -12960.89278195 Ry
     estimated scf accuracy    <    1297.23447157 Ry

     iteration #  6     ecut=    80.00 Ry     beta=0.70
     Davidson diagonalization with overlap
     ethr =  1.00E-02,  avg # of iterations =  3.0

     negative rho (up, down):  1.296E+01 0.000E+00

     total cpu time spent up to now is     4417.3 secs

     total energy              =  -12834.31807641 Ry
     Harris-Foulkes estimate   =  -12908.67613271 Ry
     estimated scf accuracy    <     572.32319802 Ry

     iteration #  7     ecut=    80.00 Ry     beta=0.70
     Davidson diagonalization with overlap
     ethr =  1.00E-02,  avg # of iterations =  2.0

     negative rho (up, down):  9.307E+00 0.000E+00

     total cpu time spent up to now is     4595.4 secs

     total energy              =  -12809.15952376 Ry
     Harris-Foulkes estimate   =  -12852.21097157 Ry
     estimated scf accuracy    <     446.55840319 Ry

     iteration #  8     ecut=    80.00 Ry     beta=0.70
     Davidson diagonalization with overlap
     ethr =  1.00E-02,  avg # of iterations =  2.0

     negative rho (up, down):  7.241E+00 0.000E+00

     total cpu time spent up to now is     4771.5 secs

     total energy              =  -12787.75889741 Ry
     Harris-Foulkes estimate   =  -12824.16647884 Ry
     estimated scf accuracy    <     492.97433584 Ry

     iteration #  9     ecut=    80.00 Ry     beta=0.70
     Davidson diagonalization with overlap
     ethr =  1.00E-02,  avg # of iterations =  1.8

     negative rho (up, down):  5.606E+00 0.000E+00

     total cpu time spent up to now is     4944.9 secs

     total energy              =  -12781.62207871 Ry
     Harris-Foulkes estimate   =  -12799.99406857 Ry
     estimated scf accuracy    <     188.50924237 Ry

     iteration # 10     ecut=    80.00 Ry     beta=0.70
     Davidson diagonalization with overlap
     ethr =  1.00E-02,  avg # of iterations =  1.3

     negative rho (up, down):  1.195E+00 0.000E+00

     total cpu time spent up to now is     5111.8 secs

     total energy              =  -12735.03455085 Ry
     Harris-Foulkes estimate   =  -12783.10505207 Ry
     estimated scf accuracy    <     150.22189247 Ry

     iteration # 11     ecut=    80.00 Ry     beta=0.70
     Davidson diagonalization with overlap
     ethr =  1.00E-02,  avg # of iterations =  3.0

     negative rho (up, down):  9.575E-01 0.000E+00

     total cpu time spent up to now is     5300.5 secs

     total energy              =  -12727.79909750 Ry
     Harris-Foulkes estimate   =  -12745.70667001 Ry
     estimated scf accuracy    <     411.12157974 Ry

     iteration # 12     ecut=    80.00 Ry     beta=0.70
     Davidson diagonalization with overlap
     ethr =  1.00E-02,  avg # of iterations =  1.0

     negative rho (up, down):  5.789E-01 0.000E+00

     total cpu time spent up to now is     5464.5 secs

     total energy              =  -12724.32447398 Ry
     Harris-Foulkes estimate   =  -12738.93394140 Ry
     estimated scf accuracy    <     261.92875527 Ry

     iteration # 13     ecut=    80.00 Ry     beta=0.70
     Davidson diagonalization with overlap
     ethr =  1.00E-02,  avg # of iterations =  1.7

     negative rho (up, down):  2.864E+00 0.000E+00

     total cpu time spent up to now is     5636.6 secs

     total energy              =  -12716.03553038 Ry
     Harris-Foulkes estimate   =  -12734.07295931 Ry
     estimated scf accuracy    <     125.47112821 Ry

     iteration # 14     ecut=    80.00 Ry     beta=0.70
     Davidson diagonalization with overlap
     ethr =  9.71E-03,  avg # of iterations =  2.0

     negative rho (up, down):  5.329E+00 0.000E+00

     total cpu time spent up to now is     5813.0 secs

     total energy              =  -12717.66822057 Ry
     Harris-Foulkes estimate   =  -12725.01030368 Ry
     estimated scf accuracy    <      63.83446640 Ry

     iteration # 15     ecut=    80.00 Ry     beta=0.70
     Davidson diagonalization with overlap
     ethr =  4.94E-03,  avg # of iterations =  2.0

     negative rho (up, down):  5.256E+00 0.000E+00

     total cpu time spent up to now is     5987.8 secs

     total energy              =  -12716.45098194 Ry
     Harris-Foulkes estimate   =  -12720.88045519 Ry
     estimated scf accuracy    <      38.17832642 Ry

     iteration # 16     ecut=    80.00 Ry     beta=0.70
     Davidson diagonalization with overlap
     ethr =  2.95E-03,  avg # of iterations =  2.5

     negative rho (up, down):  4.931E+00 0.000E+00

     total cpu time spent up to now is     6168.4 secs

     total energy              =  -12714.42168111 Ry
     Harris-Foulkes estimate   =  -12718.22872182 Ry
     estimated scf accuracy    <      25.65222133 Ry

     iteration # 17     ecut=    80.00 Ry     beta=0.70
     Davidson diagonalization with overlap
     ethr =  1.99E-03,  avg # of iterations =  3.7

     negative rho (up, down):  5.149E+00 0.000E+00

     total cpu time spent up to now is     6363.2 secs

     total energy              =  -12714.35820083 Ry
     Harris-Foulkes estimate   =  -12715.45795533 Ry
     estimated scf accuracy    <      15.31033071 Ry

     iteration # 18     ecut=    80.00 Ry     beta=0.70
     Davidson diagonalization with overlap
     ethr =  1.19E-03,  avg # of iterations =  3.5

     negative rho (up, down):  4.650E+00 0.000E+00

     total cpu time spent up to now is     6556.2 secs

     total energy              =  -12713.32871601 Ry
     Harris-Foulkes estimate   =  -12714.93867852 Ry
     estimated scf accuracy    <      11.81135136 Ry

     iteration # 19     ecut=    80.00 Ry     beta=0.70
     Davidson diagonalization with overlap
     ethr =  9.14E-04,  avg # of iterations =  7.5

     negative rho (up, down):  3.759E+00 0.000E+00

     total cpu time spent up to now is     6798.0 secs

     total energy              =  -12712.19318169 Ry
     Harris-Foulkes estimate   =  -12713.59094667 Ry
     estimated scf accuracy    <       8.11128176 Ry

     iteration # 20     ecut=    80.00 Ry     beta=0.70
     Davidson diagonalization with overlap
     ethr =  6.28E-04,  avg # of iterations =  3.0

     negative rho (up, down):  2.769E+00 0.000E+00

     total cpu time spent up to now is     6986.1 secs

     total energy              =  -12711.71420170 Ry
     Harris-Foulkes estimate   =  -12712.42662389 Ry
     estimated scf accuracy    <       9.18937271 Ry

     iteration # 21     ecut=    80.00 Ry     beta=0.70
     Davidson diagonalization with overlap
     ethr =  6.28E-04,  avg # of iterations =  1.7

     negative rho (up, down):  2.411E+00 0.000E+00

     total cpu time spent up to now is     7158.6 secs

     total energy              =  -12711.25540517 Ry
     Harris-Foulkes estimate   =  -12711.83972020 Ry
     estimated scf accuracy    <       7.26548294 Ry

     iteration # 22     ecut=    80.00 Ry     beta=0.70
     Davidson diagonalization with overlap
     ethr =  5.62E-04,  avg # of iterations =  1.0

     negative rho (up, down):  1.316E+00 0.000E+00

     total cpu time spent up to now is     7322.3 secs

     total energy              =  -12710.20109026 Ry
     Harris-Foulkes estimate   =  -12711.49857514 Ry
     estimated scf accuracy    <       7.69119207 Ry

     iteration # 23     ecut=    80.00 Ry     beta=0.70
     Davidson diagonalization with overlap
     ethr =  5.62E-04,  avg # of iterations =  1.0

     negative rho (up, down):  1.181E+00 0.000E+00

     total cpu time spent up to now is     7487.0 secs

     total energy              =  -12710.02346471 Ry
     Harris-Foulkes estimate   =  -12710.47532109 Ry
     estimated scf accuracy    <      10.79122166 Ry

     iteration # 24     ecut=    80.00 Ry     beta=0.70
     Davidson diagonalization with overlap
     ethr =  5.62E-04,  avg # of iterations =  1.3

     total cpu time spent up to now is     7655.6 secs

     total energy              =  -12708.70170475 Ry
     Harris-Foulkes estimate   =  -12710.36513679 Ry
     estimated scf accuracy    <       6.94159791 Ry

     iteration # 25     ecut=    80.00 Ry     beta=0.70
     Davidson diagonalization with overlap
     ethr =  5.37E-04,  avg # of iterations = 10.5

     total cpu time spent up to now is     7929.4 secs

     total energy              =  -12708.33998883 Ry
     Harris-Foulkes estimate   =  -12708.85402582 Ry
     estimated scf accuracy    <       4.17289401 Ry

     iteration # 26     ecut=    80.00 Ry     beta=0.70
     Davidson diagonalization with overlap
     ethr =  3.23E-04,  avg # of iterations =  2.3

     negative rho (up, down):  4.489E-02 0.000E+00

     total cpu time spent up to now is     8108.6 secs

     total energy              =  -12707.83251808 Ry
     Harris-Foulkes estimate   =  -12708.50752588 Ry
     estimated scf accuracy    <       3.80956862 Ry

     iteration # 27     ecut=    80.00 Ry     beta=0.70
     Davidson diagonalization with overlap
     ethr =  2.95E-04,  avg # of iterations =  3.2

     negative rho (up, down):  1.012E-01 0.000E+00

     total cpu time spent up to now is     8298.1 secs

     total energy              =  -12707.59450377 Ry
     Harris-Foulkes estimate   =  -12707.92242521 Ry
     estimated scf accuracy    <       2.64236540 Ry

     iteration # 28     ecut=    80.00 Ry     beta=0.70
     Davidson diagonalization with overlap
     ethr =  2.05E-04,  avg # of iterations =  2.7

     negative rho (up, down):  1.726E-01 0.000E+00

     total cpu time spent up to now is     8481.4 secs

     total energy              =  -12707.32068792 Ry
     Harris-Foulkes estimate   =  -12707.66351530 Ry
     estimated scf accuracy    <       1.66376387 Ry

     iteration # 29     ecut=    80.00 Ry     beta=0.70
     Davidson diagonalization with overlap
     ethr =  1.29E-04,  avg # of iterations =  8.8

     negative rho (up, down):  1.360E-01 0.000E+00

     total cpu time spent up to now is     8741.2 secs

     total energy              =  -12707.12217858 Ry
     Harris-Foulkes estimate   =  -12707.37447561 Ry
     estimated scf accuracy    <       1.00304833 Ry

     iteration # 30     ecut=    80.00 Ry     beta=0.70
     Davidson diagonalization with overlap
     ethr =  7.76E-05,  avg # of iterations =  9.0

     negative rho (up, down):  1.294E-01 0.000E+00

     total cpu time spent up to now is     9017.5 secs

     total energy              =  -12707.12012784 Ry
     Harris-Foulkes estimate   =  -12707.20447514 Ry
     estimated scf accuracy    <       0.68007109 Ry

     iteration # 31     ecut=    80.00 Ry     beta=0.70
     Davidson diagonalization with overlap
     ethr =  5.26E-05,  avg # of iterations =  8.0

     negative rho (up, down):  7.703E-02 0.000E+00

     total cpu time spent up to now is     9272.6 secs

     total energy              =  -12707.13760078 Ry
     Harris-Foulkes estimate   =  -12707.16156174 Ry
     estimated scf accuracy    <       0.43300204 Ry

     iteration # 32     ecut=    80.00 Ry     beta=0.70
     Davidson diagonalization with overlap
     ethr =  3.35E-05,  avg # of iterations =  5.3

     negative rho (up, down):  8.458E-02 0.000E+00

     total cpu time spent up to now is     9488.4 secs

     total energy              =  -12707.13929412 Ry
     Harris-Foulkes estimate   =  -12707.14805244 Ry
     estimated scf accuracy    <       0.09236728 Ry

     iteration # 33     ecut=    80.00 Ry     beta=0.70
     Davidson diagonalization with overlap
     ethr =  7.15E-06,  avg # of iterations =  7.5

     negative rho (up, down):  5.472E-02 0.000E+00

     total cpu time spent up to now is     9732.7 secs

     total energy              =  -12707.14022053 Ry
     Harris-Foulkes estimate   =  -12707.14475999 Ry
     estimated scf accuracy    <       0.03899067 Ry

     iteration # 34     ecut=    80.00 Ry     beta=0.70
     Davidson diagonalization with overlap
     ethr =  3.02E-06,  avg # of iterations =  6.2

     negative rho (up, down):  3.288E-02 0.000E+00

     total cpu time spent up to now is     9962.6 secs

     total energy              =  -12707.14134381 Ry
     Harris-Foulkes estimate   =  -12707.14313489 Ry
     estimated scf accuracy    <       0.01106525 Ry

     iteration # 35     ecut=    80.00 Ry     beta=0.70
     Davidson diagonalization with overlap
     ethr =  8.56E-07,  avg # of iterations =  6.5

     negative rho (up, down):  1.910E-02 0.000E+00

     total cpu time spent up to now is    10210.0 secs

     total energy              =  -12707.14241979 Ry
     Harris-Foulkes estimate   =  -12707.14296653 Ry
     estimated scf accuracy    <       0.00599637 Ry

     iteration # 36     ecut=    80.00 Ry     beta=0.70
     Davidson diagonalization with overlap
     c_bands:  1 eigenvalues not converged
     ethr =  4.64E-07,  avg # of iterations = 11.2

     negative rho (up, down):  9.727E-03 0.000E+00

     total cpu time spent up to now is    10511.6 secs

     total energy              =  -12707.14271963 Ry
     Harris-Foulkes estimate   =  -12707.14319306 Ry
     estimated scf accuracy    <       0.00240628 Ry

     iteration # 37     ecut=    80.00 Ry     beta=0.70
     Davidson diagonalization with overlap
     c_bands:  1 eigenvalues not converged
     ethr =  1.86E-07,  avg # of iterations =  8.5

     negative rho (up, down):  1.100E-02 0.000E+00

     total cpu time spent up to now is    10771.9 secs

     total energy              =  -12707.14308002 Ry
     Harris-Foulkes estimate   =  -12707.14293164 Ry
     estimated scf accuracy    <       0.00027082 Ry

     iteration # 38     ecut=    80.00 Ry     beta=0.70
     Davidson diagonalization with overlap
     ethr =  2.10E-08,  avg # of iterations =  9.8

     negative rho (up, down):  3.875E-03 0.000E+00

     total cpu time spent up to now is    11058.1 secs

     total energy              =  -12707.14301853 Ry
     Harris-Foulkes estimate   =  -12707.14310614 Ry
     estimated scf accuracy    <       0.00009209 Ry

     iteration # 39     ecut=    80.00 Ry     beta=0.70
     Davidson diagonalization with overlap
     c_bands:  1 eigenvalues not converged
     ethr =  7.13E-09,  avg # of iterations =  7.8

     negative rho (up, down):  3.238E-03 0.000E+00

     total cpu time spent up to now is    11322.0 secs

     total energy              =  -12707.14301737 Ry
     Harris-Foulkes estimate   =  -12707.14302762 Ry
     estimated scf accuracy    <       0.00002366 Ry

     iteration # 40     ecut=    80.00 Ry     beta=0.70
     Davidson diagonalization with overlap
     ethr =  1.83E-09,  avg # of iterations =  4.5

     negative rho (up, down):  2.984E-03 0.000E+00

     total cpu time spent up to now is    11531.8 secs

     total energy              =  -12707.14301631 Ry
     Harris-Foulkes estimate   =  -12707.14301964 Ry
     estimated scf accuracy    <       0.00000727 Ry

     iteration # 41     ecut=    80.00 Ry     beta=0.70
     Davidson diagonalization with overlap
     ethr =  5.63E-10,  avg # of iterations =  3.2

     negative rho (up, down):  2.344E-03 0.000E+00

     total cpu time spent up to now is    11738.7 secs

     total energy              =  -12707.14301430 Ry
     Harris-Foulkes estimate   =  -12707.14301737 Ry
     estimated scf accuracy    <       0.00000365 Ry

     iteration # 42     ecut=    80.00 Ry     beta=0.70
     Davidson diagonalization with overlap
     ethr =  2.83E-10,  avg # of iterations =  3.3

     negative rho (up, down):  2.291E-03 0.000E+00

     total cpu time spent up to now is    11941.3 secs

     total energy              =  -12707.14301465 Ry
     Harris-Foulkes estimate   =  -12707.14301470 Ry
     estimated scf accuracy    <       0.00000168 Ry

     iteration # 43     ecut=    80.00 Ry     beta=0.70
     Davidson diagonalization with overlap
     ethr =  1.30E-10,  avg # of iterations =  3.0

     negative rho (up, down):  2.053E-03 0.000E+00

     total cpu time spent up to now is    12138.9 secs

     total energy              =  -12707.14301486 Ry
     Harris-Foulkes estimate   =  -12707.14301482 Ry
     estimated scf accuracy    <       0.00000062 Ry

     iteration # 44     ecut=    80.00 Ry     beta=0.70
     Davidson diagonalization with overlap
     ethr =  4.82E-11,  avg # of iterations =  3.0

     negative rho (up, down):  2.130E-03 0.000E+00

     total cpu time spent up to now is    12336.0 secs

     total energy              =  -12707.14301469 Ry
     Harris-Foulkes estimate   =  -12707.14301492 Ry
     estimated scf accuracy    <       0.00000025 Ry

     iteration # 45     ecut=    80.00 Ry     beta=0.70
     Davidson diagonalization with overlap
     ethr =  1.95E-11,  avg # of iterations =  2.2

     negative rho (up, down):  2.119E-03 0.000E+00

     total cpu time spent up to now is    12520.9 secs

     total energy              =  -12707.14301468 Ry
     Harris-Foulkes estimate   =  -12707.14301472 Ry
     estimated scf accuracy    <       0.00000006 Ry

     iteration # 46     ecut=    80.00 Ry     beta=0.70
     Davidson diagonalization with overlap
     ethr =  4.65E-12,  avg # of iterations =  3.0

     negative rho (up, down):  2.119E-03 0.000E+00

     total cpu time spent up to now is    12720.4 secs

     total energy              =  -12707.14301466 Ry
     Harris-Foulkes estimate   =  -12707.14301468 Ry
     estimated scf accuracy    <       0.00000001 Ry

     iteration # 47     ecut=    80.00 Ry     beta=0.70
     Davidson diagonalization with overlap
     ethr =  1.02E-12,  avg # of iterations =  2.8

     negative rho (up, down):  2.115E-03 0.000E+00

     total cpu time spent up to now is    12937.6 secs

     End of self-consistent calculation

          k = 0.0000 0.0000 0.0000 (256287 PWs)   bands (ev):

   -17.2846 -16.2344 -16.0879 -15.4309 -15.0440 -14.7913 -14.6914 -14.2529
   -14.1991 -14.1393 -14.1245 -13.4676 -13.3242 -13.1546 -13.1227 -13.0873
   -13.0797 -11.6699 -11.5334 -11.4870 -11.3890 -11.2059 -10.3534  -9.7698
    -9.7610  -9.6269  -9.5237  -8.9880  -8.7996  -8.6747  -8.6013  -8.0472
    -7.9033  -7.7624  -7.6415  -7.5809  -7.5744  -7.5353  -7.5233  -6.3598
    -6.3502  -6.1261  -6.0215  -6.0196  -5.9499  -5.8899  -5.8597  -5.8444
    -5.4984  -5.4850  -5.3050  -4.8930  -4.8397  -4.7997  -4.6359  -4.6216
    -4.5833  -4.4253  -4.2575  -4.1472  -3.9894  -3.9878  -3.9699  -3.9474
    -3.6184  -3.5505  -3.5303  -3.5257  -3.4212  -3.4181  -3.4074  -3.4001
    -3.2768  -3.1867  -3.1224  -3.0608  -3.0158  -3.0080  -3.0075  -3.0060
    -2.9915  -2.8586  -2.8351  -2.7993  -2.7814  -2.7445  -2.7401  -2.7394
    -2.7183  -2.7140  -2.5334  -2.4331  -2.3775  -2.3764  -2.3390  -2.3361
    -2.1946  -2.1921  -2.1819  -2.1769  -2.1520  -2.1520  -2.1519  -2.1516
    -2.1130  -2.0784  -2.0777  -2.0357  -2.0212  -2.0211  -2.0210  -2.0205
    -1.9608  -1.8417  -1.7770  -1.7442  -1.7387  -1.7379  -1.7377  -1.7028
    -1.6930  -1.6717  -1.6584  -1.6567  -1.6116  -1.6018  -1.5897  -1.5708
    -1.5645  -1.5632  -1.5610  -1.5510  -1.5397  -1.5352  -1.5347  -1.5155
    -1.5140  -1.4580  -1.4414  -1.4293  -1.4156  -1.3839  -1.3803  -1.3770
    -1.3715  -1.3529  -1.2989  -1.2915  -1.2636  -1.2621  -1.2507  -1.2116
    -1.2113  -1.1918  -1.1897  -1.1748  -1.1670  -1.1641  -1.1270  -1.1200
    -1.1093  -1.1071  -1.0494  -1.0467  -1.0356  -1.0295  -1.0270  -1.0247
    -1.0247  -1.0220  -1.0206  -1.0157  -1.0154  -0.9982  -0.9955  -0.9812
    -0.9517  -0.9409  -0.9379  -0.9346  -0.9234  -0.9189  -0.9179  -0.9172
    -0.8961  -0.8595  -0.8578  -0.8574  -0.8563  -0.8555  -0.8546  -0.8538
    -0.8527  -0.8525  -0.8501  -0.8482  -0.8482  -0.8479  -0.8457  -0.8428
    -0.8418  -0.8333  -0.8297  -0.8293  -0.8221  -0.7856  -0.6897  -0.6896
    -0.6857  -0.6834  -0.6825  -0.6603  -0.6585  -0.6415  -0.6413  -0.6199
    -0.6196  -0.6058  -0.6043  -0.6029  -0.6024  -0.5877  -0.5644  -0.5638
    -0.5618  -0.5613  -0.5539  -0.5529  -0.5422  -0.5420  -0.4921  -0.4921
    -0.4382  -0.4378  -0.4276  -0.4259  -0.4258  -0.4245  -0.4106  -0.4104
    -0.4048  -0.4047  -0.4045  -0.4040  -0.3997  -0.3997  -0.3855  -0.3850
    -0.3850  -0.3772  -0.3752  -0.3746  -0.3510  -0.3504  -0.2993  -0.2986
    -0.2967  -0.2910  -0.2909  -0.2644  -0.2644  -0.2643  -0.2643  -0.2491
    -0.2474  -0.2467  -0.2424  -0.2423  -0.2243  -0.2211  -0.2196  -0.2193
    -0.2149  -0.2145  -0.2144  -0.2141  -0.2116  -0.2087  -0.1926  -0.1900
    -0.1894  -0.1881  -0.1874  -0.1684  -0.1208  -0.1203  -0.1182  -0.1180
    -0.1154  -0.0738  -0.0718  -0.0697  -0.0686  -0.0678  -0.0624  -0.0620
    -0.0619  -0.0616  -0.0615  -0.0534  -0.0471  -0.0343  -0.0114  -0.0086
    -0.0079  -0.0077   0.0011   0.0188   0.0211   0.0213   0.0219   0.0264
     0.0302   0.0455   0.0462   0.0477   0.0482   0.0487   0.0492   0.0622
     0.0637   0.0637   0.0639   0.0692   0.0763   0.0772   0.0777   0.0992
     0.1022   0.1206   0.1352   0.1358   0.1577   0.1644   0.1650   0.1892
     0.1936   0.2329   0.2378   0.2383   0.2387   0.2398   0.2433   0.2494
     0.2698   0.2731   0.2737   0.2739   0.2746   0.2839   0.2843   0.2936
     0.3264   0.3408   0.3408   0.3480   0.3491   0.3503   0.3504   0.3774
     0.3833   0.3835   0.3840   0.3843   0.4062   0.4149   0.4161   0.4224
     0.4236   0.4364   0.4370   0.4392   0.4404   0.4775   0.4792   0.4933
     0.4944   0.4967   0.4969   0.4972   0.5090   0.5233   0.5272   0.5305
     0.5331   0.5346   0.5356   0.5357   0.5374   0.5397   0.5467   0.5472
     0.5479   0.5537   0.5544   0.5556   0.5633   0.5642   0.5837   0.5958
     0.6057   0.6058   0.6162   0.6165   0.6487   0.6495   0.6500   0.6507
     0.6526   0.6528   0.6535   0.6540   0.6642   0.6654   0.6740   0.6786
     0.6791   0.6794   0.6802   0.6874   0.6877   0.6975   0.6979   0.7121
     0.7200   0.7205   0.7208   0.7262   0.7310   0.7324   0.7417   0.7427
     0.7463   0.7486   0.7486   0.7519   0.7553   0.7560   0.7595   0.7625
     0.7685   0.7766   0.8058   0.8060   0.8161   0.8176   0.8232   0.8243
     0.8245   0.8252   0.8557   0.8561   0.8698   0.8709   0.8762   0.8763
     0.8908   0.8911   0.9001   0.9003   0.9008   0.9023   0.9091   0.9224
     0.9370   0.9378   0.9394   0.9419   0.9425   0.9437   0.9597   0.9657
     0.9777   0.9804   0.9859   0.9866   0.9971   1.0017   1.0059   1.0106
     1.0113   1.0129   1.0136   1.0139   1.0216   1.0240   1.0264   1.0287
     1.0288   1.0294   1.0307   1.0438   1.0439   1.0624   1.0629   1.0642
     1.0651   1.0691   1.0737   1.1016   1.1053   1.1057   1.1078   1.1084
     1.1101   1.1113   1.1128   1.1187   1.1195   1.1197   1.1199   1.1199
     1.1207   1.1357   1.1360   1.1611   1.1663   1.1835   1.1840   1.1960
     1.2017   1.2026   1.2033   1.2054   1.2055   1.2103   1.2128   1.2215
     1.2302   1.2333   1.2385   1.2398   1.2401   1.2407   1.2450   1.2462
     1.2466   1.2550   1.2739   1.2746   1.2756   1.2760   1.2775   1.2778
     1.2782   1.2783   1.2943   1.2948   1.2961   1.3018   1.3103   1.3105
     1.3114   1.3117   1.3119   1.3216   1.3237   1.3246   1.3348   1.3445
     1.3528   1.3536   1.3555   1.3560   1.3571   1.3585   1.3594   1.3714
     1.3840   1.3867   1.3882   1.3931   1.4029   1.4161   1.4163   1.4224
     1.4227   1.4228   1.4286   1.4300   1.4321   1.4343   1.4345   1.4346
     1.4348   1.4369   1.4384   1.4458   1.4463   1.4502   1.4675   1.4676
     1.4682   1.4683   1.4719   1.4795   1.4807   1.4940   1.5054   1.5091
     1.5101   1.5207   1.5568   1.5575   1.5603   1.5613   1.5791   1.5798
     1.5800   1.5878   1.5909   1.6060   1.6294   1.6322   1.6325   1.6329
     1.6335   1.6433   1.6439   1.6442   1.9000   1.9559   2.1056   2.1080
     2.1481   2.1549   2.2004   2.2052   2.2063   2.2069   2.2182   2.2240
     2.2252   2.2261   2.3988   2.4017   2.4586   2.4653   2.4668   2.4671
     2.4780   2.4807   2.6581   2.7191   2.7247   2.7250   2.7474   2.9729
     2.9870   3.0187   3.1687   3.5203   3.5227   3.8155   3.8178   3.8440
     3.8513   3.8542   3.8550   3.8912   3.9673   3.9804   3.9860   4.0061
     4.0076   4.0088   4.0095   4.0119   4.0138   4.2296   4.2488   4.2495
     4.2505   4.3564   4.3978   4.6860   4.7650   4.8451   4.8698   4.9199
     5.3047   5.3925   5.3985   5.4061   5.7050   5.7092   5.7212   5.7242
     5.9220   5.9297   6.1897   6.3447   6.3489   6.4084   6.4153   6.4695
     6.4719   6.4768   6.4832   6.5794   6.5970   6.6063   6.7167   6.7737
     6.7802   6.7939   6.8118   6.8185   7.0132   7.0486   7.0524   7.0592
     7.0707   7.0921   7.3566   7.3576   7.5099   7.5494   7.5511   7.6952
     7.6962   7.7068   7.7097   8.0033   8.0394   8.0858   8.1342   8.1931
     8.2275   8.2997   8.3052   8.3062   8.3343   8.3358   8.3466   8.4050
     8.4140   8.4219   8.4978   8.5547   8.5636   8.5715   8.6619   8.6647
     8.6679   8.6688   8.8138   8.8162   8.8285   8.8331   8.8384   8.8401
     9.1075   9.1094   9.1102   9.1160   9.1198   9.1397   9.1744   9.3182
     9.3444   9.3477   9.4228   9.4801   9.4906   9.5771   9.5784   9.6615
     9.6711   9.8073   9.8309  10.0435  10.0437  10.1230  10.1465

          k = 0.0000-0.2165 0.0000 (256176 PWs)   bands (ev):

   -17.2841 -16.3024 -15.8961 -15.6602 -15.0745 -14.6797 -14.3577 -14.3394
   -14.2663 -14.2320 -13.8275 -13.7712 -13.7204 -13.6942 -12.6063 -12.4391
   -12.3824 -12.3128 -12.1479 -12.0796 -10.6520 -10.5546 -10.5217 -10.3925
    -9.4590  -9.4387  -9.3019  -9.1176  -8.9898  -8.9568  -8.4050  -8.2861
    -8.2141  -8.1608  -7.4807  -7.3434  -7.0137  -6.9726  -6.9079  -6.8949
    -6.8518  -6.8400  -6.1903  -6.0828  -5.8912  -5.8826  -5.5192  -5.3867
    -5.2972  -5.2145  -5.1385  -4.9647  -4.9131  -4.8417  -4.8382  -4.7422
    -4.6857  -4.6313  -4.6105  -4.4706  -4.1575  -4.0481  -3.8266  -3.6968
    -3.6642  -3.5905  -3.3161  -3.3052  -3.3019  -3.3013  -3.2461  -3.2265
    -3.1414  -3.0930  -3.0677  -3.0491  -3.0401  -3.0313  -3.0061  -2.8969
    -2.8694  -2.8670  -2.8294  -2.7893  -2.7751  -2.7116  -2.6967  -2.6015
    -2.5878  -2.5878  -2.5785  -2.5784  -2.5780  -2.5768  -2.4778  -2.3686
    -2.3366  -2.3330  -2.2520  -2.2509  -2.2474  -2.2455  -2.1492  -2.1454
    -2.1449  -2.1441  -2.0854  -2.0412  -1.9867  -1.9866  -1.9612  -1.9611
    -1.8765  -1.8648  -1.8566  -1.8085  -1.7897  -1.7842  -1.7686  -1.7676
    -1.7497  -1.7495  -1.7407  -1.7407  -1.7227  -1.7224  -1.6455  -1.6453
    -1.6232  -1.5867  -1.5723  -1.5683  -1.5605  -1.4679  -1.4671  -1.4628
    -1.4622  -1.3789  -1.3763  -1.3708  -1.3705  -1.3690  -1.3168  -1.3166
    -1.2800  -1.2789  -1.2749  -1.2748  -1.2723  -1.2722  -1.2533  -1.2492
    -1.2290  -1.2288  -1.2239  -1.2229  -1.2133  -1.2119  -1.1692  -1.1541
    -1.1504  -1.1485  -1.1335  -1.1325  -1.0888  -1.0888  -1.0506  -1.0506
    -1.0474  -1.0473  -1.0044  -1.0031  -0.9840  -0.9836  -0.9829  -0.9822
    -0.9781  -0.9779  -0.9274  -0.9268  -0.9194  -0.9188  -0.9109  -0.9108
    -0.9010  -0.8986  -0.8972  -0.8968  -0.8322  -0.8282  -0.8281  -0.8193
    -0.8185  -0.8183  -0.8178  -0.8142  -0.7957  -0.7956  -0.7819  -0.7810
    -0.7548  -0.7545  -0.7517  -0.7505  -0.6548  -0.6547  -0.6542  -0.6541
    -0.6335  -0.6332  -0.6244  -0.6102  -0.6071  -0.6058  -0.6050  -0.6014
    -0.6014  -0.5755  -0.5751  -0.5683  -0.5419  -0.5415  -0.5404  -0.5394
    -0.5380  -0.5365  -0.5348  -0.5332  -0.5039  -0.5039  -0.4877  -0.4839
    -0.4839  -0.4702  -0.4482  -0.4476  -0.4476  -0.4469  -0.4447  -0.4366
    -0.4355  -0.4353  -0.4351  -0.4164  -0.4075  -0.3575  -0.3574  -0.3570
    -0.3569  -0.3259  -0.3253  -0.3036  -0.3034  -0.3021  -0.2973  -0.2969
    -0.2954  -0.2940  -0.2727  -0.2695  -0.2693  -0.2688  -0.2679  -0.2607
    -0.2520  -0.2479  -0.2471  -0.2469  -0.2459  -0.2434  -0.2432  -0.2398
    -0.2337  -0.2329  -0.2066  -0.2065  -0.2048  -0.2045  -0.1838  -0.1463
    -0.1423  -0.1406  -0.1403  -0.1348  -0.1319  -0.1314  -0.1289  -0.1281
    -0.1236  -0.1179  -0.1052  -0.1022  -0.0886  -0.0882  -0.0866  -0.0859
    -0.0773  -0.0772  -0.0751  -0.0741  -0.0738  -0.0732  -0.0454  -0.0178
    -0.0165  -0.0140  -0.0134   0.0016   0.0033   0.0052   0.0058   0.0111
     0.0112   0.0134   0.0281   0.0294   0.0298   0.0307   0.0405   0.0465
     0.0584   0.0594   0.0755   0.0758   0.0759   0.0764   0.0943   0.0949
     0.1109   0.1109   0.1217   0.1220   0.1343   0.1349   0.1356   0.1358
     0.1794   0.1806   0.1833   0.1843   0.1957   0.1965   0.2015   0.2020
     0.2288   0.2290   0.2608   0.2627   0.2647   0.2674   0.3001   0.3002
     0.3218   0.3366   0.3855   0.3859   0.3862   0.3872   0.3928   0.4120
     0.4130   0.4135   0.4139   0.4254   0.4436   0.4495   0.4525   0.4544
     0.4549   0.4550   0.4554   0.4557   0.4619   0.4666   0.4766   0.4777
     0.4790   0.4794   0.4804   0.4813   0.4831   0.4842   0.5162   0.5162
     0.5274   0.5276   0.5280   0.5283   0.5359   0.5360   0.5388   0.5558
     0.5570   0.5574   0.5576   0.5580   0.5584   0.5585   0.5588   0.5592
     0.5816   0.5817   0.5832   0.5836   0.5837   0.5844   0.5852   0.5853
     0.6014   0.6016   0.6446   0.6448   0.6567   0.6570   0.6661   0.6676
     0.6689   0.6692   0.6751   0.6753   0.6760   0.6768   0.6819   0.6823
     0.6832   0.6833   0.7232   0.7242   0.7244   0.7249   0.7388   0.7414
     0.7415   0.7425   0.7428   0.7437   0.7548   0.7584   0.7746   0.7758
     0.7789   0.7809   0.7822   0.7825   0.8338   0.8347   0.8849   0.8857
     0.8911   0.8925   0.8938   0.8944   0.9030   0.9040   0.9106   0.9107
     0.9169   0.9172   0.9219   0.9251   0.9255   0.9268   0.9377   0.9382
     0.9403   0.9412   0.9419   0.9423   0.9501   0.9553   0.9633   0.9665
     0.9665   0.9680   0.9688   0.9706   0.9708   0.9740   0.9776   0.9777
     0.9892   0.9892   0.9908   0.9915   0.9927   0.9933   1.0110   1.0113
     1.0204   1.0241   1.0266   1.0269   1.0289   1.0300   1.0386   1.0386
     1.0393   1.0394   1.0403   1.0405   1.0862   1.0878   1.1065   1.1149
     1.1272   1.1273   1.1420   1.1433   1.1515   1.1538   1.1543   1.1550
     1.1699   1.1702   1.1845   1.1860   1.1921   1.1928   1.1953   1.1961
     1.1976   1.1984   1.1988   1.1994   1.2003   1.2014   1.2028   1.2029
     1.2102   1.2102   1.2191   1.2238   1.2298   1.2307   1.2309   1.2315
     1.2396   1.2407   1.2663   1.2696   1.2697   1.2699   1.2764   1.2767
     1.2789   1.2795   1.2929   1.2953   1.2970   1.2971   1.3098   1.3105
     1.3123   1.3133   1.3146   1.3153   1.3320   1.3324   1.3326   1.3335
     1.3512   1.3518   1.3520   1.3546   1.3707   1.3724   1.3787   1.3789
     1.3794   1.3798   1.3949   1.3949   1.3951   1.3952   1.4118   1.4124
     1.4261   1.4263   1.4264   1.4284   1.4464   1.4469   1.4486   1.4491
     1.4501   1.4502   1.4508   1.4512   1.4788   1.4790   1.4869   1.4875
     1.4928   1.4964   1.4987   1.5045   1.5184   1.5194   1.5195   1.5197
     1.5286   1.5287   1.5409   1.5409   1.5822   1.5852   1.5877   1.5880
     1.6724   1.6888   1.6933   1.7126   1.7165   1.7292   1.7309   1.7337
     1.7832   1.7864   1.7919   1.7931   1.8024   1.8121   1.8132   1.8135
     1.8532   1.8533   1.8950   2.0565   2.0654   2.0964   2.4128   2.4149
     2.4189   2.4193   2.4956   2.4980   2.5594   2.5636   2.5637   2.5648
     2.5807   2.5813   2.7090   2.7106   2.7564   2.7603   2.7791   2.7801
     2.9231   2.9241   3.1696   3.1697   3.1778   3.1876   3.3941   3.4149
     3.5812   3.6699   3.6836   3.9087   3.9249   3.9601   4.0802   4.1027
     4.1048   4.1083   4.3222   4.3258   4.3263   4.3280   4.4973   4.4983
     4.6624   4.6896   4.7653   4.7705   4.9112   5.0717   5.0985   5.1021
     5.3197   5.3581   5.3584   5.3591   5.3608   5.4305   5.5237   5.6582
     5.6754   5.7248   5.7444   5.8223   6.3803   6.3890   6.4199   6.4268
     6.4391   6.4412   6.5479   6.5576   6.6627   6.6677   6.8079   6.8089
     6.9711   7.0217   7.0346   7.0423   7.0752   7.0803   7.1154   7.1206
     7.1289   7.1338   7.2289   7.3386   7.3468   7.3686   7.3784   7.4265
     7.5308   7.6048   7.6976   7.7166   7.7331   7.7542   8.1432   8.1437
     8.3324   8.3564   8.3680   8.4234   8.4272   8.4278   8.4327   8.4470
     8.4492   8.4832   8.6408   8.6502   8.7121   8.7146   8.7187   8.7199
     8.7572   8.7621   8.8606   8.9156   8.9395   9.0153   9.0224   9.0587
     9.1420   9.1541   9.2351   9.2379   9.2816   9.3154   9.3853   9.3856
     9.3865   9.3869   9.4584   9.4603   9.4793   9.4853   9.4886   9.4913
     9.6617   9.6650   9.7859   9.7874   9.8011   9.8893   9.8896

          k = 0.2500 0.0000 0.0000 (256240 PWs)   bands (ev):

   -17.2333 -16.1280 -15.9650 -15.6635 -15.1443 -15.0052 -14.9458 -14.8939
   -14.1126 -13.9545 -13.7724 -13.2472 -13.1736 -13.0915 -13.0445 -12.3500
   -12.2328 -12.1491 -12.0805 -11.2385 -11.1408 -10.7888 -10.6726 -10.3597
   -10.2268  -9.9551  -9.9051  -9.5082  -9.2552  -9.1594  -8.6807  -7.9930
    -7.7978  -7.7308  -7.5656  -7.5424  -7.4473  -7.0941  -6.9778  -6.3018
    -6.2214  -6.0442  -5.9684  -5.9151  -5.8421  -5.4540  -5.3312  -5.3119
    -5.3025  -5.1744  -4.9236  -4.7483  -4.6344  -4.5433  -4.4679  -4.4642
    -4.4618  -4.4272  -4.3720  -4.2284  -4.1391  -4.0013  -4.0002  -3.9977
    -3.9095  -3.8454  -3.8406  -3.8114  -3.7951  -3.6270  -3.6010  -3.5743
    -3.5248  -3.4852  -3.4071  -3.4042  -3.2791  -3.2351  -3.2131  -3.1975
    -3.1423  -3.0364  -2.9566  -2.8959  -2.8004  -2.7988  -2.7911  -2.7528
    -2.6552  -2.6256  -2.6234  -2.5069  -2.4013  -2.3946  -2.3479  -2.3376
    -2.1341  -2.0992  -2.0969  -2.0826  -2.0799  -2.0592  -2.0038  -1.9904
    -1.9811  -1.8977  -1.8956  -1.8415  -1.8032  -1.8017  -1.8004  -1.7941
    -1.7934  -1.7850  -1.7737  -1.7462  -1.7354  -1.7241  -1.7193  -1.7169
    -1.7132  -1.6537  -1.6471  -1.6036  -1.5904  -1.5830  -1.5811  -1.5787
    -1.5783  -1.5778  -1.5485  -1.5273  -1.5145  -1.5040  -1.5022  -1.4910
    -1.4889  -1.3727  -1.3365  -1.3290  -1.3131  -1.2787  -1.2697  -1.2578
    -1.2441  -1.2431  -1.2380  -1.2365  -1.2302  -1.2204  -1.2078  -1.1984
    -1.1919  -1.1852  -1.1837  -1.1782  -1.1590  -1.1399  -1.1358  -1.1340
    -1.1334  -1.1325  -1.1172  -1.1116  -1.1111  -1.0915  -1.0770  -1.0668
    -1.0511  -1.0497  -1.0469  -1.0466  -1.0407  -1.0211  -1.0132  -1.0126
    -1.0036  -1.0019  -0.9967  -0.9916  -0.9819  -0.9815  -0.9813  -0.9801
    -0.9762  -0.9757  -0.9647  -0.9545  -0.9523  -0.9465  -0.9457  -0.9393
    -0.9216  -0.9020  -0.9008  -0.8961  -0.8529  -0.8523  -0.8164  -0.8163
    -0.7972  -0.7957  -0.7864  -0.7710  -0.7708  -0.7576  -0.7546  -0.7525
    -0.7501  -0.7428  -0.7416  -0.7225  -0.6064  -0.6030  -0.5998  -0.5971
    -0.5685  -0.5673  -0.5667  -0.5508  -0.5500  -0.5497  -0.5481  -0.5391
    -0.5308  -0.5270  -0.5269  -0.5215  -0.5174  -0.5058  -0.4970  -0.4878
    -0.4850  -0.4849  -0.4819  -0.4813  -0.4608  -0.4608  -0.4576  -0.4023
    -0.3997  -0.3996  -0.3969  -0.3914  -0.3896  -0.3888  -0.3805  -0.3760
    -0.3567  -0.3565  -0.3436  -0.3334  -0.3332  -0.3311  -0.3286  -0.3072
    -0.2950  -0.2949  -0.2920  -0.2911  -0.2817  -0.2805  -0.2710  -0.2697
    -0.2661  -0.2593  -0.2492  -0.2385  -0.2302  -0.2199  -0.2020  -0.1990
    -0.1988  -0.1964  -0.1901  -0.1822  -0.1804  -0.1801  -0.1779  -0.1640
    -0.1522  -0.1521  -0.1436  -0.1395  -0.1374  -0.1258  -0.1125  -0.1110
    -0.1108  -0.0665  -0.0638  -0.0634  -0.0567  -0.0550  -0.0462  -0.0360
    -0.0194  -0.0177  -0.0123  -0.0119  -0.0107  -0.0069  -0.0059   0.0011
     0.0038   0.0047   0.0058   0.0074   0.0080   0.0127   0.0286   0.0330
     0.0335   0.0363   0.0398   0.0436   0.0586   0.0589   0.0712   0.0750
     0.0772   0.0930   0.1141   0.1143   0.1165   0.1167   0.1185   0.1346
     0.1389   0.1411   0.1416   0.1421   0.1424   0.1703   0.1769   0.1804
     0.1947   0.2532   0.2537   0.2548   0.2667   0.2715   0.2731   0.2749
     0.2768   0.2778   0.2826   0.2829   0.2841   0.2858   0.2877   0.2887
     0.2952   0.3049   0.3068   0.3070   0.3087   0.3208   0.3210   0.3264
     0.3286   0.3335   0.3357   0.3576   0.3589   0.3616   0.3698   0.3898
     0.3962   0.4051   0.4136   0.4247   0.4251   0.4426   0.4431   0.4441
     0.4473   0.4553   0.4603   0.4771   0.4799   0.4804   0.4852   0.4855
     0.4909   0.4915   0.4959   0.4960   0.5169   0.5221   0.5238   0.5343
     0.5393   0.5443   0.5445   0.5511   0.5515   0.5519   0.5549   0.5551
     0.5742   0.5794   0.5797   0.5912   0.5925   0.5935   0.5937   0.5965
     0.6098   0.6102   0.6132   0.6177   0.6178   0.6369   0.6375   0.6521
     0.6568   0.6614   0.6638   0.6641   0.6692   0.6713   0.6733   0.6904
     0.7010   0.7050   0.7239   0.7286   0.7405   0.7407   0.7448   0.7452
     0.7499   0.7654   0.7707   0.7738   0.7759   0.7784   0.7800   0.7868
     0.7899   0.7952   0.8028   0.8043   0.8150   0.8242   0.8245   0.8250
     0.8488   0.8517   0.8556   0.8562   0.8569   0.8792   0.8805   0.8912
     0.8928   0.8931   0.8940   0.8958   0.9011   0.9037   0.9053   0.9067
     0.9242   0.9401   0.9462   0.9503   0.9540   0.9545   0.9549   0.9683
     0.9693   0.9895   0.9909   0.9916   0.9928   0.9995   1.0009   1.0015
     1.0157   1.0167   1.0183   1.0188   1.0216   1.0222   1.0229   1.0255
     1.0270   1.0310   1.0326   1.0332   1.0395   1.0425   1.0567   1.0583
     1.0607   1.0632   1.0664   1.0689   1.0690   1.0759   1.0765   1.0900
     1.0904   1.1039   1.1072   1.1077   1.1083   1.1114   1.1218   1.1295
     1.1350   1.1360   1.1381   1.1436   1.1498   1.1514   1.1564   1.1569
     1.1575   1.1738   1.1827   1.1856   1.1895   1.1916   1.1918   1.2269
     1.2281   1.2351   1.2395   1.2427   1.2449   1.2520   1.2527   1.2530
     1.2539   1.2619   1.2656   1.2693   1.2753   1.2772   1.2789   1.2792
     1.2956   1.2962   1.3004   1.3005   1.3059   1.3108   1.3116   1.3136
     1.3149   1.3159   1.3164   1.3220   1.3235   1.3243   1.3324   1.3374
     1.3445   1.3487   1.3510   1.3516   1.3555   1.3556   1.3599   1.3642
     1.3726   1.3797   1.3801   1.3812   1.4032   1.4035   1.4118   1.4165
     1.4187   1.4225   1.4226   1.4252   1.4266   1.4267   1.4335   1.4337
     1.4345   1.4400   1.4406   1.4439   1.4602   1.4627   1.4631   1.4647
     1.4655   1.4693   1.4698   1.4825   1.4830   1.4905   1.4941   1.4969
     1.5057   1.5063   1.5081   1.5132   1.5142   1.5158   1.5457   1.5525
     1.5560   1.5689   1.5815   1.6233   1.6247   1.6277   1.6375   1.6548
     1.6606   1.7443   1.7523   1.7617   1.7624   1.7818   1.7926   1.7981
     1.8367   1.9583   2.0304   2.0627   2.0684   2.0805   2.0852   2.0866
     2.1891   2.2468   2.2534   2.5610   2.5613   2.5631   2.5656   2.9751
     2.9752   3.0085   3.1929   3.1933   3.2177   3.2177   3.2649   3.2794
     3.4556   3.4671   3.5656   3.5794   3.5985   3.6285   3.6513   3.6992
     3.7052   3.7159   3.7219   3.7855   3.8687   3.8706   3.9668   3.9689
     4.0497   4.1786   4.1847   4.1893   4.2786   4.3364   4.4108   4.5504
     4.7524   4.8198   4.8258   5.0939   5.1601   5.2174   5.2182   5.2283
     5.2577   5.3558   5.4615   5.4654   5.5052   5.5459   5.5823   5.5852
     5.6580   5.6766   5.6829   5.7303   5.7331   5.8025   5.8212   5.8264
     6.0081   6.0099   6.0246   6.0417   6.4059   6.6018   6.6916   6.6955
     6.7004   6.7473   6.7597   6.7862   6.8657   6.9252   7.0141   7.0350
     7.0493   7.0515   7.0672   7.2261   7.2420   7.2936   7.3027   7.4985
     7.5063   7.5163   7.5578   7.5676   7.6782   7.7588   7.7638   7.7922
     7.9885   8.0025   8.0299   8.0617   8.0945   8.1865   8.2049   8.2159
     8.2445   8.2627   8.3123   8.3126   8.3898   8.3971   8.4376   8.4714
     8.6439   8.6448   8.9450   8.9544   8.9838   8.9873   9.0072   9.1430
     9.1689   9.1887   9.2108   9.2220   9.2294   9.2534   9.2670   9.3374
     9.3994   9.4064   9.4416   9.4428   9.4831   9.5108   9.6405   9.6784
     9.7160   9.7193   9.8239   9.8319   9.8356   9.8468   9.9413

          k = 0.2500-0.2165 0.0000 (256316 PWs)   bands (ev):

   -17.2330 -16.1785 -15.8750 -15.5403 -15.4588 -15.1908 -14.7127 -14.5645
   -14.2563 -14.1161 -13.7228 -13.2688 -13.2533 -13.1600 -12.7669 -12.6631
   -12.1506 -12.0266 -11.5126 -11.4315 -11.2845 -11.1261 -10.9626 -10.6229
    -9.8686  -9.7864  -9.3921  -9.3577  -9.1043  -9.0506  -8.6772  -8.6249
    -8.4734  -8.4248  -7.3044  -7.0288  -6.8328  -6.6734  -6.5982  -6.5022
    -6.4506  -6.3183  -6.0844  -6.0318  -5.7142  -5.7044  -5.4291  -5.2560
    -5.1776  -5.0701  -4.9355  -4.8021  -4.6786  -4.6748  -4.5442  -4.5432
    -4.4777  -4.3493  -4.3459  -4.3165  -4.1867  -4.1615  -4.1493  -4.0543
    -3.9016  -3.7733  -3.7616  -3.7380  -3.5858  -3.5620  -3.5013  -3.4595
    -3.4583  -3.4554  -3.3629  -3.2916  -3.2545  -3.1962  -3.1425  -3.1029
    -3.0303  -2.9458  -2.9405  -2.9245  -2.9110  -2.9095  -2.8643  -2.8168
    -2.6936  -2.6559  -2.6072  -2.5057  -2.3345  -2.3138  -2.3117  -2.2688
    -2.1868  -2.1810  -2.1688  -2.1687  -2.1035  -2.0695  -2.0100  -2.0094
    -1.9778  -1.9765  -1.9722  -1.9691  -1.8940  -1.8301  -1.8223  -1.8131
    -1.8130  -1.7803  -1.7607  -1.7526  -1.7345  -1.7239  -1.7206  -1.7099
    -1.7096  -1.6932  -1.6789  -1.6778  -1.6765  -1.6763  -1.6674  -1.6672
    -1.5823  -1.5822  -1.5562  -1.4690  -1.4668  -1.3777  -1.3692  -1.3668
    -1.3614  -1.3302  -1.3299  -1.2777  -1.2775  -1.2696  -1.2628  -1.2628
    -1.2496  -1.2490  -1.2414  -1.2400  -1.2252  -1.2245  -1.2131  -1.2130
    -1.2113  -1.2040  -1.2008  -1.1988  -1.1873  -1.1873  -1.1712  -1.1339
    -1.1310  -1.1270  -1.1260  -1.1215  -1.1157  -1.1143  -1.1116  -1.0935
    -1.0833  -1.0817  -1.0399  -1.0397  -1.0357  -1.0299  -1.0266  -1.0240
    -0.9965  -0.9964  -0.9737  -0.9726  -0.9622  -0.9617  -0.9610  -0.9564
    -0.9558  -0.9520  -0.9501  -0.9342  -0.9243  -0.9241  -0.9117  -0.9052
    -0.8823  -0.8682  -0.8681  -0.8627  -0.8621  -0.8253  -0.7783  -0.7782
    -0.7740  -0.7739  -0.7704  -0.7695  -0.7234  -0.7216  -0.7163  -0.7126
    -0.7122  -0.7063  -0.7060  -0.6944  -0.6940  -0.6788  -0.6530  -0.6523
    -0.6158  -0.6145  -0.5834  -0.5681  -0.5666  -0.5665  -0.5640  -0.5611
    -0.5339  -0.5334  -0.5212  -0.5205  -0.5022  -0.5008  -0.4927  -0.4893
    -0.4888  -0.4751  -0.4606  -0.4580  -0.4520  -0.4498  -0.4430  -0.4428
    -0.4124  -0.4082  -0.4081  -0.3968  -0.3937  -0.3875  -0.3817  -0.3805
    -0.3682  -0.3677  -0.3635  -0.3632  -0.3574  -0.3559  -0.3521  -0.3520
    -0.3341  -0.3340  -0.3178  -0.3176  -0.2948  -0.2891  -0.2762  -0.2742
    -0.2621  -0.2568  -0.2403  -0.2401  -0.2355  -0.2312  -0.2182  -0.2176
    -0.2133  -0.2130  -0.1922  -0.1808  -0.1595  -0.1543  -0.1531  -0.1181
    -0.1180  -0.1091  -0.1091  -0.1055  -0.1038  -0.0876  -0.0876  -0.0847
    -0.0703  -0.0700  -0.0604  -0.0566  -0.0493  -0.0479  -0.0431  -0.0427
    -0.0412  -0.0401  -0.0162  -0.0137  -0.0130  -0.0057  -0.0043  -0.0032
    -0.0025  -0.0013  -0.0009   0.0010   0.0055   0.0073   0.0241   0.0313
     0.0314   0.0315   0.0316   0.0652   0.0654   0.0734   0.0735   0.0762
     0.0769   0.0981   0.0992   0.1045   0.1194   0.1312   0.1314   0.1327
     0.1404   0.1410   0.1516   0.1517   0.1548   0.1554   0.1687   0.1688
     0.1749   0.1763   0.2045   0.2048   0.2674   0.2689   0.2810   0.2814
     0.2827   0.2830   0.2861   0.2865   0.2877   0.2889   0.2917   0.2935
     0.3140   0.3168   0.3169   0.3192   0.3202   0.3273   0.3293   0.3312
     0.3342   0.3342   0.3657   0.3668   0.3779   0.3808   0.3823   0.3945
     0.3993   0.4023   0.4135   0.4434   0.4437   0.4491   0.4509   0.4545
     0.4572   0.4573   0.4688   0.4689   0.4748   0.4784   0.4797   0.4810
     0.4813   0.4820   0.5037   0.5121   0.5142   0.5178   0.5221   0.5342
     0.5345   0.5520   0.5666   0.5670   0.5674   0.5690   0.5991   0.6008
     0.6028   0.6047   0.6072   0.6083   0.6121   0.6142   0.6246   0.6260
     0.6272   0.6283   0.6327   0.6362   0.6479   0.6482   0.6583   0.6599
     0.6678   0.6679   0.6708   0.6709   0.6781   0.6796   0.6812   0.6862
     0.6888   0.6891   0.7018   0.7052   0.7095   0.7106   0.7156   0.7164
     0.7183   0.7186   0.7206   0.7210   0.7549   0.7558   0.7667   0.7676
     0.7848   0.7872   0.8031   0.8069   0.8228   0.8232   0.8244   0.8245
     0.8299   0.8310   0.8447   0.8534   0.8537   0.8540   0.8541   0.8552
     0.8555   0.8650   0.8687   0.8765   0.8828   0.8831   0.8922   0.8948
     0.8997   0.9048   0.9262   0.9283   0.9286   0.9420   0.9506   0.9514
     0.9575   0.9596   0.9641   0.9643   0.9707   0.9709   0.9745   0.9902
     1.0002   1.0028   1.0095   1.0167   1.0179   1.0250   1.0302   1.0378
     1.0457   1.0600   1.0624   1.0650   1.0789   1.0802   1.0864   1.0866
     1.0892   1.0893   1.0906   1.0907   1.0950   1.0951   1.1046   1.1051
     1.1127   1.1154   1.1162   1.1179   1.1353   1.1367   1.1629   1.1652
     1.1661   1.1694   1.1703   1.1728   1.1742   1.1752   1.1812   1.1838
     1.1871   1.1903   1.1911   1.1918   1.1941   1.1961   1.2013   1.2020
     1.2078   1.2097   1.2172   1.2203   1.2229   1.2232   1.2241   1.2244
     1.2359   1.2368   1.2446   1.2448   1.2671   1.2691   1.2772   1.2777
     1.2799   1.2919   1.2930   1.2959   1.3037   1.3095   1.3100   1.3122
     1.3187   1.3216   1.3302   1.3307   1.3345   1.3361   1.3426   1.3451
     1.3474   1.3475   1.3564   1.3595   1.3601   1.3703   1.3779   1.3808
     1.3810   1.3811   1.3859   1.3869   1.3908   1.3917   1.3943   1.4048
     1.4049   1.4089   1.4098   1.4171   1.4204   1.4212   1.4275   1.4332
     1.4361   1.4370   1.4371   1.4421   1.4438   1.4438   1.4442   1.4479
     1.4531   1.4532   1.4779   1.4780   1.4855   1.4858   1.4951   1.5005
     1.5106   1.5191   1.5245   1.5264   1.5273   1.5493   1.5497   1.5564
     1.5567   1.5802   1.5826   1.5893   1.6139   1.6458   1.6613   1.6627
     1.7109   1.7489   1.7581   1.7623   1.7696   1.7801   1.7852   1.7858
     1.7861   1.8092   1.8348   1.8428   2.1241   2.1248   2.1560   2.1570
     2.2817   2.2862   2.5819   2.5828   2.7783   2.7828   2.7862   2.7871
     2.7976   2.8000   2.8281   2.8313   2.9804   2.9819   3.0686   3.0790
     3.5246   3.5353   3.5955   3.6039   3.6518   3.6745   3.7632   3.8350
     3.8406   3.8439   3.8628   3.9895   3.9953   4.0570   4.0828   4.1593
     4.1622   4.3248   4.3713   4.3728   4.4277   4.5435   4.5442   4.6132
     4.6609   4.6795   4.7082   4.7220   4.9175   4.9251   4.9952   5.0174
     5.0203   5.1278   5.2581   5.2778   5.3947   5.4334   5.4387   5.4502
     5.4520   5.4728   5.7492   5.7566   5.8125   5.8790   5.8884   5.9487
     5.9537   5.9704   6.5795   6.5870   6.6059   6.6151   6.7240   6.7456
     6.7941   6.8510   6.8704   7.0233   7.0271   7.0455   7.0741   7.0892
     7.0974   7.1131   7.1884   7.2112   7.2146   7.3202   7.3241   7.3289
     7.3313   7.3975   7.4361   7.4377   7.6586   7.6626   7.7577   7.7844
     7.7890   7.8645   7.9723   7.9818   8.1798   8.1905   8.2305   8.2470
     8.2664   8.3900   8.5792   8.5827   8.5948   8.6043   8.6364   8.6376
     8.7039   8.7053   8.8014   8.8152   8.8990   8.9095   8.9379   8.9432
     9.0653   9.1090   9.1324   9.1422   9.1750   9.1799   9.1927   9.2034
     9.2156   9.2630   9.2679   9.3008   9.3416   9.3521   9.4263   9.4414
     9.4459   9.4789   9.6262   9.6274   9.9548   9.9588   9.9681

          k =-0.5000 0.0000 0.0000 (256496 PWs)   bands (ev):

   -17.1724 -16.0101 -15.7420 -15.6294 -15.6093 -15.5599 -14.8135 -14.6181
   -14.5145 -14.4816 -13.2093 -12.9076 -12.7667 -12.7012 -12.4575 -12.4334
   -11.9123 -11.8913 -11.8079 -11.7997 -11.2439 -11.2063 -10.9823 -10.7501
   -10.3357 -10.3038 -10.0805  -9.7615  -9.1484  -9.1480  -8.9778  -8.9450
    -7.8188  -7.6376  -7.5878  -7.4116  -7.3673  -7.3464  -6.3095  -6.2278
    -5.8460  -5.3236  -5.3220  -5.3091  -5.1451  -5.0064  -4.9679  -4.8650
    -4.8087  -4.8038  -4.8032  -4.8023  -4.7774  -4.7631  -4.7385  -4.6924
    -4.6663  -4.5440  -4.5426  -4.4728  -4.3794  -4.3775  -4.2927  -4.0548
    -4.0163  -3.9974  -3.9669  -3.9652  -3.6910  -3.6760  -3.6031  -3.5744
    -3.5731  -3.5560  -3.4284  -3.4209  -3.4198  -3.4191  -3.4186  -3.4128
    -3.3762  -3.3642  -2.9462  -2.9366  -2.8964  -2.8544  -2.8124  -2.7873
    -2.7670  -2.7600  -2.6223  -2.6093  -2.5681  -2.4791  -2.4510  -2.4398
    -2.3070  -2.3037  -2.3029  -2.3025  -1.8797  -1.8792  -1.8789  -1.8787
    -1.8768  -1.8766  -1.8655  -1.8141  -1.7798  -1.7596  -1.7567  -1.7554
    -1.6884  -1.6518  -1.6510  -1.6504  -1.6502  -1.6026  -1.6024  -1.6018
    -1.6011  -1.5125  -1.5065  -1.4886  -1.4885  -1.4873  -1.4770  -1.4533
    -1.4336  -1.4261  -1.4255  -1.4249  -1.4070  -1.4066  -1.3576  -1.3575
    -1.3565  -1.3545  -1.3533  -1.3430  -1.3423  -1.3410  -1.3405  -1.3381
    -1.2946  -1.2924  -1.2923  -1.2911  -1.2711  -1.2685  -1.2677  -1.2676
    -1.2328  -1.2048  -1.2047  -1.1833  -1.1826  -1.1822  -1.1819  -1.1589
    -1.1560  -1.1546  -1.1528  -1.1514  -1.1510  -1.1500  -1.1087  -1.1081
    -1.1070  -1.1070  -1.0861  -1.0860  -1.0724  -1.0561  -1.0558  -1.0537
    -1.0097  -1.0096  -1.0091  -0.9814  -0.9811  -0.9798  -0.9796  -0.9552
    -0.9536  -0.9528  -0.9518  -0.9475  -0.9465  -0.9437  -0.9321  -0.9318
    -0.9293  -0.9292  -0.9038  -0.9028  -0.8885  -0.8409  -0.8406  -0.8387
    -0.8377  -0.7948  -0.7948  -0.7163  -0.7120  -0.7116  -0.7114  -0.7075
    -0.6892  -0.6806  -0.6733  -0.6731  -0.6722  -0.6722  -0.6682  -0.6617
    -0.6413  -0.6333  -0.6301  -0.6296  -0.6250  -0.6180  -0.6145  -0.6026
    -0.6002  -0.5996  -0.5733  -0.5293  -0.5193  -0.5117  -0.4835  -0.4730
    -0.4667  -0.4657  -0.4566  -0.4565  -0.4326  -0.4165  -0.4136  -0.4100
    -0.4062  -0.4061  -0.4045  -0.4044  -0.3945  -0.3816  -0.3684  -0.3683
    -0.3679  -0.3679  -0.3297  -0.3294  -0.3287  -0.3286  -0.3183  -0.2959
    -0.2958  -0.2958  -0.2952  -0.2842  -0.2842  -0.2516  -0.2512  -0.2512
    -0.2498  -0.2498  -0.2465  -0.2406  -0.2282  -0.2131  -0.2024  -0.2016
    -0.1707  -0.1366  -0.1354  -0.1352  -0.1342  -0.1291  -0.1290  -0.1280
    -0.1278  -0.0885  -0.0885  -0.0868  -0.0861  -0.0670  -0.0524  -0.0520
    -0.0260  -0.0259  -0.0239  -0.0236  -0.0222  -0.0220  -0.0214  -0.0212
    -0.0201  -0.0201  -0.0196  -0.0192   0.0551   0.0565   0.0611   0.0625
     0.0664   0.0671   0.0718   0.0721   0.0725   0.0726   0.0774   0.0775
     0.0795   0.0797   0.0832   0.0833   0.0875   0.0888   0.1020   0.1020
     0.1122   0.1161   0.1164   0.1165   0.1167   0.1167   0.1174   0.1274
     0.1276   0.1279   0.1279   0.1405   0.1407   0.1435   0.1527   0.1528
     0.1534   0.1537   0.1723   0.1824   0.1832   0.1953   0.2514   0.2661
     0.2859   0.2860   0.2875   0.2876   0.3189   0.3194   0.3200   0.3205
     0.3344   0.3345   0.3401   0.3401   0.3441   0.3448   0.3452   0.3457
     0.3493   0.3501   0.3517   0.3519   0.3522   0.3525   0.3666   0.3666
     0.3713   0.3746   0.3812   0.3825   0.3893   0.3898   0.3950   0.3953
     0.4007   0.4014   0.4348   0.4382   0.4901   0.4917   0.4918   0.4923
     0.5005   0.5009   0.5212   0.5235   0.5254   0.5264   0.5279   0.5284
     0.5299   0.5302   0.5322   0.5328   0.5348   0.5352   0.5371   0.5373
     0.5436   0.5446   0.5454   0.5457   0.5615   0.5657   0.5831   0.5833
     0.5927   0.5964   0.6057   0.6107   0.6167   0.6183   0.6212   0.6218
     0.6301   0.6304   0.6310   0.6312   0.6333   0.6337   0.6465   0.6473
     0.6512   0.6517   0.6670   0.6678   0.6685   0.6688   0.7055   0.7058
     0.7065   0.7065   0.7071   0.7072   0.7246   0.7254   0.7522   0.7566
     0.7649   0.7663   0.7674   0.7674   0.7678   0.7678   0.7867   0.8074
     0.8345   0.8348   0.8383   0.8391   0.8398   0.8402   0.8439   0.8450
     0.8502   0.8521   0.8526   0.8530   0.8628   0.8648   0.8847   0.8847
     0.8864   0.8865   0.8883   0.8939   0.9054   0.9055   0.9061   0.9062
     0.9074   0.9076   0.9436   0.9453   0.9456   0.9457   0.9675   0.9907
     1.0119   1.0121   1.0121   1.0127   1.0392   1.0457   1.0461   1.0463
     1.0478   1.0489   1.0648   1.0656   1.0756   1.0765   1.0786   1.0848
     1.0878   1.0888   1.1093   1.1104   1.1152   1.1156   1.1158   1.1164
     1.1232   1.1238   1.1249   1.1251   1.1347   1.1347   1.1358   1.1363
     1.1373   1.1376   1.1381   1.1383   1.1725   1.1741   1.1755   1.1755
     1.1897   1.1986   1.2052   1.2068   1.2101   1.2110   1.2115   1.2120
     1.2290   1.2301   1.2333   1.2402   1.2405   1.2408   1.2421   1.2503
     1.2511   1.2513   1.2515   1.2561   1.2618   1.2642   1.2692   1.2746
     1.2981   1.2984   1.3110   1.3136   1.3139   1.3142   1.3144   1.3145
     1.3145   1.3146   1.3248   1.3268   1.3279   1.3280   1.3285   1.3287
     1.3307   1.3309   1.3359   1.3366   1.3410   1.3412   1.3417   1.3419
     1.3489   1.3491   1.3638   1.3640   1.3793   1.3822   1.3830   1.3831
     1.3910   1.3912   1.3926   1.3927   1.4060   1.4092   1.4129   1.4130
     1.4278   1.4287   1.4319   1.4348   1.4383   1.4473   1.4475   1.4476
     1.4485   1.4656   1.4678   1.4684   1.4693   1.4706   1.4783   1.4784
     1.4787   1.4788   1.4835   1.4877   1.4982   1.4983   1.5113   1.5123
     1.5124   1.5128   1.5128   1.5246   1.5257   1.5258   1.5760   1.5762
     1.5936   1.6059   1.6059   1.6103   1.6104   1.6205   2.0241   2.0275
     2.0285   2.0293   2.2308   2.2327   2.2470   2.2506   2.2829   2.2834
     2.2901   2.2906   2.6041   2.6125   2.6161   2.6174   2.8249   2.8273
     2.8330   2.8339   3.1824   3.1827   3.1852   3.1858   3.4636   3.4677
     3.7339   3.7506   3.7527   3.7542   3.8431   3.9166   3.9214   3.9220
     3.9574   4.0657   4.0701   4.0714   4.0774   4.1767   4.1840   4.3871
     4.4006   4.4818   4.7268   4.7401   4.7482   4.7514   4.8088   4.8230
     4.8236   4.8526   4.9290   5.0188   5.0197   5.0342   5.0395   5.0439
     5.0468   5.0510   5.0704   5.0713   5.0959   5.1054   5.1524   5.1623
     5.4825   5.5118   5.5329   5.5369   5.6404   5.6599   5.7561   5.8272
     5.9862   5.9899   5.9948   5.9999   6.0251   6.0328   6.0382   6.0430
     6.1876   6.3896   6.4292   6.4308   6.4328   6.4387   6.4505   6.4742
     7.0825   7.0908   7.1028   7.1061   7.1210   7.1223   7.5691   7.5807
     7.5947   7.5987   7.5991   7.5993   7.6176   7.6258   7.8101   7.8153
     7.8752   7.8809   7.8848   7.8865   8.0340   8.0491   8.0519   8.0550
     8.1134   8.1222   8.1275   8.1314   8.1587   8.1962   8.6446   8.6901
     8.6923   8.7067   8.8254   8.8266   8.8303   8.8314   8.9687   8.9866
     8.9922   9.0635   9.0665   9.0677   9.0802   9.2585   9.2607   9.3735
     9.4228   9.4450   9.4921   9.4950   9.4951   9.4957   9.5072   9.5123
     9.5166   9.5185   9.5301   9.5325   9.8243   9.8316  10.0187

          k =-0.5000-0.2165 0.0000 (256328 PWs)   bands (ev):

   -17.1722 -15.9784 -15.8203 -15.7954 -15.3895 -15.2198 -15.1507 -15.1147
   -14.0580 -13.8410 -13.7095 -13.6734 -12.6835 -12.4580 -12.0020 -11.9970
   -11.9224 -11.7754 -11.6714 -11.5893 -11.5430 -11.5334 -11.4236 -11.4053
   -10.0448 -10.0386  -9.7699  -9.7238  -9.2274  -8.9139  -8.7978  -8.7595
    -8.2694  -8.2319  -8.0222  -8.0000  -6.5363  -6.3455  -6.1229  -5.9494
    -5.8395  -5.6267  -5.3888  -5.3147  -5.3065  -5.2202  -5.2143  -5.1817
    -5.1799  -5.1796  -5.0187  -5.0049  -4.9579  -4.5122  -4.3887  -4.3511
    -4.3265  -4.3204  -4.2641  -4.2149  -4.2020  -4.1984  -4.1979  -4.1975
    -4.0821  -4.0764  -3.9156  -3.8773  -3.8650  -3.8585  -3.7553  -3.7462
    -3.7040  -3.6901  -3.6020  -3.5928  -3.5850  -3.4874  -3.4665  -3.4568
    -3.1734  -3.0871  -3.0724  -3.0621  -2.6371  -2.5822  -2.5814  -2.5793
    -2.5790  -2.5786  -2.5449  -2.5290  -2.5238  -2.5233  -2.4097  -2.3532
    -2.1652  -2.1533  -2.1096  -2.1006  -2.0966  -2.0960  -2.0531  -2.0499
    -2.0214  -2.0185  -2.0172  -2.0108  -1.9384  -1.8032  -1.8031  -1.8020
    -1.8019  -1.7715  -1.7392  -1.7282  -1.5679  -1.5241  -1.5092  -1.5022
    -1.4936  -1.4935  -1.4935  -1.4934  -1.4596  -1.4564  -1.4541  -1.4539
    -1.4338  -1.4336  -1.4334  -1.4333  -1.3843  -1.3842  -1.3840  -1.3838
    -1.3825  -1.3823  -1.3817  -1.3816  -1.3587  -1.3587  -1.3585  -1.3585
    -1.3094  -1.3085  -1.3075  -1.3074  -1.3037  -1.2386  -1.2335  -1.2332
    -1.2324  -1.1911  -1.1911  -1.1909  -1.1909  -1.1744  -1.1713  -1.1710
    -1.1708  -1.1282  -1.1220  -1.1219  -1.1217  -1.1175  -1.1158  -1.1157
    -1.1157  -1.1111  -1.0965  -1.0926  -1.0904  -1.0875  -1.0574  -1.0572
    -1.0569  -1.0569  -1.0410  -1.0403  -1.0402  -1.0401  -1.0378  -1.0372
    -1.0372  -1.0368  -1.0368  -1.0151  -0.8827  -0.8826  -0.8820  -0.8819
    -0.8534  -0.8529  -0.8527  -0.8526  -0.8030  -0.7711  -0.7703  -0.7700
    -0.7695  -0.7691  -0.7684  -0.7668  -0.7628  -0.7622  -0.7616  -0.7614
    -0.7038  -0.7005  -0.7003  -0.6999  -0.6936  -0.6891  -0.6884  -0.6880
    -0.6739  -0.6679  -0.6672  -0.6671  -0.6421  -0.5835  -0.5713  -0.5710
    -0.5684  -0.5672  -0.5669  -0.5663  -0.5116  -0.4985  -0.4982  -0.4980
    -0.4961  -0.4495  -0.4489  -0.4486  -0.4458  -0.4284  -0.4283  -0.4275
    -0.4275  -0.4102  -0.4001  -0.3999  -0.3894  -0.3894  -0.3884  -0.3884
    -0.3760  -0.3518  -0.3480  -0.3478  -0.3380  -0.2738  -0.2738  -0.2731
    -0.2731  -0.2577  -0.2577  -0.2571  -0.2571  -0.2416  -0.2406  -0.2402
    -0.2393  -0.1598  -0.1592  -0.1584  -0.1577  -0.1536  -0.1534  -0.1531
    -0.1529  -0.1519  -0.1495  -0.1495  -0.1469  -0.1127  -0.1127  -0.1126
    -0.1126  -0.1007  -0.1001  -0.0996  -0.0993  -0.0963  -0.0960  -0.0958
    -0.0957  -0.0682  -0.0270  -0.0267  -0.0260  -0.0258  -0.0004  -0.0000
     0.0018   0.0024   0.0486   0.0492   0.0540   0.0551   0.0606   0.0652
     0.0793   0.0797   0.0801   0.0804   0.0855   0.0864   0.0881   0.0888
     0.0892   0.0897   0.0933   0.0938   0.1001   0.1003   0.1008   0.1010
     0.1062   0.1062   0.1064   0.1064   0.1185   0.1226   0.1229   0.1230
     0.1353   0.1508   0.1508   0.1510   0.1510   0.1601   0.1612   0.1614
     0.1635   0.2095   0.2104   0.2110   0.2112   0.2343   0.2434   0.2437
     0.2446   0.2530   0.2779   0.3104   0.3140   0.3192   0.3262   0.3268
     0.3283   0.3294   0.3360   0.3413   0.3442   0.3452   0.3455   0.3462
     0.3547   0.3609   0.3610   0.3615   0.3616   0.3641   0.3683   0.3688
     0.3690   0.3697   0.3711   0.3724   0.3782   0.3864   0.3982   0.4010
     0.4464   0.4480   0.4499   0.4518   0.4571   0.4574   0.4578   0.4583
     0.4690   0.4691   0.4692   0.4695   0.5060   0.5069   0.5079   0.5085
     0.5098   0.5100   0.5103   0.5107   0.5435   0.5536   0.5538   0.5542
     0.5542   0.5585   0.5656   0.5671   0.5679   0.5681   0.5682   0.5701
     0.5759   0.5762   0.5764   0.5765   0.5883   0.5891   0.5918   0.5920
     0.6018   0.6059   0.6072   0.6088   0.6647   0.6761   0.6762   0.6787
     0.6790   0.6827   0.6829   0.6830   0.6832   0.6857   0.6896   0.6909
     0.6938   0.6967   0.7073   0.7104   0.7281   0.7282   0.7290   0.7291
     0.7300   0.7306   0.7318   0.7320   0.7713   0.7784   0.7830   0.7832
     0.8017   0.8095   0.8113   0.8117   0.8123   0.8134   0.8291   0.8325
     0.8474   0.8475   0.8482   0.8482   0.8688   0.8705   0.8726   0.8730
     0.9251   0.9252   0.9258   0.9258   0.9575   0.9578   0.9594   0.9597
     1.0025   1.0108   1.0122   1.0128   1.0157   1.0206   1.0258   1.0267
     1.0355   1.0374   1.0379   1.0385   1.0426   1.0439   1.0440   1.0442
     1.0447   1.0462   1.0468   1.0474   1.0483   1.0484   1.0689   1.0738
     1.0756   1.0759   1.0763   1.0778   1.0782   1.0794   1.0798   1.0811
     1.0918   1.0938   1.0957   1.0967   1.1179   1.1193   1.1218   1.1220
     1.1251   1.1269   1.1320   1.1327   1.1406   1.1410   1.1414   1.1423
     1.1880   1.1898   1.1934   1.1938   1.1943   1.1954   1.1954   1.1972
     1.2200   1.2207   1.2209   1.2211   1.2295   1.2352   1.2363   1.2390
     1.2399   1.2437   1.2556   1.2560   1.2699   1.2700   1.2704   1.2704
     1.2784   1.2786   1.2797   1.2801   1.2851   1.2854   1.2861   1.2861
     1.3441   1.3521   1.3521   1.3527   1.3529   1.3536   1.3537   1.3543
     1.3543   1.3582   1.3620   1.3632   1.3662   1.3702   1.3712   1.3719
     1.3741   1.3774   1.3809   1.3810   1.3838   1.3852   1.3859   1.3870
     1.3926   1.3933   1.3938   1.3940   1.3978   1.4018   1.4034   1.4045
     1.4142   1.4146   1.4147   1.4152   1.4473   1.4476   1.4477   1.4479
     1.4601   1.4615   1.4630   1.4632   1.4737   1.4762   1.4786   1.4786
     1.4965   1.4993   1.5000   1.5004   1.5357   1.5476   1.5497   1.5523
     1.5722   1.5723   1.5729   1.5729   1.6010   1.6019   1.6030   1.6035
     1.6064   1.6079   1.6084   1.6092   1.6144   1.6149   1.6154   1.6155
     1.8317   1.8332   1.8334   1.8343   2.3283   2.3362   2.3421   2.3427
     2.5542   2.5561   2.5589   2.5590   2.7862   2.7911   2.7926   2.7933
     3.0787   3.0863   3.0875   3.0887   3.4493   3.4517   3.4518   3.4521
     3.6291   3.6373   3.6407   3.6410   3.9057   3.9269   3.9276   3.9278
     4.0010   4.2239   4.2246   4.2261   4.2318   4.3110   4.3243   4.3358
     4.3377   4.5086   4.5517   4.5550   4.5581   4.5638   4.5907   4.5958
     4.6357   4.7924   4.8555   4.8855   4.9021   5.0061   5.0400   5.0683
     5.1644   5.1659   5.1720   5.1728   5.2299   5.2349   5.2967   5.3033
     5.3291   5.3332   5.3463   5.3498   5.5028   5.5955   5.7295   5.7331
     5.7450   5.7461   5.7482   5.7495   5.8395   5.8621   5.8873   5.8882
     6.7814   6.7828   6.7835   6.7839   7.0976   7.1139   7.1172   7.1223
     7.1419   7.1503   7.1512   7.1527   7.2486   7.2680   7.2692   7.2732
     7.3595   7.3653   7.3661   7.3664   7.5154   7.6030   7.6076   7.6095
     7.6659   7.8970   7.9476   7.9565   7.9688   7.9828   7.9933   8.0037
     8.2200   8.2367   8.2394   8.2425   8.2453   8.2839   8.3598   8.3651
     8.8876   8.8887   8.8901   8.8911   8.9207   8.9226   8.9234   8.9247
     8.9624   8.9637   8.9649   8.9658   9.1061   9.1104   9.1183   9.1187
     9.3037   9.3247   9.3385   9.3448   9.5133   9.5230   9.5380   9.5449
     9.5618   9.5664   9.5718   9.5723   9.9261   9.9378   9.9669

     the Fermi energy is     3.3207 ev

!    total energy              =  -12707.14301467 Ry
     Harris-Foulkes estimate   =  -12707.14301467 Ry
     estimated scf accuracy    <          4.0E-09 Ry

     The total energy is the sum of the following terms:

     one-electron contribution = -109279.35112974 Ry
     hartree contribution      =   56001.07227294 Ry
     xc contribution           =   -4447.77468831 Ry
     ewald contribution        =   45025.25303270 Ry
     Dispersion Correction     =      -2.98720359 Ry
     smearing contrib. (-TS)   =      -3.35529867 Ry

     convergence has been achieved in  47 iterations

     Writing output data file gc.save
 
     init_run     :     98.21s CPU    104.91s WALL (       1 calls)
     electrons    :  11961.28s CPU  12832.69s WALL (       1 calls)

     Called by init_run:
     wfcinit      :     95.99s CPU    102.33s WALL (       1 calls)
     potinit      :      0.31s CPU      0.36s WALL (       1 calls)

     Called by electrons:
     c_bands      :  10940.33s CPU  11707.34s WALL (      47 calls)
     sum_band     :    846.90s CPU    921.78s WALL (      47 calls)
     v_of_rho     :      3.10s CPU      3.70s WALL (      48 calls)
     newd         :      7.78s CPU     14.76s WALL (      48 calls)
     mix_rho      :    163.07s CPU    184.97s WALL (      47 calls)

     Called by c_bands:
     init_us_2    :     36.93s CPU     39.28s WALL (     570 calls)
     cegterg      :  10775.80s CPU  11529.83s WALL (     288 calls)

     Called by sum_band:
     sum_band:bec :      4.96s CPU      5.60s WALL (     282 calls)
     addusdens    :      8.04s CPU     14.61s WALL (      47 calls)

     Called by *egterg:
     h_psi        :   4105.32s CPU   4436.80s WALL (    1746 calls)
     s_psi        :    971.17s CPU    983.65s WALL (    1746 calls)
     g_psi        :     10.49s CPU     10.52s WALL (    1452 calls)
     cdiaghg      :   2812.54s CPU   2925.16s WALL (    1734 calls)

     Called by h_psi:
     add_vuspsi   :    975.36s CPU    990.53s WALL (    1746 calls)

     General routines
     calbec       :   1414.29s CPU   1426.43s WALL (    2028 calls)
     fft          :      3.34s CPU      3.85s WALL (     623 calls)
     ffts         :     96.40s CPU    109.10s WALL (   25368 calls)
     fftw         :   2385.27s CPU   2653.63s WALL ( 1347522 calls)
     davcio       :      0.25s CPU      2.80s WALL (       6 calls)
 
     Parallel routines
     fft_scatter  :   1540.67s CPU   1679.89s WALL ( 1373513 calls)
 
     PWSCF        :     3h21m CPU        3h35m WALL

 
   This run was terminated on:   0:28:56   8Sep2017            

=------------------------------------------------------------------------------=
   JOB DONE.
=------------------------------------------------------------------------------=
