
     Program PWSCF v.5.4.0 starts on 14Mar2017 at 21:33:50 

     This program is part of the open-source Quantum ESPRESSO suite
     for quantum simulation of materials; please cite
         "P. Giannozzi et al., J. Phys.:Condens. Matter 21 395502 (2009);
          URL http://www.quantum-espresso.org", 
     in publications or presentations arising from this work. More details at
     http://www.quantum-espresso.org/quote

     Parallel version (MPI & OpenMP), running on      56 processor cores
     Number of MPI processes:                56
     Threads/MPI process:                     1
     R & G space division:  proc/nbgrp/npool/nimage =      56
     Waiting for input...
     Reading input from standard input
Warning: card &IONS ignored
Warning: card / ignored

     Current dimensions of program PWSCF are:
     Max number of different atomic species (ntypx) = 10
     Max number of k-points (npk) =  40000
     Max angular momentum in pseudopotentials (lmaxx) =  3

     -------------------------------------
     Parameters for Dispersion Correction:
     -------------------------------------
       atom      VdW radius       C_6     

        Cu         2.952        374.666
        C_h        2.744         60.710
        C          2.744         60.710

     Subspace diagonalization in iterative solution of the eigenvalue problem:
     one sub-group per band group will be used
     scalapack distributed-memory algorithm (size of sub-group:  5*  5 procs)

 
     Parallelization info
     --------------------
     sticks:   dense  smooth     PW     G-vecs:    dense   smooth      PW
     Min         204     204     54                36612    36612    4962
     Max         205     205     55                36617    36617    4968
     Sum       11433   11433   3039              2050409  2050409  278033
 


     bravais-lattice index     =            0
     lattice parameter (alat)  =      13.9425  a.u.
     unit-cell volume          =   21209.0878 (a.u.)^3
     number of atoms/cell      =          148
     number of atomic types    =            3
     number of electrons       =      1292.00
     number of Kohn-Sham states=          775
     kinetic-energy cutoff     =      80.0000  Ry
     charge density cutoff     =     320.0000  Ry
     convergence threshold     =      1.0E-08
     mixing beta               =       0.7000
     number of iterations used =            8  local-TF  mixing
     Exchange-correlation      =  SLA  PW   PBX  PBC ( 1  4  3  4 0 0)

     celldm(1)=  13.942539  celldm(2)=   0.000000  celldm(3)=   0.000000
     celldm(4)=   0.000000  celldm(5)=   0.000000  celldm(6)=   0.000000

     crystal axes: (cart. coord. in units of alat)
               a(1) = (   1.000000   0.000000   0.000000 )  
               a(2) = (   0.000000   2.309401   0.000000 )  
               a(3) = (   0.000000   0.000000   3.388418 )  

     reciprocal axes: (cart. coord. in units 2 pi/alat)
               b(1) = (  1.000000  0.000000  0.000000 )  
               b(2) = (  0.000000  0.433013  0.000000 )  
               b(3) = (  0.000000  0.000000  0.295123 )  


     PseudoPot. # 1 for Cu read from file:
     /home/549/hxw549/Short/pseudopotentials/Cu.pbe-n-van_ak.UPF
     MD5 check sum: 601f7c30f7467666bec936e0661ce3e1
     Pseudo is Ultrasoft + core correction, Zval = 11.0
     Generated by new atomic code, or converted to UPF format
     Using radial grid of  867 points,  6 beta functions with: 
                l(1) =   0
                l(2) =   0
                l(3) =   1
                l(4) =   1
                l(5) =   2
                l(6) =   2
     Q(r) pseudized with  8 coefficients,  rinner =    1.400   1.400   1.400
                                                       1.400   1.400

     PseudoPot. # 2 for C  read from file:
     /home/549/hxw549/Short/pseudopotentials/C.star1s-pbe-mt_gipaw.UPF
     MD5 check sum: ef0cb3dee31bd9e4ba2a832a2c716264
     Pseudo is Norm-conserving, Zval =  5.0
     Generated by new atomic code, or converted to UPF format
     Using radial grid of 1073 points,  1 beta functions with: 
                l(1) =   0

     PseudoPot. # 3 for C  read from file:
     /home/549/hxw549/Short/pseudopotentials/C.pbe-mt_gipaw.UPF
     MD5 check sum: 5ac2f21f2c440b14befe521540822c15
     Pseudo is Norm-conserving, Zval =  4.0
     Generated by new atomic code, or converted to UPF format
     Using radial grid of 1073 points,  1 beta functions with: 
                l(1) =   0

     atomic species   valence    mass     pseudopotential
        Cu            11.00    63.54600     Cu( 1.00)
        C_h            5.00    12.01070     C ( 1.00)
        C              4.00    12.01070     C ( 1.00)

      2 Sym. Ops. (no inversion) found



   Cartesian axes

     site n.     atom                  positions (alat units)
         1           Cu  tau(   1) = (   0.0000000   0.0000567   0.9971194  )
         2           Cu  tau(   2) = (   0.2499927   0.2309760   0.9972946  )
         3           Cu  tau(   3) = (   0.5000000   0.0000313   0.9971490  )
         4           Cu  tau(   4) = (   0.7500073   0.2309760   0.9972946  )
         5           Cu  tau(   5) = (   0.0000000   0.4618437   0.9973425  )
         6           Cu  tau(   6) = (   0.2499840   0.6927701   0.9971914  )
         7           Cu  tau(   7) = (   0.5000000   0.4618722   0.9973119  )
         8           Cu  tau(   8) = (   0.7500160   0.6927701   0.9971914  )
         9           Cu  tau(   9) = (   0.0000000   0.9237521   0.9970621  )
        10           Cu  tau(  10) = (   0.2500157   1.1547420   0.9971373  )
        11           Cu  tau(  11) = (   0.5000000   0.9237453   0.9970727  )
        12           Cu  tau(  12) = (   0.7499843   1.1547420   0.9971373  )
        13           Cu  tau(  13) = (   0.0000000   1.3856555   0.9972830  )
        14           Cu  tau(  14) = (   0.2500029   1.6165618   0.9973242  )
        15           Cu  tau(  15) = (   0.5000000   1.3857014   0.9973005  )
        16           Cu  tau(  16) = (   0.7499971   1.6165618   0.9973242  )
        17           Cu  tau(  17) = (   0.0000000   1.8474941   0.9971969  )
        18           Cu  tau(  18) = (   0.2500043   2.0784518   0.9970745  )
        19           Cu  tau(  19) = (   0.5000000   1.8474499   0.9971773  )
        20           Cu  tau(  20) = (   0.7499957   2.0784518   0.9970745  )
        21           Cu  tau(  21) = (   0.0000000   0.2308065   1.2457643  )
        22           Cu  tau(  22) = (   0.2499892  -0.0001010   1.2455764  )
        23           Cu  tau(  23) = (   0.5000000   0.2308938   1.2456746  )
        24           Cu  tau(  24) = (   0.7500108  -0.0001010   1.2455764  )
        25           Cu  tau(  25) = (   0.0000000   0.6929786   1.2456406  )
        26           Cu  tau(  26) = (   0.2499874   0.4619293   1.2457459  )
        27           Cu  tau(  27) = (   0.5000000   0.6929012   1.2456074  )
        28           Cu  tau(  28) = (   0.7500126   0.4619293   1.2457459  )
        29           Cu  tau(  29) = (   0.0000000   1.1546142   1.2455676  )
        30           Cu  tau(  30) = (   0.2499981   0.9237849   1.2455149  )
        31           Cu  tau(  31) = (   0.5000000   1.1545763   1.2455800  )
        32           Cu  tau(  32) = (   0.7500019   0.9237849   1.2455149  )
        33           Cu  tau(  33) = (   0.0000000   1.6166029   1.2456910  )
        34           Cu  tau(  34) = (   0.2500161   1.3855492   1.2457134  )
        35           Cu  tau(  35) = (   0.5000000   1.6166555   1.2458019  )
        36           Cu  tau(  36) = (   0.7499839   1.3855492   1.2457134  )
        37           Cu  tau(  37) = (   0.0000000   2.0784993   1.2455162  )
        38           Cu  tau(  38) = (   0.2500161   1.8476387   1.2456210  )
        39           Cu  tau(  39) = (   0.5000000   2.0784755   1.2455152  )
        40           Cu  tau(  40) = (   0.7499839   1.8476387   1.2456210  )
        41           Cu  tau(  41) = (   0.0000000  -0.0003182   1.4954305  )
        42           Cu  tau(  42) = (   0.2500224   0.2307186   1.4951678  )
        43           Cu  tau(  43) = (   0.5000000  -0.0002059   1.4952775  )
        44           Cu  tau(  44) = (   0.7499776   0.2307186   1.4951678  )
        45           Cu  tau(  45) = (   0.0000000   0.4620254   1.4950571  )
        46           Cu  tau(  46) = (   0.2500339   0.6931225   1.4952807  )
        47           Cu  tau(  47) = (   0.5000000   0.4619896   1.4952144  )
        48           Cu  tau(  48) = (   0.7499661   0.6931225   1.4952807  )
        49           Cu  tau(  49) = (   0.0000000   0.9238798   1.4954544  )
        50           Cu  tau(  50) = (   0.2499708   1.1544329   1.4953374  )
        51           Cu  tau(  51) = (   0.5000000   0.9237633   1.4954072  )
        52           Cu  tau(  52) = (   0.7500292   1.1544329   1.4953374  )
        53           Cu  tau(  53) = (   0.0000000   1.3854453   1.4952066  )
        54           Cu  tau(  54) = (   0.2499861   1.6167017   1.4951298  )
        55           Cu  tau(  55) = (   0.5000000   1.3853760   1.4951346  )
        56           Cu  tau(  56) = (   0.7500139   1.6167017   1.4951298  )
        57           Cu  tau(  57) = (   0.0000000   1.8477718   1.4952308  )
        58           Cu  tau(  58) = (   0.2499930   2.0785254   1.4954090  )
        59           Cu  tau(  59) = (   0.5000000   1.8478762   1.4953503  )
        60           Cu  tau(  60) = (   0.7500070   2.0785254   1.4954090  )
        61           Cu  tau(  61) = (   0.0000000   0.2310733   1.7440777  )
        62           Cu  tau(  62) = (   0.2501089  -0.0001294   1.7450479  )
        63           Cu  tau(  63) = (   0.5000000   0.2306045   1.7445985  )
        64           Cu  tau(  64) = (   0.7498911  -0.0001294   1.7450479  )
        65           Cu  tau(  65) = (   0.0000000   0.6927994   1.7446059  )
        66           Cu  tau(  66) = (   0.2502918   0.4619532   1.7441197  )
        67           Cu  tau(  67) = (   0.5000000   0.6931011   1.7451318  )
        68           Cu  tau(  68) = (   0.7497082   0.4619532   1.7441197  )
        69           Cu  tau(  69) = (   0.0000000   1.1545789   1.7453503  )
        70           Cu  tau(  70) = (   0.2500220   0.9237908   1.7453835  )
        71           Cu  tau(  71) = (   0.5000000   1.1545999   1.7449118  )
        72           Cu  tau(  72) = (   0.7499780   0.9237908   1.7453835  )
        73           Cu  tau(  73) = (   0.0000000   1.6167791   1.7444075  )
        74           Cu  tau(  74) = (   0.2497438   1.3855115   1.7442733  )
        75           Cu  tau(  75) = (   0.5000000   1.6164906   1.7439233  )
        76           Cu  tau(  76) = (   0.7502562   1.3855115   1.7442733  )
        77           Cu  tau(  77) = (   0.0000000   2.0782721   1.7455014  )
        78           Cu  tau(  78) = (   0.2498426   1.8476765   1.7447807  )
        79           Cu  tau(  79) = (   0.5000000   2.0787016   1.7454002  )
        80           Cu  tau(  80) = (   0.7501574   1.8476765   1.7447807  )
        81           Cu  tau(  81) = (   0.0000000   0.0010732   1.9906710  )
        82           Cu  tau(  82) = (   0.2503054   0.2314650   1.9904877  )
        83           Cu  tau(  83) = (   0.5000000   0.0001335   1.9924670  )
        84           Cu  tau(  84) = (   0.7496946   0.2314650   1.9904877  )
        85           Cu  tau(  85) = (   0.0000000   0.4618379   1.9901778  )
        86           Cu  tau(  86) = (   0.2508441   0.6921348   1.9910282  )
        87           Cu  tau(  87) = (   0.5000000   0.4613052   1.9913358  )
        88           Cu  tau(  88) = (   0.7491559   0.6921348   1.9910282  )
        89           Cu  tau(  89) = (   0.0000000   0.9224699   1.9915918  )
        90           Cu  tau(  90) = (   0.2491275   1.1552920   1.9912642  )
        91           Cu  tau(  91) = (   0.5000000   0.9247757   1.9920574  )
        92           Cu  tau(  92) = (   0.7508725   1.1552920   1.9912642  )
        93           Cu  tau(  93) = (   0.0000000   1.3865904   1.9916296  )
        94           Cu  tau(  94) = (   0.2499532   1.6162906   1.9903050  )
        95           Cu  tau(  95) = (   0.5000000   1.3858063   1.9901800  )
        96           Cu  tau(  96) = (   0.7500468   1.6162906   1.9903050  )
        97           Cu  tau(  97) = (   0.0000000   1.8468318   1.9923212  )
        98           Cu  tau(  98) = (   0.2497561   2.0783183   1.9915134  )
        99           Cu  tau(  99) = (   0.5000000   1.8467805   1.9903847  )
       100           Cu  tau( 100) = (   0.7502439   2.0783183   1.9915134  )
       101           C   tau( 101) = (   0.0000000   0.0962962   2.4058447  )
       102           C   tau( 102) = (   0.0000000   0.2886925   2.4239524  )
       103           C   tau( 103) = (   0.1666323   0.0000435   2.3878454  )
       104           C   tau( 104) = (   0.1664900   0.3848966   2.4180159  )
       105           C   tau( 105) = (   0.3331238   0.0962174   2.4029577  )
       106           C   tau( 106) = (   0.3331280   0.2886629   2.4195610  )
       107           C   tau( 107) = (   0.5000000  -0.0000818   2.3845519  )
       108           C   tau( 108) = (   0.5000000   0.3849277   2.4135838  )
       109           C   tau( 109) = (   0.6668762   0.0962174   2.4029577  )
       110           C   tau( 110) = (   0.6668720   0.2886629   2.4195610  )
       111           C   tau( 111) = (   0.8333677   0.0000435   2.3878454  )
       112           C   tau( 112) = (   0.8335100   0.3848966   2.4180159  )
       113           C   tau( 113) = (   0.0000000   0.6735163   2.3723129  )
       114           C   tau( 114) = (   0.0000000   0.8659398   2.3532158  )
       115           C   tau( 115) = (   0.1664759   0.5773226   2.3882927  )
       116           C   tau( 116) = (   0.1667428   0.9622141   2.3576749  )
       117           C   tau( 117) = (   0.3332094   0.6735984   2.3688567  )
       118           C   tau( 118) = (   0.3332031   0.8660537   2.3527278  )
       119           C   tau( 119) = (   0.5000000   0.5773685   2.3848365  )
       120           C_h tau( 120) = (   0.5000000   0.9623380   2.3567397  )
       121           C   tau( 121) = (   0.6667906   0.6735984   2.3688567  )
       122           C   tau( 122) = (   0.6667969   0.8660537   2.3527278  )
       123           C   tau( 123) = (   0.8335241   0.5773226   2.3882927  )
       124           C   tau( 124) = (   0.8332572   0.9622141   2.3576749  )
       125           C   tau( 125) = (   0.0000000   1.2508867   2.4021987  )
       126           C   tau( 126) = (   0.0000000   1.4433300   2.4179752  )
       127           C   tau( 127) = (   0.1667360   1.1546708   2.3859614  )
       128           C   tau( 128) = (   0.1668939   1.5396104   2.4150612  )
       129           C   tau( 129) = (   0.3335095   1.2509657   2.4048417  )
       130           C   tau( 130) = (   0.3334866   1.4433958   2.4225428  )
       131           C   tau( 131) = (   0.5000000   1.1547731   2.3885637  )
       132           C   tau( 132) = (   0.5000000   1.5396099   2.4194932  )
       133           C   tau( 133) = (   0.6664905   1.2509657   2.4048417  )
       134           C   tau( 134) = (   0.6665134   1.4433958   2.4225428  )
       135           C   tau( 135) = (   0.8332640   1.1546708   2.3859614  )
       136           C   tau( 136) = (   0.8331061   1.5396104   2.4150612  )
       137           C   tau( 137) = (   0.0000000   1.8283510   2.3672438  )
       138           C   tau( 138) = (   0.0000000   2.0207949   2.3524568  )
       139           C   tau( 139) = (   0.1668959   1.7320513   2.3858666  )
       140           C   tau( 140) = (   0.1666186   2.1169980   2.3572005  )
       141           C   tau( 141) = (   0.3334155   1.8282368   2.3712828  )
       142           C   tau( 142) = (   0.3334352   2.0206763   2.3530667  )
       143           C   tau( 143) = (   0.5000000   1.7319961   2.3895532  )
       144           C   tau( 144) = (   0.5000000   2.1168754   2.3576749  )
       145           C   tau( 145) = (   0.6665845   1.8282368   2.3712828  )
       146           C   tau( 146) = (   0.6665648   2.0206763   2.3530667  )
       147           C   tau( 147) = (   0.8331041   1.7320513   2.3858666  )
       148           C   tau( 148) = (   0.8333814   2.1169980   2.3572005  )

     number of k points=     6  gaussian smearing, width (Ry)=  0.1000
                       cart. coord. in units 2pi/alat
        k(    1) = (   0.0000000   0.0000000   0.0000000), wk =   0.2500000
        k(    2) = (   0.0000000  -0.2165064   0.0000000), wk =   0.2500000
        k(    3) = (   0.2500000   0.0000000   0.0000000), wk =   0.5000000
        k(    4) = (   0.2500000  -0.2165064   0.0000000), wk =   0.5000000
        k(    5) = (  -0.5000000   0.0000000   0.0000000), wk =   0.2500000
        k(    6) = (  -0.5000000  -0.2165064   0.0000000), wk =   0.2500000

     Dense  grid:  2050409 G-vectors     FFT dimensions: (  80, 192, 270)

     Largest allocated arrays     est. size (Mb)     dimensions
        Kohn-Sham Wavefunctions        54.44 Mb     (    4604,  775)
        NL pseudopotentials           129.82 Mb     (    4604, 1848)
        Each V/rho on FFT grid          1.17 Mb     (   76800)
        Each G-vector array             0.28 Mb     (   36616)
        G-vector shells                 0.14 Mb     (   17932)
     Largest temporary arrays     est. size (Mb)     dimensions
        Auxiliary wavefunctions       217.78 Mb     (    4604, 3100)
        Each subspace H/S matrix        5.87 Mb     (     620,  620)
        Each <psi_i|beta_j> matrix     21.85 Mb     (    1848,  775)
        Arrays for rho mixing           9.38 Mb     (   76800,    8)

     Initial potential from superposition of free atoms
     Check: negative starting charge=   -0.001833

     starting charge 1266.81751, renormalised to 1292.00000

     negative rho (up, down):  1.870E-03 0.000E+00
     Starting wfc are 1284 randomized atomic wfcs

     total cpu time spent up to now is      105.7 secs

     Self-consistent Calculation

     iteration #  1     ecut=    80.00 Ry     beta=0.70
     Davidson diagonalization with overlap
     c_bands:  1 eigenvalues not converged
     ethr =  1.00E-04,  avg # of iterations = 35.7

     negative rho (up, down):  2.678E+01 0.000E+00

     total cpu time spent up to now is     2041.1 secs

     total energy              =   -9553.68200178 Ry
     Harris-Foulkes estimate   =  -17293.46689162 Ry
     estimated scf accuracy    <  179074.82571541 Ry

     iteration #  2     ecut=    80.00 Ry     beta=0.70
     Davidson diagonalization with overlap
     ethr =  1.00E-02,  avg # of iterations = 12.2

     negative rho (up, down):  3.119E+01 0.000E+00

     total cpu time spent up to now is     2941.9 secs

     total energy              =  -12234.58689073 Ry
     Harris-Foulkes estimate   =  -13651.09582156 Ry
     estimated scf accuracy    <   23404.70902928 Ry

     iteration #  3     ecut=    80.00 Ry     beta=0.70
     Davidson diagonalization with overlap
     ethr =  1.00E-02,  avg # of iterations =  7.3

     negative rho (up, down):  3.156E+01 0.000E+00

     total cpu time spent up to now is     3470.8 secs

     total energy              =  -12457.25321045 Ry
     Harris-Foulkes estimate   =  -13390.05733733 Ry
     estimated scf accuracy    <    5834.72136985 Ry

     iteration #  4     ecut=    80.00 Ry     beta=0.70
     Davidson diagonalization with overlap
     ethr =  1.00E-02,  avg # of iterations =  5.2

     negative rho (up, down):  2.366E+01 0.000E+00

     total cpu time spent up to now is     3984.5 secs

     total energy              =  -12837.25810662 Ry
     Harris-Foulkes estimate   =  -13080.29306949 Ry
     estimated scf accuracy    <    1940.60282694 Ry

     iteration #  5     ecut=    80.00 Ry     beta=0.70
     Davidson diagonalization with overlap
     ethr =  1.00E-02,  avg # of iterations =  3.5

     negative rho (up, down):  1.822E+01 0.000E+00

     total cpu time spent up to now is     4255.9 secs

     total energy              =  -12842.57989295 Ry
     Harris-Foulkes estimate   =  -12962.60407273 Ry
     estimated scf accuracy    <    1245.77534508 Ry

     iteration #  6     ecut=    80.00 Ry     beta=0.70
     Davidson diagonalization with overlap
     ethr =  1.00E-02,  avg # of iterations =  3.0

     negative rho (up, down):  1.269E+01 0.000E+00

     total cpu time spent up to now is     4463.2 secs

     total energy              =  -12831.96157542 Ry
     Harris-Foulkes estimate   =  -12905.33362187 Ry
     estimated scf accuracy    <     571.67386069 Ry

     iteration #  7     ecut=    80.00 Ry     beta=0.70
     Davidson diagonalization with overlap
     ethr =  1.00E-02,  avg # of iterations =  2.0

     negative rho (up, down):  8.956E+00 0.000E+00

     total cpu time spent up to now is     4644.1 secs

     total energy              =  -12804.68982995 Ry
     Harris-Foulkes estimate   =  -12849.20610840 Ry
     estimated scf accuracy    <     433.72060210 Ry

     iteration #  8     ecut=    80.00 Ry     beta=0.70
     Davidson diagonalization with overlap
     ethr =  1.00E-02,  avg # of iterations =  2.0

     negative rho (up, down):  7.094E+00 0.000E+00

     total cpu time spent up to now is     4822.3 secs

     total energy              =  -12785.48266744 Ry
     Harris-Foulkes estimate   =  -12820.25854195 Ry
     estimated scf accuracy    <     518.88322351 Ry

     iteration #  9     ecut=    80.00 Ry     beta=0.70
     Davidson diagonalization with overlap
     ethr =  1.00E-02,  avg # of iterations =  1.8

     negative rho (up, down):  5.394E+00 0.000E+00

     total cpu time spent up to now is     4995.9 secs

     total energy              =  -12779.07224119 Ry
     Harris-Foulkes estimate   =  -12797.62632594 Ry
     estimated scf accuracy    <     182.71461451 Ry

     iteration # 10     ecut=    80.00 Ry     beta=0.70
     Davidson diagonalization with overlap
     ethr =  1.00E-02,  avg # of iterations =  1.2

     negative rho (up, down):  1.119E+00 0.000E+00

     total cpu time spent up to now is     5162.5 secs

     total energy              =  -12735.82648834 Ry
     Harris-Foulkes estimate   =  -12780.40762272 Ry
     estimated scf accuracy    <     143.59006679 Ry

     iteration # 11     ecut=    80.00 Ry     beta=0.70
     Davidson diagonalization with overlap
     ethr =  1.00E-02,  avg # of iterations =  3.3

     negative rho (up, down):  8.532E-01 0.000E+00

     total cpu time spent up to now is     5356.6 secs

     total energy              =  -12729.53652699 Ry
     Harris-Foulkes estimate   =  -12747.01212115 Ry
     estimated scf accuracy    <     460.19483740 Ry

     iteration # 12     ecut=    80.00 Ry     beta=0.70
     Davidson diagonalization with overlap
     ethr =  1.00E-02,  avg # of iterations =  1.3

     negative rho (up, down):  7.748E-01 0.000E+00

     total cpu time spent up to now is     5525.9 secs

     total energy              =  -12722.37267621 Ry
     Harris-Foulkes estimate   =  -12740.79886003 Ry
     estimated scf accuracy    <     310.27108562 Ry

     iteration # 13     ecut=    80.00 Ry     beta=0.70
     Davidson diagonalization with overlap
     ethr =  1.00E-02,  avg # of iterations =  1.3

     negative rho (up, down):  2.894E+00 0.000E+00

     total cpu time spent up to now is     5695.1 secs

     total energy              =  -12715.11313131 Ry
     Harris-Foulkes estimate   =  -12733.07586331 Ry
     estimated scf accuracy    <     134.81535093 Ry

     iteration # 14     ecut=    80.00 Ry     beta=0.70
     Davidson diagonalization with overlap
     ethr =  1.00E-02,  avg # of iterations =  2.0

     negative rho (up, down):  4.881E+00 0.000E+00

     total cpu time spent up to now is     5874.0 secs

     total energy              =  -12717.88408641 Ry
     Harris-Foulkes estimate   =  -12726.24517208 Ry
     estimated scf accuracy    <      89.51228055 Ry

     iteration # 15     ecut=    80.00 Ry     beta=0.70
     Davidson diagonalization with overlap
     ethr =  6.93E-03,  avg # of iterations =  2.0

     negative rho (up, down):  5.342E+00 0.000E+00

     total cpu time spent up to now is     6051.9 secs

     total energy              =  -12716.49445776 Ry
     Harris-Foulkes estimate   =  -12722.24932555 Ry
     estimated scf accuracy    <      51.48996056 Ry

     iteration # 16     ecut=    80.00 Ry     beta=0.70
     Davidson diagonalization with overlap
     ethr =  3.99E-03,  avg # of iterations =  2.0

     negative rho (up, down):  4.216E+00 0.000E+00

     total cpu time spent up to now is     6227.7 secs

     total energy              =  -12714.37844489 Ry
     Harris-Foulkes estimate   =  -12718.77751012 Ry
     estimated scf accuracy    <      38.82181640 Ry

     iteration # 17     ecut=    80.00 Ry     beta=0.70
     Davidson diagonalization with overlap
     ethr =  3.00E-03,  avg # of iterations =  2.3

     negative rho (up, down):  5.183E+00 0.000E+00

     total cpu time spent up to now is     6408.3 secs

     total energy              =  -12714.55988971 Ry
     Harris-Foulkes estimate   =  -12716.32761051 Ry
     estimated scf accuracy    <      20.02097354 Ry

     iteration # 18     ecut=    80.00 Ry     beta=0.70
     Davidson diagonalization with overlap
     ethr =  1.55E-03,  avg # of iterations =  7.0

     negative rho (up, down):  4.718E+00 0.000E+00

     total cpu time spent up to now is     6643.0 secs

     total energy              =  -12713.20580056 Ry
     Harris-Foulkes estimate   =  -12715.22581298 Ry
     estimated scf accuracy    <      13.92319247 Ry

     iteration # 19     ecut=    80.00 Ry     beta=0.70
     Davidson diagonalization with overlap
     ethr =  1.08E-03,  avg # of iterations =  4.7

     negative rho (up, down):  3.786E+00 0.000E+00

     total cpu time spent up to now is     6851.6 secs

     total energy              =  -12712.30827023 Ry
     Harris-Foulkes estimate   =  -12713.50994275 Ry
     estimated scf accuracy    <       8.13912201 Ry

     iteration # 20     ecut=    80.00 Ry     beta=0.70
     Davidson diagonalization with overlap
     ethr =  6.30E-04,  avg # of iterations =  7.0

     negative rho (up, down):  2.580E+00 0.000E+00

     total cpu time spent up to now is     7084.6 secs

     total energy              =  -12711.76960247 Ry
     Harris-Foulkes estimate   =  -12712.51033949 Ry
     estimated scf accuracy    <       7.74553791 Ry

     iteration # 21     ecut=    80.00 Ry     beta=0.70
     Davidson diagonalization with overlap
     ethr =  5.99E-04,  avg # of iterations =  3.2

     negative rho (up, down):  1.964E+00 0.000E+00

     total cpu time spent up to now is     7274.8 secs

     total energy              =  -12711.27431731 Ry
     Harris-Foulkes estimate   =  -12711.94570510 Ry
     estimated scf accuracy    <       7.12117163 Ry

     iteration # 22     ecut=    80.00 Ry     beta=0.70
     Davidson diagonalization with overlap
     ethr =  5.51E-04,  avg # of iterations =  1.0

     negative rho (up, down):  2.715E-01 0.000E+00

     total cpu time spent up to now is     7439.8 secs

     total energy              =  -12709.80079701 Ry
     Harris-Foulkes estimate   =  -12711.47750619 Ry
     estimated scf accuracy    <       6.65966680 Ry

     iteration # 23     ecut=    80.00 Ry     beta=0.70
     Davidson diagonalization with overlap
     ethr =  5.15E-04,  avg # of iterations = 10.8

     negative rho (up, down):  8.539E-01 0.000E+00

     total cpu time spent up to now is     7720.5 secs

     total energy              =  -12710.66439446 Ry
     Harris-Foulkes estimate   =  -12710.13439069 Ry
     estimated scf accuracy    <      20.67292463 Ry

     iteration # 24     ecut=    80.00 Ry     beta=0.70
     Davidson diagonalization with overlap
     ethr =  5.15E-04,  avg # of iterations =  1.2

     negative rho (up, down):  1.208E-01 0.000E+00

     total cpu time spent up to now is     7887.0 secs

     total energy              =  -12710.29701521 Ry
     Harris-Foulkes estimate   =  -12710.90052367 Ry
     estimated scf accuracy    <       6.77859338 Ry

     iteration # 25     ecut=    80.00 Ry     beta=0.70
     Davidson diagonalization with overlap
     ethr =  5.15E-04,  avg # of iterations =  4.7

     negative rho (up, down):  8.832E-01 0.000E+00

     total cpu time spent up to now is     8093.2 secs

     total energy              =  -12709.99019515 Ry
     Harris-Foulkes estimate   =  -12710.50326222 Ry
     estimated scf accuracy    <      23.34523278 Ry

     iteration # 26     ecut=    80.00 Ry     beta=0.70
     Davidson diagonalization with overlap
     ethr =  5.15E-04,  avg # of iterations =  3.2

     negative rho (up, down):  3.413E-01 0.000E+00

     total cpu time spent up to now is     8284.1 secs

     total energy              =  -12708.56791357 Ry
     Harris-Foulkes estimate   =  -12710.13593169 Ry
     estimated scf accuracy    <      10.86669057 Ry

     iteration # 27     ecut=    80.00 Ry     beta=0.70
     Davidson diagonalization with overlap
     ethr =  5.15E-04,  avg # of iterations =  1.8

     negative rho (up, down):  7.215E-01 0.000E+00

     total cpu time spent up to now is     8459.0 secs

     total energy              =  -12708.10747704 Ry
     Harris-Foulkes estimate   =  -12708.72322687 Ry
     estimated scf accuracy    <      16.13359930 Ry

     iteration # 28     ecut=    80.00 Ry     beta=0.70
     Davidson diagonalization with overlap
     ethr =  5.15E-04,  avg # of iterations =  5.2

     negative rho (up, down):  7.691E-01 0.000E+00

     total cpu time spent up to now is     8675.3 secs

     total energy              =  -12707.58826421 Ry
     Harris-Foulkes estimate   =  -12708.30007077 Ry
     estimated scf accuracy    <      19.44935485 Ry

     iteration # 29     ecut=    80.00 Ry     beta=0.70
     Davidson diagonalization with overlap
     ethr =  5.15E-04,  avg # of iterations =  3.8

     negative rho (up, down):  9.031E-01 0.000E+00

     total cpu time spent up to now is     8873.9 secs

     total energy              =  -12707.43552429 Ry
     Harris-Foulkes estimate   =  -12707.70421373 Ry
     estimated scf accuracy    <       7.82041015 Ry

     iteration # 30     ecut=    80.00 Ry     beta=0.70
     Davidson diagonalization with overlap
     ethr =  5.15E-04,  avg # of iterations =  6.5

     negative rho (up, down):  8.724E-01 0.000E+00

     total cpu time spent up to now is     9104.9 secs

     total energy              =  -12707.15183270 Ry
     Harris-Foulkes estimate   =  -12707.53964110 Ry
     estimated scf accuracy    <       6.04924592 Ry

     iteration # 31     ecut=    80.00 Ry     beta=0.70
     Davidson diagonalization with overlap
     ethr =  4.68E-04,  avg # of iterations =  6.0

     negative rho (up, down):  7.364E-01 0.000E+00

     total cpu time spent up to now is     9331.8 secs

     total energy              =  -12707.11566137 Ry
     Harris-Foulkes estimate   =  -12707.25134025 Ry
     estimated scf accuracy    <       1.96991661 Ry

     iteration # 32     ecut=    80.00 Ry     beta=0.70
     Davidson diagonalization with overlap
     ethr =  1.52E-04,  avg # of iterations =  6.7

     negative rho (up, down):  5.243E-01 0.000E+00

     total cpu time spent up to now is     9570.8 secs

     total energy              =  -12707.09046599 Ry
     Harris-Foulkes estimate   =  -12707.14540321 Ry
     estimated scf accuracy    <       0.83375815 Ry

     iteration # 33     ecut=    80.00 Ry     beta=0.70
     Davidson diagonalization with overlap
     ethr =  6.45E-05,  avg # of iterations =  4.8

     negative rho (up, down):  2.376E-01 0.000E+00

     total cpu time spent up to now is     9782.6 secs

     total energy              =  -12707.06857478 Ry
     Harris-Foulkes estimate   =  -12707.10602380 Ry
     estimated scf accuracy    <       0.36967566 Ry

     iteration # 34     ecut=    80.00 Ry     beta=0.70
     Davidson diagonalization with overlap
     ethr =  2.86E-05,  avg # of iterations =  7.2

     negative rho (up, down):  1.372E-01 0.000E+00

     total cpu time spent up to now is    10032.6 secs

     total energy              =  -12707.07833550 Ry
     Harris-Foulkes estimate   =  -12707.08183065 Ry
     estimated scf accuracy    <       0.02999806 Ry

     iteration # 35     ecut=    80.00 Ry     beta=0.70
     Davidson diagonalization with overlap
     c_bands:  2 eigenvalues not converged
     ethr =  2.32E-06,  avg # of iterations = 17.0

     negative rho (up, down):  1.027E-01 0.000E+00

     total cpu time spent up to now is    10425.6 secs

     total energy              =  -12707.07936822 Ry
     Harris-Foulkes estimate   =  -12707.07963179 Ry
     estimated scf accuracy    <       0.01222353 Ry

     iteration # 36     ecut=    80.00 Ry     beta=0.70
     Davidson diagonalization with overlap
     ethr =  9.46E-07,  avg # of iterations = 11.0

     negative rho (up, down):  2.648E-02 0.000E+00

     total cpu time spent up to now is    10717.2 secs

     total energy              =  -12707.07737378 Ry
     Harris-Foulkes estimate   =  -12707.07986488 Ry
     estimated scf accuracy    <       0.00444776 Ry

     iteration # 37     ecut=    80.00 Ry     beta=0.70
     Davidson diagonalization with overlap
     c_bands:  2 eigenvalues not converged
     c_bands:  1 eigenvalues not converged
     ethr =  3.44E-07,  avg # of iterations = 16.3

     negative rho (up, down):  1.979E-02 0.000E+00

     total cpu time spent up to now is    11100.2 secs

     total energy              =  -12707.07770360 Ry
     Harris-Foulkes estimate   =  -12707.07783255 Ry
     estimated scf accuracy    <       0.00137832 Ry

     iteration # 38     ecut=    80.00 Ry     beta=0.70
     Davidson diagonalization with overlap
     ethr =  1.07E-07,  avg # of iterations =  8.5

     negative rho (up, down):  1.584E-02 0.000E+00

     total cpu time spent up to now is    11370.8 secs

     total energy              =  -12707.07773888 Ry
     Harris-Foulkes estimate   =  -12707.07783116 Ry
     estimated scf accuracy    <       0.00014669 Ry

     iteration # 39     ecut=    80.00 Ry     beta=0.70
     Davidson diagonalization with overlap
     c_bands:  1 eigenvalues not converged
     ethr =  1.14E-08,  avg # of iterations =  7.3

     negative rho (up, down):  1.064E-02 0.000E+00

     total cpu time spent up to now is    11623.5 secs

     total energy              =  -12707.07765076 Ry
     Harris-Foulkes estimate   =  -12707.07775316 Ry
     estimated scf accuracy    <       0.00005278 Ry

     iteration # 40     ecut=    80.00 Ry     beta=0.70
     Davidson diagonalization with overlap
     c_bands:  2 eigenvalues not converged
     ethr =  4.09E-09,  avg # of iterations =  8.3

     negative rho (up, down):  8.372E-03 0.000E+00

     total cpu time spent up to now is    11894.4 secs

     total energy              =  -12707.07761426 Ry
     Harris-Foulkes estimate   =  -12707.07765558 Ry
     estimated scf accuracy    <       0.00003185 Ry

     iteration # 41     ecut=    80.00 Ry     beta=0.70
     Davidson diagonalization with overlap
     ethr =  2.46E-09,  avg # of iterations =  4.2

     negative rho (up, down):  4.831E-03 0.000E+00

     total cpu time spent up to now is    12110.1 secs

     total energy              =  -12707.07756170 Ry
     Harris-Foulkes estimate   =  -12707.07761713 Ry
     estimated scf accuracy    <       0.00001271 Ry

     iteration # 42     ecut=    80.00 Ry     beta=0.70
     Davidson diagonalization with overlap
     c_bands:  1 eigenvalues not converged
     ethr =  9.84E-10,  avg # of iterations =  6.8

     negative rho (up, down):  3.661E-03 0.000E+00

     total cpu time spent up to now is    12353.3 secs

     total energy              =  -12707.07754762 Ry
     Harris-Foulkes estimate   =  -12707.07756267 Ry
     estimated scf accuracy    <       0.00000560 Ry

     iteration # 43     ecut=    80.00 Ry     beta=0.70
     Davidson diagonalization with overlap
     ethr =  4.33E-10,  avg # of iterations =  4.7

     negative rho (up, down):  2.521E-03 0.000E+00

     total cpu time spent up to now is    12566.0 secs

     total energy              =  -12707.07753937 Ry
     Harris-Foulkes estimate   =  -12707.07754796 Ry
     estimated scf accuracy    <       0.00000227 Ry

     iteration # 44     ecut=    80.00 Ry     beta=0.70
     Davidson diagonalization with overlap
     ethr =  1.76E-10,  avg # of iterations =  5.2

     negative rho (up, down):  2.180E-03 0.000E+00

     total cpu time spent up to now is    12789.5 secs

     total energy              =  -12707.07753919 Ry
     Harris-Foulkes estimate   =  -12707.07753957 Ry
     estimated scf accuracy    <       0.00000098 Ry

     iteration # 45     ecut=    80.00 Ry     beta=0.70
     Davidson diagonalization with overlap
     ethr =  7.61E-11,  avg # of iterations =  2.8

     negative rho (up, down):  2.112E-03 0.000E+00

     total cpu time spent up to now is    12985.2 secs

     total energy              =  -12707.07753949 Ry
     Harris-Foulkes estimate   =  -12707.07753929 Ry
     estimated scf accuracy    <       0.00000018 Ry

     iteration # 46     ecut=    80.00 Ry     beta=0.70
     Davidson diagonalization with overlap
     ethr =  1.37E-11,  avg # of iterations =  3.0

     negative rho (up, down):  2.128E-03 0.000E+00

     total cpu time spent up to now is    13196.3 secs

     total energy              =  -12707.07753956 Ry
     Harris-Foulkes estimate   =  -12707.07753951 Ry
     estimated scf accuracy    <       0.00000009 Ry

     iteration # 47     ecut=    80.00 Ry     beta=0.70
     Davidson diagonalization with overlap
     ethr =  6.71E-12,  avg # of iterations =  2.8

     negative rho (up, down):  2.131E-03 0.000E+00

     total cpu time spent up to now is    13390.0 secs

     total energy              =  -12707.07753962 Ry
     Harris-Foulkes estimate   =  -12707.07753957 Ry
     estimated scf accuracy    <       0.00000003 Ry

     iteration # 48     ecut=    80.00 Ry     beta=0.70
     Davidson diagonalization with overlap
     ethr =  2.54E-12,  avg # of iterations =  3.2

     negative rho (up, down):  2.105E-03 0.000E+00

     total cpu time spent up to now is    13584.1 secs

     End of self-consistent calculation

          k = 0.0000 0.0000 0.0000 (256287 PWs)   bands (ev):

   -17.2532 -16.1983 -15.9825 -15.3859 -14.9859 -14.7502 -14.6498 -14.2194
   -14.1825 -14.0321 -14.0127 -13.4319 -13.2626 -13.1396 -13.1025 -13.0096
   -12.9888 -11.6496 -11.4837 -11.4608 -11.3448 -11.2413 -10.2692  -9.7588
    -9.7503  -9.5888  -9.5209  -8.9459  -8.7877  -8.5834  -8.5122  -8.0170
    -7.8848  -7.7729  -7.6375  -7.5117  -7.5096  -7.4533  -7.4229  -6.3630
    -6.3432  -6.0939  -6.0330  -5.9659  -5.9178  -5.8728  -5.8476  -5.8270
    -5.5351  -5.4869  -5.3690  -4.9324  -4.8510  -4.8220  -4.7003  -4.6166
    -4.5355  -4.4402  -4.2377  -4.0991  -3.9956  -3.9940  -3.9778  -3.9569
    -3.6503  -3.6304  -3.5405  -3.5016  -3.4164  -3.4044  -3.3677  -3.3593
    -3.2685  -3.1945  -3.0885  -3.0694  -3.0248  -3.0115  -3.0115  -2.9969
    -2.8800  -2.8728  -2.8532  -2.8101  -2.7956  -2.7642  -2.7565  -2.7334
    -2.7308  -2.7274  -2.5622  -2.4910  -2.3624  -2.3422  -2.3356  -2.3329
    -2.2042  -2.1986  -2.1782  -2.1681  -2.1598  -2.1593  -2.1592  -2.1590
    -2.1417  -2.0298  -2.0291  -2.0285  -2.0283  -1.9818  -1.9650  -1.9625
    -1.8990  -1.8489  -1.7889  -1.7679  -1.7465  -1.7453  -1.7452  -1.7447
    -1.6984  -1.6981  -1.6764  -1.6655  -1.6646  -1.6346  -1.6093  -1.5797
    -1.5725  -1.5692  -1.5649  -1.5484  -1.5405  -1.5400  -1.5393  -1.5228
    -1.5220  -1.4719  -1.4512  -1.4464  -1.4281  -1.4222  -1.3876  -1.3834
    -1.3789  -1.3603  -1.3065  -1.2760  -1.2690  -1.2668  -1.2573  -1.2197
    -1.2185  -1.1989  -1.1978  -1.1746  -1.1717  -1.1254  -1.1249  -1.1167
    -1.1037  -1.0713  -1.0561  -1.0480  -1.0432  -1.0367  -1.0361  -1.0315
    -1.0304  -1.0280  -1.0279  -1.0245  -1.0232  -1.0066  -0.9986  -0.9607
    -0.9556  -0.9445  -0.9390  -0.9279  -0.9278  -0.9262  -0.9241  -0.9181
    -0.8752  -0.8747  -0.8680  -0.8673  -0.8637  -0.8630  -0.8620  -0.8620
    -0.8608  -0.8576  -0.8558  -0.8557  -0.8557  -0.8542  -0.8505  -0.8498
    -0.8434  -0.8399  -0.8377  -0.8154  -0.7950  -0.7854  -0.6979  -0.6978
    -0.6912  -0.6905  -0.6744  -0.6632  -0.6499  -0.6495  -0.6285  -0.6281
    -0.6212  -0.6159  -0.6149  -0.6074  -0.6071  -0.5971  -0.5713  -0.5711
    -0.5699  -0.5692  -0.5626  -0.5617  -0.5547  -0.5478  -0.5012  -0.5005
    -0.4466  -0.4461  -0.4380  -0.4363  -0.4335  -0.4317  -0.4189  -0.4178
    -0.4127  -0.4125  -0.4120  -0.4113  -0.4092  -0.4078  -0.3942  -0.3930
    -0.3927  -0.3846  -0.3817  -0.3815  -0.3594  -0.3587  -0.3126  -0.3071
    -0.3034  -0.2988  -0.2986  -0.2719  -0.2718  -0.2717  -0.2717  -0.2590
    -0.2571  -0.2562  -0.2504  -0.2499  -0.2304  -0.2296  -0.2278  -0.2259
    -0.2238  -0.2232  -0.2227  -0.2222  -0.2221  -0.2162  -0.2002  -0.1986
    -0.1978  -0.1965  -0.1958  -0.1810  -0.1324  -0.1310  -0.1297  -0.1256
    -0.1238  -0.1096  -0.0843  -0.0827  -0.0803  -0.0779  -0.0738  -0.0711
    -0.0709  -0.0682  -0.0681  -0.0599  -0.0570  -0.0271  -0.0211  -0.0199
    -0.0161  -0.0136  -0.0067   0.0119   0.0130   0.0140   0.0141   0.0184
     0.0226   0.0367   0.0373   0.0388   0.0391   0.0405   0.0409   0.0535
     0.0554   0.0558   0.0559   0.0588   0.0653   0.0700   0.0712   0.0925
     0.0957   0.1110   0.1255   0.1274   0.1512   0.1546   0.1596   0.1812
     0.1888   0.2257   0.2285   0.2301   0.2306   0.2316   0.2349   0.2433
     0.2548   0.2627   0.2633   0.2637   0.2639   0.2702   0.2706   0.2773
     0.3186   0.3303   0.3329   0.3351   0.3369   0.3468   0.3495   0.3690
     0.3720   0.3722   0.3757   0.3769   0.4005   0.4050   0.4071   0.4091
     0.4174   0.4262   0.4272   0.4300   0.4316   0.4630   0.4713   0.4839
     0.4856   0.4884   0.4888   0.4890   0.4975   0.5147   0.5148   0.5176
     0.5215   0.5243   0.5265   0.5276   0.5277   0.5307   0.5356   0.5394
     0.5407   0.5415   0.5429   0.5450   0.5571   0.5572   0.5698   0.5874
     0.5980   0.5981   0.6036   0.6057   0.6362   0.6371   0.6390   0.6392
     0.6424   0.6438   0.6445   0.6466   0.6484   0.6519   0.6629   0.6701
     0.6718   0.6726   0.6731   0.6795   0.6800   0.6884   0.6897   0.7004
     0.7019   0.7038   0.7052   0.7158   0.7235   0.7292   0.7349   0.7381
     0.7413   0.7413   0.7422   0.7464   0.7500   0.7514   0.7594   0.7645
     0.7801   0.7801   0.7974   0.7985   0.8056   0.8120   0.8132   0.8136
     0.8149   0.8172   0.8467   0.8470   0.8629   0.8631   0.8687   0.8689
     0.8796   0.8830   0.8909   0.8930   0.8940   0.8946   0.8994   0.9126
     0.9254   0.9285   0.9286   0.9311   0.9371   0.9385   0.9485   0.9586
     0.9684   0.9760   0.9783   0.9885   0.9889   0.9905   0.9936   0.9987
     1.0005   1.0033   1.0042   1.0056   1.0096   1.0133   1.0168   1.0168
     1.0196   1.0204   1.0210   1.0344   1.0366   1.0478   1.0493   1.0532
     1.0560   1.0652   1.0701   1.0877   1.0897   1.0943   1.0950   1.0962
     1.0988   1.1083   1.1106   1.1112   1.1120   1.1125   1.1198   1.1203
     1.1253   1.1277   1.1281   1.1604   1.1676   1.1703   1.1888   1.1915
     1.1916   1.1936   1.1963   1.1966   1.2008   1.2021   1.2108   1.2178
     1.2186   1.2280   1.2287   1.2335   1.2340   1.2341   1.2363   1.2380
     1.2439   1.2473   1.2622   1.2628   1.2643   1.2664   1.2671   1.2692
     1.2698   1.2708   1.2799   1.2865   1.2933   1.2949   1.3000   1.3026
     1.3028   1.3032   1.3037   1.3117   1.3127   1.3179   1.3332   1.3362
     1.3442   1.3459   1.3469   1.3481   1.3512   1.3521   1.3526   1.3648
     1.3769   1.3786   1.3791   1.3827   1.3946   1.4072   1.4083   1.4135
     1.4141   1.4154   1.4183   1.4195   1.4202   1.4235   1.4270   1.4284
     1.4328   1.4335   1.4338   1.4372   1.4425   1.4511   1.4585   1.4604
     1.4605   1.4612   1.4635   1.4710   1.4801   1.4888   1.4976   1.5032
     1.5051   1.5136   1.5453   1.5484   1.5490   1.5607   1.5675   1.5726
     1.5759   1.5789   1.5868   1.5986   1.6207   1.6234   1.6277   1.6337
     1.6353   1.6360   1.6367   1.6373   1.8861   1.9486   2.0963   2.1109
     2.1309   2.1820   2.1950   2.1965   2.1984   2.1985   2.2123   2.2137
     2.2146   2.2168   2.3944   2.3997   2.4439   2.4553   2.4585   2.4757
     2.4831   2.4858   2.6330   2.6764   2.7007   2.7007   2.7591   2.9789
     2.9956   3.0157   3.1752   3.4874   3.5368   3.7770   3.8180   3.8337
     3.8505   3.8552   3.8613   3.8864   3.9447   3.9613   3.9920   3.9921
     3.9976   4.0043   4.0348   4.0354   4.0646   4.2194   4.2243   4.2665
     4.2833   4.3446   4.4228   4.6578   4.7501   4.7662   4.8389   4.8501
     5.2958   5.3399   5.3704   5.4928   5.5824   5.7373   5.7684   5.7778
     5.9153   5.9285   6.1468   6.3430   6.3456   6.3484   6.3890   6.4473
     6.4478   6.5134   6.5159   6.5322   6.6004   6.6006   6.6917   6.7200
     6.7537   6.7665   6.7811   6.7854   6.9898   6.9929   7.0358   7.0653
     7.0809   7.1303   7.3394   7.3543   7.5366   7.5680   7.5853   7.6782
     7.6794   7.7161   7.7227   7.9338   8.0137   8.0852   8.0964   8.1725
     8.2074   8.3021   8.3055   8.3075   8.3154   8.3247   8.3269   8.3886
     8.3960   8.3994   8.4011   8.5116   8.5168   8.5544   8.6617   8.6638
     8.6860   8.6975   8.7952   8.7996   8.8169   8.8186   8.8590   8.8872
     8.9830   9.0406   9.0679   9.0765   9.0934   9.0978   9.1578   9.1620
     9.1686   9.3391   9.3472   9.4314   9.5160   9.5644   9.5808   9.6454
     9.6751   9.7048   9.7780   9.8238  10.0155  10.0354  10.0673

          k = 0.0000-0.2165 0.0000 (256176 PWs)   bands (ev):

   -17.2529 -16.2481 -15.8018 -15.6108 -15.0398 -14.6401 -14.2969 -14.2829
   -14.2041 -14.1927 -13.7449 -13.6931 -13.6695 -13.6417 -12.5545 -12.3927
   -12.3231 -12.2733 -12.1319 -12.0672 -10.6273 -10.5237 -10.4977 -10.3779
    -9.4327  -9.4244  -9.2682  -9.0870  -8.9474  -8.9035  -8.3422  -8.2373
    -8.1530  -8.1026  -7.4362  -7.3028  -6.9587  -6.9256  -6.8596  -6.8413
    -6.8124  -6.7912  -6.2229  -6.1389  -5.9024  -5.8911  -5.4930  -5.3766
    -5.3475  -5.2088  -5.1306  -4.9831  -4.9252  -4.8439  -4.8420  -4.7629
    -4.6856  -4.6523  -4.6332  -4.4600  -4.0803  -4.0334  -3.7921  -3.7007
    -3.6612  -3.5820  -3.3364  -3.3158  -3.3115  -3.3098  -3.2275  -3.1680
    -3.1395  -3.0776  -3.0632  -3.0629  -3.0393  -3.0364  -3.0124  -2.9322
    -2.9167  -2.9136  -2.8676  -2.8524  -2.8169  -2.7145  -2.6274  -2.6016
    -2.5984  -2.5838  -2.5825  -2.5767  -2.5749  -2.5245  -2.4662  -2.3707
    -2.3445  -2.3363  -2.2539  -2.2524  -2.2424  -2.2416  -2.1496  -2.1460
    -2.1449  -2.1412  -2.0780  -2.0490  -1.9945  -1.9943  -1.9684  -1.9683
    -1.8783  -1.8604  -1.8094  -1.7868  -1.7744  -1.7729  -1.7665  -1.7569
    -1.7568  -1.7556  -1.7487  -1.7486  -1.7300  -1.7297  -1.6531  -1.6529
    -1.6059  -1.5675  -1.5673  -1.5574  -1.4793  -1.4736  -1.4719  -1.4671
    -1.4670  -1.3875  -1.3844  -1.3784  -1.3780  -1.3245  -1.3243  -1.3242
    -1.2888  -1.2879  -1.2828  -1.2826  -1.2799  -1.2798  -1.2598  -1.2563
    -1.2368  -1.2367  -1.2318  -1.2311  -1.2223  -1.2212  -1.1716  -1.1577
    -1.1557  -1.1505  -1.1407  -1.1405  -1.0964  -1.0963  -1.0584  -1.0582
    -1.0551  -1.0548  -1.0167  -1.0153  -0.9919  -0.9916  -0.9913  -0.9897
    -0.9866  -0.9864  -0.9360  -0.9355  -0.9273  -0.9266  -0.9192  -0.9190
    -0.9079  -0.9059  -0.9046  -0.9042  -0.8382  -0.8373  -0.8350  -0.8268
    -0.8267  -0.8253  -0.8232  -0.8189  -0.8059  -0.8055  -0.7901  -0.7891
    -0.7632  -0.7629  -0.7596  -0.7583  -0.6627  -0.6624  -0.6622  -0.6621
    -0.6613  -0.6408  -0.6405  -0.6158  -0.6157  -0.6128  -0.6120  -0.6086
    -0.6086  -0.5852  -0.5848  -0.5517  -0.5514  -0.5511  -0.5492  -0.5479
    -0.5466  -0.5443  -0.5423  -0.5236  -0.5129  -0.5126  -0.4996  -0.4912
    -0.4912  -0.4837  -0.4623  -0.4584  -0.4583  -0.4543  -0.4539  -0.4445
    -0.4431  -0.4391  -0.4376  -0.4011  -0.3696  -0.3656  -0.3652  -0.3652
    -0.3647  -0.3476  -0.3381  -0.3348  -0.3113  -0.3112  -0.3071  -0.3052
    -0.3020  -0.2995  -0.2854  -0.2800  -0.2778  -0.2771  -0.2720  -0.2641
    -0.2588  -0.2574  -0.2557  -0.2549  -0.2541  -0.2529  -0.2525  -0.2430
    -0.2427  -0.2382  -0.2141  -0.2139  -0.2123  -0.2121  -0.1767  -0.1499
    -0.1488  -0.1485  -0.1475  -0.1427  -0.1412  -0.1401  -0.1383  -0.1345
    -0.1291  -0.1162  -0.1123  -0.1116  -0.0976  -0.0971  -0.0968  -0.0957
    -0.0866  -0.0861  -0.0835  -0.0832  -0.0770  -0.0769  -0.0420  -0.0302
    -0.0281  -0.0218  -0.0213  -0.0064  -0.0056  -0.0038  -0.0017   0.0034
     0.0035   0.0055   0.0190   0.0212   0.0245   0.0265   0.0359   0.0402
     0.0501   0.0542   0.0677   0.0687   0.0690   0.0691   0.0857   0.0880
     0.1033   0.1035   0.1117   0.1123   0.1242   0.1245   0.1277   0.1281
     0.1716   0.1729   0.1736   0.1749   0.1882   0.1890   0.1940   0.1943
     0.2198   0.2200   0.2523   0.2549   0.2562   0.2590   0.2923   0.2923
     0.3218   0.3297   0.3748   0.3749   0.3791   0.3792   0.3844   0.3998
     0.4000   0.4027   0.4033   0.4104   0.4377   0.4378   0.4395   0.4438
     0.4447   0.4448   0.4456   0.4459   0.4471   0.4499   0.4658   0.4688
     0.4697   0.4703   0.4715   0.4759   0.4767   0.4806   0.5072   0.5073
     0.5186   0.5187   0.5190   0.5195   0.5286   0.5287   0.5339   0.5392
     0.5442   0.5462   0.5485   0.5503   0.5529   0.5533   0.5542   0.5646
     0.5727   0.5728   0.5732   0.5746   0.5761   0.5766   0.5770   0.5773
     0.5941   0.5944   0.6370   0.6375   0.6489   0.6493   0.6559   0.6605
     0.6608   0.6618   0.6641   0.6659   0.6673   0.6677   0.6748   0.6750
     0.6764   0.6780   0.7135   0.7151   0.7163   0.7164   0.7242   0.7259
     0.7336   0.7347   0.7363   0.7374   0.7512   0.7556   0.7649   0.7665
     0.7695   0.7699   0.7756   0.7779   0.8250   0.8264   0.8733   0.8766
     0.8781   0.8786   0.8843   0.8852   0.8950   0.8963   0.9019   0.9026
     0.9080   0.9082   0.9125   0.9137   0.9153   0.9172   0.9204   0.9238
     0.9297   0.9343   0.9348   0.9355   0.9428   0.9486   0.9542   0.9586
     0.9591   0.9592   0.9592   0.9598   0.9632   0.9689   0.9699   0.9706
     0.9818   0.9819   0.9839   0.9843   0.9858   0.9874   1.0027   1.0032
     1.0121   1.0125   1.0177   1.0189   1.0207   1.0210   1.0298   1.0304
     1.0316   1.0327   1.0329   1.0330   1.0767   1.0799   1.1009   1.1110
     1.1198   1.1199   1.1318   1.1335   1.1365   1.1398   1.1426   1.1440
     1.1623   1.1631   1.1752   1.1755   1.1813   1.1819   1.1869   1.1886
     1.1906   1.1911   1.1921   1.1927   1.1939   1.1945   1.1956   1.1977
     1.2023   1.2024   1.2093   1.2125   1.2192   1.2196   1.2258   1.2279
     1.2300   1.2310   1.2580   1.2583   1.2587   1.2613   1.2686   1.2687
     1.2693   1.2700   1.2803   1.2813   1.2934   1.2938   1.3020   1.3048
     1.3054   1.3056   1.3061   1.3064   1.3170   1.3180   1.3234   1.3238
     1.3403   1.3440   1.3445   1.3456   1.3657   1.3667   1.3673   1.3683
     1.3752   1.3755   1.3845   1.3848   1.3872   1.3874   1.4035   1.4039
     1.4154   1.4171   1.4176   1.4179   1.4389   1.4391   1.4392   1.4394
     1.4417   1.4418   1.4435   1.4440   1.4703   1.4704   1.4794   1.4802
     1.4885   1.4890   1.4913   1.4947   1.5108   1.5119   1.5122   1.5143
     1.5213   1.5214   1.5335   1.5335   1.5746   1.5809   1.5845   1.5869
     1.6718   1.6811   1.6882   1.7154   1.7163   1.7235   1.7244   1.7276
     1.7762   1.7790   1.7802   1.7847   1.7937   1.7975   1.8084   1.8116
     1.8457   1.8458   1.9016   2.0525   2.0717   2.0997   2.4088   2.4121
     2.4149   2.4182   2.4849   2.4872   2.5531   2.5688   2.5714   2.5728
     2.5901   2.5913   2.7001   2.7013   2.7553   2.7605   2.7684   2.7775
     2.9150   2.9158   3.1559   3.1577   3.1626   3.1627   3.4082   3.4330
     3.5631   3.6573   3.6735   3.8584   3.8884   3.9405   4.0843   4.0973
     4.1012   4.1053   4.3301   4.3324   4.3387   4.3460   4.4342   4.4489
     4.6558   4.6587   4.8015   4.8478   4.9415   5.0757   5.0898   5.0932
     5.3193   5.3499   5.3524   5.3566   5.3585   5.4207   5.4895   5.6390
     5.6423   5.6598   5.7004   5.7323   6.4013   6.4116   6.4211   6.4259
     6.4329   6.4489   6.5516   6.5643   6.6516   6.6590   6.8407   6.8474
     6.9698   7.0219   7.0279   7.0296   7.0680   7.0716   7.1093   7.1160
     7.1186   7.1482   7.2054   7.2904   7.2939   7.3525   7.3900   7.4008
     7.4772   7.6197   7.6259   7.7137   7.7144   7.7173   8.1365   8.1368
     8.1651   8.2900   8.3372   8.3401   8.4261   8.4349   8.4354   8.4438
     8.4594   8.4642   8.6571   8.6670   8.6785   8.6929   8.7040   8.7079
     8.7297   8.7536   8.7649   8.8259   8.8951   8.9006   8.9487   8.9586
     9.0247   9.0329   9.1589   9.1647   9.2951   9.3252   9.3747   9.3758
     9.3767   9.3800   9.4591   9.4611   9.4627   9.4630   9.5335   9.5627
     9.6632   9.7229   9.7781   9.7788   9.7792   9.8817   9.8824

          k = 0.2500 0.0000 0.0000 (256240 PWs)   bands (ev):

   -17.2018 -16.0872 -15.8609 -15.6322 -15.1011 -14.9357 -14.9032 -14.8021
   -14.0721 -13.8920 -13.7265 -13.2109 -13.1191 -13.0751 -12.9401 -12.3249
   -12.1794 -12.1275 -11.9943 -11.2543 -11.1207 -10.7211 -10.6294 -10.3857
   -10.1509  -9.9092  -9.8583  -9.4237  -9.2340  -9.0770  -8.7048  -7.9647
    -7.7824  -7.7237  -7.5568  -7.5176  -7.4058  -7.0365  -6.9549  -6.2876
    -6.1997  -5.9902  -5.9298  -5.8630  -5.8528  -5.4462  -5.3774  -5.3139
    -5.3007  -5.2223  -4.8864  -4.7855  -4.6149  -4.5846  -4.5210  -4.4783
    -4.4109  -4.3725  -4.3243  -4.2025  -4.1300  -4.0175  -4.0025  -3.9553
    -3.9197  -3.8888  -3.8474  -3.8469  -3.7585  -3.6296  -3.5978  -3.5560
    -3.5192  -3.4489  -3.4104  -3.3935  -3.2597  -3.2153  -3.1958  -3.1890
    -3.1201  -3.0382  -2.9546  -2.8519  -2.8073  -2.8057  -2.7920  -2.7331
    -2.6482  -2.6448  -2.6152  -2.4264  -2.4101  -2.3784  -2.3458  -2.3411
    -2.1450  -2.1103  -2.1061  -2.0916  -2.0881  -2.0738  -2.0318  -2.0011
    -1.9387  -1.9054  -1.8854  -1.8713  -1.8483  -1.8187  -1.8094  -1.8088
    -1.8014  -1.7995  -1.7813  -1.7553  -1.7435  -1.7354  -1.7252  -1.7165
    -1.7105  -1.6711  -1.6500  -1.6108  -1.5964  -1.5901  -1.5891  -1.5873
    -1.5863  -1.5800  -1.5614  -1.5413  -1.5263  -1.5114  -1.5104  -1.4987
    -1.4980  -1.3806  -1.3522  -1.3353  -1.3208  -1.2882  -1.2765  -1.2699
    -1.2528  -1.2506  -1.2500  -1.2456  -1.2389  -1.2377  -1.2189  -1.2152
    -1.2020  -1.1937  -1.1906  -1.1847  -1.1746  -1.1469  -1.1430  -1.1418
    -1.1384  -1.1298  -1.1207  -1.1192  -1.1181  -1.1007  -1.0831  -1.0655
    -1.0553  -1.0529  -1.0507  -1.0329  -1.0280  -1.0214  -1.0199  -1.0168
    -1.0135  -1.0068  -1.0053  -1.0011  -0.9891  -0.9885  -0.9880  -0.9875
    -0.9848  -0.9833  -0.9725  -0.9639  -0.9554  -0.9542  -0.9401  -0.9135
    -0.9096  -0.9059  -0.8736  -0.8625  -0.8596  -0.8325  -0.8241  -0.8234
    -0.8054  -0.8029  -0.7960  -0.7788  -0.7782  -0.7652  -0.7641  -0.7598
    -0.7586  -0.7516  -0.7500  -0.7317  -0.6183  -0.6144  -0.6072  -0.6000
    -0.5765  -0.5757  -0.5745  -0.5592  -0.5583  -0.5575  -0.5565  -0.5484
    -0.5366  -0.5359  -0.5348  -0.5304  -0.5243  -0.5069  -0.4997  -0.4970
    -0.4945  -0.4910  -0.4901  -0.4886  -0.4685  -0.4683  -0.4662  -0.4141
    -0.4076  -0.4073  -0.4020  -0.3995  -0.3988  -0.3978  -0.3885  -0.3828
    -0.3655  -0.3653  -0.3537  -0.3513  -0.3414  -0.3405  -0.3402  -0.3074
    -0.3027  -0.3021  -0.2994  -0.2989  -0.2906  -0.2899  -0.2783  -0.2765
    -0.2704  -0.2659  -0.2565  -0.2450  -0.2400  -0.2279  -0.2108  -0.2092
    -0.2074  -0.2042  -0.1988  -0.1894  -0.1892  -0.1888  -0.1875  -0.1603
    -0.1597  -0.1596  -0.1482  -0.1454  -0.1379  -0.1325  -0.1219  -0.1210
    -0.1186  -0.0743  -0.0724  -0.0717  -0.0661  -0.0637  -0.0565  -0.0454
    -0.0294  -0.0284  -0.0218  -0.0203  -0.0186  -0.0146  -0.0113  -0.0076
    -0.0051  -0.0045  -0.0030  -0.0026   0.0012   0.0036   0.0208   0.0239
     0.0257   0.0295   0.0320   0.0351   0.0493   0.0504   0.0658   0.0692
     0.0794   0.0898   0.1046   0.1058   0.1072   0.1081   0.1106   0.1276
     0.1318   0.1325   0.1337   0.1343   0.1361   0.1671   0.1691   0.1798
     0.1865   0.2409   0.2434   0.2471   0.2530   0.2610   0.2631   0.2655
     0.2686   0.2712   0.2743   0.2756   0.2762   0.2792   0.2807   0.2817
     0.2852   0.2964   0.2985   0.2988   0.3005   0.3042   0.3113   0.3198
     0.3207   0.3259   0.3282   0.3360   0.3474   0.3538   0.3647   0.3783
     0.3951   0.3973   0.4128   0.4130   0.4137   0.4330   0.4338   0.4349
     0.4392   0.4467   0.4596   0.4687   0.4715   0.4741   0.4762   0.4767
     0.4790   0.4824   0.4874   0.4885   0.5047   0.5136   0.5172   0.5304
     0.5341   0.5344   0.5362   0.5375   0.5383   0.5426   0.5447   0.5465
     0.5687   0.5701   0.5703   0.5763   0.5817   0.5856   0.5882   0.5888
     0.6008   0.6013   0.6036   0.6061   0.6095   0.6265   0.6306   0.6380
     0.6460   0.6510   0.6550   0.6561   0.6603   0.6620   0.6663   0.6813
     0.6894   0.6976   0.7144   0.7157   0.7311   0.7333   0.7340   0.7384
     0.7431   0.7566   0.7632   0.7652   0.7676   0.7704   0.7734   0.7757
     0.7827   0.7932   0.7944   0.7975   0.8059   0.8082   0.8136   0.8159
     0.8388   0.8437   0.8448   0.8483   0.8545   0.8712   0.8726   0.8820
     0.8835   0.8840   0.8866   0.8892   0.8906   0.8956   0.8970   0.8998
     0.9176   0.9305   0.9331   0.9422   0.9446   0.9478   0.9564   0.9615
     0.9644   0.9803   0.9822   0.9824   0.9846   0.9892   0.9915   0.9945
     1.0047   1.0094   1.0098   1.0115   1.0117   1.0127   1.0138   1.0159
     1.0180   1.0211   1.0246   1.0252   1.0307   1.0323   1.0433   1.0514
     1.0571   1.0595   1.0608   1.0613   1.0643   1.0647   1.0703   1.0819
     1.0823   1.0873   1.0957   1.0995   1.1009   1.1022   1.1134   1.1229
     1.1242   1.1278   1.1321   1.1342   1.1398   1.1451   1.1497   1.1510
     1.1525   1.1683   1.1772   1.1779   1.1807   1.1830   1.1904   1.2128
     1.2246   1.2256   1.2338   1.2355   1.2373   1.2430   1.2445   1.2452
     1.2459   1.2542   1.2628   1.2645   1.2678   1.2707   1.2712   1.2723
     1.2827   1.2894   1.2909   1.2914   1.2966   1.3012   1.3021   1.3035
     1.3045   1.3053   1.3081   1.3139   1.3187   1.3188   1.3249   1.3324
     1.3390   1.3412   1.3437   1.3471   1.3500   1.3510   1.3585   1.3659
     1.3710   1.3728   1.3732   1.3741   1.3912   1.3917   1.4000   1.4090
     1.4106   1.4139   1.4158   1.4169   1.4177   1.4193   1.4209   1.4259
     1.4268   1.4326   1.4332   1.4354   1.4518   1.4540   1.4548   1.4582
     1.4598   1.4618   1.4664   1.4751   1.4754   1.4834   1.4863   1.4928
     1.4985   1.5005   1.5009   1.5066   1.5069   1.5106   1.5373   1.5452
     1.5511   1.5714   1.5741   1.6147   1.6148   1.6209   1.6338   1.6590
     1.6617   1.7367   1.7492   1.7557   1.7688   1.7696   1.7911   1.8195
     1.8293   1.8911   2.0220   2.0311   2.0583   2.0744   2.0921   2.1709
     2.1872   2.2281   2.2863   2.5438   2.5497   2.5634   2.5657   2.9672
     2.9674   3.0126   3.1833   3.1837   3.2102   3.2103   3.2531   3.3020
     3.4501   3.4521   3.5161   3.5701   3.6056   3.6161   3.6410   3.6805
     3.6871   3.6964   3.7209   3.7848   3.8324   3.8715   3.9278   3.9932
     4.0999   4.1442   4.1719   4.2640   4.2690   4.3121   4.3338   4.5479
     4.7706   4.8084   4.8116   4.9957   5.1490   5.2113   5.2323   5.2374
     5.2491   5.3718   5.4503   5.4816   5.4970   5.5197   5.5395   5.5622
     5.5978   5.6366   5.6553   5.7222   5.7568   5.8169   5.8532   5.8758
     5.9992   6.0055   6.0161   6.0269   6.3173   6.5140   6.6278   6.6904
     6.7086   6.7324   6.7434   6.7649   6.8578   6.9092   7.0055   7.0183
     7.0346   7.0521   7.0609   7.2137   7.2675   7.2769   7.3147   7.3737
     7.4629   7.5199   7.5561   7.6112   7.7012   7.7711   7.7802   7.8039
     7.8741   7.9971   8.0076   8.0315   8.0817   8.0951   8.1679   8.2069
     8.2566   8.3030   8.3149   8.3675   8.3841   8.4139   8.4744   8.5071
     8.6215   8.6514   8.9328   8.9522   8.9873   8.9893   9.0270   9.0946
     9.1322   9.1642   9.1760   9.1859   9.2008   9.2304   9.2645   9.3273
     9.3763   9.4123   9.4361   9.4431   9.4615   9.4796   9.5717   9.6852
     9.7027   9.7156   9.7387   9.8144   9.8211   9.8443   9.8665

          k = 0.2500-0.2165 0.0000 (256316 PWs)   bands (ev):

   -17.2016 -16.1240 -15.7977 -15.4902 -15.4073 -15.1352 -14.6266 -14.5136
   -14.2056 -14.0695 -13.6878 -13.2103 -13.1968 -13.1155 -12.6802 -12.6103
   -12.1354 -12.0126 -11.4796 -11.3706 -11.2635 -11.1081 -10.9152 -10.5629
    -9.8017  -9.7279  -9.3687  -9.3413  -9.1045  -9.0279  -8.6487  -8.5666
    -8.4366  -8.3791  -7.2927  -7.0148  -6.7944  -6.6425  -6.5577  -6.4544
    -6.3919  -6.2818  -6.1101  -6.0750  -5.7270  -5.7131  -5.3980  -5.2579
    -5.2161  -5.0315  -4.9309  -4.8197  -4.6807  -4.6785  -4.5578  -4.5363
    -4.4817  -4.3584  -4.3548  -4.3087  -4.1655  -4.1438  -4.1026  -3.9951
    -3.8888  -3.8018  -3.7377  -3.6590  -3.5940  -3.5793  -3.4838  -3.4631
    -3.4619  -3.4489  -3.3845  -3.2820  -3.2546  -3.1488  -3.1355  -3.0773
    -3.0317  -2.9848  -2.9389  -2.9181  -2.9177  -2.9077  -2.8298  -2.8094
    -2.7239  -2.6694  -2.5866  -2.5010  -2.3405  -2.3220  -2.3170  -2.2750
    -2.1930  -2.1862  -2.1764  -2.1763  -2.0891  -2.0768  -2.0186  -2.0171
    -1.9838  -1.9782  -1.9733  -1.9617  -1.8784  -1.8376  -1.8222  -1.8206
    -1.8200  -1.7895  -1.7596  -1.7494  -1.7439  -1.7318  -1.7263  -1.7175
    -1.7171  -1.7043  -1.6861  -1.6839  -1.6839  -1.6831  -1.6746  -1.6745
    -1.5900  -1.5896  -1.5754  -1.4780  -1.4720  -1.3809  -1.3757  -1.3744
    -1.3642  -1.3380  -1.3375  -1.2900  -1.2856  -1.2849  -1.2708  -1.2706
    -1.2577  -1.2570  -1.2517  -1.2504  -1.2328  -1.2323  -1.2207  -1.2206
    -1.2151  -1.2109  -1.2056  -1.2025  -1.1949  -1.1949  -1.1737  -1.1430
    -1.1427  -1.1340  -1.1334  -1.1260  -1.1221  -1.1185  -1.1171  -1.1029
    -1.0893  -1.0762  -1.0475  -1.0473  -1.0419  -1.0387  -1.0281  -1.0226
    -1.0041  -1.0040  -0.9858  -0.9842  -0.9701  -0.9695  -0.9657  -0.9647
    -0.9615  -0.9586  -0.9439  -0.9328  -0.9326  -0.9234  -0.9119  -0.9035
    -0.8761  -0.8760  -0.8706  -0.8704  -0.8677  -0.8104  -0.7873  -0.7867
    -0.7816  -0.7811  -0.7797  -0.7757  -0.7349  -0.7324  -0.7211  -0.7210
    -0.7143  -0.7141  -0.7049  -0.7027  -0.6843  -0.6645  -0.6613  -0.6607
    -0.6241  -0.6234  -0.5783  -0.5750  -0.5749  -0.5735  -0.5703  -0.5647
    -0.5431  -0.5427  -0.5292  -0.5289  -0.5110  -0.5094  -0.5073  -0.4961
    -0.4959  -0.4796  -0.4724  -0.4660  -0.4612  -0.4607  -0.4513  -0.4511
    -0.4172  -0.4169  -0.4137  -0.4043  -0.4011  -0.3930  -0.3888  -0.3863
    -0.3759  -0.3758  -0.3708  -0.3706  -0.3634  -0.3623  -0.3603  -0.3601
    -0.3424  -0.3422  -0.3258  -0.3257  -0.3032  -0.2971  -0.2839  -0.2823
    -0.2685  -0.2639  -0.2485  -0.2485  -0.2420  -0.2373  -0.2276  -0.2272
    -0.2208  -0.2204  -0.1960  -0.1887  -0.1628  -0.1618  -0.1555  -0.1317
    -0.1193  -0.1169  -0.1169  -0.1149  -0.1130  -0.0974  -0.0954  -0.0857
    -0.0783  -0.0779  -0.0675  -0.0645  -0.0606  -0.0593  -0.0527  -0.0517
    -0.0516  -0.0510  -0.0247  -0.0228  -0.0210  -0.0131  -0.0121  -0.0116
    -0.0112  -0.0096  -0.0092  -0.0073  -0.0027  -0.0002   0.0145   0.0223
     0.0224   0.0231   0.0241   0.0534   0.0547   0.0609   0.0633   0.0688
     0.0708   0.0861   0.0894   0.1003   0.1144   0.1204   0.1233   0.1267
     0.1323   0.1331   0.1428   0.1430   0.1475   0.1481   0.1605   0.1606
     0.1676   0.1686   0.1950   0.1957   0.2571   0.2585   0.2700   0.2729
     0.2734   0.2746   0.2759   0.2765   0.2784   0.2799   0.2827   0.2853
     0.3046   0.3090   0.3091   0.3096   0.3151   0.3191   0.3219   0.3247
     0.3261   0.3264   0.3573   0.3588   0.3624   0.3683   0.3697   0.3815
     0.3925   0.3927   0.4047   0.4242   0.4269   0.4426   0.4438   0.4489
     0.4492   0.4525   0.4602   0.4605   0.4665   0.4683   0.4707   0.4721
     0.4730   0.4738   0.4960   0.4992   0.5040   0.5084   0.5192   0.5244
     0.5365   0.5566   0.5572   0.5573   0.5595   0.5645   0.5909   0.5922
     0.5928   0.5960   0.5989   0.5992   0.6016   0.6051   0.6082   0.6096
     0.6158   0.6167   0.6299   0.6304   0.6402   0.6406   0.6478   0.6494
     0.6589   0.6589   0.6629   0.6630   0.6704   0.6741   0.6757   0.6797
     0.6806   0.6812   0.6943   0.6975   0.7017   0.7030   0.7042   0.7046
     0.7068   0.7088   0.7129   0.7136   0.7471   0.7475   0.7587   0.7600
     0.7700   0.7748   0.7950   0.7985   0.8135   0.8138   0.8168   0.8172
     0.8192   0.8208   0.8388   0.8449   0.8455   0.8461   0.8464   0.8474
     0.8478   0.8585   0.8601   0.8627   0.8730   0.8740   0.8859   0.8862
     0.8924   0.8981   0.9200   0.9203   0.9275   0.9372   0.9380   0.9393
     0.9450   0.9485   0.9562   0.9567   0.9635   0.9636   0.9731   0.9893
     0.9918   0.9939   1.0069   1.0080   1.0089   1.0172   1.0271   1.0285
     1.0410   1.0431   1.0500   1.0583   1.0697   1.0707   1.0784   1.0788
     1.0814   1.0815   1.0834   1.0839   1.0853   1.0855   1.0960   1.0964
     1.1033   1.1064   1.1086   1.1111   1.1262   1.1283   1.1533   1.1546
     1.1568   1.1591   1.1604   1.1626   1.1667   1.1689   1.1731   1.1746
     1.1769   1.1810   1.1816   1.1818   1.1851   1.1874   1.1927   1.1956
     1.2005   1.2035   1.2098   1.2110   1.2149   1.2156   1.2163   1.2165
     1.2355   1.2363   1.2367   1.2454   1.2593   1.2611   1.2689   1.2697
     1.2732   1.2834   1.2836   1.2864   1.3002   1.3010   1.3039   1.3108
     1.3140   1.3191   1.3220   1.3225   1.3246   1.3258   1.3353   1.3377
     1.3385   1.3400   1.3490   1.3495   1.3534   1.3627   1.3704   1.3725
     1.3728   1.3736   1.3741   1.3745   1.3832   1.3841   1.3905   1.3941
     1.3943   1.3996   1.4008   1.4093   1.4108   1.4135   1.4223   1.4259
     1.4284   1.4292   1.4294   1.4340   1.4342   1.4355   1.4381   1.4419
     1.4453   1.4456   1.4698   1.4698   1.4780   1.4785   1.4872   1.4926
     1.5019   1.5099   1.5163   1.5175   1.5175   1.5409   1.5413   1.5483
     1.5486   1.5743   1.5764   1.5821   1.5994   1.6402   1.6618   1.6640
     1.7051   1.7444   1.7501   1.7709   1.7730   1.7740   1.7785   1.7989
     1.8224   1.8273   1.8469   1.8567   2.1157   2.1168   2.1484   2.1489
     2.2773   2.2840   2.5741   2.5747   2.7616   2.7642   2.7781   2.7829
     2.7867   2.7884   2.8334   2.8432   2.9720   2.9724   3.0743   3.0852
     3.5208   3.5321   3.6026   3.6179   3.6606   3.6894   3.7213   3.8211
     3.8226   3.8260   3.8566   3.9618   3.9844   4.0438   4.0597   4.1436
     4.1501   4.2429   4.3196   4.3780   4.3983   4.4953   4.5001   4.5932
     4.6625   4.6688   4.6838   4.7495   4.8835   4.8920   5.0160   5.0704
     5.0881   5.1362   5.2658   5.2841   5.4008   5.4283   5.4356   5.4471
     5.4504   5.4672   5.7304   5.7476   5.7753   5.8915   5.8973   5.9205
     5.9400   5.9464   6.5416   6.5537   6.6350   6.6508   6.6804   6.7445
     6.7654   6.8582   6.8843   6.8940   6.9943   7.0095   7.0271   7.0946
     7.1017   7.1303   7.1367   7.2128   7.2152   7.2268   7.3115   7.3143
     7.3468   7.3748   7.4387   7.4445   7.6516   7.6688   7.6988   7.7195
     7.7857   7.8838   7.9862   8.0051   8.0920   8.1753   8.1924   8.2369
     8.2387   8.2481   8.5819   8.5984   8.6067   8.6117   8.6437   8.6447
     8.7017   8.7024   8.8215   8.8399   8.8910   8.9192   8.9284   8.9398
     8.9648   9.0567   9.1106   9.1363   9.1374   9.1581   9.1850   9.2018
     9.2420   9.2465   9.2548   9.2718   9.3367   9.3509   9.4314   9.4362
     9.4605   9.4891   9.6304   9.6310   9.8850   9.9578   9.9710

          k =-0.5000 0.0000 0.0000 (256496 PWs)   bands (ev):

   -17.1406 -15.9605 -15.7046 -15.6042 -15.5225 -15.4505 -14.7663 -14.5424
   -14.5063 -14.3860 -13.1755 -12.8525 -12.7497 -12.6588 -12.4186 -12.4124
   -11.8861 -11.8504 -11.7033 -11.6739 -11.1869 -11.1526 -11.0015 -10.7994
   -10.2766 -10.2574  -9.9914  -9.6785  -9.1439  -9.1324  -8.9332  -8.8807
    -7.8052  -7.6539  -7.6155  -7.4203  -7.3854  -7.3428  -6.2910  -6.1591
    -5.8062  -5.3552  -5.3193  -5.2845  -5.1634  -5.0317  -4.9039  -4.8532
    -4.8217  -4.8061  -4.8048  -4.7942  -4.7907  -4.7357  -4.6787  -4.6398
    -4.6243  -4.5919  -4.5269  -4.4335  -4.3532  -4.3202  -4.3133  -4.1420
    -3.9944  -3.9691  -3.9238  -3.9063  -3.7082  -3.6613  -3.5905  -3.5802
    -3.5327  -3.5078  -3.4476  -3.4296  -3.4275  -3.4260  -3.4254  -3.4244
    -3.3458  -3.3231  -2.9207  -2.9202  -2.8746  -2.8285  -2.7929  -2.7784
    -2.7749  -2.7461  -2.6222  -2.6164  -2.5764  -2.4598  -2.4589  -2.3991
    -2.3219  -2.3217  -2.2989  -2.2935  -1.8883  -1.8874  -1.8863  -1.8862
    -1.8847  -1.8846  -1.8573  -1.8278  -1.7777  -1.7665  -1.7649  -1.7584
    -1.6934  -1.6610  -1.6604  -1.6583  -1.6581  -1.6110  -1.6108  -1.6092
    -1.6087  -1.5490  -1.5394  -1.5204  -1.5138  -1.5039  -1.4958  -1.4952
    -1.4468  -1.4322  -1.4315  -1.4314  -1.4146  -1.4134  -1.3646  -1.3646
    -1.3633  -1.3630  -1.3610  -1.3553  -1.3544  -1.3512  -1.3462  -1.3418
    -1.3026  -1.3002  -1.3000  -1.2990  -1.2856  -1.2793  -1.2741  -1.2737
    -1.2553  -1.2124  -1.2124  -1.1921  -1.1914  -1.1895  -1.1895  -1.1752
    -1.1684  -1.1647  -1.1629  -1.1606  -1.1530  -1.1528  -1.1175  -1.1167
    -1.1142  -1.1142  -1.1020  -1.0936  -1.0934  -1.0635  -1.0635  -1.0227
    -1.0183  -1.0173  -1.0063  -0.9888  -0.9885  -0.9879  -0.9876  -0.9623
    -0.9607  -0.9601  -0.9546  -0.9485  -0.9456  -0.9442  -0.9406  -0.9403
    -0.9364  -0.9364  -0.9140  -0.9136  -0.8843  -0.8525  -0.8493  -0.8476
    -0.8473  -0.8033  -0.8031  -0.7258  -0.7218  -0.7191  -0.7191  -0.7178
    -0.7059  -0.6817  -0.6812  -0.6808  -0.6807  -0.6780  -0.6779  -0.6592
    -0.6547  -0.6534  -0.6380  -0.6360  -0.6359  -0.6280  -0.6190  -0.6110
    -0.6042  -0.6007  -0.5813  -0.5339  -0.5287  -0.5270  -0.4983  -0.4929
    -0.4658  -0.4656  -0.4616  -0.4548  -0.4402  -0.4268  -0.4240  -0.4150
    -0.4145  -0.4129  -0.4124  -0.4077  -0.4068  -0.4062  -0.3770  -0.3764
    -0.3750  -0.3746  -0.3398  -0.3396  -0.3373  -0.3367  -0.3224  -0.3044
    -0.3037  -0.3037  -0.3028  -0.2923  -0.2923  -0.2588  -0.2587  -0.2580
    -0.2580  -0.2535  -0.2510  -0.2426  -0.2365  -0.2355  -0.2112  -0.2062
    -0.1730  -0.1527  -0.1433  -0.1430  -0.1419  -0.1377  -0.1375  -0.1362
    -0.1362  -0.1273  -0.0982  -0.0975  -0.0951  -0.0947  -0.0626  -0.0624
    -0.0334  -0.0331  -0.0318  -0.0315  -0.0311  -0.0297  -0.0292  -0.0291
    -0.0286  -0.0283  -0.0272  -0.0271  -0.0025   0.0348   0.0509   0.0515
     0.0618   0.0622   0.0638   0.0639   0.0650   0.0655   0.0669   0.0697
     0.0698   0.0706   0.0735   0.0750   0.0844   0.0860   0.0945   0.0945
     0.1089   0.1089   0.1091   0.1094   0.1095   0.1099   0.1193   0.1195
     0.1199   0.1199   0.1252   0.1304   0.1325   0.1331   0.1447   0.1450
     0.1470   0.1490   0.1594   0.1623   0.1743   0.1748   0.2749   0.2750
     0.2771   0.2772   0.3092   0.3100   0.3107   0.3113   0.3204   0.3239
     0.3256   0.3270   0.3345   0.3347   0.3364   0.3366   0.3369   0.3374
     0.3407   0.3420   0.3446   0.3457   0.3500   0.3560   0.3586   0.3588
     0.3784   0.3801   0.3831   0.3835   0.3859   0.3866   0.3901   0.3930
     0.3931   0.3980   0.4610   0.4744   0.4837   0.4838   0.4840   0.4887
     0.4949   0.4966   0.5114   0.5115   0.5147   0.5151   0.5157   0.5179
     0.5186   0.5189   0.5240   0.5247   0.5271   0.5274   0.5299   0.5304
     0.5339   0.5340   0.5355   0.5359   0.5538   0.5568   0.5726   0.5733
     0.5835   0.5888   0.6020   0.6025   0.6081   0.6095   0.6168   0.6179
     0.6198   0.6229   0.6245   0.6248   0.6254   0.6269   0.6385   0.6386
     0.6448   0.6456   0.6560   0.6570   0.6641   0.6648   0.6943   0.6950
     0.6977   0.6981   0.6995   0.6997   0.7162   0.7165   0.7471   0.7485
     0.7530   0.7532   0.7556   0.7566   0.7590   0.7592   0.7745   0.7972
     0.8269   0.8281   0.8321   0.8327   0.8328   0.8333   0.8377   0.8400
     0.8409   0.8410   0.8428   0.8434   0.8560   0.8570   0.8767   0.8767
     0.8774   0.8776   0.8826   0.8848   0.8929   0.8935   0.8970   0.8972
     0.8991   0.8992   0.9361   0.9390   0.9422   0.9446   0.9700   0.9835
     1.0043   1.0048   1.0051   1.0056   1.0296   1.0327   1.0373   1.0384
     1.0390   1.0431   1.0520   1.0546   1.0671   1.0679   1.0702   1.0770
     1.0800   1.0881   1.0948   1.1008   1.1062   1.1063   1.1085   1.1087
     1.1102   1.1109   1.1164   1.1175   1.1226   1.1237   1.1269   1.1272
     1.1284   1.1301   1.1314   1.1318   1.1681   1.1681   1.1683   1.1696
     1.1856   1.1903   1.1941   1.1948   1.1973   1.2032   1.2033   1.2073
     1.2214   1.2215   1.2291   1.2313   1.2336   1.2337   1.2365   1.2374
     1.2415   1.2420   1.2452   1.2517   1.2557   1.2639   1.2641   1.2705
     1.2892   1.2895   1.3030   1.3053   1.3060   1.3072   1.3072   1.3086
     1.3102   1.3103   1.3119   1.3170   1.3201   1.3202   1.3203   1.3221
     1.3244   1.3249   1.3295   1.3311   1.3317   1.3333   1.3334   1.3341
     1.3398   1.3418   1.3552   1.3556   1.3706   1.3718   1.3803   1.3803
     1.3818   1.3819   1.3876   1.4010   1.4015   1.4019   1.4056   1.4057
     1.4194   1.4196   1.4205   1.4271   1.4276   1.4290   1.4382   1.4388
     1.4511   1.4591   1.4591   1.4649   1.4658   1.4683   1.4690   1.4691
     1.4691   1.4743   1.4784   1.4843   1.4872   1.4879   1.5044   1.5046
     1.5055   1.5056   1.5111   1.5155   1.5156   1.5227   1.5649   1.5653
     1.5917   1.5973   1.5977   1.6018   1.6018   1.6227   2.0149   2.0174
     2.0347   2.0510   2.2224   2.2276   2.2537   2.2605   2.2740   2.2745
     2.2825   2.2833   2.5893   2.5915   2.6441   2.6538   2.8137   2.8157
     2.8260   2.8303   3.1712   3.1716   3.1798   3.1813   3.4522   3.4629
     3.6490   3.7086   3.7537   3.7650   3.8628   3.8899   3.8910   3.9206
     3.9684   4.0370   4.0411   4.0754   4.0781   4.1975   4.2029   4.3828
     4.4144   4.4421   4.6979   4.7005   4.7627   4.7889   4.8096   4.8263
     4.8300   4.8357   4.8756   4.9067   5.0100   5.0131   5.0172   5.0205
     5.0292   5.0343   5.0527   5.0617   5.0932   5.1021   5.1595   5.2337
     5.4608   5.4841   5.5350   5.5526   5.6372   5.6537   5.6806   5.6924
     5.9603   5.9752   5.9869   5.9911   6.0140   6.0629   6.0754   6.0922
     6.0943   6.2556   6.3313   6.3742   6.3772   6.4029   6.5207   6.5374
     7.0821   7.0839   7.1088   7.1338   7.1433   7.1518   7.5670   7.5875
     7.5878   7.5983   7.6057   7.6126   7.6141   7.6615   7.8036   7.8078
     7.8609   7.8620   7.8873   7.8920   7.9909   7.9943   8.0124   8.0146
     8.1300   8.1503   8.1517   8.1885   8.2122   8.2202   8.6235   8.6779
     8.7340   8.7537   8.7614   8.8218   8.8247   8.8300   8.8320   8.9893
     8.9903   9.0554   9.0739   9.0799   9.0866   9.1190   9.1784   9.2445
     9.2453   9.2494   9.4620   9.4813   9.4952   9.4958   9.4976   9.4998
     9.5032   9.5289   9.5434   9.5872   9.8042   9.8247   9.9024

          k =-0.5000-0.2165 0.0000 (256328 PWs)   bands (ev):

   -17.1405 -15.9318 -15.7619 -15.7435 -15.2901 -15.1719 -15.0827 -15.0639
   -13.9995 -13.7911 -13.6626 -13.6318 -12.6350 -12.4446 -11.9530 -11.9260
   -11.8878 -11.7358 -11.6535 -11.5854 -11.4797 -11.4457 -11.3943 -11.3242
    -9.9947  -9.9828  -9.7409  -9.6693  -9.2033  -8.8746  -8.7755  -8.7336
    -8.2530  -8.2194  -8.0161  -8.0049  -6.5215  -6.3379  -6.1560  -5.9655
    -5.8666  -5.6007  -5.3697  -5.2872  -5.2613  -5.2522  -5.1912  -5.1889
    -5.1885  -5.1563  -5.0028  -4.9432  -4.9322  -4.4466  -4.4206  -4.3555
    -4.3372  -4.2948  -4.2119  -4.2049  -4.2018  -4.2018  -4.2009  -4.1681
    -4.0688  -4.0473  -3.9221  -3.8772  -3.8655  -3.8624  -3.6943  -3.6807
    -3.6776  -3.6580  -3.6390  -3.5879  -3.5145  -3.4709  -3.4460  -3.4325
    -3.1590  -3.0811  -3.0557  -3.0525  -2.6632  -2.6165  -2.5882  -2.5868
    -2.5867  -2.5862  -2.5503  -2.5355  -2.5256  -2.5219  -2.4429  -2.3940
    -2.1787  -2.1296  -2.1150  -2.1086  -2.1014  -2.0780  -2.0610  -2.0364
    -2.0273  -2.0219  -2.0213  -1.9969  -1.9264  -1.8113  -1.8107  -1.8100
    -1.8093  -1.7712  -1.7431  -1.7382  -1.5725  -1.5380  -1.5254  -1.5250
    -1.5011  -1.5010  -1.5009  -1.5009  -1.4733  -1.4521  -1.4515  -1.4484
    -1.4415  -1.4404  -1.4399  -1.4390  -1.3925  -1.3925  -1.3921  -1.3919
    -1.3900  -1.3900  -1.3891  -1.3891  -1.3661  -1.3660  -1.3659  -1.3659
    -1.3261  -1.3184  -1.3164  -1.3157  -1.3140  -1.2479  -1.2426  -1.2417
    -1.2404  -1.1987  -1.1986  -1.1984  -1.1984  -1.1827  -1.1807  -1.1801
    -1.1796  -1.1348  -1.1343  -1.1314  -1.1307  -1.1263  -1.1240  -1.1235
    -1.1233  -1.1213  -1.1189  -1.1151  -1.1086  -1.0653  -1.0650  -1.0646
    -1.0643  -1.0502  -1.0480  -1.0477  -1.0477  -1.0464  -1.0456  -1.0450
    -1.0450  -1.0450  -1.0095  -1.0006  -0.8932  -0.8925  -0.8916  -0.8914
    -0.8609  -0.8607  -0.8604  -0.8604  -0.8197  -0.7794  -0.7788  -0.7781
    -0.7781  -0.7766  -0.7751  -0.7727  -0.7720  -0.7716  -0.7710  -0.7694
    -0.7129  -0.7083  -0.7079  -0.7078  -0.7032  -0.6977  -0.6962  -0.6957
    -0.6900  -0.6797  -0.6769  -0.6761  -0.6633  -0.6248  -0.5992  -0.5889
    -0.5737  -0.5712  -0.5707  -0.5694  -0.5151  -0.5073  -0.5071  -0.5071
    -0.5021  -0.4630  -0.4585  -0.4577  -0.4507  -0.4380  -0.4371  -0.4369
    -0.4368  -0.4321  -0.4163  -0.4105  -0.3980  -0.3979  -0.3970  -0.3969
    -0.3760  -0.3589  -0.3587  -0.3566  -0.3434  -0.2818  -0.2818  -0.2812
    -0.2812  -0.2658  -0.2658  -0.2653  -0.2652  -0.2532  -0.2488  -0.2482
    -0.2467  -0.1851  -0.1672  -0.1664  -0.1659  -0.1655  -0.1623  -0.1623
    -0.1617  -0.1617  -0.1604  -0.1585  -0.1528  -0.1314  -0.1202  -0.1202
    -0.1201  -0.1199  -0.1078  -0.1076  -0.1074  -0.1069  -0.1042  -0.1041
    -0.1039  -0.1035  -0.0384  -0.0363  -0.0345  -0.0345  -0.0169  -0.0095
    -0.0071  -0.0067   0.0022   0.0343   0.0404   0.0425   0.0461   0.0536
     0.0713   0.0715   0.0719   0.0723   0.0757   0.0790   0.0802   0.0804
     0.0842   0.0888   0.0891   0.0893   0.0917   0.0941   0.0955   0.0982
     0.0989   0.0989   0.0990   0.0994   0.1153   0.1156   0.1157   0.1167
     0.1426   0.1426   0.1429   0.1429   0.1518   0.1529   0.1530   0.1534
     0.1633   0.2028   0.2028   0.2036   0.2036   0.2332   0.2352   0.2354
     0.2365   0.2490   0.2745   0.2810   0.2936   0.3031   0.3159   0.3174
     0.3198   0.3200   0.3239   0.3240   0.3387   0.3394   0.3422   0.3423
     0.3527   0.3528   0.3537   0.3537   0.3596   0.3599   0.3602   0.3606
     0.3640   0.3671   0.3725   0.3728   0.4126   0.4142   0.4272   0.4369
     0.4442   0.4454   0.4455   0.4470   0.4519   0.4529   0.4583   0.4603
     0.4621   0.4626   0.4649   0.4772   0.4956   0.4975   0.4996   0.5011
     0.5036   0.5037   0.5041   0.5089   0.5422   0.5431   0.5434   0.5442
     0.5468   0.5555   0.5565   0.5589   0.5598   0.5602   0.5607   0.5620
     0.5669   0.5670   0.5682   0.5683   0.5813   0.5826   0.5832   0.5834
     0.5938   0.5970   0.5990   0.6003   0.6606   0.6641   0.6648   0.6655
     0.6688   0.6722   0.6733   0.6747   0.6750   0.6765   0.6772   0.6792
     0.6862   0.6959   0.7030   0.7060   0.7201   0.7203   0.7209   0.7210
     0.7219   0.7227   0.7235   0.7237   0.7682   0.7729   0.7765   0.7770
     0.8012   0.8016   0.8031   0.8033   0.8059   0.8093   0.8235   0.8306
     0.8389   0.8391   0.8397   0.8398   0.8642   0.8656   0.8679   0.8679
     0.9167   0.9167   0.9173   0.9174   0.9462   0.9467   0.9478   0.9479
     0.9971   0.9977   0.9992   1.0013   1.0044   1.0105   1.0146   1.0151
     1.0219   1.0269   1.0279   1.0290   1.0354   1.0355   1.0356   1.0356
     1.0386   1.0390   1.0401   1.0407   1.0420   1.0495   1.0516   1.0546
     1.0585   1.0654   1.0664   1.0683   1.0736   1.0740   1.0762   1.0778
     1.0867   1.0898   1.0970   1.0988   1.1112   1.1121   1.1136   1.1140
     1.1172   1.1199   1.1279   1.1289   1.1348   1.1353   1.1360   1.1375
     1.1782   1.1784   1.1793   1.1828   1.1840   1.1850   1.1861   1.1873
     1.2109   1.2126   1.2129   1.2138   1.2238   1.2338   1.2349   1.2380
     1.2391   1.2392   1.2491   1.2540   1.2602   1.2603   1.2606   1.2613
     1.2708   1.2713   1.2716   1.2724   1.2777   1.2777   1.2787   1.2792
     1.3376   1.3426   1.3428   1.3432   1.3433   1.3437   1.3441   1.3447
     1.3449   1.3480   1.3502   1.3505   1.3562   1.3606   1.3622   1.3636
     1.3644   1.3728   1.3755   1.3759   1.3762   1.3771   1.3772   1.3783
     1.3852   1.3861   1.3865   1.3865   1.3898   1.3932   1.3957   1.3960
     1.4068   1.4116   1.4123   1.4130   1.4408   1.4421   1.4421   1.4428
     1.4535   1.4560   1.4580   1.4582   1.4649   1.4666   1.4691   1.4695
     1.4877   1.4923   1.4944   1.4951   1.5268   1.5381   1.5437   1.5442
     1.5639   1.5641   1.5644   1.5645   1.5917   1.5929   1.5947   1.5961
     1.6052   1.6058   1.6065   1.6066   1.6083   1.6257   1.6259   1.6270
     1.8224   1.8252   1.8262   1.8272   2.3315   2.3407   2.3466   2.3478
     2.5455   2.5494   2.5514   2.5525   2.7745   2.7825   2.7839   2.7850
     3.0814   3.0980   3.0990   3.1006   3.4397   3.4431   3.4432   3.4436
     3.6218   3.6299   3.6300   3.6341   3.8733   3.9171   3.9194   3.9196
     3.9497   4.2105   4.2106   4.2129   4.2222   4.3171   4.3240   4.3389
     4.3397   4.4489   4.4807   4.5040   4.5136   4.5278   4.5691   4.5742
     4.6582   4.7785   4.8347   4.8611   4.8772   5.0136   5.0481   5.0565
     5.1577   5.1668   5.1784   5.1825   5.1978   5.2284   5.2360   5.2710
     5.3743   5.3790   5.3805   5.3841   5.4669   5.5400   5.6295   5.6388
     5.7416   5.7501   5.7511   5.7528   5.8636   5.8926   5.9101   5.9149
     6.7726   6.7739   6.7741   6.7746   7.0815   7.1070   7.1111   7.1147
     7.1159   7.1196   7.1210   7.1253   7.2530   7.2958   7.2993   7.3014
     7.3392   7.3613   7.3614   7.3632   7.4168   7.5914   7.6116   7.6232
     7.6391   7.6815   7.6890   7.7343   8.0037   8.0772   8.0973   8.1414
     8.2172   8.2254   8.2311   8.2362   8.2644   8.3108   8.3798   8.3834
     8.8835   8.8893   8.8896   8.8908   8.9140   8.9155   8.9168   8.9181
     8.9542   8.9578   8.9585   8.9618   9.1092   9.1139   9.1211   9.1215
     9.3218   9.3477   9.3569   9.3633   9.4769   9.4944   9.5084   9.5113
     9.5702   9.6014   9.6154   9.6210   9.9110   9.9259   9.9517

     the Fermi energy is     3.3134 ev

!    total energy              =  -12707.07753961 Ry
     Harris-Foulkes estimate   =  -12707.07753962 Ry
     estimated scf accuracy    <          6.6E-09 Ry

     The total energy is the sum of the following terms:

     one-electron contribution = -109287.16861017 Ry
     hartree contribution      =   56004.62521534 Ry
     xc contribution           =   -4447.43475736 Ry
     ewald contribution        =   45029.24499359 Ry
     Dispersion Correction     =      -2.98240001 Ry
     smearing contrib. (-TS)   =      -3.36198101 Ry

     convergence has been achieved in  48 iterations

     Writing output data file gc.save
 
     init_run     :     97.90s CPU    105.45s WALL (       1 calls)
     electrons    :  12590.56s CPU  13478.58s WALL (       1 calls)

     Called by init_run:
     wfcinit      :     95.73s CPU    102.84s WALL (       1 calls)
     potinit      :      0.35s CPU      0.37s WALL (       1 calls)

     Called by electrons:
     c_bands      :  11534.32s CPU  12316.14s WALL (      48 calls)
     sum_band     :    882.40s CPU    959.55s WALL (      48 calls)
     v_of_rho     :      3.15s CPU      3.91s WALL (      49 calls)
     newd         :      9.22s CPU     14.96s WALL (      49 calls)
     mix_rho      :    161.30s CPU    183.96s WALL (      48 calls)

     Called by c_bands:
     init_us_2    :     39.45s CPU     40.09s WALL (     582 calls)
     cegterg      :  11359.61s CPU  12135.09s WALL (     294 calls)

     Called by sum_band:
     sum_band:bec :      4.85s CPU      5.61s WALL (     288 calls)
     addusdens    :      8.50s CPU     14.50s WALL (      48 calls)

     Called by *egterg:
     h_psi        :   4279.84s CPU   4627.35s WALL (    1944 calls)
     s_psi        :   1041.83s CPU   1053.35s WALL (    1944 calls)
     g_psi        :     10.51s CPU     10.52s WALL (    1644 calls)
     cdiaghg      :   3170.31s CPU   3294.50s WALL (    1932 calls)

     Called by h_psi:
     add_vuspsi   :   1047.34s CPU   1060.46s WALL (    1944 calls)

     General routines
     calbec       :   1464.19s CPU   1475.53s WALL (    2232 calls)
     fft          :      3.22s CPU      3.73s WALL (     636 calls)
     ffts         :     94.65s CPU    108.17s WALL (   25277 calls)
     fftw         :   2478.77s CPU   2765.94s WALL ( 1368856 calls)
     davcio       :      0.21s CPU      3.27s WALL (       6 calls)
 
     Parallel routines
     fft_scatter  :   1620.11s CPU   1772.31s WALL ( 1394769 calls)
 
     PWSCF        :     3h31m CPU        3h46m WALL

 
   This run was terminated on:   1:20:20  15Mar2017            

=------------------------------------------------------------------------------=
   JOB DONE.
=------------------------------------------------------------------------------=
