mpirun: INFO: switching to OpenMPI runtime version 1.10.2

     Program PWSCF v.5.4.0 starts on 25Oct2017 at 19: 1:22 

     This program is part of the open-source Quantum ESPRESSO suite
     for quantum simulation of materials; please cite
         "P. Giannozzi et al., J. Phys.:Condens. Matter 21 395502 (2009);
          URL http://www.quantum-espresso.org", 
     in publications or presentations arising from this work. More details at
     http://www.quantum-espresso.org/quote

     Parallel version (MPI & OpenMP), running on      28 processor cores
     Number of MPI processes:                28
     Threads/MPI process:                     1
     R & G space division:  proc/nbgrp/npool/nimage =      28
     Waiting for input...
     Reading input from standard input
Warning: card &IONS ignored
Warning: card / ignored

     Current dimensions of program PWSCF are:
     Max number of different atomic species (ntypx) = 10
     Max number of k-points (npk) =  40000
     Max angular momentum in pseudopotentials (lmaxx) =  3

     Subspace diagonalization in iterative solution of the eigenvalue problem:
     one sub-group per band group will be used
     scalapack distributed-memory algorithm (size of sub-group:  3*  3 procs)

 
     Parallelization info
     --------------------
     sticks:   dense  smooth     PW     G-vecs:    dense   smooth      PW
     Min         408     408    108                73226    73226    9928
     Max         410     410    109                73231    73231    9931
     Sum       11433   11433   3039              2050409  2050409  278033
 


     bravais-lattice index     =            0
     lattice parameter (alat)  =      13.9425  a.u.
     unit-cell volume          =   21209.0878 (a.u.)^3
     number of atoms/cell      =          136
     number of atomic types    =            4
     number of electrons       =      1226.00
     number of Kohn-Sham states=          736
     kinetic-energy cutoff     =      80.0000  Ry
     charge density cutoff     =     320.0000  Ry
     convergence threshold     =      1.0E-08
     mixing beta               =       0.7000
     number of iterations used =            8  local-TF  mixing
     Exchange-correlation      =  SLA  PW   PBE  PBE ( 1  4  3  4 0 0)

     celldm(1)=  13.942539  celldm(2)=   0.000000  celldm(3)=   0.000000
     celldm(4)=   0.000000  celldm(5)=   0.000000  celldm(6)=   0.000000

     crystal axes: (cart. coord. in units of alat)
               a(1) = (   1.000000   0.000000   0.000000 )  
               a(2) = (   0.000000   2.309401   0.000000 )  
               a(3) = (   0.000000   0.000000   3.388418 )  

     reciprocal axes: (cart. coord. in units 2 pi/alat)
               b(1) = (  1.000000  0.000000  0.000000 )  
               b(2) = (  0.000000  0.433013  0.000000 )  
               b(3) = (  0.000000  0.000000  0.295123 )  


     PseudoPot. # 1 for Cu read from file:
     /home/549/hxw549/Short/pseudopotentials/Cu.pbe-n-van_ak.UPF
     MD5 check sum: 601f7c30f7467666bec936e0661ce3e1
     Pseudo is Ultrasoft + core correction, Zval = 11.0
     Generated by new atomic code, or converted to UPF format
     Using radial grid of  867 points,  6 beta functions with: 
                l(1) =   0
                l(2) =   0
                l(3) =   1
                l(4) =   1
                l(5) =   2
                l(6) =   2
     Q(r) pseudized with  8 coefficients,  rinner =    1.400   1.400   1.400
                                                       1.400   1.400

     PseudoPot. # 2 for C  read from file:
     /home/549/hxw549/Short/pseudopotentials/C.star1s-pbe-mt_gipaw.UPF
     MD5 check sum: ef0cb3dee31bd9e4ba2a832a2c716264
     Pseudo is Norm-conserving, Zval =  5.0
     Generated by new atomic code, or converted to UPF format
     Using radial grid of 1073 points,  1 beta functions with: 
                l(1) =   0

     PseudoPot. # 3 for C  read from file:
     /home/549/hxw549/Short/pseudopotentials/C.pbe-mt_gipaw.UPF
     MD5 check sum: 5ac2f21f2c440b14befe521540822c15
     Pseudo is Norm-conserving, Zval =  4.0
     Generated by new atomic code, or converted to UPF format
     Using radial grid of 1073 points,  1 beta functions with: 
                l(1) =   0

     PseudoPot. # 4 for H  read from file:
     /home/549/hxw549/Short/pseudopotentials/H.pbe-van_ak.UPF
     MD5 check sum: 077eb6d537518a38cb46c6de387227b7
     Pseudo is Ultrasoft, Zval =  1.0
     Generated by new atomic code, or converted to UPF format
     Using radial grid of  615 points,  1 beta functions with: 
                l(1) =   0
     Q(r) pseudized with  8 coefficients,  rinner =    0.800

     atomic species   valence    mass     pseudopotential
        Cu            11.00    63.54600     Cu( 1.00)
        C_h            5.00    12.01070     C ( 1.00)
        C              4.00    12.01070     C ( 1.00)
        H              1.00     1.00783     H ( 1.00)

     No symmetry found



   Cartesian axes

     site n.     atom                  positions (alat units)
         1           Cu  tau(   1) = (   0.0000000  -0.0014914   0.9736517  )
         2           Cu  tau(   2) = (   0.2499983   0.2301866   0.9762471  )
         3           Cu  tau(   3) = (   0.5000000  -0.0014822   0.9736152  )
         4           Cu  tau(   4) = (   0.7500017   0.2301866   0.9762471  )
         5           Cu  tau(   5) = (   0.0000000   0.4616850   0.9792157  )
         6           Cu  tau(   6) = (   0.2500429   0.6929246   0.9796771  )
         7           Cu  tau(   7) = (   0.5000000   0.4616018   0.9790403  )
         8           Cu  tau(   8) = (   0.7499571   0.6929246   0.9796771  )
         9           Cu  tau(   9) = (   0.0000000   0.9245945   0.9771986  )
        10           Cu  tau(  10) = (   0.2500221   1.1562572   0.9743969  )
        11           Cu  tau(  11) = (   0.5000000   0.9245568   0.9773438  )
        12           Cu  tau(  12) = (   0.7499779   1.1562572   0.9743969  )
        13           Cu  tau(  13) = (   0.0000000   1.3874223   0.9733422  )
        14           Cu  tau(  14) = (   0.2500514   1.6175676   0.9738570  )
        15           Cu  tau(  15) = (   0.5000000   1.3874402   0.9735983  )
        16           Cu  tau(  16) = (   0.7499486   1.6175676   0.9738570  )
        17           Cu  tau(  17) = (   0.0000000   1.8469472   0.9736215  )
        18           Cu  tau(  18) = (   0.2500102   2.0768348   0.9730047  )
        19           Cu  tau(  19) = (   0.5000000   1.8470803   0.9736481  )
        20           Cu  tau(  20) = (   0.7499898   2.0768348   0.9730047  )
        21           Cu  tau(  21) = (   0.0000000   0.2262751   1.2285023  )
        22           Cu  tau(  22) = (   0.2500338  -0.0038588   1.2262953  )
        23           Cu  tau(  23) = (   0.5000000   0.2263773   1.2286321  )
        24           Cu  tau(  24) = (   0.7499662  -0.0038588   1.2262953  )
        25           Cu  tau(  25) = (   0.0000000   0.6942787   1.2306674  )
        26           Cu  tau(  26) = (   0.2501367   0.4593783   1.2305565  )
        27           Cu  tau(  27) = (   0.5000000   0.6938646   1.2309762  )
        28           Cu  tau(  28) = (   0.7498633   0.4593783   1.2305565  )
        29           Cu  tau(  29) = (   0.0000000   1.1588958   1.2268213  )
        30           Cu  tau(  30) = (   0.2500083   0.9276693   1.2291579  )
        31           Cu  tau(  31) = (   0.5000000   1.1589515   1.2268827  )
        32           Cu  tau(  32) = (   0.7499917   0.9276693   1.2291579  )
        33           Cu  tau(  33) = (   0.0000000   1.6179017   1.2260719  )
        34           Cu  tau(  34) = (   0.2500641   1.3886024   1.2259577  )
        35           Cu  tau(  35) = (   0.5000000   1.6182088   1.2264901  )
        36           Cu  tau(  36) = (   0.7499359   1.3886024   1.2259577  )
        37           Cu  tau(  37) = (   0.0000000   2.0768392   1.2255312  )
        38           Cu  tau(  38) = (   0.2501126   1.8475832   1.2262233  )
        39           Cu  tau(  39) = (   0.5000000   2.0767104   1.2258241  )
        40           Cu  tau(  40) = (   0.7498874   1.8475832   1.2262233  )
        41           Cu  tau(  41) = (   0.0000000  -0.0056462   1.4863679  )
        42           Cu  tau(  42) = (   0.2502645   0.2241549   1.4857743  )
        43           Cu  tau(  43) = (   0.5000000  -0.0058288   1.4868451  )
        44           Cu  tau(  44) = (   0.7497355   0.2241549   1.4857743  )
        45           Cu  tau(  45) = (   0.0000000   0.4581390   1.4841226  )
        46           Cu  tau(  46) = (   0.2500875   0.6942360   1.4847796  )
        47           Cu  tau(  47) = (   0.5000000   0.4573316   1.4858865  )
        48           Cu  tau(  48) = (   0.7499125   0.6942360   1.4847796  )
        49           Cu  tau(  49) = (   0.0000000   0.9295018   1.4853126  )
        50           Cu  tau(  50) = (   0.2499837   1.1612053   1.4853461  )
        51           Cu  tau(  51) = (   0.5000000   0.9295720   1.4847694  )
        52           Cu  tau(  52) = (   0.7500163   1.1612053   1.4853461  )
        53           Cu  tau(  53) = (   0.0000000   1.3896544   1.4846884  )
        54           Cu  tau(  54) = (   0.2500658   1.6188665   1.4839950  )
        55           Cu  tau(  55) = (   0.5000000   1.3895707   1.4848760  )
        56           Cu  tau(  56) = (   0.7499342   1.6188665   1.4839950  )
        57           Cu  tau(  57) = (   0.0000000   1.8481870   1.4831406  )
        58           Cu  tau(  58) = (   0.2501237   2.0764943   1.4852448  )
        59           Cu  tau(  59) = (   0.5000000   1.8487730   1.4847055  )
        60           Cu  tau(  60) = (   0.7498763   2.0764943   1.4852448  )
        61           Cu  tau(  61) = (   0.0000000   0.2244615   1.7397658  )
        62           Cu  tau(  62) = (   0.2497592  -0.0061914   1.7478837  )
        63           Cu  tau(  63) = (   0.5000000   0.2209690   1.7438980  )
        64           Cu  tau(  64) = (   0.7502408  -0.0061914   1.7478837  )
        65           Cu  tau(  65) = (   0.0000000   0.6934666   1.7329652  )
        66           Cu  tau(  66) = (   0.2510413   0.4586992   1.7343698  )
        67           Cu  tau(  67) = (   0.5000000   0.6949367   1.7334590  )
        68           Cu  tau(  68) = (   0.7489587   0.4586992   1.7343698  )
        69           Cu  tau(  69) = (   0.0000000   1.1617524   1.7449703  )
        70           Cu  tau(  70) = (   0.2497073   0.9305327   1.7388271  )
        71           Cu  tau(  71) = (   0.5000000   1.1604571   1.7442324  )
        72           Cu  tau(  72) = (   0.7502927   0.9305327   1.7388271  )
        73           Cu  tau(  73) = (   0.0000000   1.6199499   1.7431897  )
        74           Cu  tau(  74) = (   0.2499771   1.3910114   1.7448757  )
        75           Cu  tau(  75) = (   0.5000000   1.6198654   1.7435902  )
        76           Cu  tau(  76) = (   0.7500229   1.3910114   1.7448757  )
        77           Cu  tau(  77) = (   0.0000000   2.0743023   1.7461568  )
        78           Cu  tau(  78) = (   0.2506680   1.8472304   1.7441647  )
        79           Cu  tau(  79) = (   0.5000000   2.0782793   1.7497220  )
        80           Cu  tau(  80) = (   0.7493320   1.8472304   1.7441647  )
        81           Cu  tau(  81) = (   0.0000000  -0.0035872   1.9966775  )
        82           Cu  tau(  82) = (   0.2506527   0.2316539   1.9873625  )
        83           Cu  tau(  83) = (   0.5000000  -0.0072344   2.0128457  )
        84           Cu  tau(  84) = (   0.7493473   0.2316539   1.9873625  )
        85           Cu  tau(  85) = (   0.0000000   0.4619790   1.9812933  )
        86           Cu  tau(  86) = (   0.2505696   0.6925133   1.9797913  )
        87           Cu  tau(  87) = (   0.5000000   0.4633821   1.9823321  )
        88           Cu  tau(  88) = (   0.7494304   0.6925133   1.9797913  )
        89           Cu  tau(  89) = (   0.0000000   0.9224171   1.9837615  )
        90           Cu  tau(  90) = (   0.2489148   1.1609380   1.9955542  )
        91           Cu  tau(  91) = (   0.5000000   0.9243364   1.9850401  )
        92           Cu  tau(  92) = (   0.7510852   1.1609380   1.9955542  )
        93           Cu  tau(  93) = (   0.0000000   1.3958342   1.9979256  )
        94           Cu  tau(  94) = (   0.2524771   1.6211283   1.9996679  )
        95           Cu  tau(  95) = (   0.5000000   1.3915739   1.9966302  )
        96           Cu  tau(  96) = (   0.7475229   1.6211283   1.9996679  )
        97           Cu  tau(  97) = (   0.0000000   1.8422082   2.0020329  )
        98           Cu  tau(  98) = (   0.2471763   2.0707557   2.0001997  )
        99           Cu  tau(  99) = (   0.5000000   1.8480075   2.0023488  )
       100           Cu  tau( 100) = (   0.7528237   2.0707557   2.0001997  )
       101           C   tau( 101) = (   0.0000000   0.0932712   2.4178057  )
       102           C   tau( 102) = (   0.0000000   0.2870376   2.4268265  )
       103           C   tau( 103) = (   0.1667386   0.0006191   2.4071142  )
       104           C   tau( 104) = (   0.1665766   0.3831379   2.4292388  )
       105           C   tau( 105) = (   0.3327268   0.0938411   2.4014353  )
       106           C   tau( 106) = (   0.3332886   0.2871960   2.4195552  )
       107           C   tau( 107) = (   0.5000000   0.0016358   2.3825739  )
       108           C   tau( 108) = (   0.5000000   0.3833333   2.4246501  )
       109           C   tau( 109) = (   0.6672732   0.0938411   2.4014353  )
       110           C   tau( 110) = (   0.6667114   0.2871960   2.4195552  )
       111           C   tau( 111) = (   0.8332614   0.0006191   2.4071142  )
       112           C   tau( 112) = (   0.8334234   0.3831379   2.4292388  )
       113           C   tau( 113) = (   0.0000000   0.6728306   2.4353261  )
       114           C   tau( 114) = (   0.0000000   0.8660104   2.4313164  )
       115           C   tau( 115) = (   0.1666761   0.5762223   2.4333797  )
       116           C   tau( 116) = (   0.1665471   0.9623677   2.4251897  )
       117           C   tau( 117) = (   0.3332377   0.6732182   2.4310854  )
       118           C   tau( 118) = (   0.3331508   0.8663764   2.4293980  )
       119           C   tau( 119) = (   0.5000000   0.5765454   2.4287883  )
       120           C   tau( 120) = (   0.5000000   0.9624314   2.4234238  )
       121           C   tau( 121) = (   0.6667623   0.6732182   2.4310854  )
       122           C   tau( 122) = (   0.6668492   0.8663764   2.4293980  )
       123           C   tau( 123) = (   0.8333239   0.5762223   2.4333797  )
       124           C   tau( 124) = (   0.8334529   0.9623677   2.4251897  )
       125           C   tau( 125) = (   0.0000000   1.2495009   2.4079216  )
       126           C   tau( 126) = (   0.1664296   1.1561314   2.4114772  )
       127           C_h tau( 127) = (   0.3333295   1.2487129   2.4019759  )
       128           C   tau( 128) = (   0.5000000   1.1558804   2.4089410  )
       129           C   tau( 129) = (   0.6666705   1.2487129   2.4019759  )
       130           C   tau( 130) = (   0.8335704   1.1561314   2.4114772  )
       131           H   tau( 131) = (   0.1663661  -0.1465893   2.4012107  )
       132           H   tau( 132) = (   0.5000000  -0.1456555   2.3786234  )
       133           H   tau( 133) = (   0.8336339  -0.1465893   2.4012107  )
       134           H   tau( 134) = (   0.0000000   1.3968478   2.4019960  )
       135           H   tau( 135) = (   0.3331143   1.3957368   2.3940740  )
       136           H   tau( 136) = (   0.6668857   1.3957368   2.3940740  )

     number of k points=     6  gaussian smearing, width (Ry)=  0.1000
                       cart. coord. in units 2pi/alat
        k(    1) = (   0.0000000   0.0000000   0.0000000), wk =   0.2500000
        k(    2) = (   0.0000000  -0.2165064   0.0000000), wk =   0.2500000
        k(    3) = (   0.2500000   0.0000000   0.0000000), wk =   0.5000000
        k(    4) = (   0.2500000  -0.2165064   0.0000000), wk =   0.5000000
        k(    5) = (  -0.5000000   0.0000000   0.0000000), wk =   0.2500000
        k(    6) = (  -0.5000000  -0.2165064   0.0000000), wk =   0.2500000

     Dense  grid:  2050409 G-vectors     FFT dimensions: (  80, 192, 270)

     Largest allocated arrays     est. size (Mb)     dimensions
        Kohn-Sham Wavefunctions       102.99 Mb     (    9171,  736)
        NL pseudopotentials           256.93 Mb     (    9171, 1836)
        Each V/rho on FFT grid          2.34 Mb     (  153600)
        Each G-vector array             0.56 Mb     (   73230)
        G-vector shells                 0.27 Mb     (   35784)
     Largest temporary arrays     est. size (Mb)     dimensions
        Auxiliary wavefunctions       411.98 Mb     (    9171, 2944)
        Each subspace H/S matrix       14.68 Mb     (     981,  981)
        Each <psi_i|beta_j> matrix     20.62 Mb     (    1836,  736)
        Arrays for rho mixing          18.75 Mb     (  153600,    8)

     Initial potential from superposition of free atoms
     Check: negative starting charge=   -0.001990

     starting charge 1209.81748, renormalised to 1226.00000

     negative rho (up, down):  2.016E-03 0.000E+00
     Starting wfc are 1146 randomized atomic wfcs

     total cpu time spent up to now is      173.8 secs

     Self-consistent Calculation

     iteration #  1     ecut=    80.00 Ry     beta=0.70
     Davidson diagonalization with overlap
     ethr =  1.00E-04,  avg # of iterations = 19.5

     negative rho (up, down):  2.859E+01 0.000E+00

     total cpu time spent up to now is     3273.5 secs

     total energy              =   -8264.08022915 Ry
     Harris-Foulkes estimate   =  -15156.72424526 Ry
     estimated scf accuracy    <  155996.54572601 Ry

     iteration #  2     ecut=    80.00 Ry     beta=0.70
     Davidson diagonalization with overlap
     ethr =  1.00E-02,  avg # of iterations = 14.0

     negative rho (up, down):  2.117E+01 0.000E+00

     total cpu time spent up to now is     4950.8 secs

     total energy              =  -12604.37323015 Ry
     Harris-Foulkes estimate   =  -13152.26722010 Ry
     estimated scf accuracy    <    1689.89551226 Ry

     iteration #  3     ecut=    80.00 Ry     beta=0.70
     Davidson diagonalization with overlap
     ethr =  1.00E-02,  avg # of iterations =  4.7

     negative rho (up, down):  1.737E+01 0.000E+00

     total cpu time spent up to now is     5562.7 secs

     total energy              =  -12638.35046794 Ry
     Harris-Foulkes estimate   =  -12715.39075311 Ry
     estimated scf accuracy    <    1065.19604131 Ry

     iteration #  4     ecut=    80.00 Ry     beta=0.70
     Davidson diagonalization with overlap
     ethr =  1.00E-02,  avg # of iterations =  4.5

     negative rho (up, down):  1.617E+01 0.000E+00

     total cpu time spent up to now is     6045.9 secs

     total energy              =  -12630.54100468 Ry
     Harris-Foulkes estimate   =  -12671.01622771 Ry
     estimated scf accuracy    <    1077.82465560 Ry

     iteration #  5     ecut=    80.00 Ry     beta=0.70
     Davidson diagonalization with overlap
     ethr =  1.00E-02,  avg # of iterations =  2.7

     negative rho (up, down):  1.052E+01 0.000E+00

     total cpu time spent up to now is     6383.8 secs

     total energy              =  -12616.26254784 Ry
     Harris-Foulkes estimate   =  -12659.66569190 Ry
     estimated scf accuracy    <     344.29504043 Ry

     iteration #  6     ecut=    80.00 Ry     beta=0.70
     Davidson diagonalization with overlap
     ethr =  1.00E-02,  avg # of iterations =  3.7

     negative rho (up, down):  8.303E+00 0.000E+00

     total cpu time spent up to now is     6752.5 secs

     total energy              =  -12595.68790695 Ry
     Harris-Foulkes estimate   =  -12639.01211186 Ry
     estimated scf accuracy    <     532.43517324 Ry

     iteration #  7     ecut=    80.00 Ry     beta=0.70
     Davidson diagonalization with overlap
     ethr =  1.00E-02,  avg # of iterations =  2.8

     negative rho (up, down):  6.280E+00 0.000E+00

     total cpu time spent up to now is     7096.4 secs

     total energy              =  -12593.64169353 Ry
     Harris-Foulkes estimate   =  -12622.61078649 Ry
     estimated scf accuracy    <     342.10977402 Ry

     iteration #  8     ecut=    80.00 Ry     beta=0.70
     Davidson diagonalization with overlap
     ethr =  1.00E-02,  avg # of iterations =  1.2

     negative rho (up, down):  3.916E+00 0.000E+00

     total cpu time spent up to now is     7398.8 secs

     total energy              =  -12572.85067590 Ry
     Harris-Foulkes estimate   =  -12597.83312806 Ry
     estimated scf accuracy    <     252.36768317 Ry

     iteration #  9     ecut=    80.00 Ry     beta=0.70
     Davidson diagonalization with overlap
     ethr =  1.00E-02,  avg # of iterations =  1.0

     negative rho (up, down):  1.319E+00 0.000E+00

     total cpu time spent up to now is     7699.8 secs

     total energy              =  -12548.79305237 Ry
     Harris-Foulkes estimate   =  -12575.38838635 Ry
     estimated scf accuracy    <     153.26058454 Ry

     iteration # 10     ecut=    80.00 Ry     beta=0.70
     Davidson diagonalization with overlap
     ethr =  1.00E-02,  avg # of iterations =  1.5

     negative rho (up, down):  5.594E+00 0.000E+00

     total cpu time spent up to now is     8008.0 secs

     total energy              =  -12518.22295468 Ry
     Harris-Foulkes estimate   =  -12552.18363256 Ry
     estimated scf accuracy    <     110.47244491 Ry

     iteration # 11     ecut=    80.00 Ry     beta=0.70
     Davidson diagonalization with overlap
     ethr =  9.01E-03,  avg # of iterations =  2.2

     negative rho (up, down):  7.922E+00 0.000E+00

     total cpu time spent up to now is     8331.3 secs

     total energy              =  -12516.61178486 Ry
     Harris-Foulkes estimate   =  -12523.96004145 Ry
     estimated scf accuracy    <      73.91096351 Ry

     iteration # 12     ecut=    80.00 Ry     beta=0.70
     Davidson diagonalization with overlap
     ethr =  6.03E-03,  avg # of iterations =  1.5

     negative rho (up, down):  8.415E+00 0.000E+00

     total cpu time spent up to now is     8639.4 secs

     total energy              =  -12514.96363218 Ry
     Harris-Foulkes estimate   =  -12519.78413612 Ry
     estimated scf accuracy    <     108.01694959 Ry

     iteration # 13     ecut=    80.00 Ry     beta=0.70
     Davidson diagonalization with overlap
     ethr =  6.03E-03,  avg # of iterations =  1.0

     negative rho (up, down):  3.287E+00 0.000E+00

     total cpu time spent up to now is     8939.4 secs

     total energy              =  -12514.29174511 Ry
     Harris-Foulkes estimate   =  -12517.64181597 Ry
     estimated scf accuracy    <      59.73521820 Ry

     iteration # 14     ecut=    80.00 Ry     beta=0.70
     Davidson diagonalization with overlap
     ethr =  4.87E-03,  avg # of iterations =  1.7

     negative rho (up, down):  4.571E+00 0.000E+00

     total cpu time spent up to now is     9250.8 secs

     total energy              =  -12511.51636479 Ry
     Harris-Foulkes estimate   =  -12519.02605905 Ry
     estimated scf accuracy    <      61.43798641 Ry

     iteration # 15     ecut=    80.00 Ry     beta=0.70
     Davidson diagonalization with overlap
     ethr =  4.87E-03,  avg # of iterations =  1.0

     negative rho (up, down):  4.058E+00 0.000E+00

     total cpu time spent up to now is     9550.3 secs

     total energy              =  -12511.17737654 Ry
     Harris-Foulkes estimate   =  -12514.38571153 Ry
     estimated scf accuracy    <      48.23584022 Ry

     iteration # 16     ecut=    80.00 Ry     beta=0.70
     Davidson diagonalization with overlap
     ethr =  3.93E-03,  avg # of iterations =  1.0

     negative rho (up, down):  4.699E+00 0.000E+00

     total cpu time spent up to now is     9851.5 secs

     total energy              =  -12512.12920694 Ry
     Harris-Foulkes estimate   =  -12512.75778571 Ry
     estimated scf accuracy    <      13.53907769 Ry

     iteration # 17     ecut=    80.00 Ry     beta=0.70
     Davidson diagonalization with overlap
     ethr =  1.10E-03,  avg # of iterations =  6.5

     negative rho (up, down):  3.602E+00 0.000E+00

     total cpu time spent up to now is    10259.0 secs

     total energy              =  -12510.99493419 Ry
     Harris-Foulkes estimate   =  -12512.33489423 Ry
     estimated scf accuracy    <       9.65183490 Ry

     iteration # 18     ecut=    80.00 Ry     beta=0.70
     Davidson diagonalization with overlap
     ethr =  7.87E-04,  avg # of iterations =  3.3

     negative rho (up, down):  1.960E+00 0.000E+00

     total cpu time spent up to now is    10604.5 secs

     total energy              =  -12509.77269226 Ry
     Harris-Foulkes estimate   =  -12511.28642183 Ry
     estimated scf accuracy    <      11.94736184 Ry

     iteration # 19     ecut=    80.00 Ry     beta=0.70
     Davidson diagonalization with overlap
     ethr =  7.87E-04,  avg # of iterations =  2.8

     negative rho (up, down):  1.789E+00 0.000E+00

     total cpu time spent up to now is    10938.6 secs

     total energy              =  -12508.62977484 Ry
     Harris-Foulkes estimate   =  -12509.89015829 Ry
     estimated scf accuracy    <      11.46904542 Ry

     iteration # 20     ecut=    80.00 Ry     beta=0.70
     Davidson diagonalization with overlap
     ethr =  7.87E-04,  avg # of iterations =  4.5

     negative rho (up, down):  9.768E-01 0.000E+00

     total cpu time spent up to now is    11302.5 secs

     total energy              =  -12507.46067585 Ry
     Harris-Foulkes estimate   =  -12509.16453282 Ry
     estimated scf accuracy    <      31.50976137 Ry

     iteration # 21     ecut=    80.00 Ry     beta=0.70
     Davidson diagonalization with overlap
     ethr =  7.87E-04,  avg # of iterations =  8.2

     negative rho (up, down):  4.090E-01 0.000E+00

     total cpu time spent up to now is    11738.3 secs

     total energy              =  -12507.63433105 Ry
     Harris-Foulkes estimate   =  -12508.11579487 Ry
     estimated scf accuracy    <       9.49075676 Ry

     iteration # 22     ecut=    80.00 Ry     beta=0.70
     Davidson diagonalization with overlap
     ethr =  7.74E-04,  avg # of iterations =  5.5

     negative rho (up, down):  4.256E-01 0.000E+00

     total cpu time spent up to now is    12119.8 secs

     total energy              =  -12507.25183968 Ry
     Harris-Foulkes estimate   =  -12507.89722185 Ry
     estimated scf accuracy    <       5.01439864 Ry

     iteration # 23     ecut=    80.00 Ry     beta=0.70
     Davidson diagonalization with overlap
     ethr =  4.09E-04,  avg # of iterations =  4.8

     negative rho (up, down):  4.238E-01 0.000E+00

     total cpu time spent up to now is    12491.3 secs

     total energy              =  -12506.78811131 Ry
     Harris-Foulkes estimate   =  -12507.37974530 Ry
     estimated scf accuracy    <       4.90401822 Ry

     iteration # 24     ecut=    80.00 Ry     beta=0.70
     Davidson diagonalization with overlap
     ethr =  4.00E-04,  avg # of iterations =  3.2

     negative rho (up, down):  5.392E-01 0.000E+00

     total cpu time spent up to now is    12831.0 secs

     total energy              =  -12506.26191121 Ry
     Harris-Foulkes estimate   =  -12506.88020312 Ry
     estimated scf accuracy    <       5.57916829 Ry

     iteration # 25     ecut=    80.00 Ry     beta=0.70
     Davidson diagonalization with overlap
     ethr =  4.00E-04,  avg # of iterations =  3.7

     negative rho (up, down):  5.128E-01 0.000E+00

     total cpu time spent up to now is    13180.1 secs

     total energy              =  -12506.11938300 Ry
     Harris-Foulkes estimate   =  -12506.37131393 Ry
     estimated scf accuracy    <       2.09210484 Ry

     iteration # 26     ecut=    80.00 Ry     beta=0.70
     Davidson diagonalization with overlap
     ethr =  1.71E-04,  avg # of iterations =  5.8

     negative rho (up, down):  3.368E-01 0.000E+00

     total cpu time spent up to now is    13575.0 secs

     total energy              =  -12505.97225690 Ry
     Harris-Foulkes estimate   =  -12506.24059742 Ry
     estimated scf accuracy    <       1.85599336 Ry

     iteration # 27     ecut=    80.00 Ry     beta=0.70
     Davidson diagonalization with overlap
     ethr =  1.51E-04,  avg # of iterations =  3.8

     negative rho (up, down):  1.644E-01 0.000E+00

     total cpu time spent up to now is    13929.6 secs

     total energy              =  -12505.93073077 Ry
     Harris-Foulkes estimate   =  -12506.06406804 Ry
     estimated scf accuracy    <       0.74528487 Ry

     iteration # 28     ecut=    80.00 Ry     beta=0.70
     Davidson diagonalization with overlap
     ethr =  6.08E-05,  avg # of iterations =  9.0

     negative rho (up, down):  2.944E-01 0.000E+00

     total cpu time spent up to now is    14400.6 secs

     total energy              =  -12505.91207195 Ry
     Harris-Foulkes estimate   =  -12505.98839262 Ry
     estimated scf accuracy    <       0.41790837 Ry

     iteration # 29     ecut=    80.00 Ry     beta=0.70
     Davidson diagonalization with overlap
     ethr =  3.41E-05,  avg # of iterations =  8.2

     negative rho (up, down):  1.513E-01 0.000E+00

     total cpu time spent up to now is    14888.2 secs

     total energy              =  -12505.91579744 Ry
     Harris-Foulkes estimate   =  -12505.93755536 Ry
     estimated scf accuracy    <       0.20736376 Ry

     iteration # 30     ecut=    80.00 Ry     beta=0.70
     Davidson diagonalization with overlap
     ethr =  1.69E-05,  avg # of iterations =  8.7

     negative rho (up, down):  2.287E-02 0.000E+00

     total cpu time spent up to now is    15356.6 secs

     total energy              =  -12505.91410167 Ry
     Harris-Foulkes estimate   =  -12505.92381977 Ry
     estimated scf accuracy    <       0.06782643 Ry

     iteration # 31     ecut=    80.00 Ry     beta=0.70
     Davidson diagonalization with overlap
     ethr =  5.53E-06,  avg # of iterations = 12.5

     negative rho (up, down):  3.329E-02 0.000E+00

     total cpu time spent up to now is    15924.4 secs

     total energy              =  -12505.91599306 Ry
     Harris-Foulkes estimate   =  -12505.92001027 Ry
     estimated scf accuracy    <       0.03366621 Ry

     iteration # 32     ecut=    80.00 Ry     beta=0.70
     Davidson diagonalization with overlap
     ethr =  2.75E-06,  avg # of iterations =  8.3

     negative rho (up, down):  2.115E-02 0.000E+00

     total cpu time spent up to now is    16401.3 secs

     total energy              =  -12505.91764398 Ry
     Harris-Foulkes estimate   =  -12505.91824599 Ry
     estimated scf accuracy    <       0.00698515 Ry

     iteration # 33     ecut=    80.00 Ry     beta=0.70
     Davidson diagonalization with overlap
     ethr =  5.70E-07,  avg # of iterations =  5.8

     negative rho (up, down):  1.646E-02 0.000E+00

     total cpu time spent up to now is    16807.1 secs

     total energy              =  -12505.91802076 Ry
     Harris-Foulkes estimate   =  -12505.91812888 Ry
     estimated scf accuracy    <       0.00305579 Ry

     iteration # 34     ecut=    80.00 Ry     beta=0.70
     Davidson diagonalization with overlap
     ethr =  2.49E-07,  avg # of iterations =  6.3

     negative rho (up, down):  7.688E-03 0.000E+00

     total cpu time spent up to now is    17233.5 secs

     total energy              =  -12505.91808101 Ry
     Harris-Foulkes estimate   =  -12505.91821122 Ry
     estimated scf accuracy    <       0.00120432 Ry

     iteration # 35     ecut=    80.00 Ry     beta=0.70
     Davidson diagonalization with overlap
     ethr =  9.82E-08,  avg # of iterations =  9.0

     negative rho (up, down):  6.840E-03 0.000E+00

     total cpu time spent up to now is    17738.9 secs

     total energy              =  -12505.91817063 Ry
     Harris-Foulkes estimate   =  -12505.91823420 Ry
     estimated scf accuracy    <       0.00075167 Ry

     iteration # 36     ecut=    80.00 Ry     beta=0.70
     Davidson diagonalization with overlap
     c_bands:  1 eigenvalues not converged
     ethr =  6.13E-08,  avg # of iterations =  6.8

     negative rho (up, down):  6.949E-03 0.000E+00

     total cpu time spent up to now is    18160.3 secs

     total energy              =  -12505.91832147 Ry
     Harris-Foulkes estimate   =  -12505.91823693 Ry
     estimated scf accuracy    <       0.00022379 Ry

     iteration # 37     ecut=    80.00 Ry     beta=0.70
     Davidson diagonalization with overlap
     c_bands:  1 eigenvalues not converged
     ethr =  1.83E-08,  avg # of iterations =  9.5

     negative rho (up, down):  3.958E-03 0.000E+00

     total cpu time spent up to now is    18643.5 secs

     total energy              =  -12505.91835740 Ry
     Harris-Foulkes estimate   =  -12505.91833475 Ry
     estimated scf accuracy    <       0.00003072 Ry

     iteration # 38     ecut=    80.00 Ry     beta=0.70
     Davidson diagonalization with overlap
     c_bands:  1 eigenvalues not converged
     ethr =  2.51E-09,  avg # of iterations = 10.2

     negative rho (up, down):  2.701E-03 0.000E+00

     total cpu time spent up to now is    19158.9 secs

     total energy              =  -12505.91836388 Ry
     Harris-Foulkes estimate   =  -12505.91835934 Ry
     estimated scf accuracy    <       0.00001442 Ry

     iteration # 39     ecut=    80.00 Ry     beta=0.70
     Davidson diagonalization with overlap
     ethr =  1.18E-09,  avg # of iterations =  8.2

     negative rho (up, down):  2.582E-03 0.000E+00

     total cpu time spent up to now is    19636.4 secs

     total energy              =  -12505.91836507 Ry
     Harris-Foulkes estimate   =  -12505.91836488 Ry
     estimated scf accuracy    <       0.00000746 Ry

     iteration # 40     ecut=    80.00 Ry     beta=0.70
     Davidson diagonalization with overlap
     ethr =  6.09E-10,  avg # of iterations =  2.3

     negative rho (up, down):  2.489E-03 0.000E+00

     total cpu time spent up to now is    19981.1 secs

     total energy              =  -12505.91836471 Ry
     Harris-Foulkes estimate   =  -12505.91836559 Ry
     estimated scf accuracy    <       0.00000355 Ry

     iteration # 41     ecut=    80.00 Ry     beta=0.70
     Davidson diagonalization with overlap
     ethr =  2.89E-10,  avg # of iterations =  2.3

     negative rho (up, down):  2.311E-03 0.000E+00

     total cpu time spent up to now is    20322.9 secs

     total energy              =  -12505.91836465 Ry
     Harris-Foulkes estimate   =  -12505.91836522 Ry
     estimated scf accuracy    <       0.00000266 Ry

     iteration # 42     ecut=    80.00 Ry     beta=0.70
     Davidson diagonalization with overlap
     ethr =  2.17E-10,  avg # of iterations =  2.2

     negative rho (up, down):  2.175E-03 0.000E+00

     total cpu time spent up to now is    20661.9 secs

     total energy              =  -12505.91836490 Ry
     Harris-Foulkes estimate   =  -12505.91836487 Ry
     estimated scf accuracy    <       0.00000075 Ry

     iteration # 43     ecut=    80.00 Ry     beta=0.70
     Davidson diagonalization with overlap
     ethr =  6.09E-11,  avg # of iterations =  2.0

     negative rho (up, down):  2.151E-03 0.000E+00

     total cpu time spent up to now is    20993.7 secs

     total energy              =  -12505.91836495 Ry
     Harris-Foulkes estimate   =  -12505.91836495 Ry
     estimated scf accuracy    <       0.00000016 Ry

     iteration # 44     ecut=    80.00 Ry     beta=0.70
     Davidson diagonalization with overlap
     ethr =  1.28E-11,  avg # of iterations =  2.0

     negative rho (up, down):  2.172E-03 0.000E+00

     total cpu time spent up to now is    21332.8 secs

     total energy              =  -12505.91836496 Ry
     Harris-Foulkes estimate   =  -12505.91836497 Ry
     estimated scf accuracy    <       0.00000008 Ry

     iteration # 45     ecut=    80.00 Ry     beta=0.70
     Davidson diagonalization with overlap
     ethr =  6.24E-12,  avg # of iterations =  2.0

     negative rho (up, down):  2.181E-03 0.000E+00

     total cpu time spent up to now is    21666.2 secs

     total energy              =  -12505.91836495 Ry
     Harris-Foulkes estimate   =  -12505.91836497 Ry
     estimated scf accuracy    <       0.00000003 Ry

     iteration # 46     ecut=    80.00 Ry     beta=0.70
     Davidson diagonalization with overlap
     ethr =  2.09E-12,  avg # of iterations =  2.0

     negative rho (up, down):  2.194E-03 0.000E+00

     total cpu time spent up to now is    21982.6 secs

     End of self-consistent calculation

          k = 0.0000 0.0000 0.0000 (256287 PWs)   bands (ev):

   -16.8550 -16.2679 -15.4551 -14.6928 -14.6468 -14.3299 -14.1246 -13.8874
   -13.3245 -13.2290 -12.4887 -12.0639 -12.0195 -10.7850 -10.5920  -9.8753
    -9.4459  -9.3999  -8.8979  -8.7163  -8.2525  -8.0280  -7.8248  -7.5088
    -7.4597  -6.8309  -6.7695  -6.5650  -6.4056  -6.1377  -5.8755  -5.8697
    -5.8024  -5.6001  -5.5475  -5.4022  -4.9891  -4.9659  -4.8987  -4.7784
    -4.4847  -4.3825  -4.3749  -4.3320  -3.9928  -3.8004  -3.7951  -3.7898
    -3.7841  -3.5831  -3.4904  -3.4863  -3.4702  -3.4041  -3.4024  -3.3999
    -3.3924  -3.3867  -3.3749  -3.3030  -3.3010  -3.2415  -3.1946  -2.9903
    -2.9854  -2.9053  -2.8934  -2.7647  -2.7613  -2.7595  -2.7520  -2.6043
    -2.5954  -2.5876  -2.5625  -2.5618  -2.5573  -2.5568  -2.5071  -2.4937
    -2.4913  -2.4623  -2.4608  -2.4591  -2.4573  -2.3257  -2.3200  -2.2416
    -2.2123  -2.1940  -2.1901  -2.1870  -2.1852  -2.1759  -2.1473  -2.1291
    -2.1156  -2.1052  -2.0924  -2.0832  -2.0734  -2.0543  -2.0531  -2.0416
    -2.0378  -2.0183  -2.0029  -1.9828  -1.9519  -1.9497  -1.9421  -1.9405
    -1.9154  -1.8944  -1.8257  -1.8095  -1.8075  -1.8008  -1.7892  -1.7702
    -1.7515  -1.7458  -1.7338  -1.6843  -1.6602  -1.6591  -1.6482  -1.6384
    -1.6170  -1.6079  -1.5717  -1.5455  -1.5429  -1.5379  -1.5307  -1.5299
    -1.5216  -1.5197  -1.5125  -1.5059  -1.4955  -1.4942  -1.4875  -1.4854
    -1.4761  -1.4689  -1.4667  -1.4638  -1.4623  -1.4354  -1.4281  -1.4196
    -1.4161  -1.4131  -1.4112  -1.4021  -1.3831  -1.3613  -1.3593  -1.3478
    -1.3461  -1.3387  -1.3365  -1.3306  -1.3288  -1.3031  -1.3013  -1.2987
    -1.2983  -1.2905  -1.2890  -1.2870  -1.2856  -1.2565  -1.1823  -1.1699
    -1.1691  -1.1663  -1.1522  -1.1231  -1.1206  -1.1202  -1.1180  -1.1132
    -1.1102  -1.1087  -1.1048  -1.0969  -1.0962  -1.0885  -1.0631  -1.0568
    -1.0518  -1.0484  -1.0385  -1.0360  -1.0246  -1.0241  -1.0154  -0.9809
    -0.9789  -0.9365  -0.9331  -0.9329  -0.9322  -0.9279  -0.9232  -0.9204
    -0.9156  -0.9062  -0.9044  -0.9020  -0.8922  -0.8913  -0.8883  -0.8875
    -0.8742  -0.8732  -0.8722  -0.8584  -0.8569  -0.8176  -0.8151  -0.8046
    -0.7906  -0.7863  -0.7855  -0.7846  -0.7838  -0.7814  -0.7812  -0.7739
    -0.7724  -0.7717  -0.7690  -0.7641  -0.7622  -0.7543  -0.7504  -0.7489
    -0.7446  -0.7432  -0.7414  -0.7324  -0.7242  -0.7237  -0.7042  -0.7037
    -0.6966  -0.6911  -0.6889  -0.6854  -0.6814  -0.6791  -0.6669  -0.6549
    -0.6373  -0.6367  -0.6285  -0.6261  -0.6246  -0.6218  -0.5981  -0.5869
    -0.5862  -0.5810  -0.5664  -0.5652  -0.5558  -0.5539  -0.5515  -0.5514
    -0.5510  -0.5358  -0.5297  -0.5191  -0.5159  -0.5139  -0.5069  -0.5026
    -0.4982  -0.4789  -0.4654  -0.4652  -0.4574  -0.4566  -0.4440  -0.4398
    -0.4358  -0.4342  -0.4316  -0.4308  -0.4270  -0.4087  -0.4065  -0.3972
    -0.3934  -0.3891  -0.3879  -0.3790  -0.3768  -0.3670  -0.3648  -0.3630
    -0.3553  -0.3520  -0.3320  -0.2813  -0.2806  -0.2797  -0.2713  -0.2661
    -0.2638  -0.2618  -0.2531  -0.2491  -0.2479  -0.2360  -0.2352  -0.2149
    -0.2110  -0.2092  -0.2060  -0.1882  -0.1727  -0.1705  -0.1665  -0.1655
    -0.1607  -0.1568  -0.1357  -0.1349  -0.1249  -0.1147  -0.1044  -0.1015
    -0.1001  -0.0961  -0.0846  -0.0702  -0.0666  -0.0634  -0.0587  -0.0494
    -0.0471  -0.0311  -0.0270  -0.0264  -0.0198  -0.0188  -0.0121  -0.0054
    -0.0051  -0.0032  -0.0019   0.0016   0.0029   0.0054   0.0109   0.0203
     0.0212   0.0229   0.0248   0.0255   0.0267   0.0305   0.0369   0.0443
     0.0499   0.0512   0.0564   0.0731   0.0922   0.1034   0.1051   0.1067
     0.1107   0.1221   0.1241   0.1246   0.1282   0.1287   0.1293   0.1329
     0.1332   0.1343   0.1377   0.1397   0.1414   0.1439   0.1456   0.1475
     0.1685   0.1695   0.1716   0.1776   0.1790   0.1803   0.1846   0.1895
     0.1895   0.1935   0.2002   0.2070   0.2211   0.2305   0.2436   0.2529
     0.2606   0.2631   0.2744   0.2757   0.2790   0.2863   0.2906   0.3019
     0.3028   0.3072   0.3087   0.3143   0.3213   0.3228   0.3240   0.3369
     0.3411   0.3426   0.3448   0.3595   0.3634   0.3827   0.3870   0.3893
     0.3918   0.3933   0.3944   0.4065   0.4118   0.4131   0.4134   0.4385
     0.4411   0.4429   0.4441   0.4464   0.4495   0.4505   0.4602   0.4602
     0.4616   0.4668   0.4692   0.4703   0.4762   0.4789   0.4841   0.4888
     0.4925   0.4929   0.4951   0.4981   0.4995   0.5079   0.5095   0.5118
     0.5269   0.5290   0.5325   0.5359   0.5466   0.5496   0.5561   0.5573
     0.5619   0.5638   0.5652   0.5657   0.5693   0.5700   0.5707   0.5736
     0.5775   0.5799   0.5820   0.5882   0.6059   0.6132   0.6162   0.6193
     0.6210   0.6297   0.6320   0.6376   0.6467   0.6513   0.6533   0.6692
     0.6698   0.6842   0.6845   0.6854   0.6858   0.6915   0.6947   0.7086
     0.7133   0.7152   0.7175   0.7188   0.7192   0.7197   0.7235   0.7251
     0.7300   0.7305   0.7471   0.7475   0.7481   0.7498   0.7509   0.7516
     0.7520   0.7552   0.7580   0.7582   0.7627   0.7635   0.7698   0.7780
     0.7815   0.7821   0.7895   0.7999   0.8058   0.8128   0.8165   0.8224
     0.8261   0.8322   0.8396   0.8415   0.8430   0.8438   0.8445   0.8465
     0.8473   0.8485   0.8520   0.8534   0.8555   0.8582   0.8601   0.8671
     0.8701   0.8764   0.8800   0.8812   0.9009   0.9086   0.9090   0.9121
     0.9138   0.9142   0.9182   0.9237   0.9300   0.9349   0.9368   0.9423
     0.9574   0.9660   0.9694   0.9862   0.9873   1.0131   1.0164   1.0338
     1.0501   1.0519   1.0575   1.0587   1.0673   1.0703   1.0748   1.0761
     1.0795   1.0856   1.1230   1.3685   1.3955   1.4645   1.4792   1.4990
     1.5145   1.5425   1.6254   1.6563   1.6635   1.6687   1.6691   1.6695
     1.6732   1.6984   1.7260   1.7774   1.8544   1.8572   1.8606   1.8675
     1.8806   1.8842   1.9419   2.1451   2.1467   2.1581   2.1944   2.3937
     2.7957   2.8305   3.0537   3.1336   3.1692   3.1744   3.2237   3.2659
     3.2691   3.2745   3.2899   3.3262   3.3382   3.3887   3.4686   3.4861
     3.4917   3.4952   3.4983   3.5101   3.5201   3.5655   3.5717   3.5822
     3.6773   4.3241   4.4625   4.4887   4.5543   4.6664   4.7290   4.7823
     4.8322   4.9508   5.0220   5.0739   5.1864   5.4528   5.4571   5.4824
     5.5121   5.7469   5.7567   5.7734   5.7793   5.8463   5.9346   6.0255
     6.0551   6.0612   6.0991   6.1131   6.2059   6.2539   6.3010   6.3166
     6.3313   6.3752   6.4020   6.4654   6.6057   6.7489   6.8012   6.8115
     6.9313   7.0980   7.1331   7.1464   7.1539   7.2403   7.2869   7.3285
     7.3419   7.3858   7.4638   7.4901   7.5394   7.6154   7.6531   7.7224
     7.7269   7.7369   7.7742   7.8277   7.8360   7.8644   7.8670   7.8786
     7.9111   7.9421   7.9961   8.0863   8.0924   8.0976   8.1200   8.1787
     8.2217   8.2569   8.2844   8.3129   8.3595   8.3741   8.4313   8.4662
     8.6046   8.6233   8.6409   8.7377   8.7545   8.7562   8.8755   8.9598
     9.0237   9.0369   9.1431   9.1479   9.1742   9.2330   9.2922   9.4519

          k = 0.0000-0.2165 0.0000 (256176 PWs)   bands (ev):

   -16.8550 -16.2679 -15.4551 -14.6928 -14.6468 -14.3299 -14.1246 -13.8874
   -13.3245 -13.2290 -12.4887 -12.0639 -12.0195 -10.7849 -10.5920  -9.8753
    -9.4459  -9.3999  -8.8979  -8.7163  -8.2523  -8.0280  -7.8247  -7.5088
    -7.4596  -6.8309  -6.7695  -6.5653  -6.2751  -6.2669  -6.1375  -5.8053
    -5.6002  -5.5475  -5.2917  -5.2695  -5.2224  -5.2210  -4.9884  -4.8491
    -4.4884  -4.4377  -4.2735  -4.1852  -3.9878  -3.7979  -3.6962  -3.6922
    -3.6894  -3.6855  -3.6797  -3.6185  -3.5013  -3.4726  -3.4493  -3.4206
    -3.4025  -3.3753  -3.3010  -3.1947  -2.9834  -2.9819  -2.9737  -2.9716
    -2.9350  -2.9318  -2.9238  -2.9179  -2.8933  -2.8851  -2.8147  -2.7836
    -2.6852  -2.6660  -2.5887  -2.5803  -2.5757  -2.5748  -2.5511  -2.5059
    -2.4912  -2.4467  -2.4242  -2.4240  -2.3822  -2.3817  -2.3774  -2.2735
    -2.2529  -2.2253  -2.1833  -2.1830  -2.1783  -2.1697  -2.1599  -2.1592
    -2.1538  -2.1396  -2.1333  -2.1231  -2.0728  -2.0699  -2.0633  -2.0322
    -1.9822  -1.9515  -1.9451  -1.9131  -1.8664  -1.8594  -1.8433  -1.8430
    -1.8382  -1.7854  -1.7701  -1.7592  -1.7549  -1.7454  -1.7388  -1.7323
    -1.7294  -1.7214  -1.7209  -1.7130  -1.7120  -1.7077  -1.7065  -1.6995
    -1.6956  -1.6765  -1.6658  -1.6553  -1.6489  -1.5938  -1.5900  -1.5615
    -1.5449  -1.5411  -1.5074  -1.5062  -1.5033  -1.4977  -1.4965  -1.4955
    -1.4783  -1.4683  -1.4318  -1.4311  -1.4282  -1.4205  -1.4189  -1.4175
    -1.4076  -1.4064  -1.4037  -1.3966  -1.3848  -1.3837  -1.3721  -1.3698
    -1.3547  -1.3450  -1.3335  -1.3324  -1.3092  -1.3077  -1.3069  -1.2941
    -1.2932  -1.2921  -1.2695  -1.2616  -1.2572  -1.2457  -1.2261  -1.2251
    -1.1555  -1.1161  -1.1120  -1.1107  -1.0929  -1.0861  -1.0833  -1.0830
    -1.0821  -1.0781  -1.0771  -1.0727  -1.0709  -1.0440  -1.0431  -1.0406
    -1.0373  -1.0342  -1.0310  -1.0299  -1.0241  -1.0209  -1.0181  -1.0124
    -1.0086  -1.0014  -0.9846  -0.9839  -0.9671  -0.9643  -0.9542  -0.9537
    -0.9508  -0.9489  -0.9398  -0.9375  -0.9084  -0.9062  -0.9034  -0.8813
    -0.8458  -0.8449  -0.8187  -0.8182  -0.8066  -0.8058  -0.8055  -0.8053
    -0.8041  -0.8014  -0.7986  -0.7916  -0.7902  -0.7839  -0.7821  -0.7782
    -0.7766  -0.7764  -0.7723  -0.7706  -0.7645  -0.7609  -0.7575  -0.7379
    -0.7368  -0.7337  -0.7320  -0.7179  -0.7169  -0.7067  -0.7034  -0.7028
    -0.6862  -0.6803  -0.6758  -0.6693  -0.6567  -0.6562  -0.6543  -0.6482
    -0.6445  -0.6434  -0.6385  -0.6378  -0.6322  -0.6312  -0.6060  -0.6055
    -0.6022  -0.5778  -0.5773  -0.5768  -0.5749  -0.5734  -0.5445  -0.5422
    -0.5389  -0.5262  -0.5219  -0.5203  -0.5198  -0.5187  -0.5098  -0.4974
    -0.4888  -0.4578  -0.4551  -0.4540  -0.4514  -0.4488  -0.4467  -0.4376
    -0.4361  -0.4351  -0.4303  -0.4248  -0.4240  -0.4219  -0.4203  -0.4138
    -0.4123  -0.4076  -0.4056  -0.3810  -0.3798  -0.3744  -0.3734  -0.3625
    -0.3312  -0.3304  -0.3257  -0.3183  -0.3056  -0.2986  -0.2898  -0.2889
    -0.2748  -0.2742  -0.2715  -0.2556  -0.2485  -0.2086  -0.2069  -0.1991
    -0.1860  -0.1637  -0.1570  -0.1449  -0.1405  -0.1349  -0.1277  -0.1218
    -0.1206  -0.1182  -0.1097  -0.1009  -0.0966  -0.0947  -0.0916  -0.0895
    -0.0832  -0.0761  -0.0757  -0.0719  -0.0707  -0.0691  -0.0668  -0.0636
    -0.0597  -0.0519  -0.0481  -0.0434  -0.0317  -0.0307  -0.0252  -0.0243
    -0.0242  -0.0238  -0.0190  -0.0188  -0.0153  -0.0138  -0.0043  -0.0017
     0.0010   0.0117   0.0128   0.0150   0.0190   0.0290   0.0314   0.0432
     0.0527   0.0578   0.0580   0.0697   0.0715   0.0724   0.0735   0.0744
     0.0783   0.0874   0.0945   0.0969   0.1022   0.1171   0.1220   0.1242
     0.1281   0.1300   0.1315   0.1389   0.1398   0.1406   0.1476   0.1496
     0.1563   0.1638   0.1736   0.1761   0.1816   0.1878   0.1897   0.2035
     0.2099   0.2122   0.2187   0.2263   0.2298   0.2363   0.2405   0.2421
     0.2527   0.2573   0.2591   0.2653   0.2879   0.2898   0.3031   0.3355
     0.3406   0.3500   0.3546   0.3583   0.3610   0.3675   0.3694   0.3730
     0.3734   0.3746   0.3767   0.3769   0.3783   0.3804   0.3818   0.3840
     0.3901   0.4018   0.4033   0.4074   0.4094   0.4096   0.4098   0.4115
     0.4165   0.4226   0.4273   0.4277   0.4299   0.4324   0.4334   0.4339
     0.4359   0.4367   0.4418   0.4460   0.4562   0.4592   0.4671   0.4678
     0.4767   0.4803   0.4827   0.4832   0.4840   0.4869   0.4879   0.4902
     0.4927   0.4980   0.5054   0.5094   0.5104   0.5384   0.5393   0.5453
     0.5711   0.5762   0.5843   0.5854   0.5858   0.6038   0.6061   0.6146
     0.6223   0.6236   0.6249   0.6268   0.6276   0.6354   0.6369   0.6409
     0.6412   0.6428   0.6461   0.6481   0.6496   0.6505   0.6536   0.6554
     0.6557   0.6595   0.6626   0.6679   0.6699   0.6718   0.6722   0.6758
     0.6771   0.6819   0.6823   0.7003   0.7018   0.7028   0.7041   0.7154
     0.7204   0.7205   0.7243   0.7293   0.7297   0.7324   0.7350   0.7418
     0.7514   0.7552   0.7592   0.7645   0.7708   0.7726   0.7749   0.7794
     0.7822   0.7935   0.7974   0.8029   0.8042   0.8053   0.8061   0.8076
     0.8122   0.8158   0.8159   0.8236   0.8267   0.8302   0.8305   0.8348
     0.8416   0.8576   0.8652   0.8777   0.8794   0.8798   0.8818   0.8842
     0.8853   0.8871   0.8979   0.8987   0.9002   0.9032   0.9055   0.9263
     0.9275   0.9287   0.9297   0.9313   0.9316   0.9349   0.9500   0.9515
     0.9875   0.9910   0.9968   0.9987   1.0040   1.0127   1.0134   1.0264
     1.0323   1.0629   1.0980   1.1059   1.1248   1.1930   1.2016   1.2088
     1.2138   1.2163   1.2205   1.2432   1.2608   1.2616   1.2634   1.2710
     1.2777   1.2892   1.2973   1.5834   1.7493   1.7592   1.7704   1.8265
     1.8661   1.9565   1.9718   1.9841   1.9899   1.9931   2.0440   2.0568
     2.0603   2.0662   2.0815   2.1504   2.1533   2.1670   2.1756   2.3929
     2.3971   2.5724   2.6099   2.6210   2.6279   2.6279   2.7131   3.0564
     3.0900   3.1026   3.2486   3.3270   3.4263   3.4402   3.5114   3.6046
     3.6859   3.6890   3.6949   3.7055   3.7404   3.8060   3.9206   4.0122
     4.0512   4.4683   4.5687   4.6203   4.6523   4.6733   4.7762   4.8277
     4.8365   4.8405   4.8955   5.0037   5.1196   5.2745   5.4589   5.4956
     5.5162   5.5355   5.7008   5.7288   5.8497   5.9012   5.9538   6.0032
     6.0450   6.0958   6.1294   6.1681   6.2374   6.3027   6.3317   6.4754
     6.5106   6.5206   6.5406   6.5581   6.5685   6.5770   6.5894   6.6263
     6.6486   6.6994   6.7417   6.7508   6.7849   6.8880   7.2326   7.3327
     7.3516   7.3708   7.4234   7.4593   7.4847   7.5806   7.6947   7.7319
     7.7597   7.8026   7.8086   7.8318   7.8579   8.0060   8.0191   8.0276
     8.0431   8.0501   8.0983   8.1244   8.1748   8.2005   8.2870   8.3357
     8.3887   8.4125   8.5071   8.5357   8.5807   8.6154   8.6303   8.6428
     8.7082   8.7584   8.8128   8.8284   8.8400   8.8454   8.8587   8.8844
     8.9600   8.9774   9.0087   9.0464   9.0764   9.2415   9.3088   9.3164

          k = 0.2500 0.0000 0.0000 (256240 PWs)   bands (ev):

   -16.7761 -16.1759 -15.5629 -15.2663 -14.8952 -14.2471 -13.8328 -13.5599
   -13.1178 -12.9019 -12.3791 -12.1669 -11.4455 -11.2206 -10.8130 -10.2674
    -9.8026  -9.6249  -9.3761  -9.0449  -8.3599  -8.1100  -7.5804  -7.2144
    -6.9639  -6.8989  -6.5071  -6.3394  -6.2257  -5.9007  -5.7023  -5.6945
    -5.4989  -5.2761  -5.2311  -5.0009  -4.8534  -4.8171  -4.7402  -4.6337
    -4.5916  -4.4235  -4.3915  -4.3838  -4.2432  -4.2285  -4.2093  -4.1737
    -4.0060  -3.9548  -3.9369  -3.7597  -3.6478  -3.6175  -3.5722  -3.5646
    -3.4989  -3.4114  -3.3926  -3.3807  -3.2937  -3.2525  -3.1963  -3.1955
    -3.1796  -3.1279  -3.0105  -2.9221  -2.7981  -2.7663  -2.7609  -2.5663
    -2.5558  -2.5069  -2.5033  -2.4874  -2.4800  -2.4219  -2.3994  -2.3763
    -2.3119  -2.2793  -2.2636  -2.2458  -2.2408  -2.2403  -2.2189  -2.2178
    -2.2160  -2.2060  -2.2028  -2.1716  -2.1405  -2.0961  -2.0932  -2.0878
    -2.0692  -2.0486  -2.0412  -2.0351  -2.0275  -2.0183  -2.0182  -2.0150
    -2.0061  -1.9817  -1.9694  -1.9627  -1.9375  -1.9252  -1.8512  -1.8234
    -1.7941  -1.7885  -1.7754  -1.7658  -1.7421  -1.7402  -1.7205  -1.7140
    -1.7063  -1.6909  -1.6705  -1.6652  -1.6488  -1.6452  -1.6430  -1.6376
    -1.6280  -1.6256  -1.6239  -1.5907  -1.5825  -1.5822  -1.5789  -1.5772
    -1.5762  -1.5729  -1.5699  -1.5089  -1.5047  -1.5010  -1.4983  -1.4967
    -1.4947  -1.4909  -1.4886  -1.4818  -1.4785  -1.4743  -1.4712  -1.4620
    -1.4586  -1.4574  -1.4546  -1.4485  -1.4443  -1.4403  -1.4352  -1.4286
    -1.4236  -1.4090  -1.3830  -1.3479  -1.3469  -1.3391  -1.3350  -1.3016
    -1.2639  -1.2628  -1.2535  -1.2486  -1.2417  -1.2411  -1.2335  -1.2311
    -1.2241  -1.2210  -1.2116  -1.2113  -1.2059  -1.1342  -1.1109  -1.1064
    -1.1034  -1.0843  -1.0792  -1.0653  -1.0638  -1.0526  -1.0421  -1.0307
    -1.0280  -1.0207  -1.0196  -1.0172  -1.0160  -1.0138  -1.0076  -1.0049
    -1.0020  -0.9991  -0.9948  -0.9758  -0.9746  -0.9525  -0.9513  -0.9420
    -0.9135  -0.9116  -0.8984  -0.8972  -0.8908  -0.8835  -0.8783  -0.8780
    -0.8765  -0.8758  -0.8713  -0.8549  -0.8507  -0.8493  -0.8489  -0.8455
    -0.8163  -0.8102  -0.8037  -0.8024  -0.8020  -0.7962  -0.7841  -0.7781
    -0.7689  -0.7622  -0.7568  -0.7528  -0.7521  -0.7496  -0.7445  -0.7178
    -0.7165  -0.7148  -0.7075  -0.7066  -0.7018  -0.6992  -0.6962  -0.6908
    -0.6874  -0.6841  -0.6798  -0.6738  -0.6523  -0.6447  -0.6371  -0.6334
    -0.6173  -0.6061  -0.6002  -0.5717  -0.5688  -0.5658  -0.5638  -0.5622
    -0.5582  -0.5563  -0.5494  -0.5480  -0.5432  -0.5386  -0.5337  -0.5238
    -0.5219  -0.5164  -0.5070  -0.4994  -0.4984  -0.4948  -0.4919  -0.4880
    -0.4875  -0.4830  -0.4771  -0.4753  -0.4694  -0.4678  -0.4646  -0.4516
    -0.4386  -0.4319  -0.4207  -0.4063  -0.4049  -0.4014  -0.3984  -0.3978
    -0.3953  -0.3884  -0.3872  -0.3708  -0.3495  -0.3442  -0.3428  -0.3262
    -0.3178  -0.3016  -0.3004  -0.2711  -0.2654  -0.2592  -0.2526  -0.2493
    -0.2345  -0.2293  -0.2268  -0.2244  -0.2198  -0.2154  -0.2138  -0.2086
    -0.2059  -0.2054  -0.2014  -0.1993  -0.1909  -0.1822  -0.1788  -0.1772
    -0.1725  -0.1682  -0.1639  -0.1560  -0.1525  -0.1491  -0.1417  -0.1356
    -0.1306  -0.1196  -0.1081  -0.1038  -0.1031  -0.0892  -0.0851  -0.0802
    -0.0766  -0.0758  -0.0667  -0.0589  -0.0560  -0.0457  -0.0422  -0.0375
    -0.0309  -0.0270  -0.0233  -0.0111  -0.0072  -0.0062  -0.0050  -0.0005
     0.0018   0.0036   0.0064   0.0118   0.0169   0.0232   0.0281   0.0289
     0.0316   0.0407   0.0444   0.0519   0.0606   0.0655   0.0688   0.0728
     0.0755   0.0779   0.0861   0.0873   0.0889   0.0909   0.0967   0.0989
     0.1075   0.1133   0.1221   0.1228   0.1241   0.1285   0.1386   0.1690
     0.1740   0.1753   0.1810   0.1962   0.2021   0.2095   0.2143   0.2159
     0.2182   0.2204   0.2223   0.2285   0.2395   0.2410   0.2521   0.2544
     0.2571   0.2600   0.2802   0.2866   0.2920   0.2958   0.3068   0.3086
     0.3112   0.3213   0.3247   0.3296   0.3310   0.3342   0.3369   0.3385
     0.3407   0.3436   0.3527   0.3544   0.3621   0.3708   0.3732   0.3758
     0.3866   0.3937   0.3957   0.4033   0.4065   0.4162   0.4215   0.4268
     0.4339   0.4391   0.4434   0.4569   0.4575   0.4645   0.4671   0.4675
     0.4691   0.4698   0.4757   0.4767   0.4786   0.4829   0.4845   0.4863
     0.4892   0.4934   0.4950   0.4969   0.4998   0.5033   0.5085   0.5130
     0.5139   0.5168   0.5178   0.5217   0.5259   0.5347   0.5351   0.5394
     0.5459   0.5489   0.5520   0.5548   0.5592   0.5632   0.5658   0.5678
     0.5695   0.5716   0.5733   0.5751   0.5796   0.6027   0.6057   0.6180
     0.6193   0.6260   0.6331   0.6360   0.6367   0.6387   0.6431   0.6491
     0.6529   0.6564   0.6699   0.6774   0.6905   0.6923   0.6943   0.6954
     0.6961   0.6976   0.7010   0.7077   0.7174   0.7219   0.7250   0.7278
     0.7304   0.7317   0.7346   0.7375   0.7405   0.7421   0.7447   0.7493
     0.7525   0.7555   0.7582   0.7627   0.7653   0.7718   0.7741   0.7786
     0.7822   0.7834   0.7854   0.7904   0.7924   0.7931   0.8024   0.8178
     0.8205   0.8324   0.8382   0.8437   0.8452   0.8469   0.8521   0.8603
     0.8656   0.8672   0.8678   0.8693   0.8698   0.8712   0.8741   0.8752
     0.8775   0.8777   0.8827   0.8917   0.8959   0.8974   0.9050   0.9099
     0.9116   0.9131   0.9136   0.9148   0.9176   0.9194   0.9289   0.9352
     0.9365   0.9408   0.9474   0.9559   0.9770   0.9801   0.9877   0.9916
     0.9962   1.0292   1.0359   1.0426   1.0452   1.0578   1.0602   1.0755
     1.1055   1.1444   1.1738   1.2088   1.2269   1.2303   1.2484   1.2749
     1.4606   1.4652   1.4695   1.4802   1.4949   1.5017   1.5749   1.5780
     1.6078   1.8269   1.9724   1.9753   1.9842   2.0021   2.3197   2.4536
     2.4559   2.5248   2.5875   2.6297   2.6495   2.6569   2.6881   2.6927
     2.6953   2.8372   2.8556   2.9176   3.0705   3.0858   3.0995   3.1274
     3.1367   3.1635   3.2268   3.2398   3.2987   3.3087   3.3392   3.3431
     3.4832   3.7789   3.8194   3.8719   4.0775   4.2074   4.3205   4.3260
     4.3587   4.6187   4.6404   4.6524   4.6821   4.6877   4.7540   4.7658
     4.7898   4.8293   4.8388   4.8803   4.9082   4.9250   4.9818   5.0220
     5.0947   5.1135   5.2043   5.4437   5.4506   5.5062   5.5259   5.6392
     5.8113   5.9373   6.0183   6.0690   6.2043   6.2421   6.3302   6.3665
     6.3994   6.4232   6.4476   6.4502   6.4611   6.4694   6.5295   6.5493
     6.5878   6.6542   6.7284   6.7540   6.8138   6.9032   6.9409   6.9679
     6.9961   7.0626   7.3321   7.3637   7.3728   7.4313   7.4606   7.4760
     7.4944   7.5057   7.5463   7.5609   7.5807   7.6340   7.7250   7.8083
     7.8763   7.8946   7.9500   7.9566   8.1352   8.2133   8.3359   8.3877
     8.4104   8.4209   8.4646   8.4666   8.4775   8.4980   8.5139   8.5522
     8.5723   8.5766   8.6183   8.7164   8.7559   8.8003   8.8562   8.9033
     8.9271   8.9891   9.0165   9.0647   9.0880   9.1298   9.2240   9.2818

          k = 0.2500-0.2165 0.0000 (256316 PWs)   bands (ev):

   -16.7761 -16.1759 -15.5629 -15.2663 -14.8952 -14.2471 -13.8328 -13.5599
   -13.1178 -12.9019 -12.3791 -12.1669 -11.4455 -11.2206 -10.8130 -10.2674
    -9.8027  -9.6249  -9.3761  -9.0449  -8.3599  -8.1098  -7.5803  -7.2144
    -6.9639  -6.8989  -6.5071  -6.3396  -6.0969  -6.0886  -5.9002  -5.4997
    -5.2760  -5.1259  -5.1013  -5.0588  -5.0578  -5.0001  -4.7396  -4.7314
    -4.7086  -4.5936  -4.4262  -4.3076  -4.1773  -4.1330  -4.0608  -4.0035
    -3.9537  -3.8637  -3.8546  -3.8368  -3.8258  -3.7547  -3.5935  -3.5727
    -3.4888  -3.4596  -3.3960  -3.3160  -3.3010  -3.2951  -3.2657  -3.1732
    -3.1530  -3.0123  -2.9369  -2.7282  -2.7165  -2.7101  -2.6983  -2.6306
    -2.6135  -2.5772  -2.5764  -2.5647  -2.5150  -2.4810  -2.4528  -2.4514
    -2.3729  -2.3322  -2.3212  -2.2654  -2.2229  -2.2214  -2.2103  -2.1865
    -2.1733  -2.1721  -2.1556  -2.1478  -2.1445  -2.1394  -2.1371  -2.1277
    -2.1180  -2.1156  -2.0934  -2.0871  -2.0824  -2.0126  -2.0071  -1.9855
    -1.9239  -1.9220  -1.9217  -1.8841  -1.8148  -1.8045  -1.7961  -1.7818
    -1.7651  -1.7473  -1.7399  -1.7365  -1.7246  -1.7200  -1.7154  -1.7144
    -1.7113  -1.7107  -1.6984  -1.6974  -1.6855  -1.6714  -1.6696  -1.6664
    -1.6631  -1.6556  -1.6528  -1.6389  -1.6139  -1.6105  -1.5963  -1.5851
    -1.5744  -1.5690  -1.5674  -1.5654  -1.5575  -1.5299  -1.5170  -1.5151
    -1.5045  -1.4848  -1.4736  -1.4715  -1.4646  -1.4611  -1.4573  -1.4492
    -1.4490  -1.4458  -1.4428  -1.4401  -1.4326  -1.4298  -1.4204  -1.4191
    -1.4147  -1.4093  -1.3995  -1.3402  -1.3248  -1.3191  -1.3174  -1.2974
    -1.2949  -1.2756  -1.2650  -1.2626  -1.2439  -1.2172  -1.2146  -1.2020
    -1.2013  -1.1960  -1.1881  -1.1821  -1.1500  -1.1487  -1.1412  -1.1398
    -1.1285  -1.1034  -1.0997  -1.0910  -1.0872  -1.0687  -1.0587  -1.0501
    -1.0437  -1.0312  -1.0298  -1.0265  -1.0001  -0.9976  -0.9947  -0.9919
    -0.9778  -0.9737  -0.9687  -0.9529  -0.9357  -0.9290  -0.9243  -0.9217
    -0.9167  -0.9163  -0.9101  -0.9092  -0.9055  -0.8925  -0.8835  -0.8789
    -0.8774  -0.8738  -0.8719  -0.8701  -0.8677  -0.8622  -0.8604  -0.8448
    -0.8368  -0.8343  -0.8225  -0.8153  -0.8091  -0.8076  -0.7980  -0.7958
    -0.7895  -0.7729  -0.7664  -0.7626  -0.7564  -0.7474  -0.7441  -0.7422
    -0.7396  -0.7374  -0.7342  -0.7189  -0.7012  -0.6992  -0.6933  -0.6809
    -0.6599  -0.6556  -0.6417  -0.6400  -0.6375  -0.6328  -0.6272  -0.6126
    -0.6097  -0.6000  -0.5936  -0.5884  -0.5836  -0.5805  -0.5667  -0.5633
    -0.5562  -0.5448  -0.5327  -0.5301  -0.5219  -0.5178  -0.5148  -0.5127
    -0.5099  -0.5085  -0.4987  -0.4950  -0.4911  -0.4864  -0.4845  -0.4800
    -0.4720  -0.4668  -0.4644  -0.4618  -0.4605  -0.4557  -0.4517  -0.4468
    -0.4395  -0.4301  -0.4294  -0.4291  -0.4128  -0.4085  -0.3995  -0.3962
    -0.3930  -0.3785  -0.3731  -0.3596  -0.3555  -0.3520  -0.3506  -0.3349
    -0.3347  -0.3298  -0.3205  -0.3181  -0.3056  -0.2765  -0.2725  -0.2481
    -0.2421  -0.2383  -0.2358  -0.2348  -0.2274  -0.2228  -0.2196  -0.2183
    -0.2157  -0.2125  -0.2082  -0.2028  -0.1960  -0.1677  -0.1663  -0.1643
    -0.1635  -0.1620  -0.1593  -0.1568  -0.1488  -0.1449  -0.1321  -0.1281
    -0.1275  -0.1230  -0.1126  -0.1007  -0.0954  -0.0942  -0.0907  -0.0893
    -0.0757  -0.0662  -0.0650  -0.0518  -0.0498  -0.0459  -0.0442  -0.0404
    -0.0270  -0.0231  -0.0222  -0.0192  -0.0177  -0.0156  -0.0142  -0.0097
     0.0019   0.0037   0.0525   0.0526   0.0543   0.0561   0.0591   0.0597
     0.0610   0.0631   0.0701   0.0708   0.0716   0.0751   0.0792   0.0894
     0.0924   0.1053   0.1074   0.1097   0.1105   0.1179   0.1307   0.1343
     0.1353   0.1391   0.1399   0.1450   0.1512   0.1535   0.1559   0.1596
     0.1612   0.1639   0.1666   0.1687   0.1699   0.1781   0.1814   0.1842
     0.1878   0.1918   0.1933   0.2012   0.2119   0.2130   0.2143   0.2152
     0.2537   0.2586   0.2649   0.2715   0.2729   0.2733   0.2877   0.2954
     0.2959   0.2996   0.3010   0.3048   0.3061   0.3084   0.3094   0.3118
     0.3258   0.3299   0.3314   0.3425   0.3440   0.3512   0.3618   0.3633
     0.3690   0.3717   0.3764   0.3826   0.3839   0.3880   0.3895   0.3918
     0.3968   0.4073   0.4138   0.4168   0.4198   0.4243   0.4443   0.4547
     0.4571   0.4611   0.4633   0.4703   0.4968   0.5036   0.5064   0.5080
     0.5212   0.5267   0.5304   0.5331   0.5350   0.5361   0.5378   0.5393
     0.5411   0.5422   0.5443   0.5462   0.5489   0.5528   0.5540   0.5552
     0.5563   0.5627   0.5661   0.5715   0.5886   0.5927   0.5940   0.5985
     0.6003   0.6029   0.6086   0.6112   0.6167   0.6199   0.6222   0.6247
     0.6299   0.6356   0.6383   0.6398   0.6421   0.6461   0.6514   0.6532
     0.6543   0.6579   0.6622   0.6652   0.6677   0.6723   0.6747   0.6768
     0.6788   0.6799   0.6880   0.6914   0.6923   0.6993   0.7039   0.7138
     0.7179   0.7223   0.7328   0.7381   0.7414   0.7428   0.7461   0.7477
     0.7498   0.7518   0.7642   0.7650   0.7686   0.7727   0.7792   0.7845
     0.7925   0.7957   0.8014   0.8021   0.8062   0.8089   0.8106   0.8130
     0.8164   0.8177   0.8185   0.8209   0.8383   0.8434   0.8469   0.8507
     0.8540   0.8558   0.8563   0.8587   0.8609   0.8635   0.8723   0.8767
     0.8773   0.8849   0.8887   0.8911   0.8914   0.8934   0.8938   0.9076
     0.9089   0.9096   0.9111   0.9264   0.9312   0.9339   0.9386   0.9430
     0.9465   0.9480   0.9512   0.9572   0.9612   0.9685   0.9715   0.9776
     0.9899   1.0122   1.0405   1.0532   1.0621   1.0789   1.1291   1.1375
     1.1551   1.1684   1.1829   1.1878   1.1946   1.1967   1.2001   1.2067
     1.2245   1.2403   1.5807   1.5821   1.6012   1.6022   1.6629   1.7082
     1.8361   2.0514   2.0533   2.1178   2.1273   2.1626   2.1814   2.2146
     2.2263   2.2808   2.2847   2.3397   2.4078   2.4235   2.4442   2.5940
     2.8231   2.8810   2.9253   2.9357   2.9558   2.9884   3.2521   3.2680
     3.2710   3.2871   3.4093   3.4223   3.5979   3.6223   3.6425   3.6463
     3.8002   3.8346   3.8608   3.8677   3.9258   4.0610   4.1112   4.1210
     4.1522   4.2015   4.2198   4.2722   4.4278   4.5559   4.6211   4.6882
     4.7122   4.7805   4.8123   4.8613   4.9021   5.0383   5.1226   5.1528
     5.2596   5.2698   5.3841   5.5822   5.6386   5.7046   5.7218   5.8157
     5.9942   6.0084   6.0267   6.0507   6.0586   6.1024   6.1268   6.2817
     6.3467   6.3702   6.4103   6.4594   6.5156   6.5726   6.6178   6.6386
     6.6581   6.7183   6.7880   6.8144   6.8702   6.8826   6.8901   6.9099
     7.0436   7.0866   7.1397   7.1580   7.2111   7.3767   7.4666   7.5510
     7.5908   7.6727   7.6909   7.7426   7.7693   7.8482   7.8990   7.9248
     7.9381   7.9698   7.9966   8.0231   8.0278   8.0543   8.1237   8.1564
     8.1895   8.2445   8.2955   8.3405   8.4136   8.4403   8.5666   8.5824
     8.6007   8.6228   8.6477   8.6763   8.6874   8.7115   8.7315   8.7630
     8.8150   8.8677   8.9240   8.9672   9.0010   9.0170   9.0620   9.1142

          k =-0.5000 0.0000 0.0000 (256496 PWs)   bands (ev):

   -16.6662 -16.0375 -15.8225 -15.4800 -14.9612 -14.5494 -13.7116 -13.2963
   -12.4323 -12.3512 -12.1336 -11.9583 -11.8156 -11.7743 -11.1515 -10.6501
    -9.8192  -9.7794  -9.4815  -9.2564  -8.5014  -8.3933  -7.9874  -7.4911
    -6.4348  -6.2429  -5.6972  -5.6944  -5.6355  -5.6242  -5.5814  -5.2888
    -5.1949  -5.1934  -5.1881  -5.1842  -5.1263  -5.0191  -4.7505  -4.7214
    -4.7042  -4.6346  -4.4851  -4.3322  -4.2896  -4.2807  -4.2647  -4.2385
    -4.2093  -4.1031  -4.0008  -3.8586  -3.8193  -3.8119  -3.8103  -3.8075
    -3.8035  -3.7803  -3.5734  -3.5456  -3.2046  -3.1935  -3.1443  -3.1190
    -3.1054  -3.1043  -3.0650  -3.0517  -2.9497  -2.8611  -2.8446  -2.8207
    -2.7833  -2.6046  -2.5976  -2.5604  -2.2990  -2.2942  -2.2927  -2.2905
    -2.2871  -2.2867  -2.2866  -2.2795  -2.2593  -2.2380  -2.1002  -2.0991
    -2.0988  -2.0984  -2.0595  -2.0373  -2.0284  -2.0252  -2.0222  -2.0206
    -2.0179  -1.9611  -1.9578  -1.9060  -1.8884  -1.8834  -1.8804  -1.8799
    -1.8724  -1.8681  -1.8613  -1.8510  -1.8430  -1.8384  -1.8228  -1.8208
    -1.7965  -1.7958  -1.7801  -1.7769  -1.7748  -1.7727  -1.7713  -1.7689
    -1.7293  -1.7187  -1.7178  -1.7159  -1.7136  -1.6818  -1.6706  -1.6690
    -1.6659  -1.6596  -1.6459  -1.6445  -1.6402  -1.6376  -1.6321  -1.6209
    -1.6172  -1.6138  -1.5850  -1.5816  -1.5771  -1.5755  -1.5423  -1.5165
    -1.5134  -1.5121  -1.5106  -1.4978  -1.4949  -1.4592  -1.4563  -1.4463
    -1.4445  -1.4319  -1.4303  -1.4276  -1.4259  -1.4216  -1.4159  -1.4113
    -1.4106  -1.4026  -1.4014  -1.3988  -1.3945  -1.3773  -1.3669  -1.3658
    -1.3522  -1.3362  -1.3317  -1.3246  -1.3242  -1.2894  -1.2872  -1.2113
    -1.1730  -1.1721  -1.1681  -1.1666  -1.1508  -1.1503  -1.1496  -1.1486
    -1.1446  -1.1441  -1.1300  -1.1280  -1.1188  -1.1179  -1.1086  -1.1067
    -1.1049  -1.1036  -1.1015  -1.0997  -1.0673  -1.0650  -1.0605  -1.0481
    -0.9712  -0.9709  -0.9466  -0.9422  -0.9354  -0.9341  -0.9325  -0.9321
    -0.9317  -0.9297  -0.9260  -0.9210  -0.9123  -0.9052  -0.8836  -0.8828
    -0.8757  -0.8745  -0.8441  -0.8413  -0.8404  -0.8386  -0.8356  -0.8314
    -0.8000  -0.7968  -0.7882  -0.7871  -0.7867  -0.7844  -0.7824  -0.7791
    -0.7557  -0.7551  -0.7376  -0.7372  -0.7287  -0.7281  -0.7006  -0.6987
    -0.6973  -0.6965  -0.6747  -0.6733  -0.6717  -0.6713  -0.6526  -0.6521
    -0.6513  -0.6488  -0.5993  -0.5970  -0.5951  -0.5902  -0.5856  -0.5846
    -0.5829  -0.5812  -0.5751  -0.5729  -0.5710  -0.5694  -0.5483  -0.5475
    -0.5357  -0.5342  -0.5290  -0.5270  -0.5038  -0.4952  -0.4765  -0.4759
    -0.4674  -0.4658  -0.4538  -0.4533  -0.4507  -0.4470  -0.4457  -0.4401
    -0.4394  -0.4375  -0.4354  -0.4321  -0.4295  -0.4287  -0.4140  -0.4123
    -0.4094  -0.4081  -0.4051  -0.4036  -0.4023  -0.4008  -0.4005  -0.3990
    -0.3933  -0.3926  -0.3896  -0.3885  -0.3840  -0.3824  -0.3819  -0.3806
    -0.3129  -0.3069  -0.3021  -0.3021  -0.2925  -0.2827  -0.2588  -0.2582
    -0.2578  -0.2566  -0.2040  -0.1933  -0.1875  -0.1836  -0.1814  -0.1763
    -0.1728  -0.1691  -0.1676  -0.1550  -0.1543  -0.1513  -0.1484  -0.1458
    -0.1445  -0.1440  -0.1402  -0.1340  -0.1294  -0.1225  -0.1204  -0.1197
    -0.1173  -0.1162  -0.1121  -0.1116  -0.1094  -0.1031  -0.0870  -0.0830
    -0.0533  -0.0486  -0.0428  -0.0391  -0.0323  -0.0250  -0.0243  -0.0147
    -0.0093  -0.0071  -0.0049  -0.0036  -0.0025  -0.0005   0.0031   0.0049
     0.0076   0.0106   0.0117   0.0160   0.0180   0.0193   0.0205   0.0244
     0.0263   0.0392   0.0428   0.0507   0.0524   0.0569   0.0605   0.0716
     0.0763   0.0768   0.0817   0.0828   0.0893   0.0905   0.0943   0.0947
     0.0961   0.1124   0.1142   0.1160   0.1178   0.1203   0.1248   0.1270
     0.1291   0.1377   0.1404   0.1475   0.1531   0.1556   0.1664   0.1767
     0.1879   0.1892   0.1912   0.1925   0.2007   0.2060   0.2087   0.2122
     0.2156   0.2269   0.2343   0.2461   0.2487   0.2593   0.2652   0.2681
     0.2778   0.2807   0.2816   0.2816   0.2872   0.2948   0.3024   0.3043
     0.3055   0.3124   0.3242   0.3243   0.3280   0.3337   0.3345   0.3369
     0.3386   0.3450   0.3457   0.3589   0.3601   0.3701   0.3721   0.3737
     0.3756   0.3783   0.3800   0.3950   0.4029   0.4066   0.4327   0.4362
     0.4611   0.4619   0.4698   0.4724   0.4788   0.4844   0.4964   0.5021
     0.5107   0.5126   0.5162   0.5186   0.5263   0.5266   0.5301   0.5321
     0.5505   0.5532   0.5544   0.5549   0.5558   0.5587   0.5621   0.5650
     0.5707   0.5769   0.5774   0.5782   0.5807   0.5819   0.5915   0.5924
     0.5933   0.5957   0.5963   0.6019   0.6054   0.6073   0.6129   0.6165
     0.6278   0.6292   0.6445   0.6481   0.6546   0.6558   0.6566   0.6580
     0.6668   0.6689   0.6726   0.6750   0.6771   0.6825   0.6831   0.6851
     0.6867   0.6873   0.6910   0.6963   0.6996   0.7061   0.7152   0.7194
     0.7339   0.7352   0.7371   0.7387   0.7412   0.7447   0.7466   0.7502
     0.7523   0.7557   0.7640   0.7659   0.7671   0.7681   0.7747   0.7777
     0.7832   0.7840   0.7857   0.7863   0.7868   0.7871   0.7890   0.7901
     0.7927   0.7968   0.7985   0.7989   0.8016   0.8073   0.8192   0.8275
     0.8310   0.8379   0.8408   0.8423   0.8496   0.8520   0.8558   0.8578
     0.8753   0.8782   0.8790   0.8801   0.8823   0.8827   0.8833   0.8849
     0.8960   0.8997   0.9023   0.9034   0.9104   0.9162   0.9174   0.9204
     0.9209   0.9213   0.9403   0.9417   0.9423   0.9433   0.9440   0.9445
     0.9458   0.9482   0.9768   0.9787   0.9937   0.9953   0.9961   1.0029
     1.0222   1.0254   1.0341   1.0359   1.3817   1.4101   1.4127   1.4209
     1.4614   1.5985   1.6120   1.7067   1.7311   1.7593   1.7595   1.7622
     1.7679   1.9243   1.9282   1.9519   1.9588   2.2601   2.2621   2.2645
     2.2675   2.4811   2.6712   2.6763   2.6833   2.7010   2.8826   2.9095
     3.0274   3.0429   3.0682   3.0803   3.3132   3.3168   3.3264   3.3275
     3.3925   3.4183   3.5038   3.5077   3.5238   3.5378   3.9006   3.9136
     3.9973   4.0179   4.2954   4.3034   4.3152   4.3179   4.4119   4.4233
     4.4393   4.4493   4.4626   4.4643   4.4823   4.5101   4.5317   4.5382
     4.5476   4.6035   4.6943   4.7371   4.7581   4.8031   4.8540   4.8728
     4.8771   4.8971   5.1800   5.2416   5.2800   5.2979   5.3207   5.3292
     5.4129   5.4253   5.4504   5.4601   5.5211   5.5384   5.6226   5.6689
     6.0342   6.2243   6.3677   6.3837   6.4051   6.4372   6.5103   6.6086
     6.7968   6.9089   6.9359   6.9803   7.0252   7.0455   7.0479   7.0595
     7.0773   7.1758   7.1804   7.1985   7.2152   7.2461   7.2582   7.2940
     7.3597   7.3660   7.3760   7.3853   7.4236   7.4332   7.4384   7.5370
     7.8133   7.9210   7.9446   7.9850   8.1050   8.1177   8.1631   8.1714
     8.2448   8.2561   8.2654   8.2828   8.3713   8.3893   8.4396   8.5829
     8.5974   8.6489   8.6665   8.7101   8.7291   8.7421   8.7677   8.7973
     8.8183   8.8477   8.8741   8.8849   8.8888   8.9115   8.9164   9.0189

          k =-0.5000-0.2165 0.0000 (256328 PWs)   bands (ev):

   -16.6662 -16.0375 -15.8225 -15.4800 -14.9612 -14.5494 -13.7116 -13.2963
   -12.4323 -12.3512 -12.1336 -11.9583 -11.8156 -11.7743 -11.1515 -10.6501
    -9.8192  -9.7795  -9.4816  -9.2565  -8.5014  -8.3933  -7.9872  -7.4908
    -6.4351  -6.2429  -5.6370  -5.6279  -5.5835  -5.5710  -5.5672  -5.5650
    -5.5605  -5.2888  -5.1266  -5.0191  -4.7052  -4.6850  -4.6365  -4.6173
    -4.6109  -4.6076  -4.5819  -4.5810  -4.5802  -4.5763  -4.3910  -4.3248
    -4.2387  -4.1339  -4.0052  -3.9220  -3.8221  -3.7934  -3.7712  -3.7287
    -3.7233  -3.6744  -3.5488  -3.5327  -3.1332  -3.1012  -3.0756  -3.0658
    -3.0617  -3.0424  -2.9820  -2.9775  -2.9768  -2.9762  -2.9338  -2.6894
    -2.6061  -2.5908  -2.5499  -2.5385  -2.5333  -2.5304  -2.5296  -2.5269
    -2.5008  -2.4186  -2.2269  -2.2235  -2.2206  -2.2149  -2.0714  -2.0678
    -2.0652  -2.0560  -2.0524  -2.0161  -2.0041  -1.9610  -1.9532  -1.9221
    -1.9214  -1.9207  -1.9190  -1.9178  -1.9167  -1.8983  -1.8963  -1.8863
    -1.8328  -1.8315  -1.8261  -1.8224  -1.8153  -1.8149  -1.8118  -1.8064
    -1.7995  -1.7975  -1.7958  -1.7925  -1.7916  -1.7895  -1.7690  -1.7675
    -1.7644  -1.7457  -1.7444  -1.7392  -1.7010  -1.6611  -1.6596  -1.6495
    -1.6431  -1.6425  -1.6347  -1.6341  -1.6324  -1.6296  -1.6252  -1.6198
    -1.6106  -1.6090  -1.6086  -1.6068  -1.5842  -1.5833  -1.5828  -1.5819
    -1.5322  -1.5298  -1.5263  -1.5111  -1.5100  -1.5074  -1.5056  -1.5009
    -1.4995  -1.4885  -1.4852  -1.4845  -1.4811  -1.4494  -1.4146  -1.3816
    -1.3796  -1.3751  -1.3692  -1.3274  -1.2990  -1.2973  -1.2959  -1.2954
    -1.2742  -1.2700  -1.2629  -1.2622  -1.2573  -1.2550  -1.2513  -1.2498
    -1.2483  -1.2481  -1.2479  -1.1910  -1.1807  -1.1777  -1.1748  -1.1713
    -1.1690  -1.1640  -1.1571  -1.1565  -1.1527  -1.1407  -1.1386  -1.1322
    -1.0641  -1.0630  -1.0595  -1.0585  -1.0473  -1.0451  -1.0406  -1.0361
    -0.9982  -0.9980  -0.9938  -0.9912  -0.9600  -0.9578  -0.9570  -0.9567
    -0.9433  -0.9423  -0.9395  -0.9385  -0.8906  -0.8890  -0.8872  -0.8870
    -0.8805  -0.8786  -0.8782  -0.8729  -0.8195  -0.8190  -0.8161  -0.8112
    -0.7596  -0.7591  -0.7550  -0.7542  -0.7476  -0.7472  -0.7411  -0.7408
    -0.7398  -0.7378  -0.7358  -0.7334  -0.6828  -0.6809  -0.6785  -0.6767
    -0.6743  -0.6735  -0.6711  -0.6683  -0.6678  -0.6669  -0.6663  -0.6596
    -0.6569  -0.6555  -0.6541  -0.6532  -0.6359  -0.6352  -0.6328  -0.6309
    -0.5864  -0.5856  -0.5822  -0.5813  -0.5436  -0.5427  -0.5392  -0.5365
    -0.5102  -0.5072  -0.5038  -0.5010  -0.4994  -0.4981  -0.4843  -0.4827
    -0.4811  -0.4785  -0.4748  -0.4717  -0.4606  -0.4592  -0.4582  -0.4578
    -0.4504  -0.4497  -0.4486  -0.4482  -0.4413  -0.4324  -0.4262  -0.4248
    -0.4184  -0.4178  -0.4174  -0.4167  -0.3964  -0.3959  -0.3947  -0.3945
    -0.3819  -0.3775  -0.3754  -0.3750  -0.3680  -0.3676  -0.3612  -0.3604
    -0.3152  -0.3021  -0.2994  -0.2964  -0.2944  -0.2927  -0.2774  -0.2748
    -0.2444  -0.2412  -0.2395  -0.2378  -0.2014  -0.1817  -0.1810  -0.1775
    -0.1738  -0.1694  -0.1631  -0.1580  -0.1528  -0.1501  -0.1472  -0.1445
    -0.1428  -0.1364  -0.1324  -0.1313  -0.1305  -0.1193  -0.1174  -0.1140
    -0.1122  -0.1007  -0.0940  -0.0891  -0.0877  -0.0858  -0.0853  -0.0848
    -0.0827  -0.0742  -0.0686  -0.0670  -0.0658  -0.0638  -0.0608  -0.0487
    -0.0438  -0.0241  -0.0180  -0.0175  -0.0136  -0.0058  -0.0037   0.0019
     0.0157   0.0183   0.0215   0.0308   0.0361   0.0382   0.0397   0.0404
     0.0415   0.0445   0.0461   0.0489   0.0497   0.0542   0.0583   0.0614
     0.0628   0.0647   0.0715   0.0735   0.0743   0.0750   0.0753   0.0833
     0.0925   0.0936   0.1089   0.1162   0.1237   0.1243   0.1270   0.1319
     0.1378   0.1471   0.1572   0.1622   0.1663   0.1716   0.1720   0.1727
     0.1732   0.1827   0.1855   0.1873   0.1900   0.1908   0.2001   0.2042
     0.2075   0.2081   0.2088   0.2137   0.2356   0.2434   0.2457   0.2512
     0.2625   0.2641   0.2682   0.2731   0.2736   0.3052   0.3151   0.3163
     0.3228   0.3258   0.3273   0.3298   0.3349   0.3363   0.3945   0.3963
     0.3970   0.3989   0.4076   0.4102   0.4107   0.4113   0.4206   0.4216
     0.4311   0.4337   0.4436   0.4533   0.4596   0.4637   0.4680   0.4701
     0.4715   0.4740   0.4790   0.4798   0.4820   0.4828   0.4849   0.4872
     0.4903   0.4913   0.4920   0.4970   0.5005   0.5026   0.5076   0.5134
     0.5149   0.5207   0.5305   0.5327   0.5332   0.5368   0.5395   0.5408
     0.5437   0.5453   0.5550   0.5557   0.5624   0.5652   0.5667   0.5679
     0.5765   0.5791   0.5795   0.5808   0.5827   0.5835   0.6270   0.6291
     0.6365   0.6381   0.6409   0.6426   0.6448   0.6464   0.6470   0.6497
     0.6586   0.6598   0.6636   0.6641   0.6642   0.6676   0.6733   0.6780
     0.6814   0.6926   0.7170   0.7180   0.7200   0.7211   0.7212   0.7218
     0.7223   0.7235   0.7295   0.7307   0.7339   0.7344   0.7657   0.7676
     0.7706   0.7750   0.7824   0.7847   0.7871   0.7901   0.7920   0.7935
     0.7952   0.7969   0.7973   0.7988   0.8001   0.8011   0.8053   0.8060
     0.8118   0.8148   0.8163   0.8195   0.8205   0.8239   0.8278   0.8301
     0.8331   0.8347   0.8350   0.8360   0.8377   0.8391   0.8475   0.8509
     0.8553   0.8614   0.8826   0.8835   0.8844   0.8859   0.8931   0.8953
     0.8988   0.8999   0.9145   0.9173   0.9245   0.9269   0.9395   0.9412
     0.9428   0.9460   0.9569   0.9594   0.9613   0.9683   0.9920   0.9954
     0.9966   0.9990   1.0081   1.0133   1.0216   1.0219   1.0251   1.0271
     1.0283   1.0352   1.0650   1.0668   1.0674   1.0698   1.2588   1.2625
     1.2633   1.2657   1.4591   1.6383   1.6423   1.7142   1.7214   2.0197
     2.0428   2.0500   2.0611   2.1620   2.1658   2.1817   2.1854   2.3672
     2.3935   2.4026   2.4156   2.5529   2.9455   2.9501   2.9508   2.9510
     3.0387   3.0495   3.0877   3.1061   3.4249   3.4260   3.4295   3.4314
     3.4491   3.4705   3.6194   3.6383   3.6618   3.6631   3.6699   3.6720
     3.8634   3.8776   3.8982   3.9026   4.1150   4.1231   4.1355   4.1499
     4.4369   4.4587   4.4898   4.5075   4.5362   4.5503   4.5601   4.5751
     4.5866   4.5913   4.5986   4.6136   4.6179   4.6539   4.7518   4.8509
     4.9224   5.0179   5.0984   5.1130   5.1950   5.2066   5.2146   5.2289
     5.2552   5.2850   6.0317   6.1835   6.2286   6.2727   6.2938   6.3599
     6.3654   6.3763   6.3895   6.4140   6.4215   6.4525   6.4821   6.4877
     6.5119   6.5181   6.5735   6.6791   6.7477   6.7716   6.7759   6.7797
     6.7874   6.8251   6.8455   6.8526   7.0809   7.2356   7.2510   7.2977
     7.3239   7.3497   7.5985   7.6016   7.7107   7.7114   7.8211   7.8941
     7.9674   8.1208   8.1245   8.1312   8.1488   8.2416   8.2814   8.2853
     8.2899   8.2915   8.3131   8.3239   8.3437   8.4365   8.4647   8.4872
     8.5116   8.5191   8.5282   8.5357   8.5457   8.6422   8.6544   8.6685
     8.7011   8.7382   8.7663   8.8318   8.8587   8.9008   9.1485   9.2177

     the Fermi energy is     2.7457 ev

!    total energy              =  -12505.91836491 Ry
     Harris-Foulkes estimate   =  -12505.91836496 Ry
     estimated scf accuracy    <          8.3E-09 Ry

     The total energy is the sum of the following terms:

     one-electron contribution = -104214.05389956 Ry
     hartree contribution      =   53422.30747180 Ry
     xc contribution           =   -4387.13377597 Ry
     ewald contribution        =   42676.31686618 Ry
     smearing contrib. (-TS)   =      -3.35502736 Ry

     convergence has been achieved in  46 iterations

     Writing output data file gc.save
 
     init_run     :    163.13s CPU    173.67s WALL (       1 calls)
     electrons    :  20418.80s CPU  21809.41s WALL (       1 calls)

     Called by init_run:
     wfcinit      :    160.60s CPU    170.54s WALL (       1 calls)
     potinit      :      0.74s CPU      0.80s WALL (       1 calls)

     Called by electrons:
     c_bands      :  18303.05s CPU  19520.18s WALL (      46 calls)
     sum_band     :   1671.87s CPU   1781.35s WALL (      46 calls)
     v_of_rho     :      5.48s CPU      6.97s WALL (      47 calls)
     newd         :     14.60s CPU     28.01s WALL (      47 calls)
     mix_rho      :    423.84s CPU    472.77s WALL (      46 calls)

     Called by c_bands:
     init_us_2    :     84.37s CPU     85.97s WALL (     558 calls)
     cegterg      :  17960.61s CPU  19163.04s WALL (     277 calls)

     Called by sum_band:
     sum_band:bec :      4.69s CPU      5.27s WALL (     276 calls)
     addusdens    :     21.30s CPU     33.12s WALL (      46 calls)

     Called by *egterg:
     h_psi        :   7083.91s CPU   7621.42s WALL (    1683 calls)
     s_psi        :   1775.60s CPU   1786.48s WALL (    1683 calls)
     g_psi        :     18.73s CPU     18.81s WALL (    1400 calls)
     cdiaghg      :   4628.31s CPU   4872.86s WALL (    1677 calls)

     Called by h_psi:
     add_vuspsi   :   1778.42s CPU   1790.79s WALL (    1683 calls)

     General routines
     calbec       :   2446.88s CPU   2464.84s WALL (    1959 calls)
     fft          :      4.70s CPU      5.59s WALL (     610 calls)
     ffts         :    180.90s CPU    215.51s WALL (   27245 calls)
     fftw         :   3524.16s CPU   4006.04s WALL ( 1198980 calls)
     davcio       :      0.21s CPU      5.89s WALL (       6 calls)
 
     Parallel routines
     fft_scatter  :   1785.25s CPU   2059.03s WALL ( 1226835 calls)
 
     PWSCF        :     5h43m CPU        6h 6m WALL

 
   This run was terminated on:   1: 8: 2  26Oct2017            

=------------------------------------------------------------------------------=
   JOB DONE.
=------------------------------------------------------------------------------=
