
     Program PWSCF v.5.4.0 starts on 26Apr2017 at 18:18:57 

     This program is part of the open-source Quantum ESPRESSO suite
     for quantum simulation of materials; please cite
         "P. Giannozzi et al., J. Phys.:Condens. Matter 21 395502 (2009);
          URL http://www.quantum-espresso.org", 
     in publications or presentations arising from this work. More details at
     http://www.quantum-espresso.org/quote

     Parallel version (MPI & OpenMP), running on      56 processor cores
     Number of MPI processes:                56
     Threads/MPI process:                     1
     R & G space division:  proc/nbgrp/npool/nimage =      56
     Waiting for input...
     Reading input from standard input
Warning: card &IONS ignored
Warning: card / ignored

     Current dimensions of program PWSCF are:
     Max number of different atomic species (ntypx) = 10
     Max number of k-points (npk) =  40000
     Max angular momentum in pseudopotentials (lmaxx) =  3

     -------------------------------------
     Parameters for Dispersion Correction:
     -------------------------------------
       atom      VdW radius       C_6     

        Cu         2.952        374.666
        C_h        2.744         60.710
        C          2.744         60.710
        H          1.892          4.857

     Subspace diagonalization in iterative solution of the eigenvalue problem:
     one sub-group per band group will be used
     scalapack distributed-memory algorithm (size of sub-group:  5*  5 procs)

 
     Parallelization info
     --------------------
     sticks:   dense  smooth     PW     G-vecs:    dense   smooth      PW
     Min         204     204     54                36612    36612    4962
     Max         205     205     55                36617    36617    4968
     Sum       11433   11433   3039              2050409  2050409  278033
 


     bravais-lattice index     =            0
     lattice parameter (alat)  =      13.9425  a.u.
     unit-cell volume          =   21209.0878 (a.u.)^3
     number of atoms/cell      =          154
     number of atomic types    =            4
     number of electrons       =      1304.00
     number of Kohn-Sham states=          782
     kinetic-energy cutoff     =      80.0000  Ry
     charge density cutoff     =     320.0000  Ry
     convergence threshold     =      1.0E-08
     mixing beta               =       0.7000
     number of iterations used =            8  local-TF  mixing
     Exchange-correlation      =  SLA  PW   PBE  PBE ( 1  4  3  4 0 0)

     celldm(1)=  13.942539  celldm(2)=   0.000000  celldm(3)=   0.000000
     celldm(4)=   0.000000  celldm(5)=   0.000000  celldm(6)=   0.000000

     crystal axes: (cart. coord. in units of alat)
               a(1) = (   1.000000   0.000000   0.000000 )  
               a(2) = (   0.000000   2.309401   0.000000 )  
               a(3) = (   0.000000   0.000000   3.388418 )  

     reciprocal axes: (cart. coord. in units 2 pi/alat)
               b(1) = (  1.000000  0.000000  0.000000 )  
               b(2) = (  0.000000  0.433013  0.000000 )  
               b(3) = (  0.000000  0.000000  0.295123 )  


     PseudoPot. # 1 for Cu read from file:
     /home/549/hxw549/Short/pseudopotentials/Cu.pbe-n-van_ak.UPF
     MD5 check sum: 601f7c30f7467666bec936e0661ce3e1
     Pseudo is Ultrasoft + core correction, Zval = 11.0
     Generated by new atomic code, or converted to UPF format
     Using radial grid of  867 points,  6 beta functions with: 
                l(1) =   0
                l(2) =   0
                l(3) =   1
                l(4) =   1
                l(5) =   2
                l(6) =   2
     Q(r) pseudized with  8 coefficients,  rinner =    1.400   1.400   1.400
                                                       1.400   1.400

     PseudoPot. # 2 for C  read from file:
     /home/549/hxw549/Short/pseudopotentials/C.star1s-pbe-mt_gipaw.UPF
     MD5 check sum: ef0cb3dee31bd9e4ba2a832a2c716264
     Pseudo is Norm-conserving, Zval =  5.0
     Generated by new atomic code, or converted to UPF format
     Using radial grid of 1073 points,  1 beta functions with: 
                l(1) =   0

     PseudoPot. # 3 for C  read from file:
     /home/549/hxw549/Short/pseudopotentials/C.pbe-mt_gipaw.UPF
     MD5 check sum: 5ac2f21f2c440b14befe521540822c15
     Pseudo is Norm-conserving, Zval =  4.0
     Generated by new atomic code, or converted to UPF format
     Using radial grid of 1073 points,  1 beta functions with: 
                l(1) =   0

     PseudoPot. # 4 for H  read from file:
     /home/549/hxw549/Short/pseudopotentials/H.pbe-van_ak.UPF
     MD5 check sum: 077eb6d537518a38cb46c6de387227b7
     Pseudo is Ultrasoft, Zval =  1.0
     Generated by new atomic code, or converted to UPF format
     Using radial grid of  615 points,  1 beta functions with: 
                l(1) =   0
     Q(r) pseudized with  8 coefficients,  rinner =    0.800

     atomic species   valence    mass     pseudopotential
        Cu            11.00    63.54600     Cu( 1.00)
        C_h            5.00    12.01070     C ( 1.00)
        C              4.00    12.01070     C ( 1.00)
        H              1.00     1.00783     H ( 1.00)

     No symmetry found



   Cartesian axes

     site n.     atom                  positions (alat units)
         1           Cu  tau(   1) = (   0.0002043  -0.0025717   0.9942108  )
         2           Cu  tau(   2) = (   0.2502613   0.2244800   0.9935968  )
         3           Cu  tau(   3) = (   0.5002401  -0.0038862   0.9924746  )
         4           Cu  tau(   4) = (   0.7502060   0.2245063   0.9935693  )
         5           Cu  tau(   5) = (   0.0002385   0.4557669   0.9935004  )
         6           Cu  tau(   6) = (   0.2507651   0.6896551   0.9949714  )
         7           Cu  tau(   7) = (   0.5002412   0.4563759   0.9953699  )
         8           Cu  tau(   8) = (   0.7497243   0.6896526   0.9949528  )
         9           Cu  tau(   9) = (   0.0002741   0.9239688   0.9944310  )
        10           Cu  tau(  10) = (   0.2507484   1.1588995   0.9942913  )
        11           Cu  tau(  11) = (   0.5002229   0.9239521   0.9954916  )
        12           Cu  tau(  12) = (   0.7497205   1.1588751   0.9942577  )
        13           Cu  tau(  13) = (   0.0002005   1.3941797   0.9917183  )
        14           Cu  tau(  14) = (   0.2501890   1.6270419   0.9911099  )
        15           Cu  tau(  15) = (   0.5002472   1.3936651   0.9934814  )
        16           Cu  tau(  16) = (   0.7502464   1.6270434   0.9911362  )
        17           Cu  tau(  17) = (   0.0002210   1.8550921   0.9925404  )
        18           Cu  tau(  18) = (   0.2495825   2.0811673   0.9931877  )
        19           Cu  tau(  19) = (   0.5001965   1.8563988   0.9902085  )
        20           Cu  tau(  20) = (   0.7508427   2.0811476   0.9932235  )
        21           Cu  tau(  21) = (   0.0002482   0.2242931   1.2447837  )
        22           Cu  tau(  22) = (   0.2498761  -0.0033647   1.2471709  )
        23           Cu  tau(  23) = (   0.5002534   0.2222256   1.2422400  )
        24           Cu  tau(  24) = (   0.7506131  -0.0032893   1.2472346  )
        25           Cu  tau(  25) = (   0.0002667   0.6880630   1.2386669  )
        26           Cu  tau(  26) = (   0.2499562   0.4537637   1.2405942  )
        27           Cu  tau(  27) = (   0.5002943   0.6886442   1.2414404  )
        28           Cu  tau(  28) = (   0.7505742   0.4537472   1.2405793  )
        29           Cu  tau(  29) = (   0.0002476   1.1616965   1.2368574  )
        30           Cu  tau(  30) = (   0.2501502   0.9246196   1.2399440  )
        31           Cu  tau(  31) = (   0.5002819   1.1610726   1.2392902  )
        32           Cu  tau(  32) = (   0.7504072   0.9246098   1.2398995  )
        33           Cu  tau(  33) = (   0.0002198   1.6276529   1.2413369  )
        34           Cu  tau(  34) = (   0.2500613   1.3973758   1.2371512  )
        35           Cu  tau(  35) = (   0.5002401   1.6298765   1.2389540  )
        36           Cu  tau(  36) = (   0.7504172   1.3973475   1.2371744  )
        37           Cu  tau(  37) = (   0.0002075   2.0807183   1.2476202  )
        38           Cu  tau(  38) = (   0.2497642   1.8554798   1.2448912  )
        39           Cu  tau(  39) = (   0.5002618   2.0801741   1.2465346  )
        40           Cu  tau(  40) = (   0.7507077   1.8554268   1.2449327  )
        41           Cu  tau(  41) = (   0.0002334  -0.0025479   1.5022411  )
        42           Cu  tau(  42) = (   0.2492996   0.2254476   1.4970463  )
        43           Cu  tau(  43) = (   0.5003214  -0.0027157   1.4992700  )
        44           Cu  tau(  44) = (   0.7512954   0.2255017   1.4971177  )
        45           Cu  tau(  45) = (   0.0003236   0.4551980   1.4912380  )
        46           Cu  tau(  46) = (   0.2489867   0.6863144   1.4839175  )
        47           Cu  tau(  47) = (   0.5002861   0.4519356   1.4867713  )
        48           Cu  tau(  48) = (   0.7516492   0.6862933   1.4839869  )
        49           Cu  tau(  49) = (   0.0002891   0.9256767   1.4809594  )
        50           Cu  tau(  50) = (   0.2492486   1.1657936   1.4807251  )
        51           Cu  tau(  51) = (   0.5003544   0.9256491   1.4819086  )
        52           Cu  tau(  52) = (   0.7513260   1.1657516   1.4807751  )
        53           Cu  tau(  53) = (   0.0002539   1.3977035   1.4865052  )
        54           Cu  tau(  54) = (   0.2494736   1.6273793   1.4925966  )
        55           Cu  tau(  55) = (   0.5002895   1.4001490   1.4829612  )
        56           Cu  tau(  56) = (   0.7510670   1.6273340   1.4927039  )
        57           Cu  tau(  57) = (   0.0002574   1.8538138   1.5005000  )
        58           Cu  tau(  58) = (   0.2505253   2.0800732   1.5028238  )
        59           Cu  tau(  59) = (   0.5002697   1.8533783   1.4989645  )
        60           Cu  tau(  60) = (   0.7500065   2.0800441   1.5027965  )
        61           Cu  tau(  61) = (   0.0002937   0.2304988   1.7509922  )
        62           Cu  tau(  62) = (   0.2500863   0.0006243   1.7553958  )
        63           Cu  tau(  63) = (   0.5003616   0.2277639   1.7456260  )
        64           Cu  tau(  64) = (   0.7505373   0.0005627   1.7554292  )
        65           Cu  tau(  65) = (   0.0004664   0.6922260   1.7324316  )
        66           Cu  tau(  66) = (   0.2495677   0.4596615   1.7423903  )
        67           Cu  tau(  67) = (   0.5003916   0.6843092   1.7208806  )
        68           Cu  tau(  68) = (   0.7511618   0.4598404   1.7425480  )
        69           Cu  tau(  69) = (   0.0003083   1.1637444   1.7266669  )
        70           Cu  tau(  70) = (   0.2482537   0.9279368   1.7172561  )
        71           Cu  tau(  71) = (   0.5003366   1.1707054   1.7175919  )
        72           Cu  tau(  72) = (   0.7523780   0.9278273   1.7174595  )
        73           Cu  tau(  73) = (   0.0002651   1.6217586   1.7491300  )
        74           Cu  tau(  74) = (   0.2494393   1.3965543   1.7355819  )
        75           Cu  tau(  75) = (   0.5003389   1.6217397   1.7455006  )
        76           Cu  tau(  76) = (   0.7511621   1.3963967   1.7358119  )
        77           Cu  tau(  77) = (   0.0003291   2.0792459   1.7574384  )
        78           Cu  tau(  78) = (   0.2504323   1.8496511   1.7542337  )
        79           Cu  tau(  79) = (   0.5002783   2.0803316   1.7561957  )
        80           Cu  tau(  80) = (   0.7501861   1.8497038   1.7542225  )
        81           Cu  tau(  81) = (   0.0003184   0.0041178   2.0034186  )
        82           Cu  tau(  82) = (   0.2487642   0.2367193   2.0013239  )
        83           Cu  tau(  83) = (   0.5003358   0.0055922   2.0032012  )
        84           Cu  tau(  84) = (   0.7519720   0.2368324   2.0013947  )
        85           Cu  tau(  85) = (   0.0005168   0.4719240   1.9933684  )
        86           Cu  tau(  86) = (   0.2511744   0.7019439   1.9732905  )
        87           Cu  tau(  87) = (   0.5003937   0.4613158   1.9840152  )
        88           Cu  tau(  88) = (   0.7499376   0.7020931   1.9731588  )
        89           Cu  tau(  89) = (   0.0006719   0.9309442   1.9670230  )
        90           Cu  tau(  90) = (   0.2472093   1.1617877   1.9664531  )
        91           Cu  tau(  91) = (   0.5003359   0.9344534   1.9351709  )
        92           Cu  tau(  92) = (   0.7534211   1.1612543   1.9666763  )
        93           Cu  tau(  93) = (   0.0002357   1.3850550   1.9949752  )
        94           Cu  tau(  94) = (   0.2507924   1.6139028   2.0000820  )
        95           Cu  tau(  95) = (   0.5003821   1.3850011   1.9865794  )
        96           Cu  tau(  96) = (   0.7498026   1.6139192   2.0001243  )
        97           Cu  tau(  97) = (   0.0002643   1.8448113   2.0041961  )
        98           Cu  tau(  98) = (   0.2503795   2.0793699   2.0038159  )
        99           Cu  tau(  99) = (   0.5003582   1.8452819   2.0008624  )
       100           Cu  tau( 100) = (   0.7502529   2.0794083   2.0038345  )
       101           C   tau( 101) = (  -0.0000820   0.0994921   2.4176984  )
       102           C   tau( 102) = (  -0.0000762   0.2913254   2.4480389  )
       103           C   tau( 103) = (   0.1666439   0.0023668   2.4080360  )
       104           C   tau( 104) = (   0.1667082   0.3864411   2.4688191  )
       105           C   tau( 105) = (   0.3333383   0.0990832   2.4193349  )
       106           C   tau( 106) = (   0.3334728   0.2909126   2.4500476  )
       107           C   tau( 107) = (   0.4999784   0.0017143   2.4092302  )
       108           C   tau( 108) = (   0.4999661   0.3868195   2.4710727  )
       109           C   tau( 109) = (   0.6666262   0.0992659   2.4189926  )
       110           C   tau( 110) = (   0.6664596   0.2910804   2.4501051  )
       111           C   tau( 111) = (   0.8332539   0.0023779   2.4079829  )
       112           C   tau( 112) = (   0.8332277   0.3866350   2.4687918  )
       113           C   tau( 113) = (   0.0000403   0.6720196   2.5268195  )
       114           C   tau( 114) = (  -0.0000986   0.8652796   2.5438154  )
       115           C   tau( 115) = (   0.1668103   0.5757926   2.5119236  )
       116           C   tau( 116) = (   0.1665600   0.9627473   2.5465274  )
       117           C   tau( 117) = (   0.3330312   0.6712277   2.5370352  )
       118           C   tau( 118) = (   0.3329260   0.8649803   2.5584709  )
       119           C   tau( 119) = (   0.4999678   0.5758834   2.5165222  )
       120           C   tau( 120) = (   0.4998989   0.9628021   2.5587465  )
       121           C   tau( 121) = (   0.6668989   0.6713415   2.5368545  )
       122           C   tau( 122) = (   0.6667893   0.8649923   2.5586673  )
       123           C   tau( 123) = (   0.8331901   0.5761062   2.5113005  )
       124           C   tau( 124) = (   0.8331969   0.9626897   2.5461120  )
       125           C   tau( 125) = (  -0.0000243   1.2500548   2.4972855  )
       126           C   tau( 126) = (  -0.0000698   1.4397649   2.4566319  )
       127           C   tau( 127) = (   0.1667246   1.1549732   2.5191366  )
       128           C   tau( 128) = (   0.1668110   1.5354076   2.4386302  )
       129           C   tau( 129) = (   0.3337215   1.2505483   2.5022062  )
       130           C   tau( 130) = (   0.3335665   1.4402136   2.4597849  )
       131           C   tau( 131) = (   0.5000231   1.1549272   2.5262646  )
       132           C   tau( 132) = (   0.4999542   1.5364756   2.4422660  )
       133           C   tau( 133) = (   0.6663535   1.2507838   2.5026745  )
       134           C   tau( 134) = (   0.6663273   1.4403280   2.4596502  )
       135           C   tau( 135) = (   0.8332364   1.1550018   2.5191954  )
       136           C   tau( 136) = (   0.8330873   1.5356002   2.4386624  )
       137           C   tau( 137) = (   0.0000116   1.8253202   2.4018558  )
       138           C   tau( 138) = (   0.0000196   2.0197421   2.3966618  )
       139           C   tau( 139) = (   0.1668197   1.7277230   2.4111725  )
       140           C   tau( 140) = (   0.1665746   2.1176017   2.3972421  )
       141           C   tau( 141) = (   0.3331845   1.8256422   2.4066204  )
       142           C   tau( 142) = (   0.3332534   2.0196932   2.3984457  )
       143           C   tau( 143) = (   0.4999370   1.7289126   2.4167529  )
       144           C   tau( 144) = (   0.5000099   2.1170870   2.4001936  )
       145           C   tau( 145) = (   0.6667327   1.8257007   2.4067262  )
       146           C   tau( 146) = (   0.6667417   2.0197320   2.3984131  )
       147           C   tau( 147) = (   0.8331274   1.7279717   2.4117050  )
       148           C   tau( 148) = (   0.8334572   2.1176137   2.3974753  )
       149           H   tau( 149) = (   0.3319518   0.9970929   2.2372295  )
       150           H   tau( 150) = (   0.3375949   0.7492820   2.2231231  )
       151           C_h tau( 151) = (   0.4041456   0.8783738   2.1864677  )
       152           C   tau( 152) = (   0.5984102   0.8800587   2.1857443  )
       153           H   tau( 153) = (   0.6686529   0.9999537   2.2365904  )
       154           H   tau( 154) = (   0.6674899   0.7523297   2.2227089  )

     number of k points=     6  gaussian smearing, width (Ry)=  0.1000
                       cart. coord. in units 2pi/alat
        k(    1) = (   0.0000000   0.0000000   0.0000000), wk =   0.2500000
        k(    2) = (   0.0000000  -0.2165064   0.0000000), wk =   0.2500000
        k(    3) = (   0.2500000   0.0000000   0.0000000), wk =   0.5000000
        k(    4) = (   0.2500000  -0.2165064   0.0000000), wk =   0.5000000
        k(    5) = (  -0.5000000   0.0000000   0.0000000), wk =   0.2500000
        k(    6) = (  -0.5000000  -0.2165064   0.0000000), wk =   0.2500000

     Dense  grid:  2050409 G-vectors     FFT dimensions: (  80, 192, 270)

     Largest allocated arrays     est. size (Mb)     dimensions
        Kohn-Sham Wavefunctions        54.94 Mb     (    4604,  782)
        NL pseudopotentials           130.25 Mb     (    4604, 1854)
        Each V/rho on FFT grid          1.17 Mb     (   76800)
        Each G-vector array             0.28 Mb     (   36616)
        G-vector shells                 0.14 Mb     (   17932)
     Largest temporary arrays     est. size (Mb)     dimensions
        Auxiliary wavefunctions       219.75 Mb     (    4604, 3128)
        Each subspace H/S matrix        5.96 Mb     (     625,  625)
        Each <psi_i|beta_j> matrix     22.12 Mb     (    1854,  782)
        Arrays for rho mixing           9.38 Mb     (   76800,    8)

     Initial potential from superposition of free atoms
     Check: negative starting charge=   -0.001695

     starting charge 1277.81747, renormalised to 1304.00000

     negative rho (up, down):  1.730E-03 0.000E+00
     Starting wfc are 1304 randomized atomic wfcs

     total cpu time spent up to now is      107.8 secs

     Self-consistent Calculation

     iteration #  1     ecut=    80.00 Ry     beta=0.70
     Davidson diagonalization with overlap
     c_bands:  5 eigenvalues not converged
     c_bands:  5 eigenvalues not converged
     c_bands:  5 eigenvalues not converged
     ethr =  1.00E-04,  avg # of iterations = 42.8

     negative rho (up, down):  2.395E+01 0.000E+00

     total cpu time spent up to now is     2397.2 secs

     total energy              =   -9950.47763828 Ry
     Harris-Foulkes estimate   =  -17919.60522171 Ry
     estimated scf accuracy    <  199776.20268085 Ry

     iteration #  2     ecut=    80.00 Ry     beta=0.70
     Davidson diagonalization with overlap
     ethr =  1.00E-02,  avg # of iterations = 16.2

     negative rho (up, down):  2.812E+01 0.000E+00

     total cpu time spent up to now is     3387.6 secs

     total energy              =  -11455.09695636 Ry
     Harris-Foulkes estimate   =  -13820.75577135 Ry
     estimated scf accuracy    <   43456.30741777 Ry

     iteration #  3     ecut=    80.00 Ry     beta=0.70
     Davidson diagonalization with overlap
     c_bands:  4 eigenvalues not converged
     ethr =  1.00E-02,  avg # of iterations = 21.0

     negative rho (up, down):  2.854E+01 0.000E+00

     total cpu time spent up to now is     4802.3 secs

     total energy              =  -11824.19264638 Ry
     Harris-Foulkes estimate   =  -13936.40243746 Ry
     estimated scf accuracy    <    7897.56034443 Ry

     iteration #  4     ecut=    80.00 Ry     beta=0.70
     Davidson diagonalization with overlap
     ethr =  1.00E-02,  avg # of iterations =  4.2

     negative rho (up, down):  1.981E+01 0.000E+00

     total cpu time spent up to now is     5284.8 secs

     total energy              =  -12850.78499483 Ry
     Harris-Foulkes estimate   =  -13034.19859658 Ry
     estimated scf accuracy    <    1132.43925294 Ry

     iteration #  5     ecut=    80.00 Ry     beta=0.70
     Davidson diagonalization with overlap
     ethr =  1.00E-02,  avg # of iterations =  3.0

     negative rho (up, down):  1.751E+01 0.000E+00

     total cpu time spent up to now is     5538.5 secs

     total energy              =  -12855.34921426 Ry
     Harris-Foulkes estimate   =  -12945.90314881 Ry
     estimated scf accuracy    <    3902.77463473 Ry

     iteration #  6     ecut=    80.00 Ry     beta=0.70
     Davidson diagonalization with overlap
     ethr =  1.00E-02,  avg # of iterations =  3.2

     negative rho (up, down):  1.499E+01 0.000E+00

     total cpu time spent up to now is     5744.4 secs

     total energy              =  -12834.36181510 Ry
     Harris-Foulkes estimate   =  -12898.05190353 Ry
     estimated scf accuracy    <    1028.96967858 Ry

     iteration #  7     ecut=    80.00 Ry     beta=0.70
     Davidson diagonalization with overlap
     ethr =  1.00E-02,  avg # of iterations =  2.0

     negative rho (up, down):  8.158E+00 0.000E+00

     total cpu time spent up to now is     5929.3 secs

     total energy              =  -12810.51077423 Ry
     Harris-Foulkes estimate   =  -12871.21281888 Ry
     estimated scf accuracy    <     698.65925288 Ry

     iteration #  8     ecut=    80.00 Ry     beta=0.70
     Davidson diagonalization with overlap
     ethr =  1.00E-02,  avg # of iterations =  2.2

     negative rho (up, down):  6.663E+00 0.000E+00

     total cpu time spent up to now is     6109.7 secs

     total energy              =  -12798.37175425 Ry
     Harris-Foulkes estimate   =  -12827.28189941 Ry
     estimated scf accuracy    <     475.25220724 Ry

     iteration #  9     ecut=    80.00 Ry     beta=0.70
     Davidson diagonalization with overlap
     ethr =  1.00E-02,  avg # of iterations =  1.2

     negative rho (up, down):  5.675E+00 0.000E+00

     total cpu time spent up to now is     6279.2 secs

     total energy              =  -12797.98375119 Ry
     Harris-Foulkes estimate   =  -12810.44757947 Ry
     estimated scf accuracy    <     228.60191785 Ry

     iteration # 10     ecut=    80.00 Ry     beta=0.70
     Davidson diagonalization with overlap
     ethr =  1.00E-02,  avg # of iterations =  1.0

     negative rho (up, down):  1.913E+00 0.000E+00

     total cpu time spent up to now is     6446.7 secs

     total energy              =  -12768.69645035 Ry
     Harris-Foulkes estimate   =  -12800.41813882 Ry
     estimated scf accuracy    <     190.04919866 Ry

     iteration # 11     ecut=    80.00 Ry     beta=0.70
     Davidson diagonalization with overlap
     ethr =  1.00E-02,  avg # of iterations =  2.0

     negative rho (up, down):  5.035E-01 0.000E+00

     total cpu time spent up to now is     6624.8 secs

     total energy              =  -12753.90182240 Ry
     Harris-Foulkes estimate   =  -12783.37127468 Ry
     estimated scf accuracy    <     636.56691852 Ry

     iteration # 12     ecut=    80.00 Ry     beta=0.70
     Davidson diagonalization with overlap
     ethr =  1.00E-02,  avg # of iterations =  1.0

     negative rho (up, down):  6.801E-01 0.000E+00

     total cpu time spent up to now is     6792.7 secs

     total energy              =  -12751.76511212 Ry
     Harris-Foulkes estimate   =  -12765.56006030 Ry
     estimated scf accuracy    <     323.18104522 Ry

     iteration # 13     ecut=    80.00 Ry     beta=0.70
     Davidson diagonalization with overlap
     ethr =  1.00E-02,  avg # of iterations =  1.0

     negative rho (up, down):  4.883E-01 0.000E+00

     total cpu time spent up to now is     6959.9 secs

     total energy              =  -12744.71654956 Ry
     Harris-Foulkes estimate   =  -12765.41108190 Ry
     estimated scf accuracy    <     230.10039078 Ry

     iteration # 14     ecut=    80.00 Ry     beta=0.70
     Davidson diagonalization with overlap
     ethr =  1.00E-02,  avg # of iterations =  1.3

     negative rho (up, down):  7.788E-01 0.000E+00

     total cpu time spent up to now is     7130.5 secs

     total energy              =  -12744.69575228 Ry
     Harris-Foulkes estimate   =  -12754.33185599 Ry
     estimated scf accuracy    <      55.99855025 Ry

     iteration # 15     ecut=    80.00 Ry     beta=0.70
     Davidson diagonalization with overlap
     ethr =  4.29E-03,  avg # of iterations =  2.2

     negative rho (up, down):  3.577E+00 0.000E+00

     total cpu time spent up to now is     7310.2 secs

     total energy              =  -12742.23930616 Ry
     Harris-Foulkes estimate   =  -12749.10187867 Ry
     estimated scf accuracy    <      46.32512288 Ry

     iteration # 16     ecut=    80.00 Ry     beta=0.70
     Davidson diagonalization with overlap
     ethr =  3.55E-03,  avg # of iterations =  1.2

     negative rho (up, down):  4.007E+00 0.000E+00

     total cpu time spent up to now is     7479.1 secs

     total energy              =  -12741.36122856 Ry
     Harris-Foulkes estimate   =  -12743.76344157 Ry
     estimated scf accuracy    <      20.36848318 Ry

     iteration # 17     ecut=    80.00 Ry     beta=0.70
     Davidson diagonalization with overlap
     ethr =  1.56E-03,  avg # of iterations =  5.8

     negative rho (up, down):  3.807E+00 0.000E+00

     total cpu time spent up to now is     7700.6 secs

     total energy              =  -12740.02671895 Ry
     Harris-Foulkes estimate   =  -12742.46972897 Ry
     estimated scf accuracy    <      18.42577491 Ry

     iteration # 18     ecut=    80.00 Ry     beta=0.70
     Davidson diagonalization with overlap
     ethr =  1.41E-03,  avg # of iterations =  3.5

     negative rho (up, down):  3.625E+00 0.000E+00

     total cpu time spent up to now is     7896.4 secs

     total energy              =  -12739.41413442 Ry
     Harris-Foulkes estimate   =  -12740.65567718 Ry
     estimated scf accuracy    <       9.89459973 Ry

     iteration # 19     ecut=    80.00 Ry     beta=0.70
     Davidson diagonalization with overlap
     ethr =  7.59E-04,  avg # of iterations =  5.0

     negative rho (up, down):  2.333E+00 0.000E+00

     total cpu time spent up to now is     8113.5 secs

     total energy              =  -12738.08475698 Ry
     Harris-Foulkes estimate   =  -12739.65135979 Ry
     estimated scf accuracy    <       7.01975960 Ry

     iteration # 20     ecut=    80.00 Ry     beta=0.70
     Davidson diagonalization with overlap
     ethr =  5.38E-04,  avg # of iterations =  3.3

     negative rho (up, down):  2.369E+00 0.000E+00

     total cpu time spent up to now is     8308.9 secs

     total energy              =  -12738.06124280 Ry
     Harris-Foulkes estimate   =  -12738.40294209 Ry
     estimated scf accuracy    <      11.86064968 Ry

     iteration # 21     ecut=    80.00 Ry     beta=0.70
     Davidson diagonalization with overlap
     ethr =  5.38E-04,  avg # of iterations =  1.5

     negative rho (up, down):  2.312E+00 0.000E+00

     total cpu time spent up to now is     8482.5 secs

     total energy              =  -12737.83672410 Ry
     Harris-Foulkes estimate   =  -12738.29801046 Ry
     estimated scf accuracy    <      10.76128014 Ry

     iteration # 22     ecut=    80.00 Ry     beta=0.70
     Davidson diagonalization with overlap
     ethr =  5.38E-04,  avg # of iterations =  1.0

     negative rho (up, down):  2.417E+00 0.000E+00

     total cpu time spent up to now is     8649.9 secs

     total energy              =  -12737.79592200 Ry
     Harris-Foulkes estimate   =  -12737.96415704 Ry
     estimated scf accuracy    <       7.70408108 Ry

     iteration # 23     ecut=    80.00 Ry     beta=0.70
     Davidson diagonalization with overlap
     ethr =  5.38E-04,  avg # of iterations =  1.0

     negative rho (up, down):  1.752E+00 0.000E+00

     total cpu time spent up to now is     8817.2 secs

     total energy              =  -12736.70851549 Ry
     Harris-Foulkes estimate   =  -12738.20315007 Ry
     estimated scf accuracy    <       5.43148653 Ry

     iteration # 24     ecut=    80.00 Ry     beta=0.70
     Davidson diagonalization with overlap
     ethr =  4.17E-04,  avg # of iterations =  2.2

     negative rho (up, down):  1.211E+00 0.000E+00

     total cpu time spent up to now is     8998.3 secs

     total energy              =  -12735.59127835 Ry
     Harris-Foulkes estimate   =  -12736.81997227 Ry
     estimated scf accuracy    <       4.07866307 Ry

     iteration # 25     ecut=    80.00 Ry     beta=0.70
     Davidson diagonalization with overlap
     ethr =  3.13E-04,  avg # of iterations =  8.7

     negative rho (up, down):  1.159E+00 0.000E+00

     total cpu time spent up to now is     9262.3 secs

     total energy              =  -12734.91307847 Ry
     Harris-Foulkes estimate   =  -12735.88434609 Ry
     estimated scf accuracy    <       4.57258735 Ry

     iteration # 26     ecut=    80.00 Ry     beta=0.70
     Davidson diagonalization with overlap
     ethr =  3.13E-04,  avg # of iterations =  5.8

     negative rho (up, down):  9.476E-01 0.000E+00

     total cpu time spent up to now is     9494.1 secs

     total energy              =  -12734.65943605 Ry
     Harris-Foulkes estimate   =  -12735.03338024 Ry
     estimated scf accuracy    <       1.90586059 Ry

     iteration # 27     ecut=    80.00 Ry     beta=0.70
     Davidson diagonalization with overlap
     ethr =  1.46E-04,  avg # of iterations =  6.0

     negative rho (up, down):  9.396E-01 0.000E+00

     total cpu time spent up to now is     9726.6 secs

     total energy              =  -12734.61911124 Ry
     Harris-Foulkes estimate   =  -12734.75234432 Ry
     estimated scf accuracy    <       0.56870042 Ry

     iteration # 28     ecut=    80.00 Ry     beta=0.70
     Davidson diagonalization with overlap
     ethr =  4.36E-05,  avg # of iterations =  7.2

     negative rho (up, down):  6.530E-01 0.000E+00

     total cpu time spent up to now is     9985.1 secs

     total energy              =  -12734.57084044 Ry
     Harris-Foulkes estimate   =  -12734.65927724 Ry
     estimated scf accuracy    <       0.33086233 Ry

     iteration # 29     ecut=    80.00 Ry     beta=0.70
     Davidson diagonalization with overlap
     ethr =  2.54E-05,  avg # of iterations =  6.7

     negative rho (up, down):  4.813E-01 0.000E+00

     total cpu time spent up to now is    10228.2 secs

     total energy              =  -12734.56306241 Ry
     Harris-Foulkes estimate   =  -12734.58967641 Ry
     estimated scf accuracy    <       0.14111959 Ry

     iteration # 30     ecut=    80.00 Ry     beta=0.70
     Davidson diagonalization with overlap
     c_bands:  1 eigenvalues not converged
     ethr =  1.08E-05,  avg # of iterations =  7.5

     negative rho (up, down):  1.812E-01 0.000E+00

     total cpu time spent up to now is    10480.5 secs

     total energy              =  -12734.54903252 Ry
     Harris-Foulkes estimate   =  -12734.56983845 Ry
     estimated scf accuracy    <       0.06694867 Ry

     iteration # 31     ecut=    80.00 Ry     beta=0.70
     Davidson diagonalization with overlap
     c_bands:  1 eigenvalues not converged
     c_bands:  2 eigenvalues not converged
     ethr =  5.13E-06,  avg # of iterations = 13.8

     negative rho (up, down):  5.269E-02 0.000E+00

     total cpu time spent up to now is    10856.3 secs

     total energy              =  -12734.54867094 Ry
     Harris-Foulkes estimate   =  -12734.55459318 Ry
     estimated scf accuracy    <       0.02866819 Ry

     iteration # 32     ecut=    80.00 Ry     beta=0.70
     Davidson diagonalization with overlap
     c_bands:  2 eigenvalues not converged
     c_bands:  2 eigenvalues not converged
     ethr =  2.20E-06,  avg # of iterations = 14.0

     negative rho (up, down):  3.997E-02 0.000E+00

     total cpu time spent up to now is    11224.1 secs

     total energy              =  -12734.55058739 Ry
     Harris-Foulkes estimate   =  -12734.55133651 Ry
     estimated scf accuracy    <       0.00715555 Ry

     iteration # 33     ecut=    80.00 Ry     beta=0.70
     Davidson diagonalization with overlap
     c_bands:  2 eigenvalues not converged
     ethr =  5.49E-07,  avg # of iterations =  8.8

     negative rho (up, down):  2.783E-02 0.000E+00

     total cpu time spent up to now is    11518.3 secs

     total energy              =  -12734.55125386 Ry
     Harris-Foulkes estimate   =  -12734.55168054 Ry
     estimated scf accuracy    <       0.00290034 Ry

     iteration # 34     ecut=    80.00 Ry     beta=0.70
     Davidson diagonalization with overlap
     ethr =  2.22E-07,  avg # of iterations =  6.8

     negative rho (up, down):  1.700E-02 0.000E+00

     total cpu time spent up to now is    11766.2 secs

     total energy              =  -12734.55146566 Ry
     Harris-Foulkes estimate   =  -12734.55149084 Ry
     estimated scf accuracy    <       0.00038553 Ry

     iteration # 35     ecut=    80.00 Ry     beta=0.70
     Davidson diagonalization with overlap
     ethr =  2.96E-08,  avg # of iterations =  7.0

     negative rho (up, down):  1.054E-02 0.000E+00

     total cpu time spent up to now is    12015.4 secs

     total energy              =  -12734.55158388 Ry
     Harris-Foulkes estimate   =  -12734.55148290 Ry
     estimated scf accuracy    <       0.00018525 Ry

     iteration # 36     ecut=    80.00 Ry     beta=0.70
     Davidson diagonalization with overlap
     ethr =  1.42E-08,  avg # of iterations = 11.7

     negative rho (up, down):  4.646E-03 0.000E+00

     total cpu time spent up to now is    12334.2 secs

     total energy              =  -12734.55150789 Ry
     Harris-Foulkes estimate   =  -12734.55159785 Ry
     estimated scf accuracy    <       0.00008944 Ry

     iteration # 37     ecut=    80.00 Ry     beta=0.70
     Davidson diagonalization with overlap
     c_bands:  1 eigenvalues not converged
     ethr =  6.86E-09,  avg # of iterations = 10.7

     negative rho (up, down):  3.699E-03 0.000E+00

     total cpu time spent up to now is    12644.0 secs

     total energy              =  -12734.55150927 Ry
     Harris-Foulkes estimate   =  -12734.55151713 Ry
     estimated scf accuracy    <       0.00003087 Ry

     iteration # 38     ecut=    80.00 Ry     beta=0.70
     Davidson diagonalization with overlap
     c_bands:  1 eigenvalues not converged
     ethr =  2.37E-09,  avg # of iterations =  8.5

     negative rho (up, down):  2.896E-03 0.000E+00

     total cpu time spent up to now is    12914.9 secs

     total energy              =  -12734.55150313 Ry
     Harris-Foulkes estimate   =  -12734.55151291 Ry
     estimated scf accuracy    <       0.00001408 Ry

     iteration # 39     ecut=    80.00 Ry     beta=0.70
     Davidson diagonalization with overlap
     ethr =  1.08E-09,  avg # of iterations =  6.7

     negative rho (up, down):  2.122E-03 0.000E+00

     total cpu time spent up to now is    13160.6 secs

     total energy              =  -12734.55149912 Ry
     Harris-Foulkes estimate   =  -12734.55150450 Ry
     estimated scf accuracy    <       0.00000857 Ry

     iteration # 40     ecut=    80.00 Ry     beta=0.70
     Davidson diagonalization with overlap
     ethr =  6.57E-10,  avg # of iterations =  6.0

     negative rho (up, down):  1.922E-03 0.000E+00

     total cpu time spent up to now is    13398.4 secs

     total energy              =  -12734.55150024 Ry
     Harris-Foulkes estimate   =  -12734.55149974 Ry
     estimated scf accuracy    <       0.00000156 Ry

     iteration # 41     ecut=    80.00 Ry     beta=0.70
     Davidson diagonalization with overlap
     ethr =  1.19E-10,  avg # of iterations =  2.8

     negative rho (up, down):  1.856E-03 0.000E+00

     total cpu time spent up to now is    13601.0 secs

     total energy              =  -12734.55150055 Ry
     Harris-Foulkes estimate   =  -12734.55150042 Ry
     estimated scf accuracy    <       0.00000109 Ry

     iteration # 42     ecut=    80.00 Ry     beta=0.70
     Davidson diagonalization with overlap
     ethr =  8.35E-11,  avg # of iterations =  2.0

     negative rho (up, down):  1.862E-03 0.000E+00

     total cpu time spent up to now is    13786.7 secs

     total energy              =  -12734.55150097 Ry
     Harris-Foulkes estimate   =  -12734.55150065 Ry
     estimated scf accuracy    <       0.00000038 Ry

     iteration # 43     ecut=    80.00 Ry     beta=0.70
     Davidson diagonalization with overlap
     ethr =  2.93E-11,  avg # of iterations =  3.0

     negative rho (up, down):  1.830E-03 0.000E+00

     total cpu time spent up to now is    14000.5 secs

     total energy              =  -12734.55150105 Ry
     Harris-Foulkes estimate   =  -12734.55150103 Ry
     estimated scf accuracy    <       0.00000016 Ry

     iteration # 44     ecut=    80.00 Ry     beta=0.70
     Davidson diagonalization with overlap
     ethr =  1.20E-11,  avg # of iterations =  2.8

     negative rho (up, down):  1.833E-03 0.000E+00

     total cpu time spent up to now is    14193.7 secs

     total energy              =  -12734.55150107 Ry
     Harris-Foulkes estimate   =  -12734.55150106 Ry
     estimated scf accuracy    <       0.00000004 Ry

     iteration # 45     ecut=    80.00 Ry     beta=0.70
     Davidson diagonalization with overlap
     ethr =  2.79E-12,  avg # of iterations =  2.2

     negative rho (up, down):  1.838E-03 0.000E+00

     total cpu time spent up to now is    14380.8 secs

     total energy              =  -12734.55150106 Ry
     Harris-Foulkes estimate   =  -12734.55150107 Ry
     estimated scf accuracy    <       0.00000001 Ry

     iteration # 46     ecut=    80.00 Ry     beta=0.70
     Davidson diagonalization with overlap
     ethr =  1.04E-12,  avg # of iterations =  3.0

     negative rho (up, down):  1.833E-03 0.000E+00

     total cpu time spent up to now is    14583.3 secs

     End of self-consistent calculation

          k = 0.0000 0.0000 0.0000 (256287 PWs)   bands (ev):

   -16.0493 -15.7199 -15.6476 -14.8202 -14.5889 -14.5373 -14.0781 -14.0599
   -13.7458 -13.7146 -13.6944 -13.6889 -12.8299 -12.8218 -12.6722 -12.6718
   -12.6652 -12.6566 -11.0216 -11.0138 -11.0084 -11.0030 -10.9148  -9.7600
    -9.6263  -9.2271  -9.2216  -9.0607  -9.0524  -8.2093  -8.2015  -8.1778
    -8.1760  -7.3310  -7.3278  -7.1505  -7.1438  -7.1408  -7.1355  -7.1076
    -7.1013  -6.9819  -5.9998  -5.9358  -5.6285  -5.6282  -5.6175  -5.6135
    -5.5120  -5.5102  -5.5036  -5.4981  -5.4188  -5.3883  -4.8887  -4.5514
    -4.3785  -4.3741  -4.3253  -4.2118  -4.1569  -4.1304  -3.9948  -3.9074
    -3.8369  -3.8183  -3.6152  -3.5200  -3.3176  -3.3118  -3.2793  -3.2786
    -3.2668  -3.2638  -3.0784  -3.0235  -3.0216  -2.9296  -2.9289  -2.9242
    -2.9231  -2.9156  -2.9145  -2.9038  -2.7487  -2.5720  -2.5457  -2.5356
    -2.5307  -2.5105  -2.4598  -2.4535  -2.4373  -2.4267  -2.4239  -2.4141
    -2.2394  -2.2114  -2.2089  -2.1965  -2.1146  -2.1054  -2.0848  -2.0812
    -2.0762  -2.0749  -2.0385  -2.0148  -1.9513  -1.9497  -1.9245  -1.9212
    -1.8820  -1.8029  -1.7657  -1.7008  -1.6689  -1.6651  -1.6529  -1.6487
    -1.6408  -1.6330  -1.6202  -1.6197  -1.5989  -1.5828  -1.5799  -1.5682
    -1.5645  -1.5642  -1.5291  -1.5086  -1.4894  -1.4851  -1.4825  -1.4654
    -1.4600  -1.4462  -1.4446  -1.4421  -1.4347  -1.3996  -1.3674  -1.3666
    -1.3312  -1.2929  -1.2705  -1.2237  -1.2201  -1.2153  -1.2101  -1.2003
    -1.1806  -1.1650  -1.1579  -1.1526  -1.1378  -1.1362  -1.1201  -1.1087
    -1.0907  -1.0764  -1.0654  -1.0194  -1.0077  -0.9881  -0.9837  -0.9743
    -0.9671  -0.9629  -0.9606  -0.9552  -0.9481  -0.9403  -0.9362  -0.9231
    -0.9223  -0.9158  -0.9096  -0.9064  -0.9039  -0.8773  -0.8605  -0.8595
    -0.8510  -0.8351  -0.8324  -0.8280  -0.8139  -0.7956  -0.7945  -0.7794
    -0.7769  -0.7750  -0.7737  -0.7723  -0.7702  -0.7658  -0.7638  -0.7584
    -0.7578  -0.7532  -0.7482  -0.7458  -0.7105  -0.6942  -0.6592  -0.6373
    -0.6295  -0.6210  -0.6152  -0.6115  -0.5972  -0.5765  -0.5723  -0.5626
    -0.5613  -0.5583  -0.5477  -0.5374  -0.5217  -0.5180  -0.4951  -0.4931
    -0.4897  -0.4865  -0.4848  -0.4754  -0.4732  -0.4654  -0.4638  -0.4597
    -0.4534  -0.4410  -0.4221  -0.4162  -0.4048  -0.3919  -0.3816  -0.3671
    -0.3545  -0.3431  -0.3406  -0.3318  -0.3308  -0.3305  -0.3281  -0.3259
    -0.3250  -0.3223  -0.3177  -0.3146  -0.3108  -0.3073  -0.3050  -0.3044
    -0.2973  -0.2870  -0.2766  -0.2676  -0.2604  -0.2403  -0.2376  -0.2313
    -0.2100  -0.2067  -0.2060  -0.2047  -0.1923  -0.1902  -0.1858  -0.1785
    -0.1715  -0.1656  -0.1650  -0.1568  -0.1532  -0.1517  -0.1468  -0.1436
    -0.1383  -0.1374  -0.1311  -0.1151  -0.1114  -0.1106  -0.1103  -0.1031
    -0.0941  -0.0850  -0.0776  -0.0734  -0.0571  -0.0484  -0.0401  -0.0293
    -0.0262  -0.0193  -0.0160  -0.0089   0.0007   0.0184   0.0197   0.0230
     0.0292   0.0344   0.0362   0.0486   0.0520   0.0604   0.0808   0.0828
     0.0895   0.0917   0.0973   0.1032   0.1067   0.1079   0.1176   0.1201
     0.1235   0.1346   0.1380   0.1395   0.1424   0.1442   0.1547   0.1577
     0.1649   0.1742   0.1809   0.1943   0.1967   0.1995   0.2049   0.2172
     0.2281   0.2361   0.2402   0.2458   0.2467   0.2521   0.2822   0.2843
     0.2879   0.2940   0.2972   0.3185   0.3257   0.3334   0.3424   0.3511
     0.3542   0.3598   0.3708   0.3731   0.3752   0.3965   0.4034   0.4184
     0.4195   0.4342   0.4363   0.4389   0.4431   0.4474   0.4505   0.4544
     0.4661   0.4692   0.4725   0.4819   0.4896   0.4942   0.5041   0.5057
     0.5291   0.5318   0.5409   0.5463   0.5516   0.5570   0.5608   0.5624
     0.5643   0.5683   0.5773   0.5804   0.5954   0.5961   0.6081   0.6112
     0.6131   0.6145   0.6220   0.6230   0.6291   0.6342   0.6425   0.6439
     0.6449   0.6461   0.6474   0.6530   0.6620   0.6750   0.6829   0.6843
     0.6862   0.6913   0.6962   0.7029   0.7126   0.7194   0.7228   0.7251
     0.7276   0.7360   0.7401   0.7457   0.7565   0.7592   0.7618   0.7628
     0.7673   0.7682   0.7698   0.7807   0.7900   0.7916   0.7950   0.7985
     0.8042   0.8133   0.8149   0.8209   0.8264   0.8272   0.8274   0.8314
     0.8401   0.8524   0.8549   0.8593   0.8666   0.8719   0.8790   0.8953
     0.8968   0.9158   0.9176   0.9215   0.9239   0.9257   0.9286   0.9306
     0.9347   0.9474   0.9528   0.9587   0.9614   0.9632   0.9685   0.9701
     0.9729   0.9755   0.9825   0.9841   0.9906   0.9970   1.0040   1.0075
     1.0123   1.0200   1.0278   1.0368   1.0433   1.0538   1.0620   1.0637
     1.0685   1.0706   1.0711   1.0790   1.0850   1.0889   1.0903   1.0923
     1.0938   1.0984   1.1001   1.1092   1.1106   1.1169   1.1225   1.1240
     1.1286   1.1298   1.1332   1.1449   1.1487   1.1526   1.1545   1.1605
     1.1652   1.1691   1.1717   1.1778   1.1860   1.1890   1.1910   1.1933
     1.1959   1.1994   1.2009   1.2019   1.2065   1.2101   1.2144   1.2223
     1.2316   1.2326   1.2377   1.2464   1.2555   1.2570   1.2646   1.2723
     1.2727   1.2791   1.2822   1.2865   1.2949   1.3022   1.3069   1.3085
     1.3109   1.3179   1.3227   1.3243   1.3266   1.3306   1.3357   1.3382
     1.3408   1.3438   1.3484   1.3502   1.3523   1.3536   1.3656   1.3673
     1.3686   1.3776   1.3815   1.3842   1.3864   1.3869   1.3876   1.3909
     1.3949   1.3989   1.4007   1.4042   1.4129   1.4197   1.4265   1.4279
     1.4385   1.4397   1.4439   1.4444   1.4462   1.4481   1.4510   1.4650
     1.4710   1.4732   1.4770   1.4830   1.4851   1.4886   1.4917   1.4975
     1.5030   1.5052   1.5062   1.5090   1.5095   1.5133   1.5146   1.5168
     1.5179   1.5221   1.5284   1.5315   1.5359   1.5377   1.5431   1.5455
     1.5501   1.5530   1.5614   1.5635   1.5803   1.5989   1.6030   1.6072
     1.6076   1.6256   1.6321   1.6322   1.6336   1.6384   1.6655   1.6752
     1.6838   1.6906   1.6939   1.7014   1.7048   1.7095   1.7142   1.7264
     1.7338   1.7963   1.9632   2.0349   2.1576   2.1639   2.1712   2.1849
     2.2581   2.2655   2.2753   2.2762   2.2784   2.3002   2.3043   2.3278
     2.4263   2.4525   2.4605   2.5039   2.5150   2.5239   2.5480   2.6554
     2.7117   2.7752   2.8144   2.8569   3.1950   3.2641   3.2888   3.3445
     3.3726   3.5318   3.5496   3.6487   3.8155   3.8316   3.8711   3.9277
     3.9300   3.9444   3.9802   3.9873   4.0222   4.0403   4.0675   4.0732
     4.0831   4.0876   4.1746   4.1932   4.2503   4.2587   4.3543   4.5998
     4.7652   4.8683   5.1329   5.1854   5.1995   5.2090   5.2270   5.2516
     5.3466   5.4068   5.4726   5.6724   5.7032   5.8465   5.9900   5.9929
     6.0375   6.2697   6.3025   6.4265   6.4373   6.4670   6.5083   6.5621
     6.6034   6.7145   6.7283   6.7631   6.8032   6.8714   6.9149   6.9402
     6.9614   6.9771   6.9936   7.0780   7.1213   7.1316   7.1409   7.2237
     7.3436   7.4121   7.4441   7.5377   7.6112   7.6793   7.6937   7.7193
     7.7757   7.9017   8.0231   8.1191   8.1294   8.1386   8.2101   8.2167
     8.3339   8.3406   8.3619   8.3846   8.3856   8.4018   8.4286   8.5904
     8.6224   8.6326   8.6588   8.6638   8.6951   8.7126   8.7262   8.7424
     8.7617   8.8471   8.8863   8.8923   8.8953   8.9312   8.9383   9.0422
     9.0551   9.0868   9.1143   9.2077   9.2353   9.2611   9.4056   9.4744
     9.5293   9.5331   9.5561   9.6232   9.6394   9.6497   9.7238   9.7712
     9.9086   9.9220  10.1099  10.1251  10.1500  10.1820

          k = 0.0000-0.2165 0.0000 (256176 PWs)   bands (ev):

   -15.9671 -15.9496 -15.2556 -15.2112 -14.7575 -14.0037 -14.0017 -13.9730
   -13.9352 -13.7891 -13.7744 -13.2872 -13.2706 -13.2661 -13.2660 -11.9158
   -11.9064 -11.9029 -11.8963 -11.7549 -11.7322 -10.0549 -10.0445 -10.0362
   -10.0297  -9.6171  -8.8132  -8.7878  -8.5913  -8.5910  -8.5696  -8.5606
    -7.7348  -7.7293  -7.7270  -7.7249  -7.0045  -6.6170  -6.6150  -6.5773
    -6.5728  -6.4295  -6.4271  -6.4225  -6.4150  -5.9973  -5.8177  -5.7856
    -5.7412  -5.7359  -4.8442  -4.8405  -4.8382  -4.8092  -4.8065  -4.7711
    -4.7412  -4.7138  -4.3191  -4.3180  -4.3149  -4.3095  -4.2501  -4.1769
    -3.8258  -3.7679  -3.6290  -3.5892  -3.2838  -3.2380  -3.2249  -3.2081
    -3.1966  -3.1272  -3.0190  -2.9535  -2.9330  -2.8473  -2.8200  -2.7994
    -2.7483  -2.7466  -2.7119  -2.7091  -2.6076  -2.6048  -2.5799  -2.5779
    -2.5477  -2.5362  -2.5058  -2.5030  -2.4904  -2.4879  -2.4067  -2.4023
    -2.3509  -2.3420  -2.2202  -2.1719  -2.1390  -2.1352  -2.1062  -2.0868
    -2.0618  -2.0586  -2.0548  -2.0364  -1.9918  -1.9838  -1.9437  -1.9025
    -1.8927  -1.8833  -1.8793  -1.8118  -1.7916  -1.7520  -1.7104  -1.6891
    -1.6809  -1.6743  -1.6706  -1.6654  -1.6511  -1.6473  -1.6368  -1.6274
    -1.5946  -1.5878  -1.5800  -1.5740  -1.5704  -1.5514  -1.4693  -1.4126
    -1.4037  -1.3811  -1.3425  -1.2955  -1.2846  -1.2747  -1.2569  -1.2393
    -1.2332  -1.2252  -1.2123  -1.2104  -1.2078  -1.2008  -1.1956  -1.1913
    -1.1835  -1.1786  -1.1751  -1.1701  -1.1619  -1.1526  -1.1435  -1.1306
    -1.1177  -1.1160  -1.1060  -1.0936  -1.0436  -1.0258  -1.0132  -1.0024
    -0.9990  -0.9969  -0.9841  -0.9778  -0.9735  -0.9703  -0.9677  -0.9462
    -0.9412  -0.9385  -0.9268  -0.9147  -0.9019  -0.8961  -0.8898  -0.8896
    -0.8883  -0.8641  -0.8470  -0.8434  -0.8398  -0.8360  -0.8264  -0.8220
    -0.8085  -0.8029  -0.7856  -0.7698  -0.7689  -0.7536  -0.7462  -0.7395
    -0.7380  -0.7280  -0.7087  -0.7063  -0.7031  -0.6934  -0.6781  -0.6743
    -0.6720  -0.6640  -0.6155  -0.6094  -0.6029  -0.5630  -0.5574  -0.5467
    -0.5453  -0.5446  -0.5391  -0.5367  -0.5284  -0.5266  -0.5226  -0.5108
    -0.5066  -0.4795  -0.4746  -0.4723  -0.4636  -0.4562  -0.4532  -0.4522
    -0.4464  -0.4200  -0.4142  -0.4089  -0.4056  -0.4047  -0.4024  -0.3846
    -0.3811  -0.3752  -0.3731  -0.3688  -0.3670  -0.3371  -0.3260  -0.3242
    -0.3154  -0.2894  -0.2885  -0.2561  -0.2509  -0.2438  -0.2422  -0.2320
    -0.2288  -0.2281  -0.2273  -0.2262  -0.2234  -0.2054  -0.2003  -0.1969
    -0.1827  -0.1814  -0.1781  -0.1732  -0.1702  -0.1693  -0.1642  -0.1635
    -0.1560  -0.1481  -0.1456  -0.1388  -0.1363  -0.1237  -0.1213  -0.1182
    -0.1177  -0.1158  -0.1122  -0.0914  -0.0826  -0.0792  -0.0659  -0.0562
    -0.0535  -0.0480  -0.0472  -0.0411  -0.0390  -0.0318  -0.0156  -0.0140
    -0.0116  -0.0056   0.0048   0.0075   0.0150   0.0169   0.0216   0.0226
     0.0275   0.0359   0.0431   0.0603   0.0674   0.0723   0.0819   0.0840
     0.1033   0.1061   0.1088   0.1113   0.1194   0.1265   0.1295   0.1346
     0.1355   0.1490   0.1500   0.1549   0.1573   0.1588   0.1710   0.1744
     0.1793   0.1842   0.1865   0.1884   0.1932   0.2061   0.2089   0.2176
     0.2188   0.2229   0.2265   0.2293   0.2304   0.2390   0.2584   0.2617
     0.2743   0.2817   0.2827   0.2873   0.2961   0.2979   0.3111   0.3145
     0.3199   0.3264   0.3356   0.3648   0.3658   0.3751   0.3826   0.3983
     0.4238   0.4261   0.4326   0.4351   0.4677   0.4719   0.4750   0.4841
     0.4913   0.4974   0.5012   0.5065   0.5132   0.5169   0.5216   0.5231
     0.5301   0.5317   0.5409   0.5473   0.5512   0.5559   0.5604   0.5634
     0.5705   0.5768   0.5790   0.5845   0.5898   0.5914   0.5935   0.6033
     0.6048   0.6108   0.6132   0.6134   0.6153   0.6182   0.6209   0.6272
     0.6321   0.6367   0.6407   0.6448   0.6453   0.6477   0.6539   0.6591
     0.6644   0.6654   0.6673   0.6746   0.6807   0.6852   0.6897   0.6935
     0.7030   0.7034   0.7043   0.7225   0.7271   0.7383   0.7387   0.7466
     0.7470   0.7523   0.7535   0.7557   0.7573   0.7686   0.7729   0.7731
     0.7760   0.7888   0.7919   0.8044   0.8086   0.8177   0.8237   0.8268
     0.8389   0.8424   0.8478   0.8558   0.8601   0.8648   0.8662   0.8721
     0.8741   0.8777   0.9061   0.9088   0.9174   0.9335   0.9497   0.9562
     0.9606   0.9625   0.9660   0.9675   0.9698   0.9774   0.9838   0.9905
     0.9924   0.9976   0.9978   0.9995   1.0006   1.0054   1.0098   1.0141
     1.0153   1.0190   1.0212   1.0295   1.0393   1.0404   1.0423   1.0429
     1.0431   1.0484   1.0576   1.0604   1.0624   1.0651   1.0662   1.0703
     1.0716   1.0750   1.0799   1.0823   1.0839   1.0899   1.0926   1.0955
     1.1054   1.1089   1.1104   1.1128   1.1163   1.1192   1.1199   1.1217
     1.1253   1.1292   1.1559   1.1613   1.1633   1.1696   1.1917   1.1966
     1.2054   1.2104   1.2123   1.2195   1.2277   1.2438   1.2477   1.2495
     1.2534   1.2564   1.2598   1.2627   1.2641   1.2664   1.2669   1.2692
     1.2703   1.2742   1.2803   1.2813   1.2821   1.2926   1.2947   1.2973
     1.3005   1.3046   1.3055   1.3074   1.3101   1.3140   1.3192   1.3254
     1.3310   1.3356   1.3411   1.3430   1.3478   1.3490   1.3552   1.3621
     1.3666   1.3669   1.3726   1.3817   1.3826   1.3856   1.3913   1.3924
     1.3939   1.3984   1.4026   1.4050   1.4071   1.4105   1.4244   1.4285
     1.4375   1.4427   1.4454   1.4481   1.4554   1.4586   1.4601   1.4620
     1.4637   1.4664   1.4752   1.4773   1.4829   1.4837   1.4945   1.5022
     1.5056   1.5106   1.5146   1.5193   1.5233   1.5265   1.5275   1.5281
     1.5338   1.5379   1.5493   1.5558   1.5586   1.5647   1.5648   1.5709
     1.5726   1.5763   1.5815   1.5890   1.5931   1.5934   1.5955   1.6056
     1.6338   1.6410   1.6526   1.6528   1.6545   1.6647   1.7340   1.7563
     1.7701   1.8041   1.8092   1.8188   1.8251   1.8320   1.8453   1.8597
     1.8733   1.8855   1.8932   1.8966   1.8990   1.9123   1.9499   2.0316
     2.2400   2.3048   2.3188   2.3491   2.4423   2.4519   2.4604   2.5022
     2.5185   2.5622   2.5674   2.5976   2.6326   2.6571   2.6695   2.6722
     2.7823   2.7829   2.7925   2.8032   2.8489   2.9794   2.9921   2.9970
     3.0851   3.2456   3.2476   3.2507   3.3764   3.5327   3.7381   3.7648
     3.8781   4.0622   4.0662   4.1695   4.2014   4.2805   4.2903   4.3011
     4.3123   4.3509   4.3598   4.3976   4.4992   4.5445   4.5617   4.7077
     4.7732   4.7976   4.9943   5.1723   5.2399   5.3062   5.3409   5.4100
     5.4201   5.4403   5.5300   5.6086   5.6414   5.7332   5.8896   6.0552
     6.0680   6.0940   6.1035   6.2627   6.3139   6.3389   6.3735   6.3802
     6.4517   6.5986   6.6382   6.7299   6.7537   6.8414   6.8584   7.0385
     7.0557   7.0854   7.1005   7.1140   7.1335   7.1454   7.2075   7.2718
     7.2875   7.3602   7.3773   7.3828   7.3971   7.5764   7.7518   7.7716
     7.8652   7.8747   7.8957   7.9354   8.1574   8.1947   8.2260   8.2389
     8.3194   8.3637   8.3647   8.4242   8.4466   8.4924   8.4953   8.5282
     8.6144   8.6451   8.7271   8.7442   8.7667   8.7826   8.7906   8.7958
     8.8588   8.8925   9.0444   9.0808   9.1156   9.1586   9.2018   9.2577
     9.2844   9.2963   9.3041   9.3176   9.3339   9.3732   9.3895   9.4051
     9.4438   9.4503   9.4841   9.5325   9.5352   9.5638   9.5652   9.5874
     9.8437   9.8488   9.8645   9.9597   9.9689  10.0027

          k = 0.2500 0.0000 0.0000 (256240 PWs)   bands (ev):

   -15.9256 -15.5990 -15.5238 -14.9637 -14.7970 -14.5437 -14.5406 -14.4665
   -14.4212 -13.5002 -13.4916 -12.9947 -12.7131 -12.7046 -12.6663 -12.6214
   -11.7912 -11.7821 -11.6379 -11.6364 -10.8109 -10.3670 -10.3374 -10.3017
    -9.9625  -9.6554  -9.6176  -9.3765  -9.3694  -8.9538  -8.7074  -8.6998
    -8.2832  -7.2562  -7.2518  -7.1891  -7.1759  -7.0799  -7.0643  -6.9848
    -6.5598  -6.2487  -5.9830  -5.8347  -5.7571  -5.5427  -5.5371  -5.5200
    -5.5129  -5.2466  -5.2162  -4.8745  -4.8717  -4.7260  -4.4432  -4.3590
    -4.3058  -4.1808  -4.1493  -4.1272  -4.0738  -3.9875  -3.9812  -3.9480
    -3.9203  -3.8626  -3.7694  -3.7302  -3.7041  -3.5644  -3.4634  -3.4382
    -3.3768  -3.3559  -3.3531  -3.2424  -3.2370  -3.1510  -3.1483  -3.0897
    -3.0631  -3.0550  -2.9865  -2.9375  -2.9059  -2.8318  -2.8170  -2.8141
    -2.7177  -2.7150  -2.6244  -2.5997  -2.5296  -2.3983  -2.3922  -2.3491
    -2.3103  -2.2246  -2.2162  -2.0637  -2.0607  -2.0245  -2.0134  -2.0056
    -2.0011  -1.9402  -1.8533  -1.8432  -1.7926  -1.7672  -1.7511  -1.7455
    -1.7353  -1.7252  -1.7220  -1.7200  -1.7129  -1.7087  -1.6982  -1.6798
    -1.6624  -1.6308  -1.6143  -1.5672  -1.5555  -1.5506  -1.5113  -1.5016
    -1.4937  -1.4914  -1.4888  -1.4840  -1.4567  -1.4437  -1.4323  -1.4246
    -1.4166  -1.4114  -1.3915  -1.3843  -1.3790  -1.3664  -1.3158  -1.2860
    -1.2508  -1.2434  -1.2296  -1.2061  -1.1784  -1.1671  -1.1618  -1.1535
    -1.1468  -1.1439  -1.1218  -1.1171  -1.1078  -1.1055  -1.1029  -1.0915
    -1.0825  -1.0640  -1.0549  -1.0530  -1.0510  -1.0355  -1.0302  -1.0269
    -1.0221  -1.0170  -0.9861  -0.9738  -0.9661  -0.9560  -0.9503  -0.9482
    -0.9388  -0.9362  -0.9342  -0.9286  -0.9222  -0.9164  -0.9149  -0.9141
    -0.9030  -0.8973  -0.8922  -0.8854  -0.8833  -0.8771  -0.8736  -0.8639
    -0.8427  -0.8332  -0.8296  -0.8060  -0.7955  -0.7768  -0.7664  -0.7429
    -0.7350  -0.7311  -0.7185  -0.7019  -0.6986  -0.6975  -0.6871  -0.6839
    -0.6783  -0.6697  -0.6631  -0.6567  -0.6473  -0.6365  -0.6280  -0.5770
    -0.5588  -0.5497  -0.5421  -0.5375  -0.5184  -0.5020  -0.4962  -0.4941
    -0.4851  -0.4788  -0.4743  -0.4736  -0.4700  -0.4586  -0.4511  -0.4486
    -0.4387  -0.4327  -0.4305  -0.4140  -0.4069  -0.4035  -0.3993  -0.3969
    -0.3923  -0.3870  -0.3839  -0.3656  -0.3592  -0.3480  -0.3314  -0.3261
    -0.3191  -0.3147  -0.3105  -0.2992  -0.2914  -0.2878  -0.2838  -0.2783
    -0.2658  -0.2594  -0.2520  -0.2324  -0.2288  -0.2269  -0.2223  -0.2183
    -0.2114  -0.2082  -0.2041  -0.1924  -0.1870  -0.1767  -0.1719  -0.1651
    -0.1525  -0.1478  -0.1326  -0.1300  -0.1281  -0.1264  -0.1225  -0.1169
    -0.1034  -0.1009  -0.0949  -0.0871  -0.0824  -0.0797  -0.0762  -0.0626
    -0.0501  -0.0481  -0.0407  -0.0341  -0.0254  -0.0247  -0.0141  -0.0089
    -0.0017   0.0072   0.0140   0.0196   0.0279   0.0381   0.0531   0.0549
     0.0572   0.0658   0.0697   0.0750   0.0790   0.0833   0.0888   0.0935
     0.0993   0.1011   0.1037   0.1042   0.1107   0.1127   0.1265   0.1283
     0.1310   0.1373   0.1438   0.1457   0.1512   0.1654   0.1672   0.1789
     0.1820   0.1853   0.1986   0.2007   0.2055   0.2119   0.2163   0.2257
     0.2301   0.2344   0.2477   0.2614   0.2683   0.2882   0.2940   0.3008
     0.3205   0.3224   0.3371   0.3400   0.3508   0.3534   0.3548   0.3566
     0.3633   0.3677   0.3753   0.3790   0.3841   0.3902   0.3944   0.3954
     0.4043   0.4082   0.4139   0.4162   0.4232   0.4265   0.4374   0.4392
     0.4438   0.4518   0.4578   0.4687   0.4751   0.4826   0.4900   0.4939
     0.5011   0.5050   0.5066   0.5156   0.5188   0.5266   0.5285   0.5344
     0.5403   0.5439   0.5503   0.5529   0.5661   0.5688   0.5704   0.5768
     0.5817   0.5837   0.5866   0.5904   0.5995   0.6051   0.6147   0.6173
     0.6234   0.6262   0.6288   0.6373   0.6431   0.6456   0.6509   0.6573
     0.6597   0.6626   0.6675   0.6730   0.6774   0.6804   0.6924   0.7033
     0.7050   0.7089   0.7118   0.7129   0.7181   0.7246   0.7342   0.7351
     0.7373   0.7378   0.7451   0.7575   0.7629   0.7721   0.7833   0.7883
     0.7972   0.8057   0.8125   0.8146   0.8180   0.8254   0.8331   0.8373
     0.8418   0.8471   0.8507   0.8544   0.8591   0.8679   0.8716   0.8773
     0.8882   0.8942   0.9013   0.9094   0.9171   0.9238   0.9289   0.9316
     0.9371   0.9440   0.9512   0.9559   0.9579   0.9607   0.9672   0.9718
     0.9723   0.9735   0.9785   0.9836   0.9891   1.0001   1.0070   1.0121
     1.0134   1.0199   1.0211   1.0335   1.0383   1.0456   1.0545   1.0566
     1.0623   1.0668   1.0714   1.0734   1.0797   1.0839   1.0868   1.0880
     1.0925   1.0934   1.0945   1.0990   1.1032   1.1054   1.1090   1.1111
     1.1158   1.1269   1.1309   1.1349   1.1360   1.1394   1.1416   1.1454
     1.1488   1.1501   1.1578   1.1592   1.1651   1.1667   1.1771   1.1805
     1.1838   1.1873   1.1909   1.1954   1.1999   1.2031   1.2044   1.2069
     1.2108   1.2138   1.2156   1.2215   1.2280   1.2344   1.2477   1.2569
     1.2609   1.2660   1.2682   1.2702   1.2790   1.2859   1.2962   1.3049
     1.3152   1.3187   1.3194   1.3226   1.3277   1.3303   1.3334   1.3375
     1.3389   1.3428   1.3476   1.3489   1.3537   1.3595   1.3647   1.3680
     1.3706   1.3740   1.3749   1.3788   1.3801   1.3827   1.3861   1.3891
     1.3926   1.3946   1.3999   1.4035   1.4071   1.4125   1.4144   1.4266
     1.4291   1.4299   1.4365   1.4436   1.4473   1.4526   1.4575   1.4650
     1.4679   1.4750   1.4766   1.4815   1.4840   1.4886   1.4908   1.4979
     1.5010   1.5035   1.5095   1.5129   1.5160   1.5184   1.5217   1.5252
     1.5272   1.5309   1.5329   1.5372   1.5385   1.5410   1.5441   1.5496
     1.5582   1.5593   1.5638   1.5675   1.5720   1.5739   1.5762   1.5808
     1.5830   1.5992   1.6017   1.6207   1.6268   1.6371   1.6534   1.6712
     1.6807   1.6952   1.6978   1.7069   1.7156   1.7399   1.7494   1.8083
     1.8255   1.8342   1.8408   1.8497   1.9148   1.9156   2.0445   2.0994
     2.1050   2.1254   2.1346   2.1593   2.1864   2.2425   2.2638   2.2769
     2.4613   2.5862   2.6209   2.6348   2.7048   3.0327   3.0473   3.0525
     3.1626   3.2548   3.2611   3.2884   3.2947   3.2988   3.3733   3.4506
     3.5190   3.5781   3.6687   3.7167   3.7436   3.7579   3.7628   3.8051
     3.8229   3.8987   3.9172   4.0175   4.0292   4.1339   4.2738   4.2915
     4.3781   4.4385   4.5306   4.6582   4.6986   4.7060   4.7395   4.8686
     4.8997   4.9678   5.1321   5.2772   5.2852   5.3580   5.3874   5.4338
     5.4831   5.5225   5.5392   5.5678   5.5864   5.5970   5.6335   5.6599
     5.7535   5.7917   5.7977   5.8797   6.0213   6.0574   6.0724   6.1086
     6.1373   6.2002   6.3429   6.7253   6.7617   6.7749   6.7902   6.8202
     6.8397   6.9146   6.9298   6.9657   6.9965   7.0785   7.0930   7.1341
     7.1600   7.1749   7.1966   7.2262   7.3114   7.4045   7.4343   7.4609
     7.5681   7.6135   7.6715   7.7319   7.7728   7.8197   7.9314   8.0188
     8.0880   8.0959   8.1512   8.1931   8.2331   8.2570   8.3181   8.3369
     8.3782   8.4048   8.4328   8.4572   8.5241   8.5511   8.6974   8.7357
     8.8350   8.9145   9.0121   9.0564   9.0632   9.0814   9.1338   9.1724
     9.1770   9.1903   9.2436   9.2710   9.3125   9.3390   9.3603   9.3932
     9.4639   9.5041   9.5834   9.6244   9.6517   9.6931   9.7501   9.7672
     9.7936   9.8134   9.8791   9.9009  10.0154  10.0314

          k = 0.2500-0.2165 0.0000 (256316 PWs)   bands (ev):

   -15.8428 -15.8272 -15.1456 -15.0882 -14.8877 -14.8551 -14.6597 -14.1112
   -14.1080 -13.6691 -13.6562 -12.9261 -12.8863 -12.7194 -12.7115 -12.2228
   -12.2107 -11.6435 -11.6208 -10.9484 -10.9442 -10.7607 -10.7384 -10.2816
   -10.2561  -9.6134  -9.2266  -9.2221  -8.8130  -8.7845  -8.7166  -8.6929
    -8.1415  -8.1168  -8.0056  -7.9981  -6.9972  -6.3501  -6.3198  -6.2534
    -6.2477  -6.1022  -6.0806  -5.9645  -5.9554  -5.9195  -5.6971  -5.6911
    -5.6396  -5.6076  -4.7791  -4.7734  -4.6931  -4.6058  -4.5797  -4.5522
    -4.5293  -4.5243  -4.2808  -4.2510  -4.1020  -4.0689  -3.8864  -3.8723
    -3.8586  -3.8439  -3.7455  -3.7233  -3.5182  -3.5028  -3.3723  -3.3684
    -3.3635  -3.3227  -3.3214  -3.2498  -3.2353  -3.2173  -3.1378  -3.0497
    -2.9420  -2.9359  -2.9327  -2.8758  -2.8338  -2.8134  -2.8043  -2.6666
    -2.6496  -2.6412  -2.6353  -2.6321  -2.5942  -2.5868  -2.3428  -2.3229
    -2.2467  -2.2223  -2.1519  -2.1485  -2.1002  -2.0948  -2.0927  -2.0693
    -2.0477  -2.0079  -1.9328  -1.9278  -1.9056  -1.8674  -1.7669  -1.7553
    -1.7402  -1.7390  -1.7003  -1.6774  -1.6689  -1.6430  -1.6356  -1.6286
    -1.6226  -1.6194  -1.6148  -1.6059  -1.6011  -1.5920  -1.5911  -1.5891
    -1.5830  -1.5693  -1.5536  -1.5462  -1.5069  -1.4839  -1.4089  -1.3877
    -1.3813  -1.3785  -1.3496  -1.2993  -1.2837  -1.2537  -1.2457  -1.2162
    -1.2081  -1.2044  -1.1975  -1.1918  -1.1886  -1.1835  -1.1784  -1.1710
    -1.1543  -1.1497  -1.1493  -1.1435  -1.1351  -1.1321  -1.1253  -1.1148
    -1.1064  -1.0991  -1.0948  -1.0855  -1.0776  -1.0631  -1.0511  -1.0359
    -1.0284  -1.0262  -1.0244  -1.0097  -0.9834  -0.9795  -0.9739  -0.9582
    -0.9542  -0.9472  -0.9383  -0.9266  -0.9207  -0.9174  -0.9107  -0.9039
    -0.8869  -0.8852  -0.8802  -0.8757  -0.8618  -0.8599  -0.8533  -0.8360
    -0.8336  -0.8272  -0.8240  -0.8176  -0.7972  -0.7809  -0.7754  -0.7560
    -0.7375  -0.7248  -0.7097  -0.6780  -0.6721  -0.6658  -0.6541  -0.6470
    -0.6430  -0.6308  -0.6269  -0.6209  -0.6169  -0.6041  -0.5898  -0.5724
    -0.5518  -0.5438  -0.5395  -0.5286  -0.5148  -0.5093  -0.5041  -0.5022
    -0.4914  -0.4866  -0.4788  -0.4732  -0.4681  -0.4652  -0.4597  -0.4495
    -0.4418  -0.4263  -0.4210  -0.4103  -0.4076  -0.4032  -0.3994  -0.3921
    -0.3817  -0.3648  -0.3614  -0.3520  -0.3411  -0.3380  -0.3327  -0.3168
    -0.3137  -0.3092  -0.3046  -0.2953  -0.2925  -0.2897  -0.2824  -0.2804
    -0.2722  -0.2685  -0.2636  -0.2587  -0.2455  -0.2372  -0.2312  -0.2192
    -0.2085  -0.2059  -0.1986  -0.1860  -0.1797  -0.1712  -0.1676  -0.1646
    -0.1616  -0.1560  -0.1535  -0.1485  -0.1373  -0.1325  -0.1265  -0.1160
    -0.1058  -0.0971  -0.0956  -0.0841  -0.0610  -0.0584  -0.0569  -0.0387
    -0.0343  -0.0319  -0.0291  -0.0208  -0.0182  -0.0149  -0.0127   0.0040
     0.0112   0.0125   0.0153   0.0255   0.0332   0.0383   0.0467   0.0508
     0.0561   0.0616   0.0659   0.0681   0.0719   0.0761   0.0780   0.0790
     0.0835   0.0885   0.0891   0.0906   0.0953   0.1027   0.1062   0.1147
     0.1229   0.1342   0.1430   0.1454   0.1507   0.1589   0.1608   0.1733
     0.1751   0.1944   0.2028   0.2097   0.2170   0.2231   0.2264   0.2324
     0.2378   0.2403   0.2456   0.2502   0.2565   0.2589   0.2624   0.2652
     0.2818   0.3027   0.3100   0.3199   0.3260   0.3345   0.3403   0.3438
     0.3503   0.3581   0.3615   0.3735   0.3798   0.3839   0.3876   0.3928
     0.4062   0.4111   0.4160   0.4193   0.4201   0.4259   0.4263   0.4399
     0.4459   0.4490   0.4523   0.4542   0.4627   0.4754   0.4831   0.4874
     0.4938   0.4986   0.5144   0.5242   0.5255   0.5316   0.5368   0.5401
     0.5446   0.5510   0.5568   0.5626   0.5677   0.5717   0.5750   0.5775
     0.5835   0.5871   0.5890   0.6046   0.6061   0.6119   0.6251   0.6402
     0.6458   0.6545   0.6585   0.6633   0.6670   0.6731   0.6799   0.6806
     0.6859   0.6898   0.6928   0.6988   0.7010   0.7072   0.7118   0.7191
     0.7209   0.7304   0.7358   0.7376   0.7429   0.7466   0.7515   0.7520
     0.7539   0.7568   0.7625   0.7663   0.7698   0.7703   0.7801   0.7812
     0.7850   0.7907   0.7922   0.7963   0.7986   0.8052   0.8112   0.8132
     0.8261   0.8354   0.8373   0.8426   0.8474   0.8508   0.8647   0.8778
     0.8812   0.8855   0.8978   0.9007   0.9057   0.9090   0.9109   0.9130
     0.9182   0.9279   0.9287   0.9307   0.9336   0.9344   0.9369   0.9401
     0.9551   0.9569   0.9663   0.9730   0.9794   0.9855   0.9874   0.9884
     0.9924   0.9961   1.0072   1.0142   1.0182   1.0319   1.0372   1.0396
     1.0431   1.0499   1.0575   1.0632   1.0671   1.0731   1.0763   1.0784
     1.0831   1.0950   1.0990   1.1043   1.1127   1.1227   1.1314   1.1424
     1.1460   1.1548   1.1593   1.1609   1.1625   1.1671   1.1687   1.1730
     1.1747   1.1770   1.1787   1.1802   1.1822   1.1856   1.1874   1.1912
     1.1968   1.2075   1.2118   1.2154   1.2226   1.2243   1.2336   1.2389
     1.2430   1.2474   1.2494   1.2532   1.2541   1.2578   1.2613   1.2689
     1.2708   1.2719   1.2734   1.2766   1.2807   1.2829   1.2898   1.2915
     1.2932   1.2946   1.2993   1.3021   1.3062   1.3090   1.3171   1.3187
     1.3216   1.3405   1.3419   1.3437   1.3458   1.3485   1.3508   1.3568
     1.3660   1.3708   1.3761   1.3815   1.3848   1.3914   1.3978   1.4000
     1.4025   1.4065   1.4096   1.4099   1.4142   1.4201   1.4227   1.4270
     1.4319   1.4410   1.4434   1.4459   1.4498   1.4514   1.4559   1.4583
     1.4634   1.4650   1.4714   1.4756   1.4766   1.4818   1.4826   1.4865
     1.4886   1.4898   1.4971   1.5002   1.5087   1.5101   1.5112   1.5158
     1.5189   1.5213   1.5247   1.5275   1.5340   1.5357   1.5387   1.5488
     1.5540   1.5559   1.5579   1.5794   1.5806   1.5819   1.5849   1.5936
     1.5962   1.6015   1.6216   1.6236   1.6246   1.6366   1.6429   1.6560
     1.7087   1.7157   1.7176   1.7281   1.7397   1.7769   1.8087   1.8169
     1.8248   1.8327   1.8409   1.8445   1.8493   1.8575   1.8768   1.9954
     2.0065   2.1365   2.1858   2.1988   2.2172   2.2374   2.3360   2.3588
     2.6277   2.6551   2.7532   2.8191   2.8289   2.8323   2.8508   2.8594
     2.8999   2.9720   3.0137   3.0606   3.0807   3.2107   3.4003   3.5543
     3.5892   3.6268   3.6436   3.7230   3.8215   3.9045   3.9161   3.9343
     4.0468   4.0889   4.1379   4.1463   4.2165   4.2354   4.3678   4.4264
     4.5336   4.5737   4.5846   4.5975   4.6556   4.7089   4.7930   4.8461
     4.9235   4.9623   4.9741   4.9985   5.0163   5.0825   5.0907   5.2102
     5.2277   5.3713   5.4158   5.4304   5.5073   5.5354   5.6171   5.6661
     5.7390   5.8173   5.8508   5.8850   5.9383   6.1142   6.1972   6.2462
     6.2659   6.4651   6.5676   6.6608   6.7167   6.7825   6.7920   6.8448
     6.8805   6.9459   6.9569   7.0696   7.0742   7.1351   7.2284   7.2594
     7.2781   7.2970   7.3104   7.3311   7.4026   7.4313   7.4590   7.5046
     7.5137   7.5215   7.6248   7.6549   7.7432   7.8111   7.8436   7.9014
     7.9422   7.9643   8.1679   8.1816   8.2262   8.2931   8.4330   8.4645
     8.5154   8.5562   8.5958   8.6462   8.6637   8.6672   8.6933   8.7276
     8.7376   8.7716   8.9101   8.9343   8.9529   8.9843   9.0052   9.0824
     9.1218   9.1991   9.2077   9.2479   9.2596   9.2694   9.3142   9.3275
     9.3516   9.4003   9.4284   9.4624   9.4709   9.5263   9.5418   9.5680
     9.6783   9.6894   9.7166   9.7823   9.9349  10.0113

          k =-0.5000 0.0000 0.0000 (256496 PWs)   bands (ev):

   -15.5753 -15.5387 -15.2759 -15.1921 -15.1579 -15.1492 -14.7120 -14.1113
   -14.0944 -14.0938 -14.0758 -12.3716 -12.3629 -12.3584 -12.3484 -11.7226
   -11.7142 -11.4286 -11.4051 -11.3692 -11.3653 -10.7670 -10.7589 -10.5025
   -10.4815  -9.7877  -9.7659  -9.5903  -9.3612  -9.3510  -8.5758  -8.5718
    -8.5573  -8.5562  -7.1526  -7.1487  -7.0888  -7.0621  -7.0508  -7.0481
    -6.9689  -5.9690  -5.5221  -5.5213  -5.2448  -5.2123  -4.7759  -4.7293
    -4.7228  -4.7148  -4.7118  -4.7058  -4.3803  -4.3711  -4.3681  -4.3596
    -4.3441  -4.3319  -4.3186  -4.3127  -4.2975  -4.1807  -4.0913  -4.0886
    -4.0679  -4.0657  -4.0613  -3.8438  -3.8058  -3.7004  -3.6430  -3.6104
    -3.5782  -3.5230  -3.3459  -3.3433  -3.3294  -3.3118  -3.2739  -3.2360
    -3.1725  -3.1111  -3.1081  -3.0587  -3.0274  -3.0235  -3.0157  -2.9354
    -2.5772  -2.5744  -2.5578  -2.5496  -2.5280  -2.4802  -2.4395  -2.4291
    -2.4277  -2.4238  -2.2907  -2.2860  -2.2785  -2.0886  -2.0378  -2.0288
    -1.9870  -1.9743  -1.8153  -1.8133  -1.8048  -1.8009  -1.7953  -1.7885
    -1.7128  -1.6928  -1.6905  -1.6510  -1.5872  -1.5820  -1.5741  -1.5698
    -1.5403  -1.5296  -1.5155  -1.5110  -1.4755  -1.4535  -1.4241  -1.4223
    -1.3715  -1.3532  -1.3499  -1.3444  -1.3359  -1.3348  -1.3309  -1.3276
    -1.3185  -1.2811  -1.2784  -1.2733  -1.2689  -1.2645  -1.2620  -1.2618
    -1.2515  -1.2404  -1.2274  -1.2195  -1.2149  -1.2129  -1.2092  -1.2034
    -1.2008  -1.1988  -1.1932  -1.1913  -1.1872  -1.1871  -1.1594  -1.1296
    -1.1292  -1.1116  -1.1054  -1.0983  -1.0956  -1.0853  -1.0835  -1.0683
    -1.0582  -1.0529  -1.0473  -1.0442  -1.0308  -1.0271  -1.0229  -1.0158
    -1.0040  -0.9989  -0.9913  -0.9866  -0.9843  -0.9298  -0.9189  -0.9077
    -0.9025  -0.8997  -0.8935  -0.8811  -0.8791  -0.8728  -0.8625  -0.8590
    -0.8537  -0.8459  -0.8415  -0.8406  -0.8383  -0.8368  -0.8346  -0.8191
    -0.8059  -0.7636  -0.7529  -0.7453  -0.7347  -0.7324  -0.7208  -0.7135
    -0.7115  -0.6503  -0.6331  -0.6298  -0.6272  -0.6146  -0.5994  -0.5969
    -0.5940  -0.5876  -0.5856  -0.5848  -0.5432  -0.5412  -0.5391  -0.5288
    -0.5251  -0.5231  -0.5216  -0.5179  -0.5055  -0.5021  -0.4976  -0.4904
    -0.4672  -0.4437  -0.4027  -0.3926  -0.3824  -0.3648  -0.3606  -0.3570
    -0.3490  -0.3345  -0.3309  -0.3295  -0.3278  -0.3253  -0.3128  -0.2969
    -0.2935  -0.2922  -0.2884  -0.2845  -0.2832  -0.2664  -0.2551  -0.2523
    -0.2473  -0.2466  -0.2451  -0.2325  -0.2285  -0.2273  -0.2189  -0.2179
    -0.2070  -0.2017  -0.1897  -0.1733  -0.1685  -0.1658  -0.1622  -0.1568
    -0.1409  -0.1319  -0.1284  -0.1259  -0.0887  -0.0882  -0.0767  -0.0757
    -0.0726  -0.0690  -0.0623  -0.0560  -0.0502  -0.0481  -0.0449  -0.0410
    -0.0252  -0.0219  -0.0122   0.0037   0.0106   0.0342   0.0382   0.0411
     0.0474   0.0510   0.0569   0.0591   0.0606   0.0613   0.0621   0.0660
     0.0752   0.0797   0.1072   0.1264   0.1290   0.1308   0.1335   0.1384
     0.1400   0.1414   0.1460   0.1498   0.1537   0.1612   0.1633   0.1652
     0.1674   0.1706   0.1753   0.1755   0.1819   0.1826   0.1848   0.1903
     0.1999   0.2008   0.2043   0.2069   0.2112   0.2137   0.2179   0.2210
     0.2361   0.2395   0.2446   0.2481   0.2489   0.2532   0.2582   0.2633
     0.2708   0.2789   0.2899   0.3002   0.3275   0.3326   0.3443   0.3541
     0.3671   0.3682   0.3847   0.3928   0.3953   0.4003   0.4096   0.4119
     0.4216   0.4276   0.4324   0.4420   0.4462   0.4500   0.4548   0.4555
     0.4602   0.4614   0.4653   0.4712   0.4733   0.4811   0.4815   0.4838
     0.4873   0.4918   0.4974   0.5089   0.5113   0.5175   0.5385   0.5526
     0.5547   0.5649   0.5697   0.5717   0.5786   0.5919   0.5951   0.5981
     0.5994   0.6027   0.6105   0.6133   0.6182   0.6194   0.6204   0.6208
     0.6222   0.6271   0.6341   0.6385   0.6426   0.6434   0.6515   0.6536
     0.6574   0.6603   0.6632   0.6677   0.6730   0.6913   0.6954   0.7056
     0.7100   0.7118   0.7134   0.7150   0.7197   0.7207   0.7237   0.7266
     0.7285   0.7327   0.7385   0.7394   0.7397   0.7438   0.7451   0.7548
     0.7597   0.7704   0.7803   0.7850   0.7875   0.7924   0.7958   0.8005
     0.8026   0.8049   0.8084   0.8086   0.8238   0.8313   0.8338   0.8409
     0.8491   0.8537   0.8747   0.8826   0.8904   0.8930   0.9024   0.9064
     0.9080   0.9109   0.9153   0.9177   0.9178   0.9254   0.9260   0.9344
     0.9349   0.9421   0.9440   0.9450   0.9554   0.9607   0.9611   0.9680
     0.9750   0.9755   0.9795   0.9835   0.9874   0.9893   0.9929   0.9958
     1.0154   1.0188   1.0223   1.0269   1.0341   1.0632   1.0782   1.0792
     1.0921   1.0951   1.0955   1.1062   1.1118   1.1263   1.1304   1.1328
     1.1428   1.1456   1.1517   1.1574   1.1577   1.1603   1.1633   1.1669
     1.1695   1.1738   1.1879   1.1920   1.1923   1.1944   1.1973   1.2030
     1.2034   1.2060   1.2076   1.2085   1.2093   1.2140   1.2176   1.2183
     1.2266   1.2279   1.2319   1.2470   1.2504   1.2531   1.2543   1.2577
     1.2656   1.2715   1.2761   1.2821   1.2865   1.2924   1.2968   1.3045
     1.3069   1.3071   1.3148   1.3161   1.3170   1.3182   1.3202   1.3248
     1.3256   1.3284   1.3320   1.3373   1.3665   1.3691   1.3723   1.3753
     1.3761   1.3772   1.3819   1.3827   1.3833   1.3874   1.3877   1.3879
     1.3923   1.3952   1.3974   1.3987   1.4007   1.4021   1.4080   1.4087
     1.4130   1.4157   1.4167   1.4178   1.4222   1.4262   1.4287   1.4305
     1.4317   1.4413   1.4450   1.4497   1.4546   1.4612   1.4641   1.4684
     1.4696   1.4836   1.4871   1.4896   1.4930   1.4943   1.4981   1.5009
     1.5025   1.5045   1.5168   1.5190   1.5208   1.5216   1.5309   1.5317
     1.5354   1.5363   1.5426   1.5523   1.5531   1.5562   1.5571   1.5600
     1.5638   1.5687   1.5769   1.5861   1.5897   1.5916   1.5929   1.5965
     1.6113   1.6160   1.6208   1.6439   1.6504   1.6709   1.6776   1.6805
     1.6808   1.6917   1.6928   1.7380   2.0545   2.0847   2.1068   2.1383
     2.2183   2.2703   2.3025   2.3398   2.3540   2.3571   2.3618   2.3926
     2.6147   2.6204   2.6313   2.7799   2.8386   2.8957   2.9004   3.0073
     3.1476   3.2486   3.2613   3.2685   3.4022   3.5389   3.6646   3.7679
     3.8039   3.8079   3.8804   3.9470   3.9681   4.0050   4.0459   4.1037
     4.1381   4.1406   4.1521   4.3431   4.4912   4.6475   4.6565   4.6881
     4.7004   4.7171   4.8366   4.8510   4.8664   4.9240   4.9547   4.9685
     4.9762   5.0592   5.0759   5.1009   5.1027   5.1250   5.1253   5.1482
     5.2001   5.2570   5.3528   5.3903   5.3974   5.4587   5.5197   5.5555
     5.5601   5.5973   5.6045   5.6171   5.8317   5.9379   5.9884   6.0102
     6.0343   6.0390   6.0433   6.0646   6.1089   6.2382   6.3095   6.3169
     6.3477   6.3836   6.5457   6.6600   6.6676   6.7113   6.7257   7.0607
     7.0933   7.1246   7.1456   7.2243   7.3101   7.3997   7.5944   7.6350
     7.6435   7.6499   7.6573   7.7044   7.7721   7.8351   7.8579   7.8792
     7.8996   7.9374   7.9623   7.9763   8.0311   8.0517   8.0636   8.0751
     8.1236   8.2549   8.3239   8.3523   8.6713   8.7202   8.7834   8.8029
     8.8635   8.8667   8.8719   8.8943   8.9252   8.9824   9.0566   9.0597
     9.0688   9.0857   9.2652   9.3062   9.3306   9.3713   9.4237   9.4500
     9.5007   9.5340   9.5419   9.5492   9.5590   9.5625   9.5681   9.5701
     9.5944   9.6085   9.6911   9.7356   9.8495   9.9225

          k =-0.5000-0.2165 0.0000 (256328 PWs)   bands (ev):

   -15.5012 -15.4721 -15.4696 -15.4215 -14.8824 -14.7279 -14.7261 -14.7125
   -14.5790 -13.3192 -13.3036 -13.3025 -13.2980 -11.6533 -11.6527 -11.6267
   -11.6068 -11.3130 -11.3057 -11.2991 -11.2732 -11.0441 -11.0380 -11.0192
   -11.0095  -9.6221  -9.3710  -9.3684  -9.3369  -9.3305  -8.4590  -8.4453
    -8.4332  -8.4193  -7.7058  -7.7039  -7.6747  -7.6708  -6.9924  -5.9725
    -5.6540  -5.6484  -5.6431  -5.6362  -5.1455  -5.0916  -5.0859  -5.0779
    -4.9835  -4.9820  -4.9472  -4.9466  -4.6485  -4.6472  -4.6097  -4.5932
    -4.3833  -4.1287  -4.1219  -4.1202  -4.1074  -4.0971  -4.0826  -4.0040
    -3.8136  -3.8079  -3.8001  -3.7973  -3.7549  -3.7092  -3.6568  -3.6401
    -3.5643  -3.4031  -3.4021  -3.3564  -3.3527  -3.3500  -3.3160  -3.3041
    -3.2757  -3.2386  -3.1692  -3.1636  -3.1163  -3.1073  -2.8039  -2.7520
    -2.6896  -2.5804  -2.5032  -2.4997  -2.4969  -2.4881  -2.4706  -2.4570
    -2.4428  -2.3148  -2.0677  -2.0633  -2.0620  -2.0559  -2.0013  -1.9984
    -1.9939  -1.9815  -1.9748  -1.9687  -1.9578  -1.8540  -1.7533  -1.7230
    -1.7211  -1.7066  -1.7034  -1.6992  -1.6841  -1.6754  -1.5432  -1.5212
    -1.5191  -1.5099  -1.4805  -1.4756  -1.4314  -1.4161  -1.4118  -1.4063
    -1.4031  -1.3935  -1.3636  -1.3538  -1.3434  -1.3338  -1.3328  -1.3225
    -1.3145  -1.3089  -1.3007  -1.2969  -1.2919  -1.2888  -1.2817  -1.2793
    -1.2779  -1.2748  -1.2663  -1.2390  -1.2351  -1.2340  -1.2230  -1.2216
    -1.2109  -1.1966  -1.1756  -1.1413  -1.1265  -1.1228  -1.1193  -1.1183
    -1.1105  -1.1067  -1.1005  -1.0848  -1.0748  -1.0714  -1.0642  -1.0579
    -1.0567  -1.0485  -1.0403  -1.0385  -1.0370  -1.0292  -1.0104  -1.0004
    -0.9950  -0.9884  -0.9866  -0.9793  -0.9787  -0.9733  -0.9695  -0.9598
    -0.9584  -0.9462  -0.9452  -0.9444  -0.9379  -0.9364  -0.8903  -0.8477
    -0.8083  -0.7929  -0.7896  -0.7854  -0.7851  -0.7831  -0.7826  -0.7782
    -0.7715  -0.7590  -0.7337  -0.7216  -0.7135  -0.6935  -0.6889  -0.6872
    -0.6849  -0.6788  -0.6780  -0.6731  -0.6687  -0.6670  -0.6459  -0.6399
    -0.6206  -0.6184  -0.6140  -0.6105  -0.6068  -0.6009  -0.5936  -0.5881
    -0.5873  -0.5715  -0.5520  -0.5401  -0.4861  -0.4801  -0.4683  -0.4640
    -0.4618  -0.4596  -0.4432  -0.4298  -0.4218  -0.4169  -0.4016  -0.3823
    -0.3809  -0.3702  -0.3665  -0.3629  -0.3491  -0.3459  -0.3407  -0.3385
    -0.3174  -0.3155  -0.3124  -0.3107  -0.3067  -0.3046  -0.2536  -0.2515
    -0.2487  -0.2407  -0.2299  -0.2279  -0.1961  -0.1933  -0.1802  -0.1739
    -0.1712  -0.1709  -0.1694  -0.1673  -0.1640  -0.1625  -0.1544  -0.1278
    -0.1081  -0.0974  -0.0906  -0.0883  -0.0862  -0.0829  -0.0815  -0.0798
    -0.0770  -0.0718  -0.0695  -0.0573  -0.0465  -0.0408  -0.0364  -0.0361
    -0.0349  -0.0298  -0.0273  -0.0273  -0.0150  -0.0106  -0.0013   0.0035
     0.0172   0.0361   0.0469   0.0517   0.0646   0.0731   0.0894   0.1016
     0.1254   0.1271   0.1295   0.1325   0.1333   0.1390   0.1420   0.1430
     0.1499   0.1514   0.1580   0.1672   0.1703   0.1725   0.1747   0.1758
     0.1813   0.1831   0.1846   0.1905   0.1951   0.1987   0.2003   0.2027
     0.2041   0.2069   0.2110   0.2212   0.2250   0.2326   0.2341   0.2407
     0.2420   0.2493   0.2580   0.2602   0.2623   0.2707   0.2794   0.2852
     0.2858   0.2905   0.3057   0.3074   0.3204   0.3244   0.3285   0.3312
     0.3639   0.3710   0.3870   0.3889   0.3952   0.4169   0.4178   0.4308
     0.4327   0.4402   0.4421   0.4502   0.4661   0.4668   0.4689   0.4694
     0.4760   0.4792   0.4886   0.4903   0.4952   0.5000   0.5077   0.5119
     0.5221   0.5240   0.5251   0.5353   0.5407   0.5410   0.5434   0.5468
     0.5494   0.5499   0.5540   0.5565   0.5579   0.5656   0.5685   0.5790
     0.5799   0.5878   0.6074   0.6084   0.6132   0.6156   0.6173   0.6205
     0.6297   0.6318   0.6356   0.6405   0.6430   0.6475   0.6490   0.6561
     0.6566   0.6640   0.6652   0.6666   0.6758   0.6788   0.6837   0.6875
     0.6888   0.6949   0.6982   0.7000   0.7096   0.7161   0.7235   0.7322
     0.7379   0.7403   0.7450   0.7554   0.7570   0.7589   0.7638   0.7693
     0.7747   0.7753   0.7871   0.7950   0.7974   0.7999   0.8021   0.8093
     0.8115   0.8137   0.8144   0.8175   0.8189   0.8251   0.8272   0.8378
     0.8428   0.8534   0.8633   0.8712   0.8812   0.8823   0.8892   0.8905
     0.8911   0.8982   0.9007   0.9164   0.9256   0.9287   0.9351   0.9453
     0.9477   0.9493   0.9542   0.9557   0.9732   0.9759   0.9796   0.9907
     0.9933   1.0083   1.0124   1.0151   1.0213   1.0366   1.0499   1.0521
     1.0603   1.0694   1.0729   1.0812   1.0836   1.0882   1.0960   1.0980
     1.1032   1.1050   1.1079   1.1087   1.1107   1.1143   1.1177   1.1198
     1.1208   1.1238   1.1256   1.1257   1.1289   1.1318   1.1380   1.1440
     1.1505   1.1522   1.1543   1.1558   1.1582   1.1614   1.1647   1.1709
     1.1790   1.1829   1.1885   1.1972   1.2003   1.2029   1.2072   1.2075
     1.2133   1.2155   1.2195   1.2251   1.2287   1.2292   1.2426   1.2585
     1.2622   1.2643   1.2693   1.2732   1.2746   1.2771   1.2801   1.2880
     1.2905   1.2925   1.2952   1.2955   1.3029   1.3155   1.3194   1.3307
     1.3310   1.3397   1.3418   1.3441   1.3474   1.3515   1.3532   1.3543
     1.3571   1.3578   1.3603   1.3642   1.3645   1.3776   1.3982   1.4085
     1.4090   1.4117   1.4195   1.4208   1.4228   1.4277   1.4282   1.4311
     1.4318   1.4333   1.4348   1.4357   1.4390   1.4397   1.4438   1.4476
     1.4502   1.4505   1.4540   1.4567   1.4637   1.4640   1.4676   1.4695
     1.4712   1.4755   1.4773   1.4783   1.4798   1.4803   1.4857   1.4915
     1.4946   1.5083   1.5106   1.5139   1.5171   1.5197   1.5211   1.5328
     1.5398   1.5412   1.5433   1.5442   1.5534   1.5734   1.5740   1.5820
     1.5841   1.5866   1.6059   1.6100   1.6184   1.6187   1.6393   1.6410
     1.6486   1.6542   1.6649   1.6656   1.6663   1.6722   1.6741   1.6791
     1.6820   1.6907   1.6915   1.6932   1.6941   1.8119   1.8942   1.9059
     1.9121   1.9745   2.3511   2.3530   2.3578   2.4427   2.5496   2.6212
     2.6312   2.6413   2.7937   2.8461   2.8691   2.9075   3.0603   3.1001
     3.1395   3.2548   3.4604   3.5207   3.5248   3.5372   3.5810   3.6890
     3.6922   3.7532   3.9300   4.0022   4.0022   4.0099   4.1248   4.2103
     4.2519   4.2755   4.2950   4.3051   4.3109   4.3260   4.3943   4.5718
     4.6058   4.6422   4.6852   4.7311   4.7486   4.8422   4.9227   5.0296
     5.0408   5.1153   5.1230   5.1362   5.1642   5.1682   5.2223   5.2474
     5.2530   5.2815   5.2902   5.3149   5.3513   5.4023   5.4424   5.4560
     5.4702   5.6600   5.7435   5.7602   5.7642   5.7703   5.7869   5.8120
     5.8343   5.8960   5.9026   5.9111   5.9381   5.9728   6.2226   6.6588
     6.7267   6.9543   7.0023   7.0155   7.0834   7.0985   7.1141   7.1570
     7.1658   7.1846   7.1876   7.2101   7.2409   7.3106   7.3487   7.3820
     7.4368   7.4722   7.4997   7.5115   7.5347   7.6689   7.7852   7.9178
     7.9225   8.0608   8.0777   8.0813   8.1033   8.1238   8.2226   8.2797
     8.3519   8.3996   8.4136   8.4333   8.4519   8.4634   8.7129   8.8715
     8.9080   8.9132   8.9306   8.9370   8.9471   8.9514   9.0075   9.0239
     9.0663   9.0770   9.1704   9.1746   9.1846   9.1960   9.2020   9.2377
     9.3968   9.4192   9.4428   9.4532   9.4689   9.4835   9.4959   9.5035
     9.5146   9.5778   9.7325   9.8480   9.9200  10.0178

     the Fermi energy is     3.3991 ev

!    total energy              =  -12734.55150106 Ry
     Harris-Foulkes estimate   =  -12734.55150106 Ry
     estimated scf accuracy    <          5.5E-09 Ry

     The total energy is the sum of the following terms:

     one-electron contribution = -104332.29141621 Ry
     hartree contribution      =   53536.74429484 Ry
     xc contribution           =   -4456.91653781 Ry
     ewald contribution        =   42524.18607106 Ry
     Dispersion Correction     =      -2.93421543 Ry
     smearing contrib. (-TS)   =      -3.33969751 Ry

     convergence has been achieved in  46 iterations

     Writing output data file gc.save
 
     init_run     :     99.85s CPU    107.32s WALL (       1 calls)
     electrons    :  13551.97s CPU  14475.69s WALL (       1 calls)

     Called by init_run:
     wfcinit      :     97.49s CPU    104.49s WALL (       1 calls)
     potinit      :      0.40s CPU      0.43s WALL (       1 calls)

     Called by electrons:
     c_bands      :  12515.52s CPU  13335.56s WALL (      46 calls)
     sum_band     :    850.01s CPU    923.11s WALL (      46 calls)
     v_of_rho     :      2.98s CPU      3.77s WALL (      47 calls)
     newd         :      8.21s CPU     14.48s WALL (      47 calls)
     mix_rho      :    175.07s CPU    198.67s WALL (      46 calls)

     Called by c_bands:
     init_us_2    :     38.57s CPU     39.13s WALL (     558 calls)
     cegterg      :  12344.19s CPU  13158.03s WALL (     289 calls)

     Called by sum_band:
     sum_band:bec :      4.79s CPU      5.36s WALL (     276 calls)
     addusdens    :      8.35s CPU     14.15s WALL (      46 calls)

     Called by *egterg:
     h_psi        :   4466.20s CPU   4830.12s WALL (    1977 calls)
     s_psi        :   1082.93s CPU   1095.55s WALL (    1977 calls)
     g_psi        :     11.72s CPU     11.73s WALL (    1682 calls)
     cdiaghg      :   3598.54s CPU   3734.72s WALL (    1962 calls)

     Called by h_psi:
     add_vuspsi   :   1089.40s CPU   1104.39s WALL (    1977 calls)

     General routines
     calbec       :   1487.79s CPU   1498.92s WALL (    2253 calls)
     fft          :      3.51s CPU      4.24s WALL (     610 calls)
     ffts         :    103.11s CPU    117.42s WALL (   26641 calls)
     fftw         :   2561.71s CPU   2850.34s WALL ( 1419024 calls)
     davcio       :      0.33s CPU      4.07s WALL (       6 calls)
 
     Parallel routines
     fft_scatter  :   1661.10s CPU   1820.71s WALL ( 1446275 calls)
 
     PWSCF        :     3h47m CPU        4h 3m WALL

 
   This run was terminated on:  22:22:14  26Apr2017            

=------------------------------------------------------------------------------=
   JOB DONE.
=------------------------------------------------------------------------------=
