mpirun: INFO: switching to OpenMPI runtime version 1.10.2

     Program PWSCF v.5.4.0 starts on  8Sep2017 at  0: 6:49 

     This program is part of the open-source Quantum ESPRESSO suite
     for quantum simulation of materials; please cite
         "P. Giannozzi et al., J. Phys.:Condens. Matter 21 395502 (2009);
          URL http://www.quantum-espresso.org", 
     in publications or presentations arising from this work. More details at
     http://www.quantum-espresso.org/quote

     Parallel version (MPI & OpenMP), running on      56 processor cores
     Number of MPI processes:                56
     Threads/MPI process:                     1
     R & G space division:  proc/nbgrp/npool/nimage =      56
     Waiting for input...
     Reading input from standard input
Warning: card &IONS ignored
Warning: card / ignored

     Current dimensions of program PWSCF are:
     Max number of different atomic species (ntypx) = 10
     Max number of k-points (npk) =  40000
     Max angular momentum in pseudopotentials (lmaxx) =  3

     -------------------------------------
     Parameters for Dispersion Correction:
     -------------------------------------
       atom      VdW radius       C_6     

        Cu         2.952        374.666
        C_h        2.744         60.710
        C          2.744         60.710

     Subspace diagonalization in iterative solution of the eigenvalue problem:
     one sub-group per band group will be used
     scalapack distributed-memory algorithm (size of sub-group:  5*  5 procs)

 
     Parallelization info
     --------------------
     sticks:   dense  smooth     PW     G-vecs:    dense   smooth      PW
     Min         204     204     54                36612    36612    4962
     Max         205     205     55                36617    36617    4968
     Sum       11433   11433   3039              2050409  2050409  278033
 


     bravais-lattice index     =            0
     lattice parameter (alat)  =      13.9425  a.u.
     unit-cell volume          =   21209.0878 (a.u.)^3
     number of atoms/cell      =          148
     number of atomic types    =            3
     number of electrons       =      1292.00
     number of Kohn-Sham states=          775
     kinetic-energy cutoff     =      80.0000  Ry
     charge density cutoff     =     320.0000  Ry
     convergence threshold     =      1.0E-08
     mixing beta               =       0.7000
     number of iterations used =            8  local-TF  mixing
     Exchange-correlation      =  SLA  PW   PBX  PBC ( 1  4  3  4 0 0)

     celldm(1)=  13.942539  celldm(2)=   0.000000  celldm(3)=   0.000000
     celldm(4)=   0.000000  celldm(5)=   0.000000  celldm(6)=   0.000000

     crystal axes: (cart. coord. in units of alat)
               a(1) = (   1.000000   0.000000   0.000000 )  
               a(2) = (   0.000000   2.309401   0.000000 )  
               a(3) = (   0.000000   0.000000   3.388418 )  

     reciprocal axes: (cart. coord. in units 2 pi/alat)
               b(1) = (  1.000000  0.000000  0.000000 )  
               b(2) = (  0.000000  0.433013  0.000000 )  
               b(3) = (  0.000000  0.000000  0.295123 )  


     PseudoPot. # 1 for Cu read from file:
     /home/549/hxw549/Short/pseudopotentials/Cu.pbe-n-van_ak.UPF
     MD5 check sum: 601f7c30f7467666bec936e0661ce3e1
     Pseudo is Ultrasoft + core correction, Zval = 11.0
     Generated by new atomic code, or converted to UPF format
     Using radial grid of  867 points,  6 beta functions with: 
                l(1) =   0
                l(2) =   0
                l(3) =   1
                l(4) =   1
                l(5) =   2
                l(6) =   2
     Q(r) pseudized with  8 coefficients,  rinner =    1.400   1.400   1.400
                                                       1.400   1.400

     PseudoPot. # 2 for C  read from file:
     /home/549/hxw549/Short/pseudopotentials/C.star1s-pbe-mt_gipaw.UPF
     MD5 check sum: ef0cb3dee31bd9e4ba2a832a2c716264
     Pseudo is Norm-conserving, Zval =  5.0
     Generated by new atomic code, or converted to UPF format
     Using radial grid of 1073 points,  1 beta functions with: 
                l(1) =   0

     PseudoPot. # 3 for C  read from file:
     /home/549/hxw549/Short/pseudopotentials/C.pbe-mt_gipaw.UPF
     MD5 check sum: 5ac2f21f2c440b14befe521540822c15
     Pseudo is Norm-conserving, Zval =  4.0
     Generated by new atomic code, or converted to UPF format
     Using radial grid of 1073 points,  1 beta functions with: 
                l(1) =   0

     atomic species   valence    mass     pseudopotential
        Cu            11.00    63.54600     Cu( 1.00)
        C_h            5.00    12.01070     C ( 1.00)
        C              4.00    12.01070     C ( 1.00)

     No symmetry found



   Cartesian axes

     site n.     atom                  positions (alat units)
         1           Cu  tau(   1) = (   0.0000000   0.0000567   0.9971194  )
         2           Cu  tau(   2) = (   0.2499927   0.2309760   0.9972946  )
         3           Cu  tau(   3) = (   0.5000000   0.0000313   0.9971490  )
         4           Cu  tau(   4) = (   0.7500073   0.2309760   0.9972946  )
         5           Cu  tau(   5) = (   0.0000000   0.4618437   0.9973425  )
         6           Cu  tau(   6) = (   0.2499840   0.6927701   0.9971914  )
         7           Cu  tau(   7) = (   0.5000000   0.4618722   0.9973119  )
         8           Cu  tau(   8) = (   0.7500160   0.6927701   0.9971914  )
         9           Cu  tau(   9) = (   0.0000000   0.9237521   0.9970621  )
        10           Cu  tau(  10) = (   0.2500157   1.1547420   0.9971373  )
        11           Cu  tau(  11) = (   0.5000000   0.9237453   0.9970727  )
        12           Cu  tau(  12) = (   0.7499843   1.1547420   0.9971373  )
        13           Cu  tau(  13) = (   0.0000000   1.3856555   0.9972830  )
        14           Cu  tau(  14) = (   0.2500029   1.6165618   0.9973242  )
        15           Cu  tau(  15) = (   0.5000000   1.3857014   0.9973005  )
        16           Cu  tau(  16) = (   0.7499971   1.6165618   0.9973242  )
        17           Cu  tau(  17) = (   0.0000000   1.8474941   0.9971969  )
        18           Cu  tau(  18) = (   0.2500043   2.0784518   0.9970745  )
        19           Cu  tau(  19) = (   0.5000000   1.8474499   0.9971773  )
        20           Cu  tau(  20) = (   0.7499957   2.0784518   0.9970745  )
        21           Cu  tau(  21) = (   0.0000000   0.2308065   1.2457643  )
        22           Cu  tau(  22) = (   0.2499892  -0.0001010   1.2455764  )
        23           Cu  tau(  23) = (   0.5000000   0.2308938   1.2456746  )
        24           Cu  tau(  24) = (   0.7500108  -0.0001010   1.2455764  )
        25           Cu  tau(  25) = (   0.0000000   0.6929786   1.2456406  )
        26           Cu  tau(  26) = (   0.2499874   0.4619293   1.2457459  )
        27           Cu  tau(  27) = (   0.5000000   0.6929012   1.2456074  )
        28           Cu  tau(  28) = (   0.7500126   0.4619293   1.2457459  )
        29           Cu  tau(  29) = (   0.0000000   1.1546142   1.2455676  )
        30           Cu  tau(  30) = (   0.2499981   0.9237849   1.2455149  )
        31           Cu  tau(  31) = (   0.5000000   1.1545763   1.2455800  )
        32           Cu  tau(  32) = (   0.7500019   0.9237849   1.2455149  )
        33           Cu  tau(  33) = (   0.0000000   1.6166029   1.2456910  )
        34           Cu  tau(  34) = (   0.2500161   1.3855492   1.2457134  )
        35           Cu  tau(  35) = (   0.5000000   1.6166555   1.2458019  )
        36           Cu  tau(  36) = (   0.7499839   1.3855492   1.2457134  )
        37           Cu  tau(  37) = (   0.0000000   2.0784993   1.2455162  )
        38           Cu  tau(  38) = (   0.2500161   1.8476387   1.2456210  )
        39           Cu  tau(  39) = (   0.5000000   2.0784755   1.2455152  )
        40           Cu  tau(  40) = (   0.7499839   1.8476387   1.2456210  )
        41           Cu  tau(  41) = (   0.0000000  -0.0003182   1.4954305  )
        42           Cu  tau(  42) = (   0.2500224   0.2307186   1.4951678  )
        43           Cu  tau(  43) = (   0.5000000  -0.0002059   1.4952775  )
        44           Cu  tau(  44) = (   0.7499776   0.2307186   1.4951678  )
        45           Cu  tau(  45) = (   0.0000000   0.4620254   1.4950571  )
        46           Cu  tau(  46) = (   0.2500339   0.6931225   1.4952807  )
        47           Cu  tau(  47) = (   0.5000000   0.4619896   1.4952144  )
        48           Cu  tau(  48) = (   0.7499661   0.6931225   1.4952807  )
        49           Cu  tau(  49) = (   0.0000000   0.9238798   1.4954544  )
        50           Cu  tau(  50) = (   0.2499708   1.1544329   1.4953374  )
        51           Cu  tau(  51) = (   0.5000000   0.9237633   1.4954072  )
        52           Cu  tau(  52) = (   0.7500292   1.1544329   1.4953374  )
        53           Cu  tau(  53) = (   0.0000000   1.3854453   1.4952066  )
        54           Cu  tau(  54) = (   0.2499861   1.6167017   1.4951298  )
        55           Cu  tau(  55) = (   0.5000000   1.3853760   1.4951346  )
        56           Cu  tau(  56) = (   0.7500139   1.6167017   1.4951298  )
        57           Cu  tau(  57) = (   0.0000000   1.8477718   1.4952308  )
        58           Cu  tau(  58) = (   0.2499930   2.0785254   1.4954090  )
        59           Cu  tau(  59) = (   0.5000000   1.8478762   1.4953503  )
        60           Cu  tau(  60) = (   0.7500070   2.0785254   1.4954090  )
        61           Cu  tau(  61) = (   0.0000000   0.2310733   1.7440777  )
        62           Cu  tau(  62) = (   0.2501089  -0.0001294   1.7450479  )
        63           Cu  tau(  63) = (   0.5000000   0.2306045   1.7445985  )
        64           Cu  tau(  64) = (   0.7498911  -0.0001294   1.7450479  )
        65           Cu  tau(  65) = (   0.0000000   0.6927994   1.7446059  )
        66           Cu  tau(  66) = (   0.2502918   0.4619532   1.7441197  )
        67           Cu  tau(  67) = (   0.5000000   0.6931011   1.7451318  )
        68           Cu  tau(  68) = (   0.7497082   0.4619532   1.7441197  )
        69           Cu  tau(  69) = (   0.0000000   1.1545789   1.7453503  )
        70           Cu  tau(  70) = (   0.2500220   0.9237908   1.7453835  )
        71           Cu  tau(  71) = (   0.5000000   1.1545999   1.7449118  )
        72           Cu  tau(  72) = (   0.7499780   0.9237908   1.7453835  )
        73           Cu  tau(  73) = (   0.0000000   1.6167791   1.7444075  )
        74           Cu  tau(  74) = (   0.2497438   1.3855115   1.7442733  )
        75           Cu  tau(  75) = (   0.5000000   1.6164906   1.7439233  )
        76           Cu  tau(  76) = (   0.7502562   1.3855115   1.7442733  )
        77           Cu  tau(  77) = (   0.0000000   2.0782721   1.7455014  )
        78           Cu  tau(  78) = (   0.2498426   1.8476765   1.7447807  )
        79           Cu  tau(  79) = (   0.5000000   2.0787016   1.7454002  )
        80           Cu  tau(  80) = (   0.7501574   1.8476765   1.7447807  )
        81           Cu  tau(  81) = (   0.0000000   0.0010732   1.9906710  )
        82           Cu  tau(  82) = (   0.2503054   0.2314650   1.9904877  )
        83           Cu  tau(  83) = (   0.5000000   0.0001335   1.9924670  )
        84           Cu  tau(  84) = (   0.7496946   0.2314650   1.9904877  )
        85           Cu  tau(  85) = (   0.0000000   0.4618379   1.9901778  )
        86           Cu  tau(  86) = (   0.2508441   0.6921348   1.9910282  )
        87           Cu  tau(  87) = (   0.5000000   0.4613052   1.9913358  )
        88           Cu  tau(  88) = (   0.7491559   0.6921348   1.9910282  )
        89           Cu  tau(  89) = (   0.0000000   0.9224699   1.9915918  )
        90           Cu  tau(  90) = (   0.2491275   1.1552920   1.9912642  )
        91           Cu  tau(  91) = (   0.5000000   0.9247757   1.9920574  )
        92           Cu  tau(  92) = (   0.7508725   1.1552920   1.9912642  )
        93           Cu  tau(  93) = (   0.0000000   1.3865904   1.9916296  )
        94           Cu  tau(  94) = (   0.2499532   1.6162906   1.9903050  )
        95           Cu  tau(  95) = (   0.5000000   1.3858063   1.9901800  )
        96           Cu  tau(  96) = (   0.7500468   1.6162906   1.9903050  )
        97           Cu  tau(  97) = (   0.0000000   1.8468318   1.9923212  )
        98           Cu  tau(  98) = (   0.2497561   2.0783183   1.9915134  )
        99           Cu  tau(  99) = (   0.5000000   1.8467805   1.9903847  )
       100           Cu  tau( 100) = (   0.7502439   2.0783183   1.9915134  )
       101           C   tau( 101) = (   0.1333031   0.0962962   2.3888871  )
       102           C   tau( 102) = (   0.1333031   0.2886925   2.3900713  )
       103           C   tau( 103) = (   0.2999360   0.0000435   2.3878440  )
       104           C   tau( 104) = (   0.2997937   0.3848966   2.3886743  )
       105           C   tau( 105) = (   0.4664266   0.0962174   2.3860158  )
       106           C   tau( 106) = (   0.4664307   0.2886629   2.3856823  )
       107           C   tau( 107) = (   0.6333035  -0.0000818   2.3845687  )
       108           C   tau( 108) = (   0.6333035   0.3849277   2.3842391  )
       109           C   tau( 109) = (   0.8001790   0.0962174   2.3860158  )
       110           C   tau( 110) = (   0.8001750   0.2886629   2.3856823  )
       111           C   tau( 111) = (   0.9666710   0.0000435   2.3878440  )
       112           C   tau( 112) = (   0.9668133   0.3848966   2.3886743  )
       113           C   tau( 113) = (   0.1333031   0.6735163   2.3892509  )
       114           C   tau( 114) = (   0.1333031   0.8659398   2.3870960  )
       115           C   tau( 115) = (   0.2997788   0.5773226   2.3882842  )
       116           C   tau( 116) = (   0.3000458   0.9622141   2.3870264  )
       117           C   tau( 117) = (   0.4665120   0.6735984   2.3858047  )
       118           C   tau( 118) = (   0.4665066   0.8660537   2.3866148  )
       119           C   tau( 119) = (   0.6333035   0.5773685   2.3848465  )
       120           C_h tau( 120) = (   0.6333035   0.9623380   2.3860825  )
       121           C   tau( 121) = (   0.8000936   0.6735984   2.3858047  )
       122           C   tau( 122) = (   0.8001004   0.8660537   2.3866148  )
       123           C   tau( 123) = (   0.9668268   0.5773226   2.3882842  )
       124           C   tau( 124) = (   0.9665598   0.9622141   2.3870264  )
       125           C   tau( 125) = (   0.1333031   1.2508867   2.3852683  )
       126           C   tau( 126) = (   0.1333031   1.4433300   2.3840871  )
       127           C   tau( 127) = (   0.3000390   1.1546708   2.3859697  )
       128           C   tau( 128) = (   0.3001976   1.5396104   2.3857176  )
       129           C   tau( 129) = (   0.4668129   1.2509657   2.3878953  )
       130           C   tau( 130) = (   0.4667898   1.4433958   2.3886602  )
       131           C   tau( 131) = (   0.6333035   1.1547731   2.3885512  )
       132           C   tau( 132) = (   0.6333035   1.5396099   2.3901428  )
       133           C   tau( 133) = (   0.7997941   1.2509657   2.3878953  )
       134           C   tau( 134) = (   0.7998171   1.4433958   2.3886602  )
       135           C   tau( 135) = (   0.9665666   1.1546708   2.3859697  )
       136           C   tau( 136) = (   0.9664094   1.5396104   2.3857176  )
       137           C   tau( 137) = (   0.1333031   1.8283510   2.3842019  )
       138           C   tau( 138) = (   0.1333031   2.0207949   2.3863399  )
       139           C   tau( 139) = (   0.3001989   1.7320513   2.3858703  )
       140           C   tau( 140) = (   0.2999211   2.1169980   2.3865340  )
       141           C   tau( 141) = (   0.4667180   1.8282368   2.3882160  )
       142           C   tau( 142) = (   0.4667383   2.0206763   2.3869561  )
       143           C   tau( 143) = (   0.6333035   1.7319961   2.3895398  )
       144           C   tau( 144) = (   0.6333035   2.1168754   2.3870198  )
       145           C   tau( 145) = (   0.7998876   1.8282368   2.3882160  )
       146           C   tau( 146) = (   0.7998673   2.0206763   2.3869561  )
       147           C   tau( 147) = (   0.9664067   1.7320513   2.3858703  )
       148           C   tau( 148) = (   0.9666845   2.1169980   2.3865340  )

     number of k points=     6  gaussian smearing, width (Ry)=  0.1000
                       cart. coord. in units 2pi/alat
        k(    1) = (   0.0000000   0.0000000   0.0000000), wk =   0.2500000
        k(    2) = (   0.0000000  -0.2165064   0.0000000), wk =   0.2500000
        k(    3) = (   0.2500000   0.0000000   0.0000000), wk =   0.5000000
        k(    4) = (   0.2500000  -0.2165064   0.0000000), wk =   0.5000000
        k(    5) = (  -0.5000000   0.0000000   0.0000000), wk =   0.2500000
        k(    6) = (  -0.5000000  -0.2165064   0.0000000), wk =   0.2500000

     Dense  grid:  2050409 G-vectors     FFT dimensions: (  80, 192, 270)

     Largest allocated arrays     est. size (Mb)     dimensions
        Kohn-Sham Wavefunctions        54.44 Mb     (    4604,  775)
        NL pseudopotentials           129.82 Mb     (    4604, 1848)
        Each V/rho on FFT grid          1.17 Mb     (   76800)
        Each G-vector array             0.28 Mb     (   36616)
        G-vector shells                 0.14 Mb     (   17932)
     Largest temporary arrays     est. size (Mb)     dimensions
        Auxiliary wavefunctions       217.78 Mb     (    4604, 3100)
        Each subspace H/S matrix        5.87 Mb     (     620,  620)
        Each <psi_i|beta_j> matrix     21.85 Mb     (    1848,  775)
        Arrays for rho mixing           9.38 Mb     (   76800,    8)

     Initial potential from superposition of free atoms
     Check: negative starting charge=   -0.001843

     starting charge 1266.81751, renormalised to 1292.00000

     negative rho (up, down):  1.879E-03 0.000E+00
     Starting wfc are 1284 randomized atomic wfcs

     total cpu time spent up to now is      105.9 secs

     Self-consistent Calculation

     iteration #  1     ecut=    80.00 Ry     beta=0.70
     Davidson diagonalization with overlap
     c_bands:  3 eigenvalues not converged
     c_bands:  4 eigenvalues not converged
     ethr =  1.00E-04,  avg # of iterations = 36.3

     negative rho (up, down):  2.723E+01 0.000E+00

     total cpu time spent up to now is     2066.6 secs

     total energy              =   -9475.96961106 Ry
     Harris-Foulkes estimate   =  -17310.56126301 Ry
     estimated scf accuracy    <  180108.90159722 Ry

     iteration #  2     ecut=    80.00 Ry     beta=0.70
     Davidson diagonalization with overlap
     ethr =  1.00E-02,  avg # of iterations = 12.2

     negative rho (up, down):  3.150E+01 0.000E+00

     total cpu time spent up to now is     2976.9 secs

     total energy              =  -12208.96560376 Ry
     Harris-Foulkes estimate   =  -13665.16705356 Ry
     estimated scf accuracy    <   23962.28146438 Ry

     iteration #  3     ecut=    80.00 Ry     beta=0.70
     Davidson diagonalization with overlap
     ethr =  1.00E-02,  avg # of iterations =  7.5

     negative rho (up, down):  3.204E+01 0.000E+00

     total cpu time spent up to now is     3508.7 secs

     total energy              =  -12461.35392820 Ry
     Harris-Foulkes estimate   =  -13405.12430010 Ry
     estimated scf accuracy    <    5836.46263034 Ry

     iteration #  4     ecut=    80.00 Ry     beta=0.70
     Davidson diagonalization with overlap
     ethr =  1.00E-02,  avg # of iterations =  5.8

     negative rho (up, down):  2.382E+01 0.000E+00

     total cpu time spent up to now is     3986.9 secs

     total energy              =  -12847.60249528 Ry
     Harris-Foulkes estimate   =  -13084.60914867 Ry
     estimated scf accuracy    <    1770.96105621 Ry

     iteration #  5     ecut=    80.00 Ry     beta=0.70
     Davidson diagonalization with overlap
     ethr =  1.00E-02,  avg # of iterations =  3.5

     negative rho (up, down):  1.868E+01 0.000E+00

     total cpu time spent up to now is     4255.8 secs

     total energy              =  -12846.45032963 Ry
     Harris-Foulkes estimate   =  -12961.73046837 Ry
     estimated scf accuracy    <    1297.70809776 Ry

     iteration #  6     ecut=    80.00 Ry     beta=0.70
     Davidson diagonalization with overlap
     ethr =  1.00E-02,  avg # of iterations =  3.0

     negative rho (up, down):  1.299E+01 0.000E+00

     total cpu time spent up to now is     4464.0 secs

     total energy              =  -12834.42222998 Ry
     Harris-Foulkes estimate   =  -12909.09735172 Ry
     estimated scf accuracy    <     576.61531427 Ry

     iteration #  7     ecut=    80.00 Ry     beta=0.70
     Davidson diagonalization with overlap
     ethr =  1.00E-02,  avg # of iterations =  2.0

     negative rho (up, down):  9.357E+00 0.000E+00

     total cpu time spent up to now is     4644.9 secs

     total energy              =  -12809.84677924 Ry
     Harris-Foulkes estimate   =  -12852.84874738 Ry
     estimated scf accuracy    <     450.55715021 Ry

     iteration #  8     ecut=    80.00 Ry     beta=0.70
     Davidson diagonalization with overlap
     ethr =  1.00E-02,  avg # of iterations =  2.0

     negative rho (up, down):  7.296E+00 0.000E+00

     total cpu time spent up to now is     4821.7 secs

     total energy              =  -12788.30723855 Ry
     Harris-Foulkes estimate   =  -12824.81237170 Ry
     estimated scf accuracy    <     497.73794698 Ry

     iteration #  9     ecut=    80.00 Ry     beta=0.70
     Davidson diagonalization with overlap
     ethr =  1.00E-02,  avg # of iterations =  2.0

     negative rho (up, down):  5.611E+00 0.000E+00

     total cpu time spent up to now is     4998.2 secs

     total energy              =  -12781.66988002 Ry
     Harris-Foulkes estimate   =  -12800.52938426 Ry
     estimated scf accuracy    <     191.54489304 Ry

     iteration # 10     ecut=    80.00 Ry     beta=0.70
     Davidson diagonalization with overlap
     ethr =  1.00E-02,  avg # of iterations =  1.3

     negative rho (up, down):  1.189E+00 0.000E+00

     total cpu time spent up to now is     5167.3 secs

     total energy              =  -12735.55840633 Ry
     Harris-Foulkes estimate   =  -12783.18781378 Ry
     estimated scf accuracy    <     149.89919428 Ry

     iteration # 11     ecut=    80.00 Ry     beta=0.70
     Davidson diagonalization with overlap
     ethr =  1.00E-02,  avg # of iterations =  3.0

     negative rho (up, down):  9.388E-01 0.000E+00

     total cpu time spent up to now is     5356.8 secs

     total energy              =  -12728.30578983 Ry
     Harris-Foulkes estimate   =  -12745.60690067 Ry
     estimated scf accuracy    <     374.56388477 Ry

     iteration # 12     ecut=    80.00 Ry     beta=0.70
     Davidson diagonalization with overlap
     ethr =  1.00E-02,  avg # of iterations =  1.2

     negative rho (up, down):  5.661E-01 0.000E+00

     total cpu time spent up to now is     5523.7 secs

     total energy              =  -12724.31872035 Ry
     Harris-Foulkes estimate   =  -12739.69225077 Ry
     estimated scf accuracy    <     279.98808184 Ry

     iteration # 13     ecut=    80.00 Ry     beta=0.70
     Davidson diagonalization with overlap
     ethr =  1.00E-02,  avg # of iterations =  1.8

     negative rho (up, down):  3.367E+00 0.000E+00

     total cpu time spent up to now is     5698.2 secs

     total energy              =  -12716.29351072 Ry
     Harris-Foulkes estimate   =  -12734.04472910 Ry
     estimated scf accuracy    <     113.09908858 Ry

     iteration # 14     ecut=    80.00 Ry     beta=0.70
     Davidson diagonalization with overlap
     ethr =  8.75E-03,  avg # of iterations =  2.0

     negative rho (up, down):  5.535E+00 0.000E+00

     total cpu time spent up to now is     5876.8 secs

     total energy              =  -12718.43062070 Ry
     Harris-Foulkes estimate   =  -12724.46126585 Ry
     estimated scf accuracy    <      54.66793002 Ry

     iteration # 15     ecut=    80.00 Ry     beta=0.70
     Davidson diagonalization with overlap
     ethr =  4.23E-03,  avg # of iterations =  2.0

     negative rho (up, down):  5.606E+00 0.000E+00

     total cpu time spent up to now is     6054.1 secs

     total energy              =  -12716.45307480 Ry
     Harris-Foulkes estimate   =  -12720.73932805 Ry
     estimated scf accuracy    <      35.99955074 Ry

     iteration # 16     ecut=    80.00 Ry     beta=0.70
     Davidson diagonalization with overlap
     ethr =  2.79E-03,  avg # of iterations =  2.2

     negative rho (up, down):  4.659E+00 0.000E+00

     total cpu time spent up to now is     6232.1 secs

     total energy              =  -12714.36933885 Ry
     Harris-Foulkes estimate   =  -12717.57108355 Ry
     estimated scf accuracy    <      23.24539716 Ry

     iteration # 17     ecut=    80.00 Ry     beta=0.70
     Davidson diagonalization with overlap
     ethr =  1.80E-03,  avg # of iterations =  4.5

     negative rho (up, down):  5.021E+00 0.000E+00

     total cpu time spent up to now is     6438.9 secs

     total energy              =  -12714.18309740 Ry
     Harris-Foulkes estimate   =  -12715.28112004 Ry
     estimated scf accuracy    <      14.84053419 Ry

     iteration # 18     ecut=    80.00 Ry     beta=0.70
     Davidson diagonalization with overlap
     ethr =  1.15E-03,  avg # of iterations =  5.7

     negative rho (up, down):  4.250E+00 0.000E+00

     total cpu time spent up to now is     6657.6 secs

     total energy              =  -12712.86640325 Ry
     Harris-Foulkes estimate   =  -12714.63660828 Ry
     estimated scf accuracy    <      10.77701355 Ry

     iteration # 19     ecut=    80.00 Ry     beta=0.70
     Davidson diagonalization with overlap
     ethr =  8.34E-04,  avg # of iterations =  7.2

     negative rho (up, down):  3.694E+00 0.000E+00

     total cpu time spent up to now is     6894.1 secs

     total energy              =  -12712.19180514 Ry
     Harris-Foulkes estimate   =  -12713.15833517 Ry
     estimated scf accuracy    <       7.70668662 Ry

     iteration # 20     ecut=    80.00 Ry     beta=0.70
     Davidson diagonalization with overlap
     ethr =  5.96E-04,  avg # of iterations =  3.8

     negative rho (up, down):  2.486E+00 0.000E+00

     total cpu time spent up to now is     7091.9 secs

     total energy              =  -12711.37556615 Ry
     Harris-Foulkes estimate   =  -12712.35822010 Ry
     estimated scf accuracy    <       9.01481074 Ry

     iteration # 21     ecut=    80.00 Ry     beta=0.70
     Davidson diagonalization with overlap
     ethr =  5.96E-04,  avg # of iterations =  1.8

     negative rho (up, down):  2.604E+00 0.000E+00

     total cpu time spent up to now is     7267.1 secs

     total energy              =  -12711.32555808 Ry
     Harris-Foulkes estimate   =  -12711.63464715 Ry
     estimated scf accuracy    <       9.30619736 Ry

     iteration # 22     ecut=    80.00 Ry     beta=0.70
     Davidson diagonalization with overlap
     ethr =  5.96E-04,  avg # of iterations =  1.0

     negative rho (up, down):  1.087E+00 0.000E+00

     total cpu time spent up to now is     7431.9 secs

     total energy              =  -12709.90871333 Ry
     Harris-Foulkes estimate   =  -12711.80196855 Ry
     estimated scf accuracy    <       6.59476617 Ry

     iteration # 23     ecut=    80.00 Ry     beta=0.70
     Davidson diagonalization with overlap
     ethr =  5.10E-04,  avg # of iterations =  5.7

     negative rho (up, down):  7.167E-01 0.000E+00

     total cpu time spent up to now is     7650.6 secs

     total energy              =  -12709.26439375 Ry
     Harris-Foulkes estimate   =  -12710.07913066 Ry
     estimated scf accuracy    <       6.40183662 Ry

     iteration # 24     ecut=    80.00 Ry     beta=0.70
     Davidson diagonalization with overlap
     ethr =  4.95E-04,  avg # of iterations =  1.5

     total cpu time spent up to now is     7821.7 secs

     total energy              =  -12708.55161238 Ry
     Harris-Foulkes estimate   =  -12709.73963064 Ry
     estimated scf accuracy    <      12.63025691 Ry

     iteration # 25     ecut=    80.00 Ry     beta=0.70
     Davidson diagonalization with overlap
     ethr =  4.95E-04,  avg # of iterations =  8.5

     negative rho (up, down):  4.992E-02 0.000E+00

     total cpu time spent up to now is     8074.1 secs

     total energy              =  -12708.07822196 Ry
     Harris-Foulkes estimate   =  -12709.05035949 Ry
     estimated scf accuracy    <       3.28745110 Ry

     iteration # 26     ecut=    80.00 Ry     beta=0.70
     Davidson diagonalization with overlap
     ethr =  2.54E-04,  avg # of iterations =  3.8

     negative rho (up, down):  7.502E-02 0.000E+00

     total cpu time spent up to now is     8273.7 secs

     total energy              =  -12707.88954916 Ry
     Harris-Foulkes estimate   =  -12708.26568178 Ry
     estimated scf accuracy    <       4.19424887 Ry

     iteration # 27     ecut=    80.00 Ry     beta=0.70
     Davidson diagonalization with overlap
     ethr =  2.54E-04,  avg # of iterations =  3.7

     negative rho (up, down):  1.475E-01 0.000E+00

     total cpu time spent up to now is     8470.6 secs

     total energy              =  -12707.74088549 Ry
     Harris-Foulkes estimate   =  -12708.01072418 Ry
     estimated scf accuracy    <       2.68262819 Ry

     iteration # 28     ecut=    80.00 Ry     beta=0.70
     Davidson diagonalization with overlap
     ethr =  2.08E-04,  avg # of iterations =  1.8

     negative rho (up, down):  5.797E-02 0.000E+00

     total cpu time spent up to now is     8645.8 secs

     total energy              =  -12707.45649539 Ry
     Harris-Foulkes estimate   =  -12707.77287363 Ry
     estimated scf accuracy    <       2.03298331 Ry

     iteration # 29     ecut=    80.00 Ry     beta=0.70
     Davidson diagonalization with overlap
     ethr =  1.57E-04,  avg # of iterations =  7.3

     negative rho (up, down):  7.835E-02 0.000E+00

     total cpu time spent up to now is     8887.9 secs

     total energy              =  -12707.31121447 Ry
     Harris-Foulkes estimate   =  -12707.52763225 Ry
     estimated scf accuracy    <       1.54350823 Ry

     iteration # 30     ecut=    80.00 Ry     beta=0.70
     Davidson diagonalization with overlap
     ethr =  1.19E-04,  avg # of iterations =  6.2

     negative rho (up, down):  1.283E-01 0.000E+00

     total cpu time spent up to now is     9114.6 secs

     total energy              =  -12707.24571739 Ry
     Harris-Foulkes estimate   =  -12707.36295472 Ry
     estimated scf accuracy    <       0.98036653 Ry

     iteration # 31     ecut=    80.00 Ry     beta=0.70
     Davidson diagonalization with overlap
     ethr =  7.59E-05,  avg # of iterations =  5.8

     negative rho (up, down):  4.316E-01 0.000E+00

     total cpu time spent up to now is     9338.3 secs

     total energy              =  -12707.20324634 Ry
     Harris-Foulkes estimate   =  -12707.27913604 Ry
     estimated scf accuracy    <       0.71503511 Ry

     iteration # 32     ecut=    80.00 Ry     beta=0.70
     Davidson diagonalization with overlap
     ethr =  5.53E-05,  avg # of iterations = 11.8

     negative rho (up, down):  3.690E-01 0.000E+00

     total cpu time spent up to now is     9640.5 secs

     total energy              =  -12707.16010885 Ry
     Harris-Foulkes estimate   =  -12707.23962878 Ry
     estimated scf accuracy    <       0.39256353 Ry

     iteration # 33     ecut=    80.00 Ry     beta=0.70
     Davidson diagonalization with overlap
     ethr =  3.04E-05,  avg # of iterations =  8.8

     negative rho (up, down):  2.019E-01 0.000E+00

     total cpu time spent up to now is     9902.2 secs

     total energy              =  -12707.13864769 Ry
     Harris-Foulkes estimate   =  -12707.17788035 Ry
     estimated scf accuracy    <       0.13796331 Ry

     iteration # 34     ecut=    80.00 Ry     beta=0.70
     Davidson diagonalization with overlap
     ethr =  1.07E-05,  avg # of iterations =  9.8

     negative rho (up, down):  8.663E-02 0.000E+00

     total cpu time spent up to now is    10188.2 secs

     total energy              =  -12707.14233210 Ry
     Harris-Foulkes estimate   =  -12707.14830240 Ry
     estimated scf accuracy    <       0.02061292 Ry

     iteration # 35     ecut=    80.00 Ry     beta=0.70
     Davidson diagonalization with overlap
     c_bands:  1 eigenvalues not converged
     c_bands:  1 eigenvalues not converged
     ethr =  1.60E-06,  avg # of iterations = 15.0

     negative rho (up, down):  9.132E-02 0.000E+00

     total cpu time spent up to now is    10546.2 secs

     total energy              =  -12707.14311939 Ry
     Harris-Foulkes estimate   =  -12707.14440135 Ry
     estimated scf accuracy    <       0.00908577 Ry

     iteration # 36     ecut=    80.00 Ry     beta=0.70
     Davidson diagonalization with overlap
     ethr =  7.03E-07,  avg # of iterations =  7.8

     negative rho (up, down):  4.292E-02 0.000E+00

     total cpu time spent up to now is    10798.9 secs

     total energy              =  -12707.14330528 Ry
     Harris-Foulkes estimate   =  -12707.14429634 Ry
     estimated scf accuracy    <       0.00423572 Ry

     iteration # 37     ecut=    80.00 Ry     beta=0.70
     Davidson diagonalization with overlap
     ethr =  3.28E-07,  avg # of iterations =  8.7

     negative rho (up, down):  2.081E-02 0.000E+00

     total cpu time spent up to now is    11068.5 secs

     total energy              =  -12707.14325792 Ry
     Harris-Foulkes estimate   =  -12707.14360732 Ry
     estimated scf accuracy    <       0.00069690 Ry

     iteration # 38     ecut=    80.00 Ry     beta=0.70
     Davidson diagonalization with overlap
     c_bands:  2 eigenvalues not converged
     ethr =  5.39E-08,  avg # of iterations =  8.3

     negative rho (up, down):  6.729E-03 0.000E+00

     total cpu time spent up to now is    11346.1 secs

     total energy              =  -12707.14319048 Ry
     Harris-Foulkes estimate   =  -12707.14333089 Ry
     estimated scf accuracy    <       0.00030844 Ry

     iteration # 39     ecut=    80.00 Ry     beta=0.70
     Davidson diagonalization with overlap
     c_bands:  2 eigenvalues not converged
     c_bands:  1 eigenvalues not converged
     ethr =  2.39E-08,  avg # of iterations = 13.0

     negative rho (up, down):  4.885E-03 0.000E+00

     total cpu time spent up to now is    11671.8 secs

     total energy              =  -12707.14319399 Ry
     Harris-Foulkes estimate   =  -12707.14322078 Ry
     estimated scf accuracy    <       0.00006691 Ry

     iteration # 40     ecut=    80.00 Ry     beta=0.70
     Davidson diagonalization with overlap
     c_bands:  1 eigenvalues not converged
     ethr =  5.18E-09,  avg # of iterations =  7.2

     negative rho (up, down):  2.952E-03 0.000E+00

     total cpu time spent up to now is    11919.2 secs

     total energy              =  -12707.14317815 Ry
     Harris-Foulkes estimate   =  -12707.14319952 Ry
     estimated scf accuracy    <       0.00002106 Ry

     iteration # 41     ecut=    80.00 Ry     beta=0.70
     Davidson diagonalization with overlap
     ethr =  1.63E-09,  avg # of iterations =  4.8

     negative rho (up, down):  1.996E-03 0.000E+00

     total cpu time spent up to now is    12148.3 secs

     total energy              =  -12707.14317513 Ry
     Harris-Foulkes estimate   =  -12707.14317977 Ry
     estimated scf accuracy    <       0.00000439 Ry

     iteration # 42     ecut=    80.00 Ry     beta=0.70
     Davidson diagonalization with overlap
     ethr =  3.40E-10,  avg # of iterations =  3.0

     negative rho (up, down):  2.172E-03 0.000E+00

     total cpu time spent up to now is    12364.6 secs

     total energy              =  -12707.14317661 Ry
     Harris-Foulkes estimate   =  -12707.14317584 Ry
     estimated scf accuracy    <       0.00000173 Ry

     iteration # 43     ecut=    80.00 Ry     beta=0.70
     Davidson diagonalization with overlap
     ethr =  1.34E-10,  avg # of iterations =  2.0

     negative rho (up, down):  2.178E-03 0.000E+00

     total cpu time spent up to now is    12550.0 secs

     total energy              =  -12707.14317696 Ry
     Harris-Foulkes estimate   =  -12707.14317680 Ry
     estimated scf accuracy    <       0.00000045 Ry

     iteration # 44     ecut=    80.00 Ry     beta=0.70
     Davidson diagonalization with overlap
     ethr =  3.47E-11,  avg # of iterations =  3.0

     negative rho (up, down):  2.016E-03 0.000E+00

     total cpu time spent up to now is    12757.7 secs

     total energy              =  -12707.14317706 Ry
     Harris-Foulkes estimate   =  -12707.14317703 Ry
     estimated scf accuracy    <       0.00000022 Ry

     iteration # 45     ecut=    80.00 Ry     beta=0.70
     Davidson diagonalization with overlap
     ethr =  1.68E-11,  avg # of iterations =  3.0

     negative rho (up, down):  2.097E-03 0.000E+00

     total cpu time spent up to now is    12959.2 secs

     total energy              =  -12707.14317704 Ry
     Harris-Foulkes estimate   =  -12707.14317710 Ry
     estimated scf accuracy    <       0.00000010 Ry

     iteration # 46     ecut=    80.00 Ry     beta=0.70
     Davidson diagonalization with overlap
     ethr =  7.50E-12,  avg # of iterations =  2.8

     negative rho (up, down):  2.108E-03 0.000E+00

     total cpu time spent up to now is    13154.9 secs

     total energy              =  -12707.14317701 Ry
     Harris-Foulkes estimate   =  -12707.14317705 Ry
     estimated scf accuracy    <       0.00000002 Ry

     iteration # 47     ecut=    80.00 Ry     beta=0.70
     Davidson diagonalization with overlap
     ethr =  1.48E-12,  avg # of iterations =  3.0

     negative rho (up, down):  2.115E-03 0.000E+00

     total cpu time spent up to now is    13355.0 secs

     End of self-consistent calculation

          k = 0.0000 0.0000 0.0000 (256287 PWs)   bands (ev):

   -17.2758 -16.2344 -16.0883 -15.4283 -15.0442 -14.7910 -14.6909 -14.2534
   -14.1993 -14.1399 -14.1243 -13.4662 -13.3254 -13.1553 -13.1225 -13.0868
   -13.0800 -11.6712 -11.5327 -11.4847 -11.3898 -11.2057 -10.3528  -9.7669
    -9.7616  -9.6260  -9.5240  -8.9871  -8.8000  -8.6721  -8.6027  -8.0447
    -7.9031  -7.7631  -7.6410  -7.5820  -7.5739  -7.5355  -7.5247  -6.3597
    -6.3490  -6.1250  -6.0216  -6.0204  -5.9496  -5.8905  -5.8601  -5.8450
    -5.4975  -5.4849  -5.2996  -4.8911  -4.8398  -4.7987  -4.6349  -4.6216
    -4.5831  -4.4257  -4.2559  -4.1471  -3.9892  -3.9877  -3.9694  -3.9466
    -3.6195  -3.5500  -3.5277  -3.5227  -3.4217  -3.4185  -3.4068  -3.4002
    -3.2768  -3.1866  -3.1231  -3.0583  -3.0162  -3.0074  -3.0073  -3.0060
    -2.9916  -2.8586  -2.8351  -2.7989  -2.7813  -2.7455  -2.7398  -2.7387
    -2.7189  -2.7146  -2.5323  -2.4334  -2.3771  -2.3763  -2.3392  -2.3361
    -2.1943  -2.1919  -2.1822  -2.1771  -2.1519  -2.1518  -2.1517  -2.1516
    -2.1136  -2.0785  -2.0779  -2.0358  -2.0211  -2.0209  -2.0208  -2.0205
    -1.9603  -1.8415  -1.7769  -1.7424  -1.7385  -1.7378  -1.7375  -1.7029
    -1.6928  -1.6716  -1.6582  -1.6566  -1.6105  -1.6013  -1.5892  -1.5702
    -1.5641  -1.5634  -1.5613  -1.5509  -1.5396  -1.5351  -1.5347  -1.5154
    -1.5139  -1.4560  -1.4412  -1.4261  -1.4156  -1.3841  -1.3816  -1.3766
    -1.3718  -1.3528  -1.2989  -1.2945  -1.2637  -1.2620  -1.2506  -1.2114
    -1.2113  -1.1916  -1.1896  -1.1760  -1.1668  -1.1640  -1.1273  -1.1195
    -1.1096  -1.1068  -1.0493  -1.0465  -1.0355  -1.0298  -1.0267  -1.0248
    -1.0244  -1.0219  -1.0205  -1.0156  -1.0152  -0.9982  -0.9962  -0.9809
    -0.9516  -0.9422  -0.9380  -0.9342  -0.9232  -0.9189  -0.9178  -0.9171
    -0.8990  -0.8581  -0.8580  -0.8564  -0.8562  -0.8554  -0.8545  -0.8536
    -0.8526  -0.8526  -0.8491  -0.8481  -0.8481  -0.8477  -0.8456  -0.8431
    -0.8418  -0.8330  -0.8297  -0.8290  -0.8235  -0.7855  -0.6896  -0.6895
    -0.6856  -0.6831  -0.6825  -0.6603  -0.6584  -0.6413  -0.6411  -0.6196
    -0.6196  -0.6054  -0.6043  -0.6028  -0.6023  -0.5876  -0.5643  -0.5636
    -0.5617  -0.5612  -0.5537  -0.5528  -0.5420  -0.5419  -0.4920  -0.4919
    -0.4381  -0.4377  -0.4274  -0.4258  -0.4256  -0.4244  -0.4105  -0.4103
    -0.4047  -0.4046  -0.4043  -0.4039  -0.3995  -0.3995  -0.3849  -0.3849
    -0.3833  -0.3769  -0.3754  -0.3744  -0.3509  -0.3503  -0.2992  -0.2987
    -0.2967  -0.2909  -0.2908  -0.2643  -0.2642  -0.2642  -0.2642  -0.2489
    -0.2469  -0.2466  -0.2423  -0.2422  -0.2235  -0.2211  -0.2194  -0.2191
    -0.2147  -0.2143  -0.2143  -0.2139  -0.2114  -0.2086  -0.1928  -0.1899
    -0.1892  -0.1879  -0.1873  -0.1684  -0.1203  -0.1200  -0.1180  -0.1179
    -0.1153  -0.0740  -0.0705  -0.0694  -0.0684  -0.0678  -0.0623  -0.0619
    -0.0617  -0.0615  -0.0613  -0.0530  -0.0465  -0.0346  -0.0107  -0.0092
    -0.0075  -0.0070   0.0012   0.0176   0.0214   0.0217   0.0219   0.0264
     0.0302   0.0456   0.0463   0.0478   0.0485   0.0492   0.0494   0.0630
     0.0638   0.0639   0.0640   0.0688   0.0770   0.0772   0.0781   0.1003
     0.1022   0.1305   0.1354   0.1366   0.1574   0.1646   0.1650   0.1892
     0.1937   0.2311   0.2379   0.2386   0.2389   0.2400   0.2434   0.2476
     0.2708   0.2734   0.2737   0.2740   0.2742   0.2840   0.2842   0.2943
     0.3265   0.3409   0.3409   0.3470   0.3496   0.3506   0.3508   0.3775
     0.3834   0.3836   0.3843   0.3845   0.4000   0.4149   0.4184   0.4228
     0.4232   0.4369   0.4375   0.4391   0.4405   0.4783   0.4794   0.4941
     0.4947   0.4967   0.4970   0.4972   0.5087   0.5254   0.5287   0.5309
     0.5330   0.5346   0.5358   0.5359   0.5376   0.5400   0.5470   0.5475
     0.5490   0.5536   0.5543   0.5558   0.5628   0.5643   0.5911   0.5959
     0.6059   0.6060   0.6164   0.6166   0.6486   0.6496   0.6500   0.6507
     0.6527   0.6530   0.6536   0.6541   0.6648   0.6658   0.6740   0.6777
     0.6791   0.6793   0.6811   0.6875   0.6878   0.6946   0.6974   0.6996
     0.7198   0.7208   0.7210   0.7217   0.7313   0.7323   0.7389   0.7428
     0.7464   0.7483   0.7487   0.7487   0.7553   0.7566   0.7594   0.7611
     0.7685   0.7842   0.8059   0.8061   0.8164   0.8178   0.8236   0.8243
     0.8245   0.8254   0.8558   0.8563   0.8700   0.8710   0.8763   0.8764
     0.8910   0.8911   0.9001   0.9006   0.9009   0.9026   0.9092   0.9229
     0.9365   0.9374   0.9396   0.9419   0.9425   0.9439   0.9577   0.9646
     0.9731   0.9778   0.9862   0.9864   0.9972   1.0024   1.0105   1.0113
     1.0131   1.0135   1.0137   1.0153   1.0234   1.0243   1.0264   1.0287
     1.0288   1.0294   1.0311   1.0439   1.0440   1.0626   1.0627   1.0642
     1.0651   1.0704   1.0737   1.1001   1.1042   1.1060   1.1084   1.1089
     1.1099   1.1124   1.1128   1.1167   1.1197   1.1198   1.1199   1.1200
     1.1216   1.1358   1.1362   1.1604   1.1663   1.1836   1.1841   1.1936
     1.2016   1.2032   1.2039   1.2053   1.2060   1.2087   1.2187   1.2217
     1.2266   1.2355   1.2393   1.2399   1.2403   1.2409   1.2451   1.2466
     1.2467   1.2551   1.2740   1.2750   1.2758   1.2761   1.2776   1.2779
     1.2784   1.2785   1.2944   1.2948   1.2964   1.3029   1.3103   1.3107
     1.3113   1.3117   1.3120   1.3218   1.3239   1.3248   1.3367   1.3445
     1.3513   1.3556   1.3559   1.3566   1.3573   1.3584   1.3593   1.3716
     1.3841   1.3868   1.3883   1.3932   1.4032   1.4163   1.4164   1.4225
     1.4228   1.4228   1.4293   1.4299   1.4327   1.4343   1.4346   1.4347
     1.4350   1.4370   1.4386   1.4459   1.4464   1.4503   1.4676   1.4677
     1.4685   1.4685   1.4720   1.4796   1.4808   1.4955   1.5047   1.5076
     1.5100   1.5208   1.5569   1.5576   1.5603   1.5614   1.5795   1.5799
     1.5801   1.5878   1.5911   1.6061   1.6297   1.6322   1.6326   1.6331
     1.6336   1.6434   1.6440   1.6443   1.9001   1.9560   2.1051   2.1081
     2.1478   2.1548   2.2003   2.2054   2.2061   2.2069   2.2166   2.2249
     2.2256   2.2265   2.3986   2.4019   2.4555   2.4657   2.4672   2.4675
     2.4783   2.4808   2.6465   2.7207   2.7255   2.7260   2.7533   2.9751
     2.9894   3.0243   3.1688   3.5201   3.5226   3.8140   3.8183   3.8458
     3.8527   3.8552   3.8557   3.8915   3.9675   3.9802   3.9863   4.0059
     4.0086   4.0094   4.0099   4.0133   4.0140   4.2342   4.2486   4.2490
     4.2501   4.3615   4.3996   4.6523   4.7661   4.8533   4.8646   4.9286
     5.3054   5.3918   5.3989   5.4059   5.7015   5.7097   5.7223   5.7242
     5.9152   5.9299   6.2036   6.3429   6.3459   6.4080   6.4155   6.4729
     6.4763   6.4792   6.4832   6.5714   6.5852   6.6021   6.7163   6.7756
     6.7805   6.7936   6.8121   6.8184   7.0132   7.0514   7.0527   7.0639
     7.0728   7.0917   7.3558   7.3577   7.5099   7.5485   7.5519   7.6924
     7.6959   7.7074   7.7089   8.0005   8.0385   8.0937   8.1400   8.1906
     8.2165   8.2995   8.3032   8.3048   8.3352   8.3378   8.3461   8.4017
     8.4053   8.4269   8.4870   8.5595   8.5701   8.5777   8.6619   8.6647
     8.6670   8.6680   8.8135   8.8160   8.8290   8.8324   8.8381   8.8397
     9.1069   9.1093   9.1102   9.1160   9.1199   9.1388   9.1745   9.3150
     9.3446   9.3509   9.4218   9.4799   9.4903   9.5769   9.5784   9.6617
     9.6709   9.8133   9.8310  10.0438  10.0439  10.1239  10.1464

          k = 0.0000-0.2165 0.0000 (256176 PWs)   bands (ev):

   -17.2753 -16.3030 -15.8950 -15.6605 -15.0721 -14.6791 -14.3582 -14.3395
   -14.2666 -14.2325 -13.8274 -13.7717 -13.7213 -13.6936 -12.6020 -12.4447
   -12.3877 -12.3065 -12.1464 -12.0804 -10.6531 -10.5532 -10.5201 -10.3927
    -9.4565  -9.4376  -9.2998  -9.1219  -8.9865  -8.9579  -8.4049  -8.2854
    -8.2126  -8.1623  -7.4790  -7.3430  -7.0142  -6.9727  -6.9082  -6.8952
    -6.8502  -6.8424  -6.1895  -6.0831  -5.8909  -5.8825  -5.5192  -5.3861
    -5.2899  -5.2134  -5.1401  -4.9647  -4.9127  -4.8415  -4.8381  -4.7410
    -4.6835  -4.6318  -4.6121  -4.4707  -4.1553  -4.0481  -3.8265  -3.6946
    -3.6627  -3.5906  -3.3154  -3.3049  -3.3019  -3.3011  -3.2459  -3.2271
    -3.1375  -3.0934  -3.0676  -3.0483  -3.0397  -3.0311  -3.0034  -2.8985
    -2.8689  -2.8676  -2.8296  -2.7908  -2.7744  -2.7130  -2.6968  -2.6015
    -2.5880  -2.5877  -2.5784  -2.5782  -2.5778  -2.5768  -2.4772  -2.3691
    -2.3365  -2.3329  -2.2529  -2.2511  -2.2469  -2.2452  -2.1484  -2.1453
    -2.1452  -2.1436  -2.0854  -2.0414  -1.9866  -1.9865  -1.9611  -1.9610
    -1.8762  -1.8653  -1.8541  -1.8106  -1.7908  -1.7825  -1.7683  -1.7674
    -1.7496  -1.7494  -1.7406  -1.7406  -1.7225  -1.7223  -1.6454  -1.6452
    -1.6237  -1.5875  -1.5732  -1.5675  -1.5605  -1.4679  -1.4669  -1.4627
    -1.4622  -1.3778  -1.3758  -1.3707  -1.3704  -1.3696  -1.3167  -1.3165
    -1.2798  -1.2787  -1.2747  -1.2746  -1.2722  -1.2721  -1.2533  -1.2491
    -1.2289  -1.2287  -1.2237  -1.2228  -1.2130  -1.2117  -1.1698  -1.1537
    -1.1501  -1.1487  -1.1329  -1.1323  -1.0888  -1.0887  -1.0505  -1.0505
    -1.0473  -1.0472  -1.0043  -1.0031  -0.9839  -0.9835  -0.9826  -0.9821
    -0.9780  -0.9778  -0.9273  -0.9267  -0.9192  -0.9187  -0.9107  -0.9107
    -0.9010  -0.8984  -0.8971  -0.8967  -0.8341  -0.8281  -0.8280  -0.8184
    -0.8184  -0.8180  -0.8176  -0.8143  -0.7956  -0.7954  -0.7820  -0.7809
    -0.7549  -0.7545  -0.7515  -0.7505  -0.6546  -0.6546  -0.6541  -0.6540
    -0.6334  -0.6331  -0.6242  -0.6097  -0.6070  -0.6059  -0.6048  -0.6013
    -0.6013  -0.5796  -0.5753  -0.5750  -0.5414  -0.5412  -0.5403  -0.5398
    -0.5378  -0.5363  -0.5348  -0.5332  -0.5038  -0.5038  -0.4842  -0.4838
    -0.4837  -0.4725  -0.4483  -0.4475  -0.4473  -0.4469  -0.4448  -0.4362
    -0.4354  -0.4353  -0.4349  -0.4141  -0.3846  -0.3574  -0.3572  -0.3569
    -0.3568  -0.3277  -0.3246  -0.3035  -0.3032  -0.3027  -0.2984  -0.2961
    -0.2954  -0.2951  -0.2720  -0.2696  -0.2691  -0.2686  -0.2675  -0.2581
    -0.2544  -0.2478  -0.2470  -0.2468  -0.2459  -0.2432  -0.2431  -0.2388
    -0.2336  -0.2329  -0.2066  -0.2064  -0.2046  -0.2044  -0.1770  -0.1554
    -0.1423  -0.1402  -0.1400  -0.1374  -0.1329  -0.1314  -0.1295  -0.1281
    -0.1279  -0.1183  -0.1031  -0.1014  -0.0885  -0.0881  -0.0864  -0.0860
    -0.0769  -0.0768  -0.0750  -0.0739  -0.0738  -0.0734  -0.0426  -0.0174
    -0.0167  -0.0136  -0.0134   0.0021   0.0034   0.0052   0.0058   0.0111
     0.0113   0.0114   0.0284   0.0294   0.0299   0.0308   0.0437   0.0453
     0.0585   0.0597   0.0757   0.0759   0.0760   0.0765   0.0945   0.0953
     0.1109   0.1110   0.1220   0.1221   0.1344   0.1352   0.1357   0.1360
     0.1796   0.1807   0.1835   0.1843   0.1957   0.1966   0.2016   0.2021
     0.2289   0.2291   0.2611   0.2629   0.2646   0.2676   0.3003   0.3003
     0.3127   0.3381   0.3858   0.3860   0.3865   0.3873   0.3969   0.4123
     0.4130   0.4134   0.4140   0.4262   0.4416   0.4505   0.4512   0.4531
     0.4548   0.4551   0.4552   0.4561   0.4648   0.4667   0.4768   0.4787
     0.4789   0.4803   0.4809   0.4816   0.4827   0.4831   0.5163   0.5164
     0.5276   0.5276   0.5283   0.5284   0.5361   0.5361   0.5435   0.5552
     0.5567   0.5573   0.5579   0.5580   0.5584   0.5585   0.5589   0.5594
     0.5817   0.5819   0.5833   0.5837   0.5839   0.5845   0.5853   0.5854
     0.6015   0.6017   0.6447   0.6448   0.6568   0.6571   0.6667   0.6681
     0.6689   0.6695   0.6750   0.6756   0.6761   0.6769   0.6819   0.6825
     0.6833   0.6834   0.7234   0.7244   0.7244   0.7253   0.7396   0.7415
     0.7416   0.7426   0.7427   0.7438   0.7546   0.7584   0.7748   0.7758
     0.7794   0.7812   0.7822   0.7823   0.8340   0.8348   0.8846   0.8858
     0.8901   0.8927   0.8943   0.8944   0.9030   0.9041   0.9109   0.9110
     0.9171   0.9172   0.9210   0.9252   0.9256   0.9268   0.9377   0.9385
     0.9410   0.9414   0.9421   0.9424   0.9520   0.9554   0.9610   0.9666
     0.9666   0.9681   0.9689   0.9707   0.9709   0.9739   0.9777   0.9778
     0.9893   0.9893   0.9904   0.9918   0.9928   0.9933   1.0113   1.0115
     1.0205   1.0241   1.0261   1.0273   1.0289   1.0300   1.0386   1.0387
     1.0395   1.0396   1.0405   1.0407   1.0830   1.0885   1.1025   1.1164
     1.1273   1.1274   1.1416   1.1434   1.1499   1.1543   1.1562   1.1567
     1.1700   1.1703   1.1838   1.1859   1.1921   1.1930   1.1952   1.1970
     1.1983   1.1988   1.1992   1.1995   1.2003   1.2015   1.2029   1.2032
     1.2102   1.2104   1.2195   1.2235   1.2294   1.2313   1.2314   1.2314
     1.2393   1.2408   1.2661   1.2696   1.2698   1.2699   1.2766   1.2768
     1.2791   1.2797   1.2921   1.2958   1.2973   1.2975   1.3100   1.3107
     1.3127   1.3136   1.3146   1.3154   1.3320   1.3325   1.3329   1.3336
     1.3516   1.3518   1.3534   1.3552   1.3707   1.3725   1.3782   1.3791
     1.3793   1.3801   1.3949   1.3951   1.3952   1.3954   1.4118   1.4125
     1.4263   1.4263   1.4266   1.4285   1.4466   1.4470   1.4485   1.4491
     1.4503   1.4503   1.4509   1.4514   1.4790   1.4790   1.4869   1.4876
     1.4927   1.4966   1.5000   1.5044   1.5186   1.5195   1.5196   1.5199
     1.5286   1.5288   1.5410   1.5410   1.5809   1.5854   1.5877   1.5882
     1.6714   1.6888   1.6938   1.7130   1.7165   1.7297   1.7299   1.7343
     1.7829   1.7865   1.7918   1.7931   1.8045   1.8121   1.8123   1.8131
     1.8533   1.8534   1.8878   2.0617   2.0632   2.0991   2.4135   2.4153
     2.4192   2.4197   2.4957   2.4982   2.5582   2.5643   2.5645   2.5660
     2.5811   2.5818   2.7088   2.7107   2.7563   2.7602   2.7790   2.7800
     2.9232   2.9242   3.1697   3.1698   3.1777   3.1903   3.3936   3.4148
     3.5783   3.6701   3.6820   3.9164   3.9277   3.9742   4.0834   4.0974
     4.1009   4.1044   4.3212   4.3252   4.3274   4.3291   4.4964   4.4982
     4.6623   4.6893   4.7645   4.7705   4.9066   5.0696   5.0980   5.1024
     5.3067   5.3583   5.3589   5.3597   5.3607   5.4312   5.5132   5.6561
     5.6740   5.7406   5.7571   5.8183   6.3807   6.3896   6.4204   6.4247
     6.4373   6.4384   6.5486   6.5578   6.6619   6.6677   6.8044   6.8114
     6.9821   7.0143   7.0287   7.0454   7.0775   7.0802   7.1128   7.1205
     7.1275   7.1314   7.2312   7.3386   7.3397   7.3733   7.3817   7.4159
     7.5288   7.6062   7.6965   7.7208   7.7375   7.7556   8.1430   8.1440
     8.3263   8.3565   8.3756   8.4227   8.4253   8.4259   8.4324   8.4454
     8.4479   8.4851   8.6381   8.6490   8.7139   8.7156   8.7197   8.7200
     8.7550   8.7614   8.8735   8.9142   8.9313   9.0147   9.0229   9.0607
     9.1428   9.1516   9.2325   9.2382   9.2815   9.3153   9.3853   9.3855
     9.3863   9.3865   9.4588   9.4601   9.4748   9.4815   9.4885   9.4925
     9.6609   9.6655   9.7856   9.7875   9.8078   9.8894   9.8897

          k = 0.2500 0.0000 0.0000 (256240 PWs)   bands (ev):

   -17.2239 -16.1280 -15.9655 -15.6626 -15.1442 -15.0056 -14.9461 -14.8939
   -14.1111 -13.9545 -13.7719 -13.2470 -13.1736 -13.0917 -13.0449 -12.3476
   -12.2357 -12.1527 -12.0766 -11.2342 -11.1437 -10.7895 -10.6725 -10.3593
   -10.2260  -9.9546  -9.9046  -9.5082  -9.2552  -9.1594  -8.6804  -7.9898
    -7.7974  -7.7292  -7.5665  -7.5429  -7.4474  -7.0943  -6.9777  -6.3020
    -6.2209  -6.0438  -5.9687  -5.9156  -5.8418  -5.4536  -5.3297  -5.3118
    -5.3019  -5.1683  -4.9237  -4.7454  -4.6338  -4.5431  -4.4671  -4.4649
    -4.4620  -4.4273  -4.3724  -4.2283  -4.1369  -4.0013  -4.0001  -3.9975
    -3.9096  -3.8450  -3.8404  -3.8104  -3.7944  -3.6297  -3.6008  -3.5741
    -3.5247  -3.4833  -3.4077  -3.4046  -3.2788  -3.2350  -3.2133  -3.1974
    -3.1423  -3.0362  -2.9563  -2.8959  -2.8000  -2.7987  -2.7912  -2.7527
    -2.6548  -2.6254  -2.6233  -2.5073  -2.4011  -2.3947  -2.3468  -2.3374
    -2.1297  -2.0991  -2.0969  -2.0824  -2.0800  -2.0598  -2.0036  -1.9902
    -1.9817  -1.8977  -1.8955  -1.8413  -1.8032  -1.8016  -1.7993  -1.7939
    -1.7934  -1.7848  -1.7737  -1.7462  -1.7350  -1.7239  -1.7197  -1.7170
    -1.7137  -1.6532  -1.6469  -1.6035  -1.5900  -1.5829  -1.5811  -1.5787
    -1.5782  -1.5776  -1.5484  -1.5271  -1.5142  -1.5038  -1.5021  -1.4908
    -1.4888  -1.3726  -1.3363  -1.3290  -1.3129  -1.2764  -1.2694  -1.2600
    -1.2441  -1.2430  -1.2378  -1.2365  -1.2300  -1.2203  -1.2077  -1.1980
    -1.1923  -1.1851  -1.1836  -1.1781  -1.1587  -1.1395  -1.1357  -1.1339
    -1.1331  -1.1324  -1.1170  -1.1117  -1.1109  -1.0914  -1.0769  -1.0670
    -1.0507  -1.0494  -1.0468  -1.0462  -1.0411  -1.0211  -1.0130  -1.0125
    -1.0041  -1.0021  -0.9967  -0.9921  -0.9817  -0.9813  -0.9811  -0.9802
    -0.9761  -0.9756  -0.9645  -0.9540  -0.9509  -0.9468  -0.9457  -0.9400
    -0.9215  -0.9018  -0.9006  -0.8960  -0.8528  -0.8522  -0.8163  -0.8163
    -0.7971  -0.7956  -0.7862  -0.7709  -0.7707  -0.7575  -0.7544  -0.7525
    -0.7500  -0.7428  -0.7415  -0.7223  -0.6069  -0.6029  -0.6000  -0.5970
    -0.5684  -0.5676  -0.5665  -0.5510  -0.5499  -0.5496  -0.5480  -0.5398
    -0.5307  -0.5269  -0.5269  -0.5243  -0.5165  -0.5060  -0.4953  -0.4876
    -0.4848  -0.4848  -0.4818  -0.4812  -0.4607  -0.4607  -0.4574  -0.4033
    -0.3995  -0.3994  -0.3966  -0.3913  -0.3895  -0.3851  -0.3804  -0.3760
    -0.3565  -0.3564  -0.3412  -0.3333  -0.3330  -0.3315  -0.3287  -0.3060
    -0.2949  -0.2948  -0.2918  -0.2903  -0.2816  -0.2808  -0.2709  -0.2690
    -0.2653  -0.2592  -0.2477  -0.2383  -0.2300  -0.2172  -0.2028  -0.1989
    -0.1986  -0.1963  -0.1906  -0.1820  -0.1802  -0.1800  -0.1785  -0.1629
    -0.1536  -0.1520  -0.1513  -0.1394  -0.1373  -0.1246  -0.1123  -0.1108
    -0.1108  -0.0661  -0.0637  -0.0633  -0.0556  -0.0549  -0.0456  -0.0299
    -0.0192  -0.0180  -0.0121  -0.0118  -0.0101  -0.0065  -0.0005   0.0017
     0.0039   0.0052   0.0060   0.0076   0.0081   0.0128   0.0288   0.0331
     0.0336   0.0362   0.0401   0.0446   0.0587   0.0591   0.0722   0.0751
     0.0773   0.0934   0.1142   0.1145   0.1166   0.1168   0.1186   0.1344
     0.1389   0.1405   0.1416   0.1422   0.1424   0.1579   0.1771   0.1789
     0.1976   0.2534   0.2538   0.2550   0.2655   0.2715   0.2737   0.2749
     0.2769   0.2775   0.2827   0.2830   0.2843   0.2869   0.2879   0.2887
     0.2953   0.3049   0.3067   0.3074   0.3093   0.3210   0.3211   0.3266
     0.3288   0.3336   0.3358   0.3588   0.3591   0.3617   0.3744   0.3888
     0.3954   0.4053   0.4131   0.4249   0.4256   0.4424   0.4430   0.4447
     0.4476   0.4556   0.4604   0.4773   0.4801   0.4805   0.4853   0.4856
     0.4912   0.4918   0.4960   0.4961   0.5169   0.5218   0.5241   0.5323
     0.5394   0.5444   0.5445   0.5510   0.5518   0.5527   0.5550   0.5554
     0.5743   0.5794   0.5798   0.5914   0.5927   0.5936   0.5939   0.5966
     0.6099   0.6104   0.6135   0.6179   0.6181   0.6373   0.6376   0.6534
     0.6570   0.6628   0.6639   0.6657   0.6697   0.6716   0.6766   0.6897
     0.7012   0.7051   0.7240   0.7287   0.7405   0.7406   0.7448   0.7454
     0.7496   0.7620   0.7659   0.7713   0.7741   0.7784   0.7794   0.7881
     0.7898   0.7931   0.8034   0.8042   0.8152   0.8244   0.8245   0.8253
     0.8496   0.8518   0.8555   0.8564   0.8573   0.8794   0.8807   0.8914
     0.8930   0.8931   0.8941   0.8961   0.9014   0.9038   0.9053   0.9058
     0.9188   0.9423   0.9468   0.9522   0.9544   0.9547   0.9555   0.9687
     0.9694   0.9896   0.9910   0.9921   0.9929   0.9994   1.0013   1.0018
     1.0155   1.0168   1.0184   1.0189   1.0215   1.0220   1.0224   1.0256
     1.0277   1.0309   1.0324   1.0331   1.0373   1.0424   1.0557   1.0587
     1.0611   1.0627   1.0679   1.0690   1.0691   1.0759   1.0768   1.0901
     1.0906   1.1043   1.1073   1.1076   1.1080   1.1115   1.1220   1.1267
     1.1337   1.1360   1.1370   1.1441   1.1487   1.1545   1.1569   1.1571
     1.1576   1.1744   1.1835   1.1895   1.1897   1.1918   1.1921   1.2265
     1.2282   1.2359   1.2394   1.2428   1.2452   1.2512   1.2529   1.2533
     1.2538   1.2618   1.2633   1.2699   1.2754   1.2776   1.2790   1.2791
     1.2959   1.2969   1.3005   1.3007   1.3061   1.3115   1.3131   1.3142
     1.3153   1.3158   1.3168   1.3216   1.3236   1.3247   1.3325   1.3373
     1.3454   1.3493   1.3511   1.3514   1.3556   1.3557   1.3600   1.3646
     1.3734   1.3798   1.3803   1.3813   1.4034   1.4035   1.4120   1.4166
     1.4188   1.4226   1.4227   1.4254   1.4267   1.4268   1.4336   1.4338
     1.4347   1.4401   1.4410   1.4446   1.4603   1.4628   1.4632   1.4644
     1.4656   1.4693   1.4700   1.4826   1.4831   1.4899   1.4944   1.4976
     1.5059   1.5064   1.5080   1.5122   1.5143   1.5163   1.5458   1.5526
     1.5595   1.5684   1.5817   1.6234   1.6249   1.6280   1.6390   1.6547
     1.6600   1.7470   1.7526   1.7619   1.7627   1.7820   1.7892   1.7974
     1.8368   1.9593   2.0306   2.0615   2.0692   2.0801   2.0851   2.0871
     2.1894   2.2468   2.2531   2.5604   2.5614   2.5634   2.5655   2.9752
     2.9753   3.0084   3.1929   3.1935   3.2178   3.2179   3.2622   3.2790
     3.4550   3.4670   3.5623   3.5794   3.6041   3.6304   3.6571   3.7012
     3.7068   3.7158   3.7263   3.7748   3.8688   3.8710   3.9665   3.9690
     4.0514   4.1786   4.1853   4.1890   4.2796   4.3347   4.4121   4.5482
     4.7523   4.8201   4.8260   5.0902   5.1551   5.2178   5.2184   5.2289
     5.2555   5.3586   5.4618   5.4659   5.5055   5.5494   5.5822   5.5849
     5.6525   5.6781   5.6823   5.7319   5.7343   5.8023   5.8218   5.8253
     6.0077   6.0108   6.0191   6.0413   6.4130   6.6028   6.6910   6.6962
     6.7012   6.7475   6.7561   6.7873   6.8650   6.9256   7.0144   7.0355
     7.0499   7.0514   7.0664   7.2306   7.2392   7.2934   7.2999   7.5013
     7.5054   7.5157   7.5552   7.5677   7.6781   7.7588   7.7628   7.7904
     7.9923   8.0029   8.0389   8.0619   8.0838   8.1860   8.2042   8.2202
     8.2362   8.2609   8.3124   8.3130   8.3930   8.3956   8.4373   8.4711
     8.6438   8.6450   8.9451   8.9538   8.9838   8.9871   9.0071   9.1432
     9.1694   9.1888   9.2104   9.2236   9.2288   9.2546   9.2640   9.3372
     9.3991   9.4045   9.4397   9.4427   9.4845   9.5099   9.6402   9.6779
     9.7143   9.7197   9.8241   9.8326   9.8359   9.8482   9.9375

          k = 0.2500-0.2165 0.0000 (256316 PWs)   bands (ev):

   -17.2236 -16.1791 -15.8738 -15.5409 -15.4586 -15.1913 -14.7121 -14.5646
   -14.2557 -14.1161 -13.7217 -13.2696 -13.2531 -13.1602 -12.7669 -12.6632
   -12.1503 -12.0264 -11.5141 -11.4307 -11.2825 -11.1264 -10.9623 -10.6234
    -9.8684  -9.7850  -9.3910  -9.3571  -9.1048  -9.0506  -8.6759  -8.6254
    -8.4733  -8.4253  -7.3013  -7.0266  -6.8333  -6.6749  -6.5979  -6.5025
    -6.4511  -6.3185  -6.0847  -6.0321  -5.7138  -5.7043  -5.4282  -5.2559
    -5.1694  -5.0701  -4.9348  -4.8021  -4.6784  -4.6747  -4.5431  -4.5416
    -4.4783  -4.3491  -4.3458  -4.3166  -4.1880  -4.1612  -4.1492  -4.0516
    -3.9018  -3.7729  -3.7605  -3.7387  -3.5858  -3.5620  -3.5012  -3.4595
    -3.4582  -3.4553  -3.3633  -3.2908  -3.2539  -3.1981  -3.1426  -3.1023
    -3.0303  -2.9453  -2.9409  -2.9246  -2.9106  -2.9094  -2.8629  -2.8166
    -2.6940  -2.6564  -2.6058  -2.5056  -2.3334  -2.3137  -2.3118  -2.2686
    -2.1866  -2.1808  -2.1687  -2.1686  -2.1030  -2.0682  -2.0099  -2.0094
    -1.9778  -1.9767  -1.9724  -1.9690  -1.8950  -1.8300  -1.8222  -1.8130
    -1.8129  -1.7805  -1.7602  -1.7527  -1.7324  -1.7238  -1.7209  -1.7097
    -1.7095  -1.6931  -1.6787  -1.6777  -1.6763  -1.6762  -1.6673  -1.6670
    -1.5822  -1.5821  -1.5534  -1.4689  -1.4670  -1.3787  -1.3698  -1.3664
    -1.3610  -1.3300  -1.3297  -1.2776  -1.2774  -1.2697  -1.2627  -1.2626
    -1.2495  -1.2489  -1.2411  -1.2396  -1.2251  -1.2244  -1.2130  -1.2129
    -1.2111  -1.2039  -1.2008  -1.1985  -1.1872  -1.1872  -1.1722  -1.1336
    -1.1309  -1.1274  -1.1262  -1.1209  -1.1155  -1.1142  -1.1117  -1.0932
    -1.0831  -1.0816  -1.0398  -1.0395  -1.0356  -1.0296  -1.0263  -1.0239
    -0.9964  -0.9963  -0.9736  -0.9726  -0.9621  -0.9616  -0.9605  -0.9564
    -0.9557  -0.9522  -0.9502  -0.9344  -0.9241  -0.9240  -0.9126  -0.9051
    -0.8851  -0.8681  -0.8680  -0.8625  -0.8620  -0.8243  -0.7782  -0.7781
    -0.7739  -0.7738  -0.7706  -0.7694  -0.7241  -0.7215  -0.7153  -0.7125
    -0.7119  -0.7061  -0.7058  -0.6944  -0.6941  -0.6797  -0.6531  -0.6522
    -0.6156  -0.6143  -0.5813  -0.5679  -0.5665  -0.5664  -0.5639  -0.5611
    -0.5338  -0.5334  -0.5210  -0.5204  -0.5020  -0.5008  -0.4929  -0.4897
    -0.4886  -0.4741  -0.4600  -0.4583  -0.4525  -0.4502  -0.4429  -0.4427
    -0.4115  -0.4081  -0.4079  -0.3969  -0.3934  -0.3875  -0.3815  -0.3801
    -0.3680  -0.3676  -0.3634  -0.3632  -0.3573  -0.3556  -0.3521  -0.3520
    -0.3340  -0.3338  -0.3176  -0.3175  -0.2939  -0.2889  -0.2754  -0.2741
    -0.2615  -0.2566  -0.2401  -0.2400  -0.2353  -0.2311  -0.2180  -0.2175
    -0.2132  -0.2129  -0.1878  -0.1807  -0.1574  -0.1542  -0.1528  -0.1180
    -0.1179  -0.1090  -0.1090  -0.1052  -0.1037  -0.0876  -0.0875  -0.0847
    -0.0702  -0.0699  -0.0596  -0.0565  -0.0492  -0.0480  -0.0429  -0.0426
    -0.0408  -0.0399  -0.0148  -0.0136  -0.0127  -0.0057  -0.0043  -0.0032
    -0.0023  -0.0012  -0.0007   0.0011   0.0057   0.0073   0.0291   0.0315
     0.0316   0.0317   0.0322   0.0653   0.0654   0.0735   0.0737   0.0753
     0.0769   0.0969   0.0997   0.1028   0.1165   0.1315   0.1315   0.1345
     0.1409   0.1413   0.1516   0.1518   0.1548   0.1555   0.1688   0.1690
     0.1751   0.1763   0.2046   0.2050   0.2677   0.2691   0.2809   0.2815
     0.2827   0.2831   0.2854   0.2864   0.2879   0.2889   0.2918   0.2935
     0.3125   0.3169   0.3170   0.3193   0.3200   0.3278   0.3299   0.3315
     0.3343   0.3343   0.3659   0.3670   0.3778   0.3809   0.3820   0.3946
     0.4002   0.4026   0.4173   0.4436   0.4438   0.4489   0.4510   0.4527
     0.4573   0.4574   0.4690   0.4690   0.4736   0.4781   0.4795   0.4811
     0.4819   0.4827   0.4978   0.5121   0.5131   0.5180   0.5203   0.5343
     0.5346   0.5539   0.5665   0.5671   0.5676   0.5691   0.5992   0.6009
     0.6033   0.6050   0.6073   0.6085   0.6123   0.6143   0.6253   0.6255
     0.6273   0.6284   0.6325   0.6362   0.6480   0.6483   0.6587   0.6599
     0.6679   0.6680   0.6710   0.6710   0.6782   0.6803   0.6813   0.6865
     0.6890   0.6892   0.7017   0.7052   0.7097   0.7107   0.7157   0.7164
     0.7187   0.7189   0.7205   0.7211   0.7546   0.7562   0.7670   0.7677
     0.7830   0.7874   0.8034   0.8070   0.8229   0.8233   0.8245   0.8246
     0.8302   0.8310   0.8420   0.8537   0.8538   0.8542   0.8542   0.8552
     0.8557   0.8638   0.8667   0.8787   0.8827   0.8839   0.8906   0.8947
     0.8998   0.9050   0.9194   0.9285   0.9285   0.9437   0.9508   0.9516
     0.9586   0.9595   0.9643   0.9644   0.9709   0.9710   0.9748   0.9909
     0.9995   1.0031   1.0073   1.0170   1.0182   1.0266   1.0308   1.0380
     1.0462   1.0605   1.0628   1.0659   1.0791   1.0803   1.0865   1.0869
     1.0893   1.0894   1.0907   1.0908   1.0951   1.0951   1.1047   1.1052
     1.1136   1.1156   1.1167   1.1179   1.1355   1.1366   1.1618   1.1654
     1.1661   1.1694   1.1710   1.1727   1.1743   1.1760   1.1805   1.1836
     1.1863   1.1904   1.1912   1.1914   1.1965   1.1988   1.2012   1.2020
     1.2076   1.2095   1.2174   1.2204   1.2231   1.2233   1.2243   1.2245
     1.2360   1.2369   1.2448   1.2449   1.2676   1.2694   1.2774   1.2778
     1.2827   1.2918   1.2935   1.2960   1.3030   1.3098   1.3102   1.3123
     1.3190   1.3218   1.3304   1.3308   1.3345   1.3363   1.3429   1.3450
     1.3475   1.3477   1.3561   1.3596   1.3602   1.3710   1.3786   1.3807
     1.3811   1.3812   1.3861   1.3870   1.3910   1.3919   1.3958   1.4049
     1.4051   1.4102   1.4105   1.4163   1.4197   1.4208   1.4290   1.4332
     1.4358   1.4371   1.4373   1.4424   1.4439   1.4440   1.4443   1.4474
     1.4533   1.4533   1.4780   1.4781   1.4857   1.4859   1.4956   1.5008
     1.5135   1.5191   1.5240   1.5264   1.5273   1.5494   1.5498   1.5565
     1.5568   1.5778   1.5825   1.5884   1.6149   1.6464   1.6613   1.6627
     1.7116   1.7496   1.7583   1.7640   1.7690   1.7811   1.7851   1.7857
     1.7860   1.8064   1.8349   1.8426   2.1242   2.1248   2.1562   2.1576
     2.2820   2.2863   2.5818   2.5831   2.7776   2.7829   2.7863   2.7871
     2.7980   2.8014   2.8279   2.8313   2.9798   2.9825   3.0677   3.0793
     3.5240   3.5356   3.5863   3.6037   3.6520   3.6743   3.7668   3.8352
     3.8404   3.8445   3.8680   3.9908   3.9940   4.0580   4.0893   4.1600
     4.1620   4.3256   4.3709   4.3724   4.4256   4.5430   4.5442   4.6149
     4.6641   4.6780   4.7084   4.7209   4.9173   4.9248   4.9946   5.0135
     5.0199   5.1288   5.2583   5.2758   5.3918   5.4343   5.4392   5.4495
     5.4519   5.4725   5.7475   5.7575   5.8101   5.8805   5.8876   5.9492
     5.9536   5.9664   6.5814   6.5871   6.6044   6.6152   6.7308   6.7446
     6.8005   6.8505   6.8688   7.0212   7.0242   7.0447   7.0692   7.0885
     7.0981   7.1177   7.1935   7.2129   7.2151   7.3195   7.3251   7.3281
     7.3321   7.3944   7.4361   7.4374   7.6550   7.6608   7.7589   7.7852
     7.7882   7.8637   7.9720   7.9797   8.1818   8.1910   8.2333   8.2464
     8.2620   8.3908   8.5791   8.5817   8.5946   8.6040   8.6363   8.6376
     8.7040   8.7059   8.8011   8.8144   8.8979   8.9088   8.9382   8.9427
     9.0688   9.1142   9.1342   9.1447   9.1734   9.1757   9.1904   9.2033
     9.2139   9.2623   9.2677   9.2995   9.3410   9.3510   9.4240   9.4401
     9.4463   9.4787   9.6261   9.6271   9.9541   9.9602   9.9676

          k =-0.5000 0.0000 0.0000 (256496 PWs)   bands (ev):

   -17.1620 -16.0105 -15.7426 -15.6295 -15.6095 -15.5604 -14.8124 -14.6179
   -14.5150 -14.4818 -13.2055 -12.9078 -12.7678 -12.7014 -12.4580 -12.4315
   -11.9125 -11.8917 -11.8082 -11.8001 -11.2454 -11.2059 -10.9816 -10.7495
   -10.3354 -10.3031 -10.0797  -9.7619  -9.1477  -9.1473  -8.9780  -8.9455
    -7.8150  -7.6399  -7.5860  -7.4117  -7.3681  -7.3468  -6.3069  -6.2261
    -5.8452  -5.3247  -5.3212  -5.3090  -5.1437  -4.9960  -4.9693  -4.8646
    -4.8083  -4.8037  -4.8030  -4.8022  -4.7766  -4.7645  -4.7387  -4.6930
    -4.6666  -4.5438  -4.5422  -4.4737  -4.3803  -4.3767  -4.2915  -4.0551
    -4.0160  -3.9969  -3.9671  -3.9656  -3.6915  -3.6750  -3.6031  -3.5744
    -3.5733  -3.5560  -3.4281  -3.4206  -3.4197  -3.4189  -3.4186  -3.4130
    -3.3768  -3.3648  -2.9464  -2.9319  -2.8962  -2.8549  -2.8131  -2.7870
    -2.7670  -2.7601  -2.6221  -2.6092  -2.5679  -2.4790  -2.4512  -2.4399
    -2.3068  -2.3037  -2.3027  -2.3024  -1.8793  -1.8790  -1.8789  -1.8787
    -1.8766  -1.8766  -1.8658  -1.8156  -1.7797  -1.7594  -1.7566  -1.7554
    -1.6871  -1.6516  -1.6511  -1.6501  -1.6498  -1.6025  -1.6022  -1.6014
    -1.6011  -1.5118  -1.5064  -1.4885  -1.4883  -1.4879  -1.4774  -1.4539
    -1.4316  -1.4262  -1.4254  -1.4244  -1.4067  -1.4065  -1.3574  -1.3574
    -1.3553  -1.3544  -1.3523  -1.3432  -1.3425  -1.3406  -1.3400  -1.3380
    -1.2940  -1.2923  -1.2921  -1.2910  -1.2695  -1.2685  -1.2676  -1.2674
    -1.2296  -1.2047  -1.2044  -1.1833  -1.1826  -1.1822  -1.1820  -1.1590
    -1.1561  -1.1546  -1.1523  -1.1515  -1.1508  -1.1494  -1.1083  -1.1081
    -1.1069  -1.1069  -1.0860  -1.0859  -1.0727  -1.0564  -1.0557  -1.0554
    -1.0096  -1.0096  -1.0093  -0.9813  -0.9810  -0.9797  -0.9795  -0.9554
    -0.9534  -0.9528  -0.9515  -0.9478  -0.9462  -0.9432  -0.9319  -0.9317
    -0.9292  -0.9291  -0.9061  -0.9026  -0.8908  -0.8406  -0.8404  -0.8387
    -0.8370  -0.7947  -0.7947  -0.7141  -0.7117  -0.7115  -0.7112  -0.7062
    -0.6882  -0.6808  -0.6731  -0.6730  -0.6721  -0.6720  -0.6675  -0.6617
    -0.6401  -0.6336  -0.6301  -0.6298  -0.6232  -0.6183  -0.6124  -0.6029
    -0.6012  -0.5986  -0.5720  -0.5305  -0.5206  -0.5109  -0.4855  -0.4731
    -0.4666  -0.4653  -0.4565  -0.4564  -0.4319  -0.4161  -0.4135  -0.4100
    -0.4060  -0.4059  -0.4044  -0.4044  -0.3940  -0.3818  -0.3683  -0.3682
    -0.3679  -0.3678  -0.3294  -0.3293  -0.3285  -0.3284  -0.3126  -0.2958
    -0.2957  -0.2956  -0.2950  -0.2841  -0.2840  -0.2532  -0.2511  -0.2511
    -0.2497  -0.2497  -0.2470  -0.2408  -0.2290  -0.2125  -0.2031  -0.1989
    -0.1782  -0.1360  -0.1355  -0.1354  -0.1340  -0.1289  -0.1288  -0.1279
    -0.1277  -0.0887  -0.0883  -0.0869  -0.0861  -0.0649  -0.0523  -0.0519
    -0.0259  -0.0258  -0.0238  -0.0236  -0.0221  -0.0219  -0.0209  -0.0209
    -0.0202  -0.0201  -0.0197  -0.0191   0.0546   0.0555   0.0613   0.0630
     0.0662   0.0670   0.0719   0.0722   0.0728   0.0730   0.0777   0.0777
     0.0797   0.0799   0.0836   0.0839   0.0883   0.0890   0.1021   0.1021
     0.1144   0.1162   0.1165   0.1166   0.1168   0.1168   0.1196   0.1276
     0.1278   0.1279   0.1282   0.1407   0.1410   0.1436   0.1530   0.1532
     0.1534   0.1536   0.1735   0.1815   0.1823   0.1943   0.2512   0.2658
     0.2863   0.2864   0.2873   0.2875   0.3190   0.3196   0.3201   0.3206
     0.3345   0.3346   0.3406   0.3408   0.3439   0.3446   0.3450   0.3457
     0.3491   0.3499   0.3520   0.3523   0.3525   0.3535   0.3666   0.3667
     0.3698   0.3745   0.3816   0.3840   0.3893   0.3899   0.3951   0.3953
     0.3989   0.4006   0.4326   0.4377   0.4904   0.4918   0.4919   0.4925
     0.5006   0.5017   0.5203   0.5238   0.5253   0.5263   0.5282   0.5288
     0.5304   0.5313   0.5326   0.5329   0.5353   0.5358   0.5372   0.5374
     0.5436   0.5446   0.5455   0.5463   0.5590   0.5662   0.5828   0.5834
     0.5854   0.5994   0.6062   0.6120   0.6185   0.6193   0.6218   0.6220
     0.6303   0.6304   0.6313   0.6314   0.6334   0.6338   0.6460   0.6475
     0.6512   0.6518   0.6672   0.6684   0.6690   0.6692   0.7059   0.7060
     0.7067   0.7068   0.7073   0.7073   0.7248   0.7257   0.7502   0.7579
     0.7654   0.7665   0.7673   0.7675   0.7678   0.7682   0.7923   0.8067
     0.8349   0.8350   0.8379   0.8392   0.8399   0.8402   0.8444   0.8453
     0.8489   0.8525   0.8529   0.8536   0.8621   0.8649   0.8791   0.8849
     0.8849   0.8865   0.8867   0.8992   0.9055   0.9059   0.9062   0.9063
     0.9076   0.9080   0.9431   0.9454   0.9457   0.9458   0.9588   0.9922
     1.0122   1.0122   1.0123   1.0128   1.0419   1.0462   1.0464   1.0466
     1.0476   1.0485   1.0651   1.0662   1.0759   1.0766   1.0779   1.0848
     1.0891   1.0896   1.1090   1.1105   1.1153   1.1156   1.1161   1.1165
     1.1236   1.1241   1.1247   1.1249   1.1347   1.1348   1.1361   1.1366
     1.1373   1.1377   1.1381   1.1383   1.1724   1.1742   1.1756   1.1756
     1.1865   1.1991   1.2053   1.2074   1.2103   1.2111   1.2116   1.2120
     1.2294   1.2304   1.2333   1.2400   1.2407   1.2408   1.2418   1.2503
     1.2509   1.2514   1.2515   1.2573   1.2617   1.2657   1.2692   1.2735
     1.2982   1.2986   1.3120   1.3136   1.3142   1.3143   1.3146   1.3146
     1.3147   1.3148   1.3252   1.3268   1.3282   1.3284   1.3284   1.3284
     1.3308   1.3311   1.3358   1.3365   1.3413   1.3413   1.3417   1.3420
     1.3490   1.3493   1.3640   1.3641   1.3795   1.3821   1.3829   1.3831
     1.3910   1.3913   1.3928   1.3931   1.4066   1.4093   1.4130   1.4131
     1.4284   1.4294   1.4333   1.4345   1.4394   1.4474   1.4477   1.4477
     1.4487   1.4660   1.4683   1.4686   1.4695   1.4713   1.4784   1.4786
     1.4787   1.4788   1.4827   1.4870   1.4982   1.4983   1.5116   1.5125
     1.5125   1.5129   1.5129   1.5244   1.5258   1.5260   1.5762   1.5764
     1.5979   1.6060   1.6061   1.6105   1.6105   1.6178   2.0238   2.0272
     2.0287   2.0294   2.2315   2.2328   2.2467   2.2507   2.2832   2.2836
     2.2901   2.2909   2.6033   2.6126   2.6156   2.6172   2.8251   2.8275
     2.8328   2.8354   3.1815   3.1827   3.1854   3.1863   3.4662   3.4677
     3.7200   3.7504   3.7523   3.7545   3.8519   3.9172   3.9194   3.9235
     3.9503   4.0657   4.0713   4.0726   4.0865   4.1796   4.1846   4.3861
     4.3974   4.4846   4.7216   4.7406   4.7476   4.7504   4.8071   4.8237
     4.8243   4.8521   4.9277   5.0187   5.0199   5.0357   5.0416   5.0445
     5.0462   5.0521   5.0706   5.0722   5.0963   5.1025   5.1532   5.1617
     5.4776   5.5137   5.5305   5.5343   5.6460   5.6567   5.7567   5.8270
     5.9855   5.9881   5.9954   6.0016   6.0264   6.0330   6.0392   6.0404
     6.1900   6.3972   6.4291   6.4324   6.4335   6.4355   6.4492   6.4775
     7.0791   7.0899   7.1063   7.1094   7.1171   7.1183   7.5642   7.5767
     7.5967   7.5978   7.5990   7.5993   7.6255   7.6268   7.8103   7.8154
     7.8781   7.8810   7.8836   7.8844   8.0399   8.0469   8.0488   8.0536
     8.1155   8.1178   8.1277   8.1303   8.1605   8.1956   8.6455   8.6893
     8.6915   8.7058   8.8242   8.8270   8.8304   8.8310   8.9607   8.9864
     8.9893   9.0636   9.0677   9.0695   9.0888   9.2585   9.2605   9.3739
     9.4253   9.4472   9.4921   9.4946   9.4947   9.4955   9.5065   9.5092
     9.5145   9.5154   9.5305   9.5342   9.8241   9.8314  10.0185

          k =-0.5000-0.2165 0.0000 (256328 PWs)   bands (ev):

   -17.1619 -15.9788 -15.8208 -15.7958 -15.3891 -15.2198 -15.1511 -15.1150
   -14.0559 -13.8409 -13.7102 -13.6736 -12.6807 -12.4568 -12.0022 -11.9974
   -11.9225 -11.7769 -11.6740 -11.5880 -11.5440 -11.5309 -11.4242 -11.4054
   -10.0438 -10.0372  -9.7699  -9.7242  -9.2266  -8.9132  -8.7981  -8.7594
    -8.2684  -8.2321  -8.0222  -8.0004  -6.5338  -6.3407  -6.1229  -5.9495
    -5.8405  -5.6261  -5.3891  -5.3165  -5.3076  -5.2173  -5.2138  -5.1816
    -5.1798  -5.1796  -5.0195  -5.0055  -4.9477  -4.5117  -4.3885  -4.3518
    -4.3269  -4.3204  -4.2643  -4.2148  -4.2018  -4.1983  -4.1978  -4.1974
    -4.0819  -4.0751  -3.9156  -3.8778  -3.8650  -3.8586  -3.7557  -3.7463
    -3.7032  -3.6906  -3.5980  -3.5928  -3.5885  -3.4875  -3.4666  -3.4567
    -3.1728  -3.0871  -3.0725  -3.0621  -2.6365  -2.5827  -2.5810  -2.5790
    -2.5788  -2.5786  -2.5445  -2.5289  -2.5237  -2.5232  -2.4097  -2.3536
    -2.1606  -2.1530  -2.1104  -2.1009  -2.0966  -2.0957  -2.0527  -2.0502
    -2.0221  -2.0183  -2.0166  -2.0115  -1.9357  -1.8031  -1.8029  -1.8019
    -1.8019  -1.7720  -1.7397  -1.7277  -1.5684  -1.5238  -1.5091  -1.5024
    -1.4935  -1.4934  -1.4933  -1.4933  -1.4593  -1.4562  -1.4539  -1.4539
    -1.4337  -1.4334  -1.4332  -1.4332  -1.3843  -1.3841  -1.3839  -1.3836
    -1.3824  -1.3822  -1.3817  -1.3815  -1.3586  -1.3585  -1.3584  -1.3584
    -1.3089  -1.3085  -1.3073  -1.3073  -1.3039  -1.2383  -1.2335  -1.2328
    -1.2323  -1.1910  -1.1910  -1.1907  -1.1907  -1.1729  -1.1713  -1.1710
    -1.1705  -1.1283  -1.1219  -1.1218  -1.1216  -1.1169  -1.1157  -1.1156
    -1.1155  -1.1127  -1.0959  -1.0923  -1.0905  -1.0889  -1.0572  -1.0571
    -1.0568  -1.0568  -1.0408  -1.0401  -1.0401  -1.0400  -1.0375  -1.0371
    -1.0368  -1.0367  -1.0367  -1.0152  -0.8826  -0.8824  -0.8819  -0.8819
    -0.8534  -0.8529  -0.8526  -0.8525  -0.8045  -0.7710  -0.7702  -0.7698
    -0.7693  -0.7690  -0.7681  -0.7668  -0.7626  -0.7623  -0.7613  -0.7613
    -0.7052  -0.7004  -0.7002  -0.6998  -0.6934  -0.6888  -0.6884  -0.6880
    -0.6764  -0.6677  -0.6671  -0.6670  -0.6431  -0.5834  -0.5713  -0.5711
    -0.5680  -0.5671  -0.5671  -0.5664  -0.5040  -0.4984  -0.4978  -0.4978
    -0.4942  -0.4494  -0.4487  -0.4486  -0.4463  -0.4284  -0.4284  -0.4272
    -0.4272  -0.4099  -0.4000  -0.3998  -0.3892  -0.3892  -0.3884  -0.3883
    -0.3744  -0.3504  -0.3486  -0.3470  -0.3240  -0.2737  -0.2737  -0.2730
    -0.2730  -0.2576  -0.2576  -0.2570  -0.2570  -0.2411  -0.2406  -0.2403
    -0.2381  -0.1601  -0.1592  -0.1582  -0.1574  -0.1535  -0.1533  -0.1529
    -0.1529  -0.1516  -0.1493  -0.1493  -0.1469  -0.1126  -0.1126  -0.1125
    -0.1124  -0.1003  -0.1000  -0.0998  -0.0991  -0.0964  -0.0959  -0.0957
    -0.0956  -0.0716  -0.0268  -0.0266  -0.0261  -0.0258  -0.0005  -0.0002
     0.0013   0.0031   0.0484   0.0488   0.0534   0.0546   0.0613   0.0651
     0.0790   0.0796   0.0803   0.0805   0.0846   0.0863   0.0873   0.0892
     0.0900   0.0912   0.0921   0.0935   0.1003   0.1004   0.1009   0.1011
     0.1063   0.1063   0.1065   0.1065   0.1209   0.1227   0.1229   0.1231
     0.1433   0.1509   0.1510   0.1511   0.1511   0.1603   0.1611   0.1615
     0.1644   0.2097   0.2106   0.2109   0.2112   0.2293   0.2413   0.2438
     0.2440   0.2485   0.2650   0.3101   0.3142   0.3159   0.3254   0.3275
     0.3285   0.3291   0.3326   0.3405   0.3448   0.3454   0.3459   0.3479
     0.3582   0.3610   0.3611   0.3615   0.3618   0.3651   0.3678   0.3688
     0.3692   0.3694   0.3710   0.3729   0.3814   0.3859   0.3967   0.4002
     0.4482   0.4489   0.4513   0.4533   0.4577   0.4580   0.4583   0.4588
     0.4692   0.4693   0.4695   0.4699   0.5052   0.5072   0.5080   0.5086
     0.5098   0.5103   0.5108   0.5111   0.5384   0.5534   0.5537   0.5543
     0.5544   0.5584   0.5670   0.5674   0.5677   0.5681   0.5683   0.5695
     0.5762   0.5765   0.5768   0.5769   0.5881   0.5896   0.5905   0.5907
     0.6038   0.6061   0.6089   0.6102   0.6598   0.6762   0.6763   0.6791
     0.6793   0.6828   0.6831   0.6832   0.6833   0.6849   0.6911   0.6915
     0.6931   0.7006   0.7069   0.7105   0.7281   0.7283   0.7292   0.7293
     0.7311   0.7312   0.7317   0.7322   0.7704   0.7783   0.7835   0.7835
     0.7962   0.8098   0.8115   0.8115   0.8124   0.8198   0.8281   0.8337
     0.8475   0.8477   0.8483   0.8483   0.8691   0.8709   0.8725   0.8728
     0.9252   0.9253   0.9259   0.9259   0.9574   0.9577   0.9599   0.9600
     1.0017   1.0106   1.0118   1.0133   1.0153   1.0221   1.0263   1.0271
     1.0305   1.0370   1.0373   1.0381   1.0389   1.0441   1.0442   1.0444
     1.0445   1.0470   1.0473   1.0482   1.0483   1.0549   1.0713   1.0732
     1.0762   1.0765   1.0771   1.0783   1.0786   1.0786   1.0794   1.0820
     1.0921   1.0942   1.0971   1.0978   1.1175   1.1194   1.1216   1.1221
     1.1255   1.1272   1.1314   1.1326   1.1408   1.1410   1.1417   1.1422
     1.1883   1.1902   1.1941   1.1944   1.1950   1.1951   1.1962   1.1972
     1.2201   1.2208   1.2211   1.2212   1.2309   1.2357   1.2374   1.2387
     1.2395   1.2439   1.2554   1.2560   1.2700   1.2702   1.2704   1.2706
     1.2784   1.2788   1.2801   1.2802   1.2851   1.2856   1.2862   1.2862
     1.3456   1.3522   1.3523   1.3528   1.3530   1.3537   1.3538   1.3545
     1.3546   1.3592   1.3618   1.3638   1.3666   1.3701   1.3711   1.3713
     1.3749   1.3769   1.3809   1.3811   1.3839   1.3853   1.3861   1.3870
     1.3925   1.3932   1.3940   1.3943   1.3986   1.4008   1.4032   1.4042
     1.4143   1.4147   1.4149   1.4152   1.4473   1.4477   1.4478   1.4479
     1.4603   1.4617   1.4630   1.4632   1.4746   1.4762   1.4784   1.4786
     1.4973   1.4990   1.4999   1.5004   1.5387   1.5451   1.5494   1.5514
     1.5723   1.5724   1.5730   1.5730   1.6010   1.6019   1.6034   1.6039
     1.6058   1.6077   1.6087   1.6091   1.6147   1.6149   1.6154   1.6156
     1.8319   1.8336   1.8339   1.8345   2.3277   2.3364   2.3420   2.3426
     2.5550   2.5566   2.5587   2.5587   2.7860   2.7913   2.7928   2.7934
     3.0766   3.0861   3.0873   3.0886   3.4487   3.4519   3.4521   3.4523
     3.6314   3.6376   3.6406   3.6411   3.8981   3.9276   3.9278   3.9278
     3.9943   4.2242   4.2251   4.2260   4.2329   4.3156   4.3278   4.3362
     4.3382   4.5110   4.5513   4.5554   4.5588   4.5639   4.5902   4.5959
     4.6638   4.7916   4.8381   4.8868   4.8954   5.0080   5.0348   5.0700
     5.1617   5.1671   5.1702   5.1716   5.2061   5.2524   5.2960   5.3018
     5.3197   5.3374   5.3458   5.3488   5.5176   5.5942   5.7319   5.7352
     5.7451   5.7458   5.7482   5.7491   5.8436   5.8585   5.8835   5.8846
     6.7813   6.7830   6.7838   6.7844   7.1036   7.1151   7.1209   7.1228
     7.1434   7.1487   7.1499   7.1515   7.2543   7.2660   7.2672   7.2728
     7.3610   7.3653   7.3660   7.3664   7.5273   7.6007   7.6051   7.6097
     7.6556   7.8938   7.9506   7.9566   7.9772   7.9788   7.9866   7.9971
     8.2202   8.2378   8.2398   8.2429   8.2456   8.2832   8.3589   8.3642
     8.8867   8.8894   8.8902   8.8912   8.9209   8.9218   8.9234   8.9246
     8.9624   8.9645   8.9658   8.9666   9.1062   9.1101   9.1180   9.1184
     9.3057   9.3241   9.3375   9.3438   9.5145   9.5214   9.5385   9.5392
     9.5614   9.5642   9.5697   9.5725   9.9261   9.9376   9.9685

     the Fermi energy is     3.3208 ev

!    total energy              =  -12707.14317697 Ry
     Harris-Foulkes estimate   =  -12707.14317701 Ry
     estimated scf accuracy    <          7.6E-09 Ry

     The total energy is the sum of the following terms:

     one-electron contribution = -109279.33132789 Ry
     hartree contribution      =   56001.08260088 Ry
     xc contribution           =   -4447.77506114 Ry
     ewald contribution        =   45025.22364109 Ry
     Dispersion Correction     =      -2.98768623 Ry
     smearing contrib. (-TS)   =      -3.35534368 Ry

     convergence has been achieved in  47 iterations

     Writing output data file gc.save
 
     init_run     :     98.18s CPU    105.60s WALL (       1 calls)
     electrons    :  12389.73s CPU  13249.34s WALL (       1 calls)

     Called by init_run:
     wfcinit      :     95.91s CPU    102.89s WALL (       1 calls)
     potinit      :      0.34s CPU      0.37s WALL (       1 calls)

     Called by electrons:
     c_bands      :  11355.95s CPU  12114.26s WALL (      47 calls)
     sum_band     :    857.02s CPU    929.93s WALL (      47 calls)
     v_of_rho     :      3.04s CPU      3.69s WALL (      48 calls)
     newd         :      8.05s CPU     13.98s WALL (      48 calls)
     mix_rho      :    165.54s CPU    187.38s WALL (      47 calls)

     Called by c_bands:
     init_us_2    :     38.14s CPU     39.16s WALL (     570 calls)
     cegterg      :  11188.82s CPU  11936.47s WALL (     288 calls)

     Called by sum_band:
     sum_band:bec :      5.04s CPU      5.58s WALL (     282 calls)
     addusdens    :      8.18s CPU     13.90s WALL (      47 calls)

     Called by *egterg:
     h_psi        :   4174.21s CPU   4501.86s WALL (    1904 calls)
     s_psi        :   1017.24s CPU   1029.58s WALL (    1904 calls)
     g_psi        :     10.51s CPU     10.54s WALL (    1610 calls)
     cdiaghg      :   3061.15s CPU   3184.07s WALL (    1892 calls)

     Called by h_psi:
     add_vuspsi   :   1021.57s CPU   1035.53s WALL (    1904 calls)

     General routines
     calbec       :   1452.27s CPU   1463.84s WALL (    2186 calls)
     fft          :      3.35s CPU      4.03s WALL (     623 calls)
     ffts         :     97.13s CPU    109.70s WALL (   25652 calls)
     fftw         :   2386.01s CPU   2649.24s WALL ( 1347998 calls)
     davcio       :      0.25s CPU      3.75s WALL (       6 calls)
 
     Parallel routines
     fft_scatter  :   1524.43s CPU   1667.84s WALL ( 1374273 calls)
 
     PWSCF        :     3h28m CPU        3h42m WALL

 
   This run was terminated on:   3:49:32   8Sep2017            

=------------------------------------------------------------------------------=
   JOB DONE.
=------------------------------------------------------------------------------=
