mpirun: INFO: switching to OpenMPI runtime version 1.10.2

     Program PWSCF v.5.4.0 starts on  2Feb2018 at  2: 2:53 

     This program is part of the open-source Quantum ESPRESSO suite
     for quantum simulation of materials; please cite
         "P. Giannozzi et al., J. Phys.:Condens. Matter 21 395502 (2009);
          URL http://www.quantum-espresso.org", 
     in publications or presentations arising from this work. More details at
     http://www.quantum-espresso.org/quote

     Parallel version (MPI & OpenMP), running on      28 processor cores
     Number of MPI processes:                28
     Threads/MPI process:                     1
     R & G space division:  proc/nbgrp/npool/nimage =      28
     Waiting for input...
     Reading input from standard input
Warning: card &IONS ignored
Warning: card / ignored

     Current dimensions of program PWSCF are:
     Max number of different atomic species (ntypx) = 10
     Max number of k-points (npk) =  40000
     Max angular momentum in pseudopotentials (lmaxx) =  3
     WARNING: atomic wfc #  2 for atom type 4 has zero norm
     WARNING: atomic wfc #  4 for atom type 4 has zero norm
     WARNING: atomic wfc #  5 for atom type 4 has zero norm

     -------------------------------------
     Parameters for Dispersion Correction:
     -------------------------------------
       atom      VdW radius       C_6     

        Cu         2.952        374.666
        C_h        2.744         60.710
        C          2.744         60.710
        O          2.536         24.284

     Subspace diagonalization in iterative solution of the eigenvalue problem:
     one sub-group per band group will be used
     scalapack distributed-memory algorithm (size of sub-group:  3*  3 procs)

 
     Parallelization info
     --------------------
     sticks:   dense  smooth     PW     G-vecs:    dense   smooth      PW
     Min         408     408    108                73226    73226    9928
     Max         410     410    109                73231    73231    9931
     Sum       11433   11433   3039              2050409  2050409  278033
 


     bravais-lattice index     =            0
     lattice parameter (alat)  =      13.9425  a.u.
     unit-cell volume          =   21209.0878 (a.u.)^3
     number of atoms/cell      =          150
     number of atomic types    =            4
     number of electrons       =      1302.00
     number of Kohn-Sham states=          781
     kinetic-energy cutoff     =      80.0000  Ry
     charge density cutoff     =     320.0000  Ry
     convergence threshold     =      1.0E-08
     mixing beta               =       0.7000
     number of iterations used =            8  local-TF  mixing
     Exchange-correlation      =  SLA  PW   PBX  PBC ( 1  4  3  4 0 0)

     celldm(1)=  13.942539  celldm(2)=   0.000000  celldm(3)=   0.000000
     celldm(4)=   0.000000  celldm(5)=   0.000000  celldm(6)=   0.000000

     crystal axes: (cart. coord. in units of alat)
               a(1) = (   1.000000   0.000000   0.000000 )  
               a(2) = (   0.000000   2.309401   0.000000 )  
               a(3) = (   0.000000   0.000000   3.388418 )  

     reciprocal axes: (cart. coord. in units 2 pi/alat)
               b(1) = (  1.000000  0.000000  0.000000 )  
               b(2) = (  0.000000  0.433013  0.000000 )  
               b(3) = (  0.000000  0.000000  0.295123 )  


     PseudoPot. # 1 for Cu read from file:
     /home/549/hxw549/Short/pseudopotentials/Cu.pbe-n-van_ak.UPF
     MD5 check sum: 601f7c30f7467666bec936e0661ce3e1
     Pseudo is Ultrasoft + core correction, Zval = 11.0
     Generated by new atomic code, or converted to UPF format
     Using radial grid of  867 points,  6 beta functions with: 
                l(1) =   0
                l(2) =   0
                l(3) =   1
                l(4) =   1
                l(5) =   2
                l(6) =   2
     Q(r) pseudized with  8 coefficients,  rinner =    1.400   1.400   1.400
                                                       1.400   1.400

     PseudoPot. # 2 for C  read from file:
     /home/549/hxw549/Short/pseudopotentials/C.star1s-pbe-mt_gipaw.UPF
     MD5 check sum: ef0cb3dee31bd9e4ba2a832a2c716264
     Pseudo is Norm-conserving, Zval =  5.0
     Generated by new atomic code, or converted to UPF format
     Using radial grid of 1073 points,  1 beta functions with: 
                l(1) =   0

     PseudoPot. # 3 for C  read from file:
     /home/549/hxw549/Short/pseudopotentials/C.pbe-mt_gipaw.UPF
     MD5 check sum: 5ac2f21f2c440b14befe521540822c15
     Pseudo is Norm-conserving, Zval =  4.0
     Generated by new atomic code, or converted to UPF format
     Using radial grid of 1073 points,  1 beta functions with: 
                l(1) =   0

     PseudoPot. # 4 for O  read from file:
     /home/549/hxw549/Short/pseudopotentials/O.pbe-van_gipaw.UPF
     MD5 check sum: 5ce2a047509d4f331db576c963e74b29
     Pseudo is Ultrasoft, Zval =  6.0
     Generated by new atomic code, or converted to UPF format
     Using radial grid of 1095 points,  4 beta functions with: 
                l(1) =   0
                l(2) =   0
                l(3) =   1
                l(4) =   1
     Q(r) pseudized with 0 coefficients 


     atomic species   valence    mass     pseudopotential
        Cu            11.00    63.54600     Cu( 1.00)
        C_h            5.00    12.01070     C ( 1.00)
        C              4.00    12.01070     C ( 1.00)
        O              6.00    15.99940     O ( 1.00)

     No symmetry found



   Cartesian axes

     site n.     atom                  positions (alat units)
         1           Cu  tau(   1) = (   0.0007746  -0.0017263   0.9974341  )
         2           Cu  tau(   2) = (   0.2507737   0.2258138   0.9973260  )
         3           Cu  tau(   3) = (   0.5008760  -0.0022365   0.9966779  )
         4           Cu  tau(   4) = (   0.7508471   0.2263841   0.9980016  )
         5           Cu  tau(   5) = (   0.0008392   0.4565406   0.9985792  )
         6           Cu  tau(   6) = (   0.2509427   0.6897855   0.9999657  )
         7           Cu  tau(   7) = (   0.5008379   0.4568514   0.9990575  )
         8           Cu  tau(   8) = (   0.7507194   0.6897031   0.9999838  )
         9           Cu  tau(   9) = (   0.0006685   0.9241902   1.0001491  )
        10           Cu  tau(  10) = (   0.2508199   1.1585893   0.9994315  )
        11           Cu  tau(  11) = (   0.5008540   0.9240586   1.0006399  )
        12           Cu  tau(  12) = (   0.7507433   1.1584370   0.9997064  )
        13           Cu  tau(  13) = (   0.0007724   1.3915619   0.9981007  )
        14           Cu  tau(  14) = (   0.2507485   1.6225299   0.9965829  )
        15           Cu  tau(  15) = (   0.5008122   1.3916616   0.9979961  )
        16           Cu  tau(  16) = (   0.7508119   1.6227756   0.9965609  )
        17           Cu  tau(  17) = (   0.0009883   1.8518082   0.9959401  )
        18           Cu  tau(  18) = (   0.2507237   2.0803995   0.9968330  )
        19           Cu  tau(  19) = (   0.5006394   1.8518782   0.9959625  )
        20           Cu  tau(  20) = (   0.7509541   2.0796587   0.9956860  )
        21           Cu  tau(  21) = (   0.0010190   0.2258085   1.2493909  )
        22           Cu  tau(  22) = (   0.2504775  -0.0015663   1.2511192  )
        23           Cu  tau(  23) = (   0.5007592   0.2244625   1.2474139  )
        24           Cu  tau(  24) = (   0.7511204  -0.0032534   1.2489893  )
        25           Cu  tau(  25) = (   0.0011318   0.6883266   1.2442935  )
        26           Cu  tau(  26) = (   0.2506634   0.4550101   1.2457739  )
        27           Cu  tau(  27) = (   0.5010434   0.6889459   1.2455869  )
        28           Cu  tau(  28) = (   0.7513247   0.4551755   1.2463317  )
        29           Cu  tau(  29) = (   0.0009417   1.1597158   1.2443880  )
        30           Cu  tau(  30) = (   0.2512312   0.9241298   1.2444880  )
        31           Cu  tau(  31) = (   0.5007499   1.1593901   1.2450686  )
        32           Cu  tau(  32) = (   0.7508296   0.9240397   1.2450130  )
        33           Cu  tau(  33) = (   0.0007793   1.6243336   1.2463775  )
        34           Cu  tau(  34) = (   0.2504282   1.3930798   1.2451551  )
        35           Cu  tau(  35) = (   0.5008090   1.6252398   1.2451280  )
        36           Cu  tau(  36) = (   0.7512192   1.3936504   1.2446248  )
        37           Cu  tau(  37) = (   0.0010877   2.0797516   1.2492188  )
        38           Cu  tau(  38) = (   0.2507223   1.8528469   1.2475014  )
        39           Cu  tau(  39) = (   0.5004398   2.0799192   1.2488390  )
        40           Cu  tau(  40) = (   0.7508180   1.8531203   1.2475507  )
        41           Cu  tau(  41) = (   0.0016658  -0.0022985   1.5045196  )
        42           Cu  tau(  42) = (   0.2503972   0.2291600   1.5050437  )
        43           Cu  tau(  43) = (   0.5000117  -0.0022562   1.5036487  )
        44           Cu  tau(  44) = (   0.7517889   0.2249026   1.5000298  )
        45           Cu  tau(  45) = (   0.0021806   0.4573907   1.4979107  )
        46           Cu  tau(  46) = (   0.2515336   0.6876551   1.4914913  )
        47           Cu  tau(  47) = (   0.5009200   0.4538841   1.4935295  )
        48           Cu  tau(  48) = (   0.7528141   0.6875879   1.4907110  )
        49           Cu  tau(  49) = (   0.0033450   0.9232828   1.4888842  )
        50           Cu  tau(  50) = (   0.2503503   1.1598614   1.4909692  )
        51           Cu  tau(  51) = (   0.5011269   0.9241898   1.4909779  )
        52           Cu  tau(  52) = (   0.7519249   1.1613568   1.4891627  )
        53           Cu  tau(  53) = (   0.0011131   1.3942307   1.4938872  )
        54           Cu  tau(  54) = (   0.2503927   1.6255964   1.4976503  )
        55           Cu  tau(  55) = (   0.5006234   1.3972544   1.4901219  )
        56           Cu  tau(  56) = (   0.7512735   1.6255407   1.4977139  )
        57           Cu  tau(  57) = (   0.0005637   1.8528289   1.5024635  )
        58           Cu  tau(  58) = (   0.2506219   2.0792198   1.5045906  )
        59           Cu  tau(  59) = (   0.5009250   1.8529925   1.5021785  )
        60           Cu  tau(  60) = (   0.7508082   2.0800280   1.5044375  )
        61           Cu  tau(  61) = (   0.0038475   0.2303557   1.7544175  )
        62           Cu  tau(  62) = (   0.2510972  -0.0016110   1.7589938  )
        63           Cu  tau(  63) = (   0.4999193   0.2298937   1.7528921  )
        64           Cu  tau(  64) = (   0.7511849   0.0002495   1.7583826  )
        65           Cu  tau(  65) = (   0.0060098   0.6915091   1.7456589  )
        66           Cu  tau(  66) = (   0.2526343   0.4668484   1.7573948  )
        67           Cu  tau(  67) = (   0.5044723   0.6882987   1.7340652  )
        68           Cu  tau(  68) = (   0.7534858   0.4575929   1.7448602  )
        69           Cu  tau(  69) = (   0.0030806   1.1601133   1.7386452  )
        70           Cu  tau(  70) = (   0.2518379   0.9215057   1.7366438  )
        71           Cu  tau(  71) = (   0.5015939   1.1634386   1.7317629  )
        72           Cu  tau(  72) = (   0.7569360   0.9256709   1.7318463  )
        73           Cu  tau(  73) = (   0.0006284   1.6228987   1.7514313  )
        74           Cu  tau(  74) = (   0.2495296   1.3943295   1.7430802  )
        75           Cu  tau(  75) = (   0.5008934   1.6219922   1.7510664  )
        76           Cu  tau(  76) = (   0.7524006   1.3939441   1.7423004  )
        77           Cu  tau(  77) = (   0.0004462   2.0792281   1.7605390  )
        78           Cu  tau(  78) = (   0.2505914   1.8507081   1.7580746  )
        79           Cu  tau(  79) = (   0.5012530   2.0794473   1.7601117  )
        80           Cu  tau(  80) = (   0.7509891   1.8507123   1.7576061  )
        81           Cu  tau(  81) = (   0.0008286   0.0033963   2.0092933  )
        82           Cu  tau(  82) = (   0.2531685   0.2321805   2.0065704  )
        83           Cu  tau(  83) = (   0.5029616   0.0032808   2.0095555  )
        84           Cu  tau(  84) = (   0.7539833   0.2369850   2.0035455  )
        85           Cu  tau(  85) = (   0.0065270   0.4656567   2.0017021  )
        86           Cu  tau(  86) = (   0.2464865   0.6933756   2.0151552  )
        87           Cu  tau(  87) = (   0.5030727   0.4630537   1.9968478  )
        88           Cu  tau(  88) = (   0.7554598   0.6904527   1.9839067  )
        89           Cu  tau(  89) = (  -0.0046798   0.9283144   1.9874394  )
        90           Cu  tau(  90) = (   0.2487659   1.1590837   1.9772863  )
        91           Cu  tau(  91) = (   0.5151132   0.9293281   1.9559442  )
        92           Cu  tau(  92) = (   0.7550174   1.1625438   1.9831995  )
        93           Cu  tau(  93) = (   0.0028197   1.3884207   1.9964466  )
        94           Cu  tau(  94) = (   0.2520994   1.6161203   2.0043589  )
        95           Cu  tau(  95) = (   0.5000456   1.3851001   1.9926923  )
        96           Cu  tau(  96) = (   0.7493302   1.6156245   2.0040319  )
        97           Cu  tau(  97) = (   0.0005987   1.8456515   2.0105564  )
        98           Cu  tau(  98) = (   0.2507723   2.0792808   2.0122620  )
        99           Cu  tau(  99) = (   0.5009208   1.8468742   2.0092992  )
       100           Cu  tau( 100) = (   0.7514130   2.0792294   2.0116684  )
       101           C   tau( 101) = (   0.0000041   0.1004607   2.4706174  )
       102           C   tau( 102) = (   0.0000464   0.2911966   2.5077514  )
       103           C   tau( 103) = (   0.1667510   0.0039812   2.4555312  )
       104           C   tau( 104) = (   0.1667002   0.3869974   2.5272644  )
       105           C   tau( 105) = (   0.3333424   0.1007420   2.4699883  )
       106           C   tau( 106) = (   0.3334363   0.2919992   2.5051734  )
       107           C   tau( 107) = (   0.5000066   0.0039836   2.4560683  )
       108           C   tau( 108) = (   0.4999469   0.3882212   2.5232037  )
       109           C   tau( 109) = (   0.6666958   0.1005847   2.4714172  )
       110           C   tau( 110) = (   0.6665358   0.2920099   2.5054082  )
       111           C   tau( 111) = (   0.8332310   0.0038601   2.4560699  )
       112           C   tau( 112) = (   0.8332509   0.3869252   2.5270840  )
       113           C   tau( 113) = (  -0.0001934   0.6737688   2.5777695  )
       114           C   tau( 114) = (  -0.0001856   0.8672651   2.5944491  )
       115           C   tau( 115) = (   0.1667594   0.5776866   2.5647008  )
       116           C   tau( 116) = (   0.1666435   0.9646073   2.6006922  )
       117           C   tau( 117) = (   0.3331110   0.6740993   2.5851705  )
       118           C   tau( 118) = (   0.3329710   0.8670446   2.6096596  )
       119           C   tau( 119) = (   0.4997466   0.5783682   2.5647021  )
       120           C_h tau( 120) = (   0.4999838   0.9653277   2.6122075  )
       121           C   tau( 121) = (   0.6664953   0.6742678   2.5820520  )
       122           C   tau( 122) = (   0.6663998   0.8673954   2.6037964  )
       123           C   tau( 123) = (   0.8331008   0.5776885   2.5641855  )
       124           C   tau( 124) = (   0.8332477   0.9647019   2.5973254  )
       125           C   tau( 125) = (   0.0000710   1.2537597   2.5618756  )
       126           C   tau( 126) = (   0.0001158   1.4445822   2.5252882  )
       127           C   tau( 127) = (   0.1668448   1.1579586   2.5811571  )
       128           C   tau( 128) = (   0.1667803   1.5400959   2.5059542  )
       129           C   tau( 129) = (   0.3335356   1.2546126   2.5695193  )
       130           C   tau( 130) = (   0.3335027   1.4444043   2.5269442  )
       131           C   tau( 131) = (   0.5000824   1.1587316   2.5904068  )
       132           C   tau( 132) = (   0.5000760   1.5393962   2.5038670  )
       133           C   tau( 133) = (   0.6665019   1.2546303   2.5687975  )
       134           C   tau( 134) = (   0.6665495   1.4443316   2.5269178  )
       135           C   tau( 135) = (   0.8334671   1.1581306   2.5807843  )
       136           C   tau( 136) = (   0.8333255   1.5402118   2.5066151  )
       137           C   tau( 137) = (   0.0000004   1.8277352   2.4539580  )
       138           C   tau( 138) = (  -0.0000015   2.0216453   2.4380816  )
       139           C   tau( 139) = (   0.1667979   1.7311224   2.4699837  )
       140           C   tau( 140) = (   0.1667608   2.1194820   2.4391038  )
       141           C   tau( 141) = (   0.3334638   1.8277274   2.4563194  )
       142           C   tau( 142) = (   0.3334790   2.0215976   2.4405198  )
       143           C   tau( 143) = (   0.4999842   1.7306087   2.4686680  )
       144           C   tau( 144) = (   0.5000116   2.1195299   2.4408306  )
       145           C   tau( 145) = (   0.6666293   1.8276257   2.4559927  )
       146           C   tau( 146) = (   0.6665863   2.0215855   2.4403438  )
       147           C   tau( 147) = (   0.8331931   1.7310805   2.4699489  )
       148           C   tau( 148) = (   0.8332380   2.1195278   2.4386194  )
       149           C   tau( 149) = (   0.3726381   0.8371666   2.1777400  )
       150           O   tau( 150) = (   0.4493068   0.9396855   2.2775618  )

     number of k points=     6  gaussian smearing, width (Ry)=  0.1000
                       cart. coord. in units 2pi/alat
        k(    1) = (   0.0000000   0.0000000   0.0000000), wk =   0.2500000
        k(    2) = (   0.0000000  -0.2165064   0.0000000), wk =   0.2500000
        k(    3) = (   0.2500000   0.0000000   0.0000000), wk =   0.5000000
        k(    4) = (   0.2500000  -0.2165064   0.0000000), wk =   0.5000000
        k(    5) = (  -0.5000000   0.0000000   0.0000000), wk =   0.2500000
        k(    6) = (  -0.5000000  -0.2165064   0.0000000), wk =   0.2500000

     Dense  grid:  2050409 G-vectors     FFT dimensions: (  80, 192, 270)

     Largest allocated arrays     est. size (Mb)     dimensions
        Kohn-Sham Wavefunctions       109.29 Mb     (    9171,  781)
        NL pseudopotentials           259.87 Mb     (    9171, 1857)
        Each V/rho on FFT grid          2.34 Mb     (  153600)
        Each G-vector array             0.56 Mb     (   73230)
        G-vector shells                 0.27 Mb     (   35784)
     Largest temporary arrays     est. size (Mb)     dimensions
        Auxiliary wavefunctions       437.17 Mb     (    9171, 3124)
        Each subspace H/S matrix       16.54 Mb     (    1041, 1041)
        Each <psi_i|beta_j> matrix     22.13 Mb     (    1857,  781)
        Arrays for rho mixing          18.75 Mb     (  153600,    8)

     Initial potential from superposition of free atoms
     Check: negative starting charge=   -0.001516

     starting charge 1276.31751, renormalised to 1302.00000

     negative rho (up, down):  1.546E-03 0.000E+00
     Starting wfc are 1296 randomized atomic wfcs

     total cpu time spent up to now is      199.8 secs

     Self-consistent Calculation

     iteration #  1     ecut=    80.00 Ry     beta=0.70
     Davidson diagonalization with overlap
     c_bands:  4 eigenvalues not converged
     c_bands:  3 eigenvalues not converged
     c_bands:  4 eigenvalues not converged
     c_bands:  2 eigenvalues not converged
     ethr =  1.00E-04,  avg # of iterations = 43.0

     negative rho (up, down):  2.524E+01 0.000E+00

     total cpu time spent up to now is     4741.9 secs

     total energy              =   -9990.29200615 Ry
     Harris-Foulkes estimate   =  -18269.54295554 Ry
     estimated scf accuracy    <  211451.10236969 Ry

     iteration #  2     ecut=    80.00 Ry     beta=0.70
     Davidson diagonalization with overlap
     ethr =  1.00E-02,  avg # of iterations = 13.7

     negative rho (up, down):  3.333E+01 0.000E+00

     total cpu time spent up to now is     6761.1 secs

     total energy              =  -11876.20340965 Ry
     Harris-Foulkes estimate   =  -13824.93489795 Ry
     estimated scf accuracy    <   36442.93018433 Ry

     iteration #  3     ecut=    80.00 Ry     beta=0.70
     Davidson diagonalization with overlap
     ethr =  1.00E-02,  avg # of iterations = 19.5

     negative rho (up, down):  3.153E+01 0.000E+00

     total cpu time spent up to now is     8714.4 secs

     total energy              =  -12132.12568719 Ry
     Harris-Foulkes estimate   =  -13736.68324659 Ry
     estimated scf accuracy    <    6763.59791142 Ry

     iteration #  4     ecut=    80.00 Ry     beta=0.70
     Davidson diagonalization with overlap
     ethr =  1.00E-02,  avg # of iterations =  4.0

     negative rho (up, down):  2.190E+01 0.000E+00

     total cpu time spent up to now is     9685.3 secs

     total energy              =  -12885.23613517 Ry
     Harris-Foulkes estimate   =  -13097.98299084 Ry
     estimated scf accuracy    <     913.38761699 Ry

     iteration #  5     ecut=    80.00 Ry     beta=0.70
     Davidson diagonalization with overlap
     ethr =  1.00E-02,  avg # of iterations =  3.0

     negative rho (up, down):  1.784E+01 0.000E+00

     total cpu time spent up to now is    10172.6 secs

     total energy              =  -12880.29014886 Ry
     Harris-Foulkes estimate   =  -12941.72354580 Ry
     estimated scf accuracy    <    1248.49414791 Ry

     iteration #  6     ecut=    80.00 Ry     beta=0.70
     Davidson diagonalization with overlap
     ethr =  1.00E-02,  avg # of iterations =  1.3

     negative rho (up, down):  1.295E+01 0.000E+00

     total cpu time spent up to now is    10498.2 secs

     total energy              =  -12850.59580476 Ry
     Harris-Foulkes estimate   =  -12909.68310847 Ry
     estimated scf accuracy    <     579.65128882 Ry

     iteration #  7     ecut=    80.00 Ry     beta=0.70
     Davidson diagonalization with overlap
     ethr =  1.00E-02,  avg # of iterations =  2.0

     negative rho (up, down):  8.135E+00 0.000E+00

     total cpu time spent up to now is    10850.0 secs

     total energy              =  -12825.49904018 Ry
     Harris-Foulkes estimate   =  -12874.15582231 Ry
     estimated scf accuracy    <     423.05605625 Ry

     iteration #  8     ecut=    80.00 Ry     beta=0.70
     Davidson diagonalization with overlap
     ethr =  1.00E-02,  avg # of iterations =  2.0

     negative rho (up, down):  6.327E+00 0.000E+00

     total cpu time spent up to now is    11193.0 secs

     total energy              =  -12821.96696353 Ry
     Harris-Foulkes estimate   =  -12840.72101783 Ry
     estimated scf accuracy    <     250.09011071 Ry

     iteration #  9     ecut=    80.00 Ry     beta=0.70
     Davidson diagonalization with overlap
     ethr =  1.00E-02,  avg # of iterations =  1.0

     negative rho (up, down):  3.246E+00 0.000E+00

     total cpu time spent up to now is    11510.5 secs

     total energy              =  -12796.74842786 Ry
     Harris-Foulkes estimate   =  -12824.03145830 Ry
     estimated scf accuracy    <     184.92145167 Ry

     iteration # 10     ecut=    80.00 Ry     beta=0.70
     Davidson diagonalization with overlap
     ethr =  1.00E-02,  avg # of iterations =  1.0

     negative rho (up, down):  1.078E+00 0.000E+00

     total cpu time spent up to now is    11828.5 secs

     total energy              =  -12768.31906509 Ry
     Harris-Foulkes estimate   =  -12801.98707220 Ry
     estimated scf accuracy    <     262.72226565 Ry

     iteration # 11     ecut=    80.00 Ry     beta=0.70
     Davidson diagonalization with overlap
     ethr =  1.00E-02,  avg # of iterations =  2.5

     negative rho (up, down):  9.811E-01 0.000E+00

     total cpu time spent up to now is    12182.9 secs

     total energy              =  -12767.76621589 Ry
     Harris-Foulkes estimate   =  -12786.81866738 Ry
     estimated scf accuracy    <     552.16446777 Ry

     iteration # 12     ecut=    80.00 Ry     beta=0.70
     Davidson diagonalization with overlap
     ethr =  1.00E-02,  avg # of iterations =  1.3

     negative rho (up, down):  7.899E-01 0.000E+00

     total cpu time spent up to now is    12510.3 secs

     total energy              =  -12763.04818665 Ry
     Harris-Foulkes estimate   =  -12774.02180478 Ry
     estimated scf accuracy    <      80.82600337 Ry

     iteration # 13     ecut=    80.00 Ry     beta=0.70
     Davidson diagonalization with overlap
     ethr =  6.21E-03,  avg # of iterations =  2.0

     negative rho (up, down):  2.052E+00 0.000E+00

     total cpu time spent up to now is    12854.2 secs

     total energy              =  -12758.66294324 Ry
     Harris-Foulkes estimate   =  -12770.87632299 Ry
     estimated scf accuracy    <      95.65122017 Ry

     iteration # 14     ecut=    80.00 Ry     beta=0.70
     Davidson diagonalization with overlap
     ethr =  6.21E-03,  avg # of iterations =  2.0

     negative rho (up, down):  2.057E+00 0.000E+00

     total cpu time spent up to now is    13195.1 secs

     total energy              =  -12759.62129763 Ry
     Harris-Foulkes estimate   =  -12763.83359177 Ry
     estimated scf accuracy    <      37.01246843 Ry

     iteration # 15     ecut=    80.00 Ry     beta=0.70
     Davidson diagonalization with overlap
     ethr =  2.84E-03,  avg # of iterations =  2.2

     negative rho (up, down):  4.220E+00 0.000E+00

     total cpu time spent up to now is    13538.6 secs

     total energy              =  -12756.48185873 Ry
     Harris-Foulkes estimate   =  -12761.45322218 Ry
     estimated scf accuracy    <      21.96134607 Ry

     iteration # 16     ecut=    80.00 Ry     beta=0.70
     Davidson diagonalization with overlap
     ethr =  1.69E-03,  avg # of iterations =  2.5

     negative rho (up, down):  5.499E+00 0.000E+00

     total cpu time spent up to now is    13890.9 secs

     total energy              =  -12756.03575572 Ry
     Harris-Foulkes estimate   =  -12757.63706192 Ry
     estimated scf accuracy    <      12.54733133 Ry

     iteration # 17     ecut=    80.00 Ry     beta=0.70
     Davidson diagonalization with overlap
     ethr =  9.64E-04,  avg # of iterations =  6.5

     negative rho (up, down):  4.440E+00 0.000E+00

     total cpu time spent up to now is    14341.8 secs

     total energy              =  -12755.39559823 Ry
     Harris-Foulkes estimate   =  -12756.58048451 Ry
     estimated scf accuracy    <       8.40771982 Ry

     iteration # 18     ecut=    80.00 Ry     beta=0.70
     Davidson diagonalization with overlap
     ethr =  6.46E-04,  avg # of iterations =  2.0

     negative rho (up, down):  2.245E+00 0.000E+00

     total cpu time spent up to now is    14682.0 secs

     total energy              =  -12753.90484184 Ry
     Harris-Foulkes estimate   =  -12755.56342789 Ry
     estimated scf accuracy    <       7.34755899 Ry

     iteration # 19     ecut=    80.00 Ry     beta=0.70
     Davidson diagonalization with overlap
     ethr =  5.64E-04,  avg # of iterations =  1.5

     negative rho (up, down):  1.813E+00 0.000E+00

     total cpu time spent up to now is    15014.2 secs

     total energy              =  -12753.54735845 Ry
     Harris-Foulkes estimate   =  -12754.10831433 Ry
     estimated scf accuracy    <       8.29497799 Ry

     iteration # 20     ecut=    80.00 Ry     beta=0.70
     Davidson diagonalization with overlap
     ethr =  5.64E-04,  avg # of iterations =  1.0

     negative rho (up, down):  1.897E+00 0.000E+00

     total cpu time spent up to now is    15331.3 secs

     total energy              =  -12752.35609769 Ry
     Harris-Foulkes estimate   =  -12753.63494208 Ry
     estimated scf accuracy    <       6.40781590 Ry

     iteration # 21     ecut=    80.00 Ry     beta=0.70
     Davidson diagonalization with overlap
     ethr =  4.92E-04,  avg # of iterations =  8.3

     negative rho (up, down):  7.496E-01 0.000E+00

     total cpu time spent up to now is    15826.3 secs

     total energy              =  -12751.65905372 Ry
     Harris-Foulkes estimate   =  -12752.72718346 Ry
     estimated scf accuracy    <      12.16223545 Ry

     iteration # 22     ecut=    80.00 Ry     beta=0.70
     Davidson diagonalization with overlap
     ethr =  4.92E-04,  avg # of iterations =  9.2

     negative rho (up, down):  1.414E+00 0.000E+00

     total cpu time spent up to now is    16322.1 secs

     total energy              =  -12752.15765964 Ry
     Harris-Foulkes estimate   =  -12752.11048991 Ry
     estimated scf accuracy    <       6.52763153 Ry

     iteration # 23     ecut=    80.00 Ry     beta=0.70
     Davidson diagonalization with overlap
     ethr =  4.92E-04,  avg # of iterations =  2.5

     negative rho (up, down):  2.387E-01 0.000E+00

     total cpu time spent up to now is    16676.9 secs

     total energy              =  -12750.87382954 Ry
     Harris-Foulkes estimate   =  -12752.69221885 Ry
     estimated scf accuracy    <       4.56090716 Ry

     iteration # 24     ecut=    80.00 Ry     beta=0.70
     Davidson diagonalization with overlap
     ethr =  3.50E-04,  avg # of iterations =  4.0

     negative rho (up, down):  5.611E-01 0.000E+00

     total cpu time spent up to now is    17060.4 secs

     total energy              =  -12750.30399620 Ry
     Harris-Foulkes estimate   =  -12750.98204458 Ry
     estimated scf accuracy    <       4.58962072 Ry

     iteration # 25     ecut=    80.00 Ry     beta=0.70
     Davidson diagonalization with overlap
     ethr =  3.50E-04,  avg # of iterations =  5.0

     negative rho (up, down):  7.073E-01 0.000E+00

     total cpu time spent up to now is    17467.1 secs

     total energy              =  -12750.25109017 Ry
     Harris-Foulkes estimate   =  -12750.45758432 Ry
     estimated scf accuracy    <       1.22834493 Ry

     iteration # 26     ecut=    80.00 Ry     beta=0.70
     Davidson diagonalization with overlap
     ethr =  9.43E-05,  avg # of iterations =  7.8

     negative rho (up, down):  4.840E-01 0.000E+00

     total cpu time spent up to now is    17963.6 secs

     total energy              =  -12750.21775750 Ry
     Harris-Foulkes estimate   =  -12750.29483323 Ry
     estimated scf accuracy    <       0.43722078 Ry

     iteration # 27     ecut=    80.00 Ry     beta=0.70
     Davidson diagonalization with overlap
     ethr =  3.36E-05,  avg # of iterations = 10.8

     negative rho (up, down):  4.029E-01 0.000E+00

     total cpu time spent up to now is    18503.7 secs

     total energy              =  -12750.19968468 Ry
     Harris-Foulkes estimate   =  -12750.24317013 Ry
     estimated scf accuracy    <       0.29334990 Ry

     iteration # 28     ecut=    80.00 Ry     beta=0.70
     Davidson diagonalization with overlap
     ethr =  2.25E-05,  avg # of iterations = 10.2

     negative rho (up, down):  2.708E-01 0.000E+00

     total cpu time spent up to now is    19057.9 secs

     total energy              =  -12750.20913412 Ry
     Harris-Foulkes estimate   =  -12750.21620397 Ry
     estimated scf accuracy    <       0.08689679 Ry

     iteration # 29     ecut=    80.00 Ry     beta=0.70
     Davidson diagonalization with overlap
     ethr =  6.67E-06,  avg # of iterations =  8.8

     negative rho (up, down):  2.079E-01 0.000E+00

     total cpu time spent up to now is    19587.9 secs

     total energy              =  -12750.21148340 Ry
     Harris-Foulkes estimate   =  -12750.21551741 Ry
     estimated scf accuracy    <       0.02424313 Ry

     iteration # 30     ecut=    80.00 Ry     beta=0.70
     Davidson diagonalization with overlap
     c_bands:  1 eigenvalues not converged
     c_bands:  4 eigenvalues not converged
     ethr =  1.86E-06,  avg # of iterations = 15.3

     negative rho (up, down):  1.565E-01 0.000E+00

     total cpu time spent up to now is    20262.6 secs

     total energy              =  -12750.21202606 Ry
     Harris-Foulkes estimate   =  -12750.21336947 Ry
     estimated scf accuracy    <       0.01061170 Ry

     iteration # 31     ecut=    80.00 Ry     beta=0.70
     Davidson diagonalization with overlap
     c_bands:  1 eigenvalues not converged
     c_bands:  3 eigenvalues not converged
     ethr =  8.15E-07,  avg # of iterations = 13.3

     negative rho (up, down):  9.461E-02 0.000E+00

     total cpu time spent up to now is    20891.7 secs

     total energy              =  -12750.21084407 Ry
     Harris-Foulkes estimate   =  -12750.21261599 Ry
     estimated scf accuracy    <       0.00575004 Ry

     iteration # 32     ecut=    80.00 Ry     beta=0.70
     Davidson diagonalization with overlap
     ethr =  4.42E-07,  avg # of iterations = 13.7

     negative rho (up, down):  6.548E-02 0.000E+00

     total cpu time spent up to now is    21534.6 secs

     total energy              =  -12750.20976111 Ry
     Harris-Foulkes estimate   =  -12750.21123554 Ry
     estimated scf accuracy    <       0.00392024 Ry

     iteration # 33     ecut=    80.00 Ry     beta=0.70
     Davidson diagonalization with overlap
     c_bands:  1 eigenvalues not converged
     ethr =  3.01E-07,  avg # of iterations = 10.7

     negative rho (up, down):  3.817E-02 0.000E+00

     total cpu time spent up to now is    22119.0 secs

     total energy              =  -12750.20933262 Ry
     Harris-Foulkes estimate   =  -12750.21004104 Ry
     estimated scf accuracy    <       0.00170647 Ry

     iteration # 34     ecut=    80.00 Ry     beta=0.70
     Davidson diagonalization with overlap
     c_bands:  1 eigenvalues not converged
     ethr =  1.31E-07,  avg # of iterations = 12.0

     negative rho (up, down):  1.394E-02 0.000E+00

     total cpu time spent up to now is    22705.3 secs

     total energy              =  -12750.20880992 Ry
     Harris-Foulkes estimate   =  -12750.20939274 Ry
     estimated scf accuracy    <       0.00092825 Ry

     iteration # 35     ecut=    80.00 Ry     beta=0.70
     Davidson diagonalization with overlap
     c_bands:  2 eigenvalues not converged
     ethr =  7.13E-08,  avg # of iterations = 12.5

     negative rho (up, down):  4.924E-03 0.000E+00

     total cpu time spent up to now is    23317.4 secs

     total energy              =  -12750.20861302 Ry
     Harris-Foulkes estimate   =  -12750.20886183 Ry
     estimated scf accuracy    <       0.00040304 Ry

     iteration # 36     ecut=    80.00 Ry     beta=0.70
     Davidson diagonalization with overlap
     ethr =  3.10E-08,  avg # of iterations =  5.7

     negative rho (up, down):  2.108E-03 0.000E+00

     total cpu time spent up to now is    23758.3 secs

     total energy              =  -12750.20859254 Ry
     Harris-Foulkes estimate   =  -12750.20863715 Ry
     estimated scf accuracy    <       0.00008349 Ry

     iteration # 37     ecut=    80.00 Ry     beta=0.70
     Davidson diagonalization with overlap
     ethr =  6.41E-09,  avg # of iterations =  8.0

     negative rho (up, down):  9.747E-04 0.000E+00

     total cpu time spent up to now is    24257.3 secs

     total energy              =  -12750.20860782 Ry
     Harris-Foulkes estimate   =  -12750.20859875 Ry
     estimated scf accuracy    <       0.00003062 Ry

     iteration # 38     ecut=    80.00 Ry     beta=0.70
     Davidson diagonalization with overlap
     ethr =  2.35E-09,  avg # of iterations =  7.0

     negative rho (up, down):  1.631E-03 0.000E+00

     total cpu time spent up to now is    24732.5 secs

     total energy              =  -12750.20862873 Ry
     Harris-Foulkes estimate   =  -12750.20861085 Ry
     estimated scf accuracy    <       0.00001377 Ry

     iteration # 39     ecut=    80.00 Ry     beta=0.70
     Davidson diagonalization with overlap
     ethr =  1.06E-09,  avg # of iterations =  8.8

     negative rho (up, down):  1.572E-03 0.000E+00

     total cpu time spent up to now is    25252.3 secs

     total energy              =  -12750.20863028 Ry
     Harris-Foulkes estimate   =  -12750.20862982 Ry
     estimated scf accuracy    <       0.00000247 Ry

     iteration # 40     ecut=    80.00 Ry     beta=0.70
     Davidson diagonalization with overlap
     ethr =  1.90E-10,  avg # of iterations =  2.8

     negative rho (up, down):  1.635E-03 0.000E+00

     total cpu time spent up to now is    25641.5 secs

     total energy              =  -12750.20863081 Ry
     Harris-Foulkes estimate   =  -12750.20863060 Ry
     estimated scf accuracy    <       0.00000119 Ry

     iteration # 41     ecut=    80.00 Ry     beta=0.70
     Davidson diagonalization with overlap
     ethr =  9.16E-11,  avg # of iterations =  2.0

     negative rho (up, down):  1.685E-03 0.000E+00

     total cpu time spent up to now is    26001.5 secs

     total energy              =  -12750.20863102 Ry
     Harris-Foulkes estimate   =  -12750.20863090 Ry
     estimated scf accuracy    <       0.00000033 Ry

     iteration # 42     ecut=    80.00 Ry     beta=0.70
     Davidson diagonalization with overlap
     ethr =  2.51E-11,  avg # of iterations =  2.2

     negative rho (up, down):  1.716E-03 0.000E+00

     total cpu time spent up to now is    26358.6 secs

     total energy              =  -12750.20863109 Ry
     Harris-Foulkes estimate   =  -12750.20863106 Ry
     estimated scf accuracy    <       0.00000017 Ry

     iteration # 43     ecut=    80.00 Ry     beta=0.70
     Davidson diagonalization with overlap
     ethr =  1.31E-11,  avg # of iterations =  2.8

     negative rho (up, down):  1.682E-03 0.000E+00

     total cpu time spent up to now is    26736.7 secs

     total energy              =  -12750.20863113 Ry
     Harris-Foulkes estimate   =  -12750.20863110 Ry
     estimated scf accuracy    <       0.00000004 Ry

     iteration # 44     ecut=    80.00 Ry     beta=0.70
     Davidson diagonalization with overlap
     ethr =  2.78E-12,  avg # of iterations =  2.8

     negative rho (up, down):  1.682E-03 0.000E+00

     total cpu time spent up to now is    27196.6 secs

     total energy              =  -12750.20863114 Ry
     Harris-Foulkes estimate   =  -12750.20863114 Ry
     estimated scf accuracy    <       0.00000001 Ry

     iteration # 45     ecut=    80.00 Ry     beta=0.70
     Davidson diagonalization with overlap
     ethr =  1.12E-12,  avg # of iterations =  2.3

     negative rho (up, down):  1.686E-03 0.000E+00

     total cpu time spent up to now is    27542.0 secs

     End of self-consistent calculation

          k = 0.0000 0.0000 0.0000 (256287 PWs)   bands (ev):

   -20.3021 -16.8110 -15.8201 -15.6412 -15.0053 -14.6347 -14.3665 -14.2385
   -13.8413 -13.7893 -13.6933 -13.6766 -13.0847 -12.9414 -12.7484 -12.7359
   -12.6819 -12.6772 -11.3297 -11.1573 -11.1229 -11.0190 -10.9318  -9.9411
    -9.4444  -9.4000  -9.2450  -9.1777  -8.5672  -8.3970  -8.2533  -8.1744
    -7.6874  -7.5047  -7.4418  -7.2809  -7.1888  -7.1691  -7.1334  -7.1009
    -6.8880  -6.0146  -6.0048  -5.8809  -5.7690  -5.6601  -5.6040  -5.5631
    -5.5424  -5.5275  -5.3555  -5.3533  -4.9056  -4.7117  -4.5425  -4.5088
    -4.4319  -4.3794  -4.2801  -4.2144  -4.0862  -3.9766  -3.8592  -3.8308
    -3.7499  -3.6921  -3.6050  -3.5773  -3.4287  -3.3025  -3.2870  -3.2730
    -3.2603  -3.2100  -3.0976  -3.0920  -3.0680  -2.9319  -2.8870  -2.8854
    -2.8767  -2.8720  -2.8570  -2.7332  -2.7212  -2.6831  -2.5829  -2.5674
    -2.5458  -2.5117  -2.4783  -2.4505  -2.4366  -2.3894  -2.3700  -2.1839
    -2.1781  -2.1761  -2.1606  -2.1470  -2.0727  -2.0667  -2.0425  -2.0395
    -2.0373  -2.0343  -1.9201  -1.9172  -1.9160  -1.8949  -1.8930  -1.8708
    -1.7582  -1.7501  -1.7423  -1.6673  -1.6379  -1.6358  -1.6272  -1.6237
    -1.6193  -1.6101  -1.5958  -1.5944  -1.5769  -1.5420  -1.5353  -1.5269
    -1.5188  -1.5096  -1.4958  -1.4682  -1.4626  -1.4485  -1.4408  -1.4318
    -1.4266  -1.4189  -1.4099  -1.4063  -1.4006  -1.3561  -1.3338  -1.3264
    -1.3081  -1.2458  -1.2160  -1.1959  -1.1936  -1.1892  -1.1719  -1.1605
    -1.1574  -1.1533  -1.1379  -1.1110  -1.1008  -1.0860  -1.0857  -1.0619
    -1.0510  -0.9801  -0.9676  -0.9600  -0.9560  -0.9520  -0.9442  -0.9367
    -0.9337  -0.9311  -0.9297  -0.9221  -0.9110  -0.9068  -0.9031  -0.8943
    -0.8936  -0.8910  -0.8783  -0.8538  -0.8453  -0.8421  -0.8363  -0.8274
    -0.8180  -0.8162  -0.8150  -0.7877  -0.7698  -0.7642  -0.7586  -0.7544
    -0.7515  -0.7477  -0.7457  -0.7449  -0.7426  -0.7408  -0.7390  -0.7388
    -0.7347  -0.7342  -0.7316  -0.7188  -0.6666  -0.6150  -0.5900  -0.5870
    -0.5814  -0.5797  -0.5733  -0.5712  -0.5606  -0.5449  -0.5360  -0.5316
    -0.5282  -0.5243  -0.5178  -0.5164  -0.5048  -0.4954  -0.4763  -0.4683
    -0.4651  -0.4627  -0.4611  -0.4571  -0.4539  -0.4512  -0.4415  -0.4218
    -0.3977  -0.3908  -0.3835  -0.3762  -0.3605  -0.3544  -0.3466  -0.3377
    -0.3303  -0.3267  -0.3199  -0.3142  -0.3132  -0.3097  -0.3076  -0.3062
    -0.3046  -0.3030  -0.2999  -0.2995  -0.2936  -0.2867  -0.2826  -0.2797
    -0.2670  -0.2518  -0.2386  -0.2349  -0.2186  -0.2131  -0.1985  -0.1925
    -0.1896  -0.1836  -0.1816  -0.1788  -0.1749  -0.1690  -0.1679  -0.1633
    -0.1478  -0.1444  -0.1414  -0.1387  -0.1373  -0.1299  -0.1285  -0.1244
    -0.1207  -0.1145  -0.1083  -0.0986  -0.0949  -0.0929  -0.0848  -0.0841
    -0.0778  -0.0631  -0.0493  -0.0377  -0.0280  -0.0243  -0.0117  -0.0035
     0.0086   0.0112   0.0204   0.0272   0.0312   0.0379   0.0413   0.0438
     0.0485   0.0521   0.0601   0.0778   0.0832   0.0890   0.0954   0.1015
     0.1038   0.1061   0.1154   0.1268   0.1302   0.1356   0.1362   0.1377
     0.1444   0.1479   0.1503   0.1518   0.1581   0.1614   0.1664   0.1688
     0.1837   0.1873   0.1937   0.2017   0.2057   0.2074   0.2342   0.2375
     0.2405   0.2488   0.2552   0.2596   0.2671   0.2890   0.2948   0.2994
     0.3027   0.3111   0.3192   0.3316   0.3373   0.3520   0.3619   0.3687
     0.3735   0.3803   0.3832   0.3955   0.4096   0.4164   0.4233   0.4258
     0.4296   0.4490   0.4527   0.4534   0.4592   0.4695   0.4740   0.4797
     0.4837   0.4952   0.5006   0.5025   0.5139   0.5234   0.5276   0.5316
     0.5406   0.5468   0.5491   0.5570   0.5733   0.5776   0.5802   0.5843
     0.5872   0.5941   0.5992   0.6147   0.6195   0.6205   0.6248   0.6273
     0.6328   0.6374   0.6383   0.6423   0.6454   0.6459   0.6493   0.6543
     0.6592   0.6617   0.6684   0.6748   0.6840   0.6863   0.6941   0.7032
     0.7059   0.7136   0.7178   0.7279   0.7304   0.7335   0.7400   0.7434
     0.7449   0.7593   0.7610   0.7624   0.7663   0.7676   0.7710   0.7756
     0.7779   0.7812   0.7865   0.7919   0.7985   0.8061   0.8091   0.8132
     0.8202   0.8249   0.8254   0.8256   0.8271   0.8350   0.8405   0.8443
     0.8470   0.8536   0.8563   0.8611   0.8804   0.8852   0.8915   0.9001
     0.9074   0.9134   0.9252   0.9285   0.9322   0.9390   0.9419   0.9562
     0.9572   0.9607   0.9658   0.9701   0.9724   0.9795   0.9895   0.9950
     0.9958   1.0007   1.0051   1.0072   1.0121   1.0175   1.0207   1.0225
     1.0283   1.0372   1.0446   1.0555   1.0566   1.0662   1.0734   1.0773
     1.0815   1.0860   1.0924   1.0927   1.0948   1.0975   1.1041   1.1081
     1.1097   1.1132   1.1176   1.1205   1.1250   1.1275   1.1344   1.1366
     1.1435   1.1459   1.1504   1.1517   1.1581   1.1663   1.1752   1.1774
     1.1802   1.1832   1.1838   1.1891   1.1907   1.1942   1.1967   1.2004
     1.2042   1.2079   1.2098   1.2117   1.2151   1.2197   1.2258   1.2352
     1.2390   1.2449   1.2487   1.2503   1.2614   1.2647   1.2708   1.2832
     1.2865   1.2868   1.2929   1.2995   1.3067   1.3128   1.3201   1.3232
     1.3248   1.3287   1.3314   1.3372   1.3382   1.3435   1.3469   1.3520
     1.3555   1.3561   1.3568   1.3606   1.3622   1.3688   1.3741   1.3764
     1.3865   1.3871   1.3895   1.3911   1.3929   1.3945   1.3962   1.3972
     1.4030   1.4067   1.4124   1.4186   1.4190   1.4233   1.4262   1.4328
     1.4354   1.4366   1.4466   1.4504   1.4567   1.4592   1.4688   1.4714
     1.4753   1.4836   1.4859   1.4899   1.4918   1.4966   1.4978   1.4989
     1.5037   1.5053   1.5090   1.5114   1.5126   1.5136   1.5155   1.5210
     1.5245   1.5348   1.5352   1.5393   1.5423   1.5454   1.5526   1.5558
     1.5606   1.5639   1.5704   1.5864   1.5893   1.5927   1.5989   1.6199
     1.6287   1.6340   1.6375   1.6419   1.6475   1.6746   1.6765   1.6943
     1.6981   1.6989   1.7055   1.7083   1.7110   1.7164   1.7311   1.7360
     1.8296   1.9877   2.0334   2.1416   2.1498   2.1584   2.2385   2.2670
     2.2779   2.2792   2.2834   2.2867   2.2999   2.3023   2.3294   2.4319
     2.4399   2.4830   2.4979   2.5191   2.5291   2.5461   2.6532   2.7348
     2.7662   2.7820   2.8314   3.0132   3.2049   3.2809   3.3227   3.3916
     3.4995   3.5692   3.7516   3.7829   3.8324   3.8678   3.8924   3.9136
     3.9238   3.9784   3.9956   4.0287   4.0670   4.0703   4.0820   4.0910
     4.0972   4.1232   4.1826   4.2115   4.2346   4.2730   4.6286   4.6996
     4.8397   5.0342   5.1570   5.1995   5.2303   5.2611   5.2777   5.3522
     5.4278   5.5028   5.5630   5.6641   5.6867   5.8916   6.0139   6.0350
     6.1395   6.2769   6.2842   6.4247   6.4435   6.4912   6.5169   6.5775
     6.6065   6.6483   6.7279   6.7332   6.8159   6.8419   6.9260   6.9729
     6.9981   7.0058   7.0365   7.0671   7.1135   7.1485   7.1594   7.2114
     7.3413   7.4387   7.4712   7.4953   7.5440   7.6646   7.7297   7.7720
     7.8120   7.9259   8.0456   8.0581   8.1392   8.1645   8.1844   8.1937
     8.2746   8.3224   8.3379   8.3918   8.4094   8.4271   8.4333   8.5029
     8.5459   8.6026   8.6203   8.6373   8.6508   8.6739   8.7541   8.7992
     8.8042   8.8413   8.8463   8.8609   8.8919   8.9147   9.0096   9.0542
     9.0717   9.1203   9.1688   9.2125   9.2786   9.3651   9.4158   9.4373
     9.4855   9.4963   9.5508   9.6289   9.6503   9.7155   9.7618   9.9166
     9.9646  10.0222  10.1200  10.1304  10.1545

          k = 0.0000-0.2165 0.0000 (256176 PWs)   bands (ev):

   -20.3021 -16.8105 -15.8781 -15.4581 -15.2407 -14.6426 -14.2258 -13.9349
   -13.9132 -13.8631 -13.8374 -13.4062 -13.3414 -13.2996 -13.2774 -12.2314
   -12.0535 -11.9963 -11.9195 -11.8011 -11.7496 -10.3054 -10.2042 -10.1777
   -10.0497  -9.1207  -9.0297  -8.9188  -8.7496  -8.5995  -8.5570  -7.9950
    -7.8742  -7.7979  -7.7446  -7.1011  -6.9663  -6.8860  -6.6335  -6.6011
    -6.5261  -6.5115  -6.4728  -6.4504  -5.9210  -5.8298  -5.7565  -5.7394
    -5.1812  -5.0666  -4.8899  -4.8865  -4.8203  -4.7194  -4.7000  -4.6829
    -4.6318  -4.5890  -4.4568  -4.3568  -4.3380  -4.1845  -4.0809  -3.7404
    -3.6920  -3.5915  -3.5182  -3.3842  -3.3764  -3.2798  -3.1971  -3.1740
    -3.1706  -3.1611  -3.1388  -3.0134  -2.9202  -2.9165  -2.8961  -2.8659
    -2.7837  -2.7575  -2.7356  -2.6505  -2.6385  -2.6203  -2.5741  -2.5684
    -2.5438  -2.4610  -2.4579  -2.4551  -2.4530  -2.3718  -2.3427  -2.3400
    -2.2975  -2.2951  -2.2699  -2.2023  -2.1597  -2.1479  -2.0771  -2.0639
    -2.0165  -2.0145  -2.0131  -1.9960  -1.8745  -1.8725  -1.8511  -1.8497
    -1.8377  -1.8106  -1.8085  -1.8030  -1.7486  -1.6730  -1.6653  -1.6595
    -1.6442  -1.6380  -1.6300  -1.6272  -1.6117  -1.6014  -1.5950  -1.5603
    -1.5565  -1.5518  -1.5438  -1.5360  -1.5258  -1.3929  -1.3920  -1.3878
    -1.3609  -1.2691  -1.2627  -1.2445  -1.2371  -1.2164  -1.2120  -1.2068
    -1.1869  -1.1826  -1.1796  -1.1748  -1.1698  -1.1676  -1.1632  -1.1616
    -1.1544  -1.1417  -1.1359  -1.1327  -1.1234  -1.1198  -1.1124  -1.1057
    -1.0961  -1.0862  -1.0628  -1.0333  -1.0286  -1.0113  -0.9928  -0.9842
    -0.9805  -0.9756  -0.9682  -0.9486  -0.9454  -0.9423  -0.9418  -0.9409
    -0.9023  -0.8853  -0.8806  -0.8791  -0.8708  -0.8668  -0.8647  -0.8346
    -0.8264  -0.8222  -0.8217  -0.8166  -0.8099  -0.8063  -0.8038  -0.7968
    -0.7791  -0.7529  -0.7462  -0.7422  -0.7304  -0.7269  -0.7174  -0.7128
    -0.7004  -0.6963  -0.6890  -0.6803  -0.6658  -0.6602  -0.6517  -0.6485
    -0.6454  -0.5760  -0.5693  -0.5351  -0.5329  -0.5282  -0.5270  -0.5259
    -0.5149  -0.5095  -0.5012  -0.4997  -0.4980  -0.4945  -0.4886  -0.4677
    -0.4567  -0.4525  -0.4419  -0.4369  -0.4320  -0.4266  -0.4210  -0.4043
    -0.4035  -0.3980  -0.3957  -0.3876  -0.3858  -0.3726  -0.3624  -0.3563
    -0.3543  -0.3523  -0.3477  -0.3459  -0.3136  -0.3046  -0.3015  -0.2914
    -0.2806  -0.2735  -0.2618  -0.2443  -0.2321  -0.2273  -0.2156  -0.2132
    -0.2113  -0.2102  -0.2083  -0.2061  -0.1967  -0.1912  -0.1831  -0.1800
    -0.1675  -0.1606  -0.1578  -0.1554  -0.1537  -0.1491  -0.1446  -0.1407
    -0.1379  -0.1277  -0.1212  -0.1147  -0.1137  -0.1111  -0.1068  -0.1033
    -0.0971  -0.0842  -0.0684  -0.0627  -0.0561  -0.0550  -0.0504  -0.0489
    -0.0454  -0.0416  -0.0352  -0.0267  -0.0181  -0.0163  -0.0035   0.0028
     0.0090   0.0124   0.0135   0.0173   0.0243   0.0276   0.0342   0.0395
     0.0501   0.0626   0.0662   0.0747   0.0860   0.0892   0.0946   0.0988
     0.1046   0.1142   0.1160   0.1265   0.1302   0.1350   0.1429   0.1469
     0.1491   0.1538   0.1685   0.1702   0.1771   0.1809   0.1891   0.1945
     0.2012   0.2061   0.2090   0.2124   0.2137   0.2233   0.2278   0.2316
     0.2342   0.2416   0.2522   0.2693   0.2756   0.2794   0.2878   0.2893
     0.2945   0.2997   0.3037   0.3146   0.3268   0.3385   0.3418   0.3653
     0.3694   0.3732   0.3810   0.3826   0.4021   0.4055   0.4286   0.4423
     0.4465   0.4477   0.4616   0.4703   0.4800   0.4888   0.4975   0.4998
     0.5015   0.5085   0.5131   0.5145   0.5206   0.5242   0.5376   0.5388
     0.5437   0.5520   0.5588   0.5651   0.5690   0.5701   0.5766   0.5781
     0.5814   0.5884   0.5948   0.5982   0.5999   0.6062   0.6085   0.6123
     0.6136   0.6138   0.6158   0.6191   0.6255   0.6282   0.6328   0.6381
     0.6403   0.6458   0.6505   0.6585   0.6610   0.6644   0.6707   0.6722
     0.6776   0.6831   0.6849   0.6898   0.6971   0.7059   0.7132   0.7184
     0.7217   0.7242   0.7284   0.7363   0.7392   0.7436   0.7441   0.7530
     0.7595   0.7635   0.7693   0.7707   0.7745   0.7803   0.7836   0.7883
     0.7954   0.8086   0.8126   0.8148   0.8163   0.8253   0.8344   0.8418
     0.8441   0.8488   0.8572   0.8653   0.8731   0.8752   0.8774   0.8802
     0.8917   0.9105   0.9162   0.9185   0.9523   0.9548   0.9632   0.9656
     0.9752   0.9791   0.9820   0.9899   0.9924   0.9991   1.0019   1.0043
     1.0054   1.0089   1.0119   1.0146   1.0165   1.0186   1.0224   1.0256
     1.0350   1.0404   1.0421   1.0439   1.0441   1.0496   1.0508   1.0532
     1.0578   1.0628   1.0634   1.0655   1.0666   1.0695   1.0721   1.0769
     1.0803   1.0858   1.0916   1.0930   1.0984   1.0997   1.1096   1.1118
     1.1136   1.1167   1.1192   1.1221   1.1246   1.1265   1.1324   1.1361
     1.1418   1.1623   1.1653   1.1696   1.1752   1.1847   1.2068   1.2136
     1.2142   1.2259   1.2316   1.2365   1.2439   1.2560   1.2569   1.2609
     1.2622   1.2642   1.2685   1.2725   1.2779   1.2787   1.2810   1.2816
     1.2849   1.2866   1.2903   1.2922   1.2991   1.3000   1.3050   1.3063
     1.3073   1.3119   1.3159   1.3171   1.3220   1.3229   1.3319   1.3398
     1.3424   1.3432   1.3491   1.3527   1.3543   1.3604   1.3644   1.3720
     1.3728   1.3755   1.3808   1.3871   1.3877   1.3910   1.3940   1.3989
     1.4070   1.4111   1.4148   1.4171   1.4183   1.4353   1.4396   1.4437
     1.4461   1.4539   1.4543   1.4580   1.4624   1.4643   1.4688   1.4706
     1.4754   1.4806   1.4832   1.4844   1.4873   1.5070   1.5109   1.5150
     1.5200   1.5226   1.5260   1.5286   1.5299   1.5320   1.5340   1.5373
     1.5446   1.5559   1.5611   1.5629   1.5685   1.5708   1.5723   1.5744
     1.5877   1.5909   1.5923   1.5929   1.5989   1.6084   1.6116   1.6422
     1.6471   1.6503   1.6517   1.6568   1.6607   1.7332   1.7421   1.7489
     1.8094   1.8174   1.8397   1.8465   1.8470   1.8504   1.8620   1.8801
     1.8952   1.9002   1.9030   1.9143   1.9197   1.9469   2.0572   2.0693
     2.3071   2.3154   2.3573   2.4341   2.4390   2.4664   2.4950   2.5609
     2.5808   2.5881   2.5982   2.6176   2.6615   2.6665   2.6731   2.7536
     2.7844   2.7902   2.7995   2.8229   2.9349   3.0028   3.0098   3.1769
     3.2009   3.2471   3.2479   3.2926   3.5943   3.7259   3.7530   3.9193
     3.9965   4.0343   4.0503   4.1626   4.2352   4.2690   4.2925   4.3040
     4.3406   4.3594   4.3709   4.4442   4.4524   4.5335   4.6395   4.6826
     5.0432   5.0980   5.1604   5.1959   5.2816   5.3623   5.3897   5.4078
     5.4294   5.4522   5.5439   5.6669   5.7690   5.8446   5.8995   5.9817
     6.0928   6.1458   6.1636   6.2622   6.2824   6.3103   6.3199   6.4728
     6.5167   6.6353   6.6488   6.7436   6.7970   6.8359   6.8438   7.0118
     7.0424   7.1078   7.1236   7.1360   7.1767   7.1931   7.2134   7.2351
     7.2707   7.3641   7.3754   7.4182   7.4464   7.5254   7.6147   7.6943
     7.7268   7.8852   7.9300   7.9473   8.0506   8.1792   8.2145   8.2650
     8.2736   8.4205   8.4303   8.4421   8.4566   8.4743   8.5160   8.5645
     8.6416   8.6620   8.6703   8.7341   8.7431   8.7822   8.7870   8.8070
     8.8498   8.8698   8.9738   9.0742   9.0887   9.1270   9.1472   9.2430
     9.2521   9.3377   9.3570   9.3747   9.3847   9.3925   9.4043   9.4356
     9.4518   9.4807   9.4836   9.4891   9.5620   9.5667   9.5837   9.7329
     9.8791   9.8821   9.9740   9.9756  10.0262

          k = 0.2500 0.0000 0.0000 (256240 PWs)   bands (ev):

   -20.3020 -16.7583 -15.7100 -15.5182 -15.2256 -14.7285 -14.5673 -14.5375
   -14.4766 -13.7017 -13.5452 -13.3372 -12.8604 -12.7906 -12.6998 -12.6053
   -11.9824 -11.8602 -11.7463 -11.6734 -10.9439 -10.7457 -10.3902 -10.2707
   -10.0835  -9.8155  -9.5563  -9.5101  -9.0931  -8.8517  -8.7569  -8.4085
    -7.6594  -7.4560  -7.3827  -7.2219  -7.1986  -7.0892  -6.8838  -6.6991
    -6.5714  -5.9765  -5.8499  -5.7041  -5.6676  -5.5809  -5.5290  -5.1871
    -5.1820  -5.1418  -4.9892  -4.8021  -4.6020  -4.5664  -4.3860  -4.2996
    -4.2684  -4.2405  -4.2239  -4.1232  -4.0370  -4.0086  -3.8933  -3.8674
    -3.8237  -3.8178  -3.7147  -3.6959  -3.6584  -3.6231  -3.5363  -3.4826
    -3.3763  -3.3186  -3.3087  -3.2947  -3.1800  -3.1538  -3.1476  -3.0586
    -3.0013  -2.9639  -2.9523  -2.9058  -2.8872  -2.7971  -2.7628  -2.6791
    -2.6764  -2.6642  -2.6012  -2.4981  -2.4227  -2.4005  -2.3410  -2.2738
    -2.2478  -2.1964  -2.1890  -2.1085  -2.0841  -1.9832  -1.9780  -1.9670
    -1.9583  -1.9307  -1.8386  -1.8101  -1.8024  -1.7515  -1.7215  -1.6994
    -1.6948  -1.6918  -1.6896  -1.6838  -1.6815  -1.6633  -1.6549  -1.6506
    -1.6121  -1.5783  -1.5409  -1.5268  -1.5221  -1.5078  -1.4701  -1.4671
    -1.4653  -1.4630  -1.4606  -1.4579  -1.4490  -1.4351  -1.4220  -1.4134
    -1.3980  -1.3935  -1.3921  -1.3736  -1.3000  -1.2654  -1.2200  -1.2168
    -1.2060  -1.1806  -1.1596  -1.1449  -1.1396  -1.1369  -1.1311  -1.1292
    -1.1104  -1.0930  -1.0869  -1.0807  -1.0773  -1.0718  -1.0695  -1.0543
    -1.0325  -1.0295  -1.0258  -1.0195  -1.0085  -1.0037  -1.0002  -0.9886
    -0.9781  -0.9546  -0.9494  -0.9340  -0.9287  -0.9234  -0.9199  -0.9134
    -0.9111  -0.9053  -0.9015  -0.8999  -0.8965  -0.8950  -0.8921  -0.8880
    -0.8822  -0.8751  -0.8736  -0.8644  -0.8615  -0.8589  -0.8549  -0.8455
    -0.8263  -0.8001  -0.7955  -0.7923  -0.7558  -0.7495  -0.7112  -0.7094
    -0.7068  -0.7016  -0.6926  -0.6828  -0.6741  -0.6705  -0.6602  -0.6468
    -0.6421  -0.6392  -0.6341  -0.6305  -0.6201  -0.6186  -0.5323  -0.5219
    -0.5125  -0.5069  -0.4912  -0.4832  -0.4775  -0.4701  -0.4638  -0.4577
    -0.4533  -0.4489  -0.4454  -0.4372  -0.4280  -0.4240  -0.4154  -0.4101
    -0.4070  -0.4001  -0.3904  -0.3884  -0.3847  -0.3795  -0.3750  -0.3693
    -0.3661  -0.3588  -0.3279  -0.3183  -0.3147  -0.3079  -0.3066  -0.2973
    -0.2888  -0.2859  -0.2786  -0.2742  -0.2684  -0.2593  -0.2559  -0.2498
    -0.2475  -0.2280  -0.2194  -0.2143  -0.2085  -0.1975  -0.1932  -0.1907
    -0.1877  -0.1849  -0.1826  -0.1738  -0.1670  -0.1623  -0.1556  -0.1528
    -0.1488  -0.1356  -0.1197  -0.1152  -0.1116  -0.1060  -0.1034  -0.0958
    -0.0918  -0.0856  -0.0789  -0.0741  -0.0688  -0.0663  -0.0504  -0.0423
    -0.0335  -0.0268  -0.0210  -0.0122  -0.0050   0.0024   0.0110   0.0192
     0.0283   0.0341   0.0489   0.0573   0.0609   0.0685   0.0734   0.0749
     0.0776   0.0821   0.0855   0.0931   0.1011   0.1037   0.1079   0.1105
     0.1135   0.1166   0.1172   0.1224   0.1297   0.1330   0.1403   0.1433
     0.1522   0.1594   0.1613   0.1748   0.1815   0.1866   0.1914   0.1989
     0.2079   0.2132   0.2173   0.2251   0.2288   0.2312   0.2404   0.2422
     0.2507   0.2625   0.2708   0.2913   0.3013   0.3180   0.3240   0.3330
     0.3379   0.3541   0.3551   0.3630   0.3660   0.3691   0.3765   0.3826
     0.3839   0.3861   0.3898   0.3951   0.3983   0.4085   0.4108   0.4147
     0.4180   0.4192   0.4270   0.4348   0.4410   0.4447   0.4517   0.4559
     0.4615   0.4685   0.4789   0.4850   0.4933   0.5029   0.5077   0.5134
     0.5213   0.5285   0.5319   0.5366   0.5390   0.5491   0.5507   0.5565
     0.5606   0.5636   0.5704   0.5812   0.5846   0.5866   0.5927   0.5952
     0.5978   0.5996   0.6023   0.6116   0.6181   0.6257   0.6304   0.6379
     0.6393   0.6440   0.6480   0.6519   0.6560   0.6630   0.6679   0.6715
     0.6770   0.6787   0.6862   0.6914   0.6932   0.7020   0.7068   0.7152
     0.7186   0.7225   0.7262   0.7289   0.7295   0.7352   0.7430   0.7452
     0.7504   0.7522   0.7659   0.7757   0.7866   0.7928   0.7992   0.8099
     0.8157   0.8260   0.8275   0.8321   0.8390   0.8428   0.8467   0.8485
     0.8517   0.8567   0.8657   0.8691   0.8734   0.8806   0.8965   0.9047
     0.9092   0.9174   0.9223   0.9286   0.9336   0.9363   0.9420   0.9460
     0.9486   0.9581   0.9628   0.9663   0.9710   0.9724   0.9740   0.9817
     0.9868   0.9900   0.9922   0.9978   1.0004   1.0026   1.0045   1.0126
     1.0202   1.0290   1.0395   1.0470   1.0528   1.0577   1.0669   1.0705
     1.0758   1.0842   1.0892   1.0913   1.0942   1.0972   1.0985   1.1002
     1.1026   1.1048   1.1115   1.1141   1.1178   1.1206   1.1256   1.1288
     1.1327   1.1392   1.1427   1.1445   1.1474   1.1518   1.1540   1.1567
     1.1621   1.1660   1.1719   1.1752   1.1805   1.1840   1.1879   1.1923
     1.1946   1.1973   1.2001   1.2034   1.2041   1.2064   1.2097   1.2113
     1.2193   1.2221   1.2282   1.2392   1.2431   1.2525   1.2664   1.2683
     1.2708   1.2725   1.2780   1.2857   1.2919   1.2986   1.3067   1.3101
     1.3168   1.3232   1.3302   1.3318   1.3349   1.3387   1.3402   1.3461
     1.3521   1.3537   1.3576   1.3599   1.3628   1.3706   1.3721   1.3757
     1.3794   1.3824   1.3852   1.3867   1.3899   1.3913   1.3938   1.3974
     1.4006   1.4085   1.4095   1.4112   1.4210   1.4250   1.4279   1.4331
     1.4340   1.4402   1.4497   1.4509   1.4561   1.4619   1.4703   1.4828
     1.4846   1.4865   1.4935   1.4957   1.4992   1.5017   1.5038   1.5057
     1.5113   1.5126   1.5145   1.5164   1.5178   1.5220   1.5266   1.5294
     1.5304   1.5358   1.5372   1.5393   1.5464   1.5528   1.5550   1.5601
     1.5619   1.5637   1.5700   1.5734   1.5786   1.5802   1.5846   1.5917
     1.5994   1.6055   1.6100   1.6236   1.6364   1.6456   1.6553   1.6790
     1.6964   1.6991   1.7083   1.7125   1.7264   1.7348   1.7978   1.8203
     1.8398   1.8495   1.8720   1.9140   1.9292   2.0847   2.0976   2.1065
     2.1120   2.1168   2.1354   2.1684   2.2373   2.2428   2.2526   2.4752
     2.6177   2.6207   2.6317   2.7067   3.0214   3.0614   3.0631   3.2381
     3.2597   3.2711   3.2953   3.3017   3.3037   3.4073   3.4889   3.5429
     3.6027   3.6319   3.6959   3.7441   3.7490   3.7634   3.7837   3.8522
     3.8803   3.8940   3.9695   3.9861   4.0353   4.0866   4.3330   4.3738
     4.3954   4.4299   4.6570   4.6858   4.7366   4.8527   4.8972   4.9112
     5.0085   5.1265   5.1796   5.2930   5.3212   5.3560   5.3833   5.4429
     5.4653   5.4985   5.5289   5.5438   5.5936   5.6350   5.6558   5.7042
     5.7371   5.7733   5.8703   5.9653   6.0151   6.0737   6.0910   6.1005
     6.1398   6.3389   6.4180   6.6620   6.7122   6.7664   6.7937   6.8409
     6.8637   6.8928   6.9799   7.0012   7.0590   7.0982   7.1061   7.1279
     7.1605   7.1766   7.2028   7.2285   7.2977   7.3562   7.4222   7.5333
     7.5961   7.6329   7.6799   7.7140   7.7465   7.7606   7.9205   8.0392
     8.0898   8.1333   8.1528   8.2034   8.2108   8.2380   8.2738   8.2928
     8.3258   8.3684   8.4399   8.4738   8.4997   8.5092   8.6490   8.7101
     8.9195   9.0089   9.0150   9.0196   9.0454   9.0775   9.1374   9.1548
     9.1973   9.2174   9.2658   9.2838   9.3155   9.3301   9.3922   9.4631
     9.5177   9.5267   9.5329   9.5446   9.6500   9.6667   9.6915   9.7670
     9.8103   9.8372   9.8552   9.8853   9.9265

          k = 0.2500-0.2165 0.0000 (256316 PWs)   bands (ev):

   -20.3020 -16.7580 -15.7541 -15.4298 -15.1203 -15.0252 -14.7659 -14.2851
   -14.1449 -13.8562 -13.7259 -13.2864 -12.8606 -12.8395 -12.7705 -12.3412
   -12.2434 -11.8183 -11.6941 -11.1215 -11.0366 -10.9351 -10.7904 -10.5415
   -10.2023  -9.4430  -9.3729  -9.0552  -9.0159  -8.7874  -8.7140  -8.3244
    -8.2509  -8.0972  -8.0450  -6.9061  -6.8663  -6.6759  -6.4880  -6.3106
    -6.2392  -6.1257  -6.0288  -5.9704  -5.8001  -5.7677  -5.5801  -5.5650
    -5.0573  -4.8905  -4.8041  -4.7387  -4.6223  -4.5691  -4.5380  -4.5167
    -4.4766  -4.2628  -4.2350  -4.2122  -4.1333  -4.0895  -3.9406  -3.8838
    -3.8353  -3.7659  -3.6830  -3.6212  -3.5144  -3.4166  -3.4115  -3.3301
    -3.3238  -3.2863  -3.2756  -3.2551  -3.1897  -3.1321  -3.0955  -3.0599
    -3.0061  -2.8905  -2.8509  -2.8008  -2.7936  -2.7880  -2.7770  -2.7666
    -2.7429  -2.6896  -2.6561  -2.5770  -2.5483  -2.4274  -2.3963  -2.1995
    -2.1859  -2.1616  -2.1314  -2.0957  -2.0560  -2.0548  -2.0407  -2.0283
    -2.0041  -1.9013  -1.8982  -1.8939  -1.8596  -1.8182  -1.7521  -1.7364
    -1.7022  -1.6988  -1.6905  -1.6632  -1.6416  -1.6219  -1.6062  -1.5995
    -1.5941  -1.5893  -1.5804  -1.5727  -1.5677  -1.5653  -1.5625  -1.5585
    -1.5557  -1.5513  -1.5306  -1.4822  -1.4715  -1.4597  -1.4082  -1.3590
    -1.3542  -1.2944  -1.2829  -1.2276  -1.2222  -1.1903  -1.1825  -1.1776
    -1.1706  -1.1585  -1.1570  -1.1523  -1.1478  -1.1461  -1.1419  -1.1385
    -1.1358  -1.1225  -1.1148  -1.1063  -1.0962  -1.0945  -1.0936  -1.0776
    -1.0718  -1.0628  -1.0578  -1.0335  -1.0317  -1.0220  -1.0059  -1.0045
    -1.0030  -0.9958  -0.9772  -0.9542  -0.9476  -0.9420  -0.9286  -0.9238
    -0.9171  -0.9089  -0.8952  -0.8903  -0.8882  -0.8765  -0.8675  -0.8646
    -0.8615  -0.8543  -0.8518  -0.8492  -0.8419  -0.8395  -0.8288  -0.8156
    -0.8142  -0.7998  -0.7791  -0.7600  -0.7560  -0.7380  -0.7070  -0.6947
    -0.6876  -0.6665  -0.6602  -0.6568  -0.6491  -0.6324  -0.6300  -0.6205
    -0.6144  -0.6128  -0.6079  -0.6049  -0.5965  -0.5921  -0.5820  -0.5511
    -0.5455  -0.5247  -0.5146  -0.5111  -0.5034  -0.4913  -0.4800  -0.4681
    -0.4641  -0.4589  -0.4527  -0.4437  -0.4395  -0.4220  -0.4178  -0.4076
    -0.3997  -0.3944  -0.3912  -0.3861  -0.3794  -0.3676  -0.3479  -0.3447
    -0.3346  -0.3281  -0.3213  -0.3191  -0.3152  -0.3039  -0.3005  -0.2940
    -0.2869  -0.2848  -0.2805  -0.2743  -0.2704  -0.2674  -0.2624  -0.2548
    -0.2499  -0.2400  -0.2352  -0.2322  -0.2288  -0.2211  -0.2153  -0.2010
    -0.1953  -0.1910  -0.1892  -0.1803  -0.1730  -0.1667  -0.1537  -0.1502
    -0.1464  -0.1424  -0.1347  -0.1284  -0.1180  -0.1126  -0.0968  -0.0866
    -0.0799  -0.0770  -0.0600  -0.0442  -0.0399  -0.0300  -0.0235  -0.0144
    -0.0104  -0.0100  -0.0047  -0.0023   0.0060   0.0171   0.0183   0.0251
     0.0290   0.0401   0.0444   0.0522   0.0555   0.0623   0.0671   0.0738
     0.0794   0.0827   0.0848   0.0879   0.0889   0.0908   0.0949   0.1025
     0.1049   0.1098   0.1140   0.1145   0.1162   0.1233   0.1246   0.1372
     0.1487   0.1571   0.1660   0.1685   0.1713   0.1781   0.1911   0.1950
     0.2118   0.2163   0.2255   0.2306   0.2327   0.2380   0.2452   0.2468
     0.2529   0.2550   0.2598   0.2635   0.2729   0.2770   0.2841   0.3049
     0.3215   0.3329   0.3437   0.3530   0.3583   0.3630   0.3699   0.3757
     0.3806   0.3830   0.3898   0.3971   0.4005   0.4053   0.4098   0.4148
     0.4193   0.4223   0.4274   0.4283   0.4333   0.4392   0.4443   0.4528
     0.4588   0.4606   0.4678   0.4740   0.4832   0.4883   0.5034   0.5094
     0.5111   0.5136   0.5279   0.5302   0.5422   0.5484   0.5534   0.5612
     0.5641   0.5688   0.5763   0.5812   0.5839   0.5872   0.5907   0.5938
     0.5972   0.6094   0.6128   0.6175   0.6250   0.6471   0.6541   0.6605
     0.6689   0.6716   0.6739   0.6773   0.6843   0.6892   0.6957   0.6987
     0.7024   0.7065   0.7098   0.7124   0.7164   0.7261   0.7314   0.7371
     0.7432   0.7459   0.7480   0.7539   0.7562   0.7582   0.7605   0.7632
     0.7688   0.7709   0.7770   0.7801   0.7826   0.7876   0.7908   0.7938
     0.7961   0.7974   0.8038   0.8102   0.8150   0.8216   0.8352   0.8418
     0.8431   0.8483   0.8523   0.8605   0.8755   0.8807   0.8922   0.8970
     0.9004   0.9045   0.9122   0.9139   0.9201   0.9246   0.9280   0.9300
     0.9318   0.9363   0.9399   0.9415   0.9464   0.9487   0.9520   0.9637
     0.9707   0.9769   0.9823   0.9868   0.9914   0.9949   1.0040   1.0049
     1.0080   1.0117   1.0164   1.0221   1.0299   1.0400   1.0444   1.0472
     1.0501   1.0569   1.0596   1.0738   1.0774   1.0818   1.0871   1.0957
     1.1016   1.1134   1.1194   1.1251   1.1355   1.1448   1.1503   1.1599
     1.1627   1.1676   1.1698   1.1732   1.1770   1.1785   1.1816   1.1840
     1.1857   1.1870   1.1900   1.1922   1.1947   1.1977   1.2039   1.2090
     1.2132   1.2219   1.2280   1.2297   1.2340   1.2401   1.2413   1.2454
     1.2497   1.2540   1.2591   1.2598   1.2633   1.2656   1.2690   1.2711
     1.2758   1.2793   1.2816   1.2873   1.2883   1.2944   1.2967   1.2986
     1.3027   1.3037   1.3071   1.3105   1.3125   1.3169   1.3263   1.3308
     1.3422   1.3459   1.3480   1.3498   1.3520   1.3550   1.3618   1.3650
     1.3673   1.3801   1.3840   1.3907   1.3935   1.3971   1.4030   1.4079
     1.4109   1.4144   1.4182   1.4227   1.4247   1.4287   1.4350   1.4411
     1.4478   1.4497   1.4520   1.4536   1.4576   1.4608   1.4645   1.4679
     1.4730   1.4771   1.4835   1.4859   1.4900   1.4926   1.4943   1.4990
     1.5009   1.5018   1.5098   1.5121   1.5137   1.5152   1.5235   1.5248
     1.5275   1.5304   1.5349   1.5388   1.5402   1.5446   1.5555   1.5579
     1.5592   1.5638   1.5718   1.5827   1.5844   1.5880   1.5923   1.5975
     1.5995   1.6100   1.6219   1.6260   1.6296   1.6422   1.6590   1.6622
     1.7107   1.7224   1.7319   1.7456   1.7921   1.8030   1.8119   1.8207
     1.8263   1.8337   1.8364   1.8417   1.8497   1.8644   1.8927   2.0557
     2.1487   2.2031   2.2087   2.2279   2.2575   2.3338   2.4054   2.6595
     2.6664   2.7832   2.8110   2.8228   2.8317   2.8528   2.8690   2.8769
     2.9500   3.0395   3.0513   3.0586   3.1831   3.5042   3.5439   3.5486
     3.5764   3.6084   3.8053   3.8720   3.9062   3.9144   3.9681   4.0158
     4.0750   4.1331   4.1650   4.1806   4.2322   4.2418   4.4135   4.4254
     4.4912   4.5588   4.6219   4.6789   4.6966   4.7595   4.7830   4.8447
     4.8778   4.9531   4.9821   5.0521   5.1076   5.1502   5.1845   5.2159
     5.3770   5.4044   5.4255   5.4770   5.5085   5.5324   5.6586   5.7247
     5.8277   5.8517   5.8770   5.9127   6.1087   6.1486   6.1938   6.2210
     6.3338   6.4888   6.5468   6.6628   6.7133   6.7576   6.7847   6.8487
     6.8805   6.9164   6.9864   7.0513   7.0635   7.0960   7.2030   7.2351
     7.2646   7.2865   7.3312   7.3518   7.3872   7.4443   7.4642   7.4901
     7.5227   7.6014   7.6181   7.6720   7.7718   7.7854   7.8328   7.8805
     7.8892   8.0011   8.1640   8.2322   8.2719   8.3243   8.4041   8.4708
     8.5485   8.5886   8.6001   8.6249   8.6268   8.6467   8.6931   8.7392
     8.7627   8.8123   8.8311   8.8719   8.9117   8.9561   9.0001   9.0782
     9.1040   9.1909   9.2024   9.2127   9.2528   9.2686   9.3144   9.3247
     9.3297   9.3679   9.4007   9.4594   9.4675   9.5236   9.5330   9.5646
     9.6469   9.6490   9.8375   9.9625   9.9763

          k =-0.5000 0.0000 0.0000 (256496 PWs)   bands (ev):

   -20.3020 -16.6953 -15.5644 -15.3297 -15.2002 -15.1817 -15.1142 -14.4031
   -14.2086 -14.1072 -14.0742 -12.8328 -12.5321 -12.3992 -12.3342 -12.0357
   -11.9819 -11.4974 -11.4766 -11.3610 -11.3516 -10.8448 -10.8007 -10.7113
   -10.4936  -9.9212  -9.9042  -9.6652  -9.3463  -8.7961  -8.7875  -8.6053
    -8.5791  -7.5172  -7.3552  -7.3069  -7.1202  -7.0617  -7.0415  -6.8787
    -5.8868  -5.8519  -5.4271  -5.1870  -5.1784  -4.9277  -4.8125  -4.7582
    -4.6859  -4.6761  -4.6705  -4.5912  -4.5348  -4.5162  -4.4216  -4.3878
    -4.3452  -4.3305  -4.3136  -4.2911  -4.2249  -4.2108  -4.1273  -4.0745
    -4.0672  -4.0128  -3.7515  -3.6793  -3.6764  -3.6579  -3.5653  -3.4605
    -3.4203  -3.3781  -3.3139  -3.3019  -3.2967  -3.2915  -3.2765  -3.2345
    -3.1544  -3.1381  -3.1015  -3.0912  -3.0599  -3.0495  -3.0193  -2.5841
    -2.5780  -2.5547  -2.5454  -2.5330  -2.5277  -2.5176  -2.5148  -2.4707
    -2.4563  -2.2745  -2.2699  -2.2584  -2.2218  -2.0959  -1.9684  -1.9411
    -1.9388  -1.7717  -1.7697  -1.7657  -1.7633  -1.7622  -1.7541  -1.6883
    -1.6808  -1.6800  -1.6523  -1.5448  -1.5439  -1.5429  -1.5403  -1.5377
    -1.5317  -1.4979  -1.4960  -1.4851  -1.4775  -1.4337  -1.4146  -1.3998
    -1.3817  -1.3762  -1.3214  -1.3180  -1.3145  -1.3095  -1.3036  -1.2984
    -1.2715  -1.2589  -1.2539  -1.2452  -1.2444  -1.2424  -1.2394  -1.2333
    -1.2295  -1.2271  -1.2185  -1.2112  -1.2014  -1.1965  -1.1957  -1.1901
    -1.1722  -1.1626  -1.1605  -1.1577  -1.1501  -1.1088  -1.1057  -1.1010
    -1.0826  -1.0803  -1.0774  -1.0710  -1.0670  -1.0646  -1.0492  -1.0406
    -1.0283  -1.0195  -1.0083  -1.0061  -1.0013  -0.9926  -0.9906  -0.9729
    -0.9701  -0.9583  -0.9526  -0.9154  -0.9033  -0.8872  -0.8792  -0.8744
    -0.8714  -0.8628  -0.8594  -0.8560  -0.8481  -0.8272  -0.8252  -0.8247
    -0.8230  -0.8198  -0.8182  -0.8147  -0.8114  -0.8072  -0.8021  -0.7937
    -0.7403  -0.7397  -0.7311  -0.7285  -0.7268  -0.6994  -0.6937  -0.6328
    -0.6086  -0.6069  -0.6038  -0.5896  -0.5797  -0.5768  -0.5753  -0.5671
    -0.5651  -0.5619  -0.5409  -0.5318  -0.5211  -0.5182  -0.5173  -0.5071
    -0.5055  -0.5044  -0.5008  -0.5001  -0.4850  -0.4828  -0.4692  -0.4631
    -0.4074  -0.3888  -0.3712  -0.3616  -0.3462  -0.3418  -0.3348  -0.3320
    -0.3217  -0.3144  -0.3114  -0.3112  -0.3078  -0.3050  -0.2853  -0.2839
    -0.2798  -0.2768  -0.2625  -0.2465  -0.2415  -0.2383  -0.2338  -0.2248
    -0.2152  -0.2124  -0.2116  -0.2042  -0.2024  -0.2007  -0.1957  -0.1917
    -0.1880  -0.1846  -0.1608  -0.1556  -0.1461  -0.1437  -0.1342  -0.1152
    -0.1112  -0.1066  -0.0960  -0.0848  -0.0655  -0.0609  -0.0542  -0.0534
    -0.0474  -0.0439  -0.0367  -0.0321  -0.0237  -0.0187  -0.0108   0.0021
     0.0092   0.0119   0.0280   0.0321   0.0392   0.0494   0.0527   0.0561
     0.0606   0.0650   0.0657   0.0704   0.0732   0.0767   0.0777   0.0851
     0.1084   0.1286   0.1324   0.1485   0.1544   0.1595   0.1603   0.1636
     0.1668   0.1673   0.1727   0.1760   0.1768   0.1798   0.1809   0.1844
     0.1867   0.1889   0.1927   0.1982   0.1998   0.2017   0.2055   0.2081
     0.2124   0.2144   0.2159   0.2208   0.2237   0.2323   0.2354   0.2360
     0.2430   0.2477   0.2512   0.2624   0.2710   0.2827   0.2879   0.2943
     0.2997   0.3168   0.3336   0.3460   0.3556   0.3695   0.3788   0.3844
     0.3931   0.4056   0.4103   0.4185   0.4218   0.4248   0.4277   0.4382
     0.4396   0.4456   0.4464   0.4529   0.4560   0.4606   0.4655   0.4682
     0.4718   0.4755   0.4803   0.4831   0.4857   0.4889   0.4917   0.4928
     0.4964   0.5047   0.5088   0.5210   0.5563   0.5594   0.5788   0.5833
     0.5873   0.5945   0.5956   0.5988   0.6061   0.6079   0.6127   0.6172
     0.6186   0.6232   0.6240   0.6277   0.6285   0.6294   0.6356   0.6370
     0.6386   0.6414   0.6451   0.6494   0.6530   0.6534   0.6564   0.6680
     0.6740   0.6781   0.6870   0.6959   0.7028   0.7066   0.7146   0.7185
     0.7188   0.7197   0.7256   0.7293   0.7314   0.7336   0.7372   0.7394
     0.7408   0.7459   0.7463   0.7482   0.7550   0.7637   0.7656   0.7774
     0.7892   0.7948   0.7990   0.8001   0.8091   0.8122   0.8156   0.8193
     0.8197   0.8298   0.8438   0.8465   0.8507   0.8570   0.8666   0.8701
     0.8719   0.8907   0.8941   0.8997   0.9103   0.9128   0.9138   0.9151
     0.9175   0.9203   0.9226   0.9262   0.9344   0.9346   0.9413   0.9505
     0.9531   0.9549   0.9579   0.9610   0.9662   0.9735   0.9764   0.9785
     0.9822   0.9915   0.9940   1.0003   1.0035   1.0078   1.0153   1.0185
     1.0229   1.0249   1.0338   1.0521   1.0769   1.0884   1.0946   1.0972
     1.1033   1.1045   1.1095   1.1176   1.1226   1.1254   1.1382   1.1417
     1.1485   1.1569   1.1595   1.1677   1.1693   1.1748   1.1788   1.1842
     1.1899   1.1913   1.1947   1.1968   1.1998   1.2018   1.2067   1.2077
     1.2126   1.2145   1.2168   1.2207   1.2247   1.2263   1.2313   1.2354
     1.2361   1.2380   1.2458   1.2497   1.2530   1.2564   1.2605   1.2616
     1.2794   1.2825   1.2874   1.2909   1.2949   1.3022   1.3072   1.3112
     1.3124   1.3166   1.3170   1.3198   1.3217   1.3231   1.3238   1.3256
     1.3280   1.3327   1.3346   1.3606   1.3665   1.3745   1.3752   1.3796
     1.3810   1.3821   1.3852   1.3867   1.3890   1.3898   1.3900   1.3931
     1.4005   1.4018   1.4050   1.4080   1.4104   1.4125   1.4141   1.4163
     1.4186   1.4215   1.4245   1.4264   1.4322   1.4340   1.4359   1.4377
     1.4393   1.4423   1.4454   1.4540   1.4686   1.4728   1.4784   1.4838
     1.4848   1.4888   1.4941   1.4952   1.4981   1.5018   1.5076   1.5099
     1.5128   1.5154   1.5177   1.5197   1.5220   1.5258   1.5329   1.5365
     1.5385   1.5430   1.5499   1.5550   1.5620   1.5633   1.5661   1.5708
     1.5761   1.5827   1.5862   1.5908   1.5912   1.5927   1.5966   1.6020
     1.6187   1.6242   1.6457   1.6520   1.6552   1.6692   1.6760   1.6817
     1.6868   1.6968   1.7752   2.0611   2.0659   2.0783   2.1274   2.2482
     2.2832   2.3170   2.3500   2.3663   2.3678   2.3747   2.3944   2.5849
     2.5962   2.6204   2.8251   2.8863   2.8957   2.9046   3.0340   3.2560
     3.2710   3.2737   3.2851   3.4964   3.5405   3.6673   3.7187   3.7565
     3.8141   3.8953   3.9067   3.9707   3.9775   4.0564   4.0992   4.1413
     4.1435   4.1693   4.2503   4.2788   4.5647   4.6120   4.6304   4.7626
     4.7820   4.8219   4.8307   4.9059   4.9132   4.9428   4.9784   4.9900
     5.0272   5.0863   5.0949   5.1020   5.1148   5.1270   5.1380   5.1441
     5.1636   5.2162   5.3512   5.3970   5.4534   5.4917   5.5091   5.5519
     5.6055   5.6081   5.6320   5.7983   5.8517   5.9587   5.9783   6.0004
     6.0377   6.0530   6.0674   6.0758   6.1023   6.2422   6.2621   6.3194
     6.3895   6.4671   6.5386   6.6683   6.6966   6.7301   6.7800   7.0780
     7.1070   7.1168   7.1807   7.2097   7.3274   7.5852   7.5880   7.6366
     7.6444   7.6620   7.6636   7.6933   7.7487   7.8440   7.8657   7.9210
     7.9343   7.9653   7.9820   7.9971   8.0111   8.0525   8.0768   8.0958
     8.1124   8.1882   8.1965   8.3391   8.6730   8.6956   8.7003   8.7165
     8.7918   8.8300   8.8572   8.8770   8.9016   9.0120   9.0141   9.0226
     9.0415   9.0964   9.1465   9.2376   9.3415   9.3809   9.4523   9.4673
     9.4995   9.5080   9.5140   9.5176   9.5282   9.5307   9.5407   9.5694
     9.6049   9.6292   9.7489   9.8183   9.8970

          k =-0.5000-0.2165 0.0000 (256328 PWs)   bands (ev):

   -20.3020 -16.6951 -15.5295 -15.3948 -15.3712 -14.9562 -14.8008 -14.7271
   -14.6954 -13.6658 -13.4491 -13.3188 -13.2861 -12.2598 -12.0023 -11.6008
   -11.5683 -11.5516 -11.4169 -11.3285 -11.2679 -11.1265 -11.1127 -11.0116
   -10.9958  -9.6485  -9.6303  -9.3860  -9.3443  -8.8970  -8.5684  -8.4556
    -8.4204  -7.9339  -7.9035  -7.7043  -7.6879  -6.8791  -6.2408  -5.9237
    -5.8445  -5.6576  -5.5335  -5.2955  -5.0784  -5.0576  -5.0459  -5.0451
    -5.0167  -4.9645  -4.9581  -4.7780  -4.6701  -4.5686  -4.5614  -4.3706
    -4.0936  -4.0727  -4.0685  -4.0660  -4.0514  -4.0249  -4.0195  -4.0086
    -3.9716  -3.8562  -3.8132  -3.7809  -3.7537  -3.6640  -3.5614  -3.5295
    -3.5071  -3.4595  -3.3985  -3.3811  -3.3777  -3.3399  -3.3299  -3.3145
    -3.2683  -3.1430  -3.1234  -3.1087  -3.0260  -2.8424  -2.6846  -2.6675
    -2.6549  -2.4731  -2.4699  -2.4624  -2.4573  -2.4564  -2.4458  -2.4381
    -2.3515  -2.3300  -2.2816  -2.1420  -2.0841  -1.9700  -1.9687  -1.9647
    -1.9616  -1.9599  -1.9509  -1.9372  -1.8694  -1.8257  -1.7727  -1.7356
    -1.7045  -1.6882  -1.6879  -1.6822  -1.6717  -1.5113  -1.4918  -1.4883
    -1.4739  -1.4208  -1.4109  -1.3921  -1.3891  -1.3860  -1.3843  -1.3821
    -1.3783  -1.3379  -1.3336  -1.3325  -1.3284  -1.3086  -1.2884  -1.2840
    -1.2738  -1.2729  -1.2710  -1.2680  -1.2673  -1.2616  -1.2574  -1.2513
    -1.2472  -1.2447  -1.2043  -1.2008  -1.1915  -1.1912  -1.1839  -1.1739
    -1.1673  -1.1183  -1.1047  -1.0976  -1.0965  -1.0924  -1.0801  -1.0795
    -1.0782  -1.0649  -1.0534  -1.0480  -1.0468  -1.0455  -1.0409  -1.0396
    -1.0282  -1.0220  -1.0217  -1.0122  -1.0095  -1.0015  -0.9840  -0.9765
    -0.9681  -0.9663  -0.9627  -0.9594  -0.9515  -0.9460  -0.9379  -0.9353
    -0.9327  -0.9282  -0.9261  -0.9197  -0.9155  -0.9128  -0.8116  -0.8083
    -0.7973  -0.7908  -0.7727  -0.7701  -0.7641  -0.7618  -0.7483  -0.7481
    -0.7477  -0.6979  -0.6878  -0.6817  -0.6767  -0.6707  -0.6666  -0.6614
    -0.6596  -0.6533  -0.6532  -0.6501  -0.6473  -0.6069  -0.6055  -0.5990
    -0.5957  -0.5944  -0.5850  -0.5829  -0.5764  -0.5740  -0.5688  -0.5482
    -0.5400  -0.5084  -0.4790  -0.4628  -0.4544  -0.4505  -0.4448  -0.4393
    -0.4346  -0.4251  -0.4116  -0.3965  -0.3931  -0.3723  -0.3575  -0.3554
    -0.3507  -0.3454  -0.3388  -0.3287  -0.3243  -0.3188  -0.3117  -0.3012
    -0.2977  -0.2919  -0.2855  -0.2822  -0.2734  -0.2470  -0.2254  -0.2140
    -0.2095  -0.2079  -0.1890  -0.1842  -0.1712  -0.1617  -0.1597  -0.1564
    -0.1544  -0.1510  -0.1492  -0.1427  -0.1355  -0.1211  -0.0937  -0.0867
    -0.0813  -0.0790  -0.0699  -0.0665  -0.0652  -0.0609  -0.0578  -0.0564
    -0.0545  -0.0451  -0.0359  -0.0346  -0.0336  -0.0275  -0.0245  -0.0161
    -0.0148  -0.0103  -0.0057  -0.0006   0.0069   0.0138   0.0241   0.0299
     0.0526   0.0577   0.0658   0.0715   0.0793   0.1097   0.1159   0.1265
     0.1340   0.1391   0.1432   0.1461   0.1479   0.1488   0.1544   0.1621
     0.1668   0.1711   0.1743   0.1777   0.1822   0.1832   0.1885   0.1935
     0.1983   0.2013   0.2040   0.2046   0.2074   0.2081   0.2100   0.2120
     0.2155   0.2187   0.2228   0.2277   0.2365   0.2427   0.2509   0.2551
     0.2617   0.2663   0.2749   0.2823   0.2889   0.2947   0.3059   0.3107
     0.3125   0.3197   0.3231   0.3369   0.3413   0.3466   0.3492   0.3815
     0.3939   0.4079   0.4097   0.4170   0.4211   0.4356   0.4446   0.4490
     0.4503   0.4606   0.4621   0.4685   0.4731   0.4785   0.4799   0.4839
     0.4883   0.4930   0.5001   0.5032   0.5150   0.5239   0.5301   0.5348
     0.5405   0.5435   0.5519   0.5522   0.5541   0.5570   0.5580   0.5625
     0.5665   0.5721   0.5752   0.5823   0.5865   0.5894   0.5932   0.6033
     0.6101   0.6150   0.6221   0.6292   0.6341   0.6370   0.6393   0.6437
     0.6481   0.6530   0.6581   0.6620   0.6646   0.6675   0.6745   0.6795
     0.6827   0.6880   0.6884   0.6940   0.6959   0.6977   0.7052   0.7073
     0.7102   0.7125   0.7157   0.7228   0.7250   0.7329   0.7463   0.7516
     0.7548   0.7627   0.7647   0.7675   0.7708   0.7799   0.7814   0.7860
     0.7901   0.7972   0.7981   0.8063   0.8097   0.8137   0.8186   0.8204
     0.8218   0.8236   0.8281   0.8305   0.8325   0.8399   0.8491   0.8639
     0.8646   0.8735   0.8897   0.8944   0.8978   0.8988   0.9071   0.9202
     0.9272   0.9303   0.9374   0.9397   0.9512   0.9519   0.9543   0.9571
     0.9681   0.9704   0.9816   0.9890   1.0011   1.0084   1.0092   1.0138
     1.0204   1.0211   1.0294   1.0352   1.0430   1.0531   1.0609   1.0651
     1.0700   1.0808   1.0836   1.0871   1.0890   1.0931   1.1028   1.1065
     1.1094   1.1120   1.1175   1.1197   1.1218   1.1234   1.1241   1.1250
     1.1274   1.1292   1.1333   1.1353   1.1365   1.1415   1.1432   1.1472
     1.1508   1.1605   1.1629   1.1665   1.1681   1.1707   1.1768   1.1813
     1.1833   1.1883   1.1960   1.1986   1.2023   1.2053   1.2059   1.2128
     1.2166   1.2194   1.2216   1.2242   1.2327   1.2422   1.2683   1.2711
     1.2716   1.2757   1.2795   1.2808   1.2819   1.2849   1.2899   1.2921
     1.2970   1.3009   1.3040   1.3055   1.3087   1.3107   1.3159   1.3190
     1.3427   1.3466   1.3537   1.3543   1.3592   1.3607   1.3628   1.3642
     1.3657   1.3679   1.3689   1.3701   1.3889   1.3966   1.4052   1.4057
     1.4169   1.4198   1.4221   1.4300   1.4315   1.4337   1.4359   1.4371
     1.4381   1.4397   1.4414   1.4430   1.4440   1.4474   1.4493   1.4510
     1.4519   1.4545   1.4569   1.4641   1.4687   1.4713   1.4723   1.4731
     1.4756   1.4788   1.4800   1.4815   1.4870   1.4888   1.4937   1.5004
     1.5081   1.5153   1.5184   1.5197   1.5231   1.5265   1.5371   1.5412
     1.5419   1.5533   1.5544   1.5607   1.5786   1.5787   1.5823   1.5852
     1.5907   1.6048   1.6096   1.6120   1.6154   1.6377   1.6480   1.6499
     1.6549   1.6561   1.6601   1.6620   1.6699   1.6769   1.6806   1.6889
     1.6937   1.6998   1.7008   1.7039   1.8223   1.9011   1.9035   1.9065
     1.9946   2.3201   2.3235   2.3500   2.5211   2.6330   2.6406   2.6512
     2.6624   2.8109   2.8241   2.8377   2.8821   3.0573   3.0628   3.1016
     3.3444   3.5212   3.5349   3.5418   3.5523   3.6413   3.6936   3.6963
     3.7352   3.9963   4.0134   4.0212   4.0249   4.1548   4.1827   4.2145
     4.2372   4.2796   4.3026   4.3102   4.3511   4.4051   4.4877   4.5088
     4.5764   4.6511   4.6961   4.7087   4.7464   4.7668   4.9679   5.0463
     5.0938   5.1205   5.1264   5.1727   5.2019   5.2070   5.2256   5.2401
     5.2510   5.2746   5.2880   5.3094   5.3515   5.4374   5.4586   5.4721
     5.5066   5.6700   5.6766   5.7147   5.7741   5.7809   5.8011   5.8166
     5.8297   5.8646   5.9748   5.9803   6.0201   6.2430   6.3873   6.7723
     6.7982   6.9950   7.0169   7.0731   7.0774   7.0971   7.1054   7.1270
     7.1522   7.1742   7.1959   7.2133   7.2368   7.3253   7.3449   7.4153
     7.4338   7.4576   7.4840   7.5131   7.5248   7.6520   7.7809   7.8170
     7.9354   7.9485   8.0735   8.1099   8.1725   8.1863   8.2295   8.2589
     8.2610   8.3092   8.3775   8.3813   8.3899   8.4384   8.7109   8.8825
     8.9067   8.9238   8.9404   8.9576   8.9840   8.9934   9.0016   9.0258
     9.0458   9.1302   9.1341   9.1459   9.1553   9.1605   9.2591   9.3276
     9.3337   9.3419   9.3472   9.4426   9.4530   9.4625   9.4663   9.5129
     9.5215   9.6743   9.8106   9.8835   9.9970

     the Fermi energy is     3.3974 ev

!    total energy              =  -12750.20863115 Ry
     Harris-Foulkes estimate   =  -12750.20863114 Ry
     estimated scf accuracy    <          3.8E-09 Ry

     The total energy is the sum of the following terms:

     one-electron contribution = -100068.90570411 Ry
     hartree contribution      =   51405.22330801 Ry
     xc contribution           =   -4456.64279035 Ry
     ewald contribution        =   40376.29208330 Ry
     Dispersion Correction     =      -2.79637894 Ry
     smearing contrib. (-TS)   =      -3.37914906 Ry

     convergence has been achieved in  45 iterations

     Writing output data file gc.save
 
     init_run     :    185.51s CPU    198.81s WALL (       1 calls)
     electrons    :  25706.63s CPU  27342.41s WALL (       1 calls)

     Called by init_run:
     wfcinit      :    182.79s CPU    194.95s WALL (       1 calls)
     potinit      :      0.84s CPU      0.96s WALL (       1 calls)

     Called by electrons:
     c_bands      :  23587.32s CPU  25046.44s WALL (      45 calls)
     sum_band     :   1712.81s CPU   1828.76s WALL (      45 calls)
     v_of_rho     :      5.44s CPU      6.83s WALL (      46 calls)
     newd         :     16.03s CPU     28.88s WALL (      46 calls)
     mix_rho      :    385.02s CPU    431.67s WALL (      45 calls)

     Called by c_bands:
     init_us_2    :     83.43s CPU     84.72s WALL (     546 calls)
     cegterg      :  23247.35s CPU  24693.10s WALL (     279 calls)

     Called by sum_band:
     sum_band:bec :      5.02s CPU      5.48s WALL (     270 calls)
     addusdens    :     22.66s CPU     34.53s WALL (      45 calls)

     Called by *egterg:
     h_psi        :   8158.67s CPU   8780.30s WALL (    2101 calls)
     s_psi        :   2031.82s CPU   2044.97s WALL (    2101 calls)
     g_psi        :     22.29s CPU     22.40s WALL (    1816 calls)
     cdiaghg      :   7075.25s CPU   7426.03s WALL (    2087 calls)

     Called by h_psi:
     add_vuspsi   :   2036.27s CPU   2051.05s WALL (    2101 calls)

     General routines
     calbec       :   2731.15s CPU   2752.76s WALL (    2371 calls)
     fft          :      4.72s CPU      5.96s WALL (     597 calls)
     ffts         :    162.65s CPU    195.31s WALL (   25086 calls)
     fftw         :   3978.34s CPU   4526.93s WALL ( 1367642 calls)
     davcio       :      0.52s CPU     12.70s WALL (       6 calls)
 
     Parallel routines
     fft_scatter  :   1972.11s CPU   2277.45s WALL ( 1393325 calls)
 
     PWSCF        :     7h11m CPU        7h39m WALL

 
   This run was terminated on:   9:42:11   2Feb2018            

=------------------------------------------------------------------------------=
   JOB DONE.
=------------------------------------------------------------------------------=
