mpirun: INFO: switching to OpenMPI runtime version 1.10.2

     Program PWSCF v.5.4.0 starts on  7Sep2017 at 21:31: 4 

     This program is part of the open-source Quantum ESPRESSO suite
     for quantum simulation of materials; please cite
         "P. Giannozzi et al., J. Phys.:Condens. Matter 21 395502 (2009);
          URL http://www.quantum-espresso.org", 
     in publications or presentations arising from this work. More details at
     http://www.quantum-espresso.org/quote

     Parallel version (MPI & OpenMP), running on      56 processor cores
     Number of MPI processes:                56
     Threads/MPI process:                     1
     R & G space division:  proc/nbgrp/npool/nimage =      56
     Waiting for input...
     Reading input from standard input
Warning: card &IONS ignored
Warning: card / ignored

     Current dimensions of program PWSCF are:
     Max number of different atomic species (ntypx) = 10
     Max number of k-points (npk) =  40000
     Max angular momentum in pseudopotentials (lmaxx) =  3

     -------------------------------------
     Parameters for Dispersion Correction:
     -------------------------------------
       atom      VdW radius       C_6     

        Cu         2.952        374.666
        C_h        2.744         60.710
        C          2.744         60.710

     Subspace diagonalization in iterative solution of the eigenvalue problem:
     one sub-group per band group will be used
     scalapack distributed-memory algorithm (size of sub-group:  5*  5 procs)

 
     Parallelization info
     --------------------
     sticks:   dense  smooth     PW     G-vecs:    dense   smooth      PW
     Min         204     204     54                36612    36612    4962
     Max         205     205     55                36617    36617    4968
     Sum       11433   11433   3039              2050409  2050409  278033
 


     bravais-lattice index     =            0
     lattice parameter (alat)  =      13.9425  a.u.
     unit-cell volume          =   21209.0878 (a.u.)^3
     number of atoms/cell      =          148
     number of atomic types    =            3
     number of electrons       =      1292.00
     number of Kohn-Sham states=          775
     kinetic-energy cutoff     =      80.0000  Ry
     charge density cutoff     =     320.0000  Ry
     convergence threshold     =      1.0E-08
     mixing beta               =       0.7000
     number of iterations used =            8  local-TF  mixing
     Exchange-correlation      =  SLA  PW   PBX  PBC ( 1  4  3  4 0 0)

     celldm(1)=  13.942539  celldm(2)=   0.000000  celldm(3)=   0.000000
     celldm(4)=   0.000000  celldm(5)=   0.000000  celldm(6)=   0.000000

     crystal axes: (cart. coord. in units of alat)
               a(1) = (   1.000000   0.000000   0.000000 )  
               a(2) = (   0.000000   2.309401   0.000000 )  
               a(3) = (   0.000000   0.000000   3.388418 )  

     reciprocal axes: (cart. coord. in units 2 pi/alat)
               b(1) = (  1.000000  0.000000  0.000000 )  
               b(2) = (  0.000000  0.433013  0.000000 )  
               b(3) = (  0.000000  0.000000  0.295123 )  


     PseudoPot. # 1 for Cu read from file:
     /home/549/hxw549/Short/pseudopotentials/Cu.pbe-n-van_ak.UPF
     MD5 check sum: 601f7c30f7467666bec936e0661ce3e1
     Pseudo is Ultrasoft + core correction, Zval = 11.0
     Generated by new atomic code, or converted to UPF format
     Using radial grid of  867 points,  6 beta functions with: 
                l(1) =   0
                l(2) =   0
                l(3) =   1
                l(4) =   1
                l(5) =   2
                l(6) =   2
     Q(r) pseudized with  8 coefficients,  rinner =    1.400   1.400   1.400
                                                       1.400   1.400

     PseudoPot. # 2 for C  read from file:
     /home/549/hxw549/Short/pseudopotentials/C.star1s-pbe-mt_gipaw.UPF
     MD5 check sum: ef0cb3dee31bd9e4ba2a832a2c716264
     Pseudo is Norm-conserving, Zval =  5.0
     Generated by new atomic code, or converted to UPF format
     Using radial grid of 1073 points,  1 beta functions with: 
                l(1) =   0

     PseudoPot. # 3 for C  read from file:
     /home/549/hxw549/Short/pseudopotentials/C.pbe-mt_gipaw.UPF
     MD5 check sum: 5ac2f21f2c440b14befe521540822c15
     Pseudo is Norm-conserving, Zval =  4.0
     Generated by new atomic code, or converted to UPF format
     Using radial grid of 1073 points,  1 beta functions with: 
                l(1) =   0

     atomic species   valence    mass     pseudopotential
        Cu            11.00    63.54600     Cu( 1.00)
        C_h            5.00    12.01070     C ( 1.00)
        C              4.00    12.01070     C ( 1.00)

     No symmetry found



   Cartesian axes

     site n.     atom                  positions (alat units)
         1           Cu  tau(   1) = (   0.0000000   0.0000567   0.9971194  )
         2           Cu  tau(   2) = (   0.2499927   0.2309760   0.9972946  )
         3           Cu  tau(   3) = (   0.5000000   0.0000313   0.9971490  )
         4           Cu  tau(   4) = (   0.7500073   0.2309760   0.9972946  )
         5           Cu  tau(   5) = (   0.0000000   0.4618437   0.9973425  )
         6           Cu  tau(   6) = (   0.2499840   0.6927701   0.9971914  )
         7           Cu  tau(   7) = (   0.5000000   0.4618722   0.9973119  )
         8           Cu  tau(   8) = (   0.7500160   0.6927701   0.9971914  )
         9           Cu  tau(   9) = (   0.0000000   0.9237521   0.9970621  )
        10           Cu  tau(  10) = (   0.2500157   1.1547420   0.9971373  )
        11           Cu  tau(  11) = (   0.5000000   0.9237453   0.9970727  )
        12           Cu  tau(  12) = (   0.7499843   1.1547420   0.9971373  )
        13           Cu  tau(  13) = (   0.0000000   1.3856555   0.9972830  )
        14           Cu  tau(  14) = (   0.2500029   1.6165618   0.9973242  )
        15           Cu  tau(  15) = (   0.5000000   1.3857014   0.9973005  )
        16           Cu  tau(  16) = (   0.7499971   1.6165618   0.9973242  )
        17           Cu  tau(  17) = (   0.0000000   1.8474941   0.9971969  )
        18           Cu  tau(  18) = (   0.2500043   2.0784518   0.9970745  )
        19           Cu  tau(  19) = (   0.5000000   1.8474499   0.9971773  )
        20           Cu  tau(  20) = (   0.7499957   2.0784518   0.9970745  )
        21           Cu  tau(  21) = (   0.0000000   0.2308065   1.2457643  )
        22           Cu  tau(  22) = (   0.2499892  -0.0001010   1.2455764  )
        23           Cu  tau(  23) = (   0.5000000   0.2308938   1.2456746  )
        24           Cu  tau(  24) = (   0.7500108  -0.0001010   1.2455764  )
        25           Cu  tau(  25) = (   0.0000000   0.6929786   1.2456406  )
        26           Cu  tau(  26) = (   0.2499874   0.4619293   1.2457459  )
        27           Cu  tau(  27) = (   0.5000000   0.6929012   1.2456074  )
        28           Cu  tau(  28) = (   0.7500126   0.4619293   1.2457459  )
        29           Cu  tau(  29) = (   0.0000000   1.1546142   1.2455676  )
        30           Cu  tau(  30) = (   0.2499981   0.9237849   1.2455149  )
        31           Cu  tau(  31) = (   0.5000000   1.1545763   1.2455800  )
        32           Cu  tau(  32) = (   0.7500019   0.9237849   1.2455149  )
        33           Cu  tau(  33) = (   0.0000000   1.6166029   1.2456910  )
        34           Cu  tau(  34) = (   0.2500161   1.3855492   1.2457134  )
        35           Cu  tau(  35) = (   0.5000000   1.6166555   1.2458019  )
        36           Cu  tau(  36) = (   0.7499839   1.3855492   1.2457134  )
        37           Cu  tau(  37) = (   0.0000000   2.0784993   1.2455162  )
        38           Cu  tau(  38) = (   0.2500161   1.8476387   1.2456210  )
        39           Cu  tau(  39) = (   0.5000000   2.0784755   1.2455152  )
        40           Cu  tau(  40) = (   0.7499839   1.8476387   1.2456210  )
        41           Cu  tau(  41) = (   0.0000000  -0.0003182   1.4954305  )
        42           Cu  tau(  42) = (   0.2500224   0.2307186   1.4951678  )
        43           Cu  tau(  43) = (   0.5000000  -0.0002059   1.4952775  )
        44           Cu  tau(  44) = (   0.7499776   0.2307186   1.4951678  )
        45           Cu  tau(  45) = (   0.0000000   0.4620254   1.4950571  )
        46           Cu  tau(  46) = (   0.2500339   0.6931225   1.4952807  )
        47           Cu  tau(  47) = (   0.5000000   0.4619896   1.4952144  )
        48           Cu  tau(  48) = (   0.7499661   0.6931225   1.4952807  )
        49           Cu  tau(  49) = (   0.0000000   0.9238798   1.4954544  )
        50           Cu  tau(  50) = (   0.2499708   1.1544329   1.4953374  )
        51           Cu  tau(  51) = (   0.5000000   0.9237633   1.4954072  )
        52           Cu  tau(  52) = (   0.7500292   1.1544329   1.4953374  )
        53           Cu  tau(  53) = (   0.0000000   1.3854453   1.4952066  )
        54           Cu  tau(  54) = (   0.2499861   1.6167017   1.4951298  )
        55           Cu  tau(  55) = (   0.5000000   1.3853760   1.4951346  )
        56           Cu  tau(  56) = (   0.7500139   1.6167017   1.4951298  )
        57           Cu  tau(  57) = (   0.0000000   1.8477718   1.4952308  )
        58           Cu  tau(  58) = (   0.2499930   2.0785254   1.4954090  )
        59           Cu  tau(  59) = (   0.5000000   1.8478762   1.4953503  )
        60           Cu  tau(  60) = (   0.7500070   2.0785254   1.4954090  )
        61           Cu  tau(  61) = (   0.0000000   0.2310733   1.7440777  )
        62           Cu  tau(  62) = (   0.2501089  -0.0001294   1.7450479  )
        63           Cu  tau(  63) = (   0.5000000   0.2306045   1.7445985  )
        64           Cu  tau(  64) = (   0.7498911  -0.0001294   1.7450479  )
        65           Cu  tau(  65) = (   0.0000000   0.6927994   1.7446059  )
        66           Cu  tau(  66) = (   0.2502918   0.4619532   1.7441197  )
        67           Cu  tau(  67) = (   0.5000000   0.6931011   1.7451318  )
        68           Cu  tau(  68) = (   0.7497082   0.4619532   1.7441197  )
        69           Cu  tau(  69) = (   0.0000000   1.1545789   1.7453503  )
        70           Cu  tau(  70) = (   0.2500220   0.9237908   1.7453835  )
        71           Cu  tau(  71) = (   0.5000000   1.1545999   1.7449118  )
        72           Cu  tau(  72) = (   0.7499780   0.9237908   1.7453835  )
        73           Cu  tau(  73) = (   0.0000000   1.6167791   1.7444075  )
        74           Cu  tau(  74) = (   0.2497438   1.3855115   1.7442733  )
        75           Cu  tau(  75) = (   0.5000000   1.6164906   1.7439233  )
        76           Cu  tau(  76) = (   0.7502562   1.3855115   1.7442733  )
        77           Cu  tau(  77) = (   0.0000000   2.0782721   1.7455014  )
        78           Cu  tau(  78) = (   0.2498426   1.8476765   1.7447807  )
        79           Cu  tau(  79) = (   0.5000000   2.0787016   1.7454002  )
        80           Cu  tau(  80) = (   0.7501574   1.8476765   1.7447807  )
        81           Cu  tau(  81) = (   0.0000000   0.0010732   1.9906710  )
        82           Cu  tau(  82) = (   0.2503054   0.2314650   1.9904877  )
        83           Cu  tau(  83) = (   0.5000000   0.0001335   1.9924670  )
        84           Cu  tau(  84) = (   0.7496946   0.2314650   1.9904877  )
        85           Cu  tau(  85) = (   0.0000000   0.4618379   1.9901778  )
        86           Cu  tau(  86) = (   0.2508441   0.6921348   1.9910282  )
        87           Cu  tau(  87) = (   0.5000000   0.4613052   1.9913358  )
        88           Cu  tau(  88) = (   0.7491559   0.6921348   1.9910282  )
        89           Cu  tau(  89) = (   0.0000000   0.9224699   1.9915918  )
        90           Cu  tau(  90) = (   0.2491275   1.1552920   1.9912642  )
        91           Cu  tau(  91) = (   0.5000000   0.9247757   1.9920574  )
        92           Cu  tau(  92) = (   0.7508725   1.1552920   1.9912642  )
        93           Cu  tau(  93) = (   0.0000000   1.3865904   1.9916296  )
        94           Cu  tau(  94) = (   0.2499532   1.6162906   1.9903050  )
        95           Cu  tau(  95) = (   0.5000000   1.3858063   1.9901800  )
        96           Cu  tau(  96) = (   0.7500468   1.6162906   1.9903050  )
        97           Cu  tau(  97) = (   0.0000000   1.8468318   1.9923212  )
        98           Cu  tau(  98) = (   0.2497561   2.0783183   1.9915134  )
        99           Cu  tau(  99) = (   0.5000000   1.8467805   1.9903847  )
       100           Cu  tau( 100) = (   0.7502439   2.0783183   1.9915134  )
       101           C   tau( 101) = (   0.0999773   0.0962962   2.3888871  )
       102           C   tau( 102) = (   0.0999773   0.2886925   2.3900713  )
       103           C   tau( 103) = (   0.2666102   0.0000435   2.3878440  )
       104           C   tau( 104) = (   0.2664679   0.3848966   2.3886743  )
       105           C   tau( 105) = (   0.4331008   0.0962174   2.3860158  )
       106           C   tau( 106) = (   0.4331049   0.2886629   2.3856823  )
       107           C   tau( 107) = (   0.5999777  -0.0000818   2.3845687  )
       108           C   tau( 108) = (   0.5999777   0.3849277   2.3842391  )
       109           C   tau( 109) = (   0.7668532   0.0962174   2.3860158  )
       110           C   tau( 110) = (   0.7668492   0.2886629   2.3856823  )
       111           C   tau( 111) = (   0.9333452   0.0000435   2.3878440  )
       112           C   tau( 112) = (   0.9334875   0.3848966   2.3886743  )
       113           C   tau( 113) = (   0.0999773   0.6735163   2.3892509  )
       114           C   tau( 114) = (   0.0999773   0.8659398   2.3870960  )
       115           C   tau( 115) = (   0.2664530   0.5773226   2.3882842  )
       116           C   tau( 116) = (   0.2667200   0.9622141   2.3870264  )
       117           C   tau( 117) = (   0.4331862   0.6735984   2.3858047  )
       118           C   tau( 118) = (   0.4331808   0.8660537   2.3866148  )
       119           C   tau( 119) = (   0.5999777   0.5773685   2.3848465  )
       120           C_h tau( 120) = (   0.5999777   0.9623380   2.3860825  )
       121           C   tau( 121) = (   0.7667679   0.6735984   2.3858047  )
       122           C   tau( 122) = (   0.7667746   0.8660537   2.3866148  )
       123           C   tau( 123) = (   0.9335011   0.5773226   2.3882842  )
       124           C   tau( 124) = (   0.9332341   0.9622141   2.3870264  )
       125           C   tau( 125) = (   0.0999773   1.2508867   2.3852683  )
       126           C   tau( 126) = (   0.0999773   1.4433300   2.3840871  )
       127           C   tau( 127) = (   0.2667132   1.1546708   2.3859697  )
       128           C   tau( 128) = (   0.2668718   1.5396104   2.3857176  )
       129           C   tau( 129) = (   0.4334871   1.2509657   2.3878953  )
       130           C   tau( 130) = (   0.4334641   1.4433958   2.3886602  )
       131           C   tau( 131) = (   0.5999777   1.1547731   2.3885512  )
       132           C   tau( 132) = (   0.5999777   1.5396099   2.3901428  )
       133           C   tau( 133) = (   0.7664683   1.2509657   2.3878953  )
       134           C   tau( 134) = (   0.7664914   1.4433958   2.3886602  )
       135           C   tau( 135) = (   0.9332408   1.1546708   2.3859697  )
       136           C   tau( 136) = (   0.9330836   1.5396104   2.3857176  )
       137           C   tau( 137) = (   0.0999773   1.8283510   2.3842019  )
       138           C   tau( 138) = (   0.0999773   2.0207949   2.3863399  )
       139           C   tau( 139) = (   0.2668732   1.7320513   2.3858703  )
       140           C   tau( 140) = (   0.2665953   2.1169980   2.3865340  )
       141           C   tau( 141) = (   0.4333922   1.8282368   2.3882160  )
       142           C   tau( 142) = (   0.4334126   2.0206763   2.3869561  )
       143           C   tau( 143) = (   0.5999777   1.7319961   2.3895398  )
       144           C   tau( 144) = (   0.5999777   2.1168754   2.3870198  )
       145           C   tau( 145) = (   0.7665618   1.8282368   2.3882160  )
       146           C   tau( 146) = (   0.7665415   2.0206763   2.3869561  )
       147           C   tau( 147) = (   0.9330809   1.7320513   2.3858703  )
       148           C   tau( 148) = (   0.9333588   2.1169980   2.3865340  )

     number of k points=     6  gaussian smearing, width (Ry)=  0.1000
                       cart. coord. in units 2pi/alat
        k(    1) = (   0.0000000   0.0000000   0.0000000), wk =   0.2500000
        k(    2) = (   0.0000000  -0.2165064   0.0000000), wk =   0.2500000
        k(    3) = (   0.2500000   0.0000000   0.0000000), wk =   0.5000000
        k(    4) = (   0.2500000  -0.2165064   0.0000000), wk =   0.5000000
        k(    5) = (  -0.5000000   0.0000000   0.0000000), wk =   0.2500000
        k(    6) = (  -0.5000000  -0.2165064   0.0000000), wk =   0.2500000

     Dense  grid:  2050409 G-vectors     FFT dimensions: (  80, 192, 270)

     Largest allocated arrays     est. size (Mb)     dimensions
        Kohn-Sham Wavefunctions        54.44 Mb     (    4604,  775)
        NL pseudopotentials           129.82 Mb     (    4604, 1848)
        Each V/rho on FFT grid          1.17 Mb     (   76800)
        Each G-vector array             0.28 Mb     (   36616)
        G-vector shells                 0.14 Mb     (   17932)
     Largest temporary arrays     est. size (Mb)     dimensions
        Auxiliary wavefunctions       217.78 Mb     (    4604, 3100)
        Each subspace H/S matrix        5.87 Mb     (     620,  620)
        Each <psi_i|beta_j> matrix     21.85 Mb     (    1848,  775)
        Arrays for rho mixing           9.38 Mb     (   76800,    8)

     Initial potential from superposition of free atoms
     Check: negative starting charge=   -0.001843

     starting charge 1266.81751, renormalised to 1292.00000

     negative rho (up, down):  1.879E-03 0.000E+00
     Starting wfc are 1284 randomized atomic wfcs

     total cpu time spent up to now is      107.6 secs

     Self-consistent Calculation

     iteration #  1     ecut=    80.00 Ry     beta=0.70
     Davidson diagonalization with overlap
     c_bands:  1 eigenvalues not converged
     c_bands:  3 eigenvalues not converged
     ethr =  1.00E-04,  avg # of iterations = 36.2

     negative rho (up, down):  2.723E+01 0.000E+00

     total cpu time spent up to now is     2077.8 secs

     total energy              =   -9475.39896787 Ry
     Harris-Foulkes estimate   =  -17310.56904447 Ry
     estimated scf accuracy    <  180107.81590573 Ry

     iteration #  2     ecut=    80.00 Ry     beta=0.70
     Davidson diagonalization with overlap
     ethr =  1.00E-02,  avg # of iterations = 12.3

     negative rho (up, down):  3.148E+01 0.000E+00

     total cpu time spent up to now is     2996.6 secs

     total energy              =  -12203.75434130 Ry
     Harris-Foulkes estimate   =  -13665.13057438 Ry
     estimated scf accuracy    <   23985.45812725 Ry

     iteration #  3     ecut=    80.00 Ry     beta=0.70
     Davidson diagonalization with overlap
     ethr =  1.00E-02,  avg # of iterations =  7.5

     negative rho (up, down):  3.202E+01 0.000E+00

     total cpu time spent up to now is     3533.2 secs

     total energy              =  -12463.52432164 Ry
     Harris-Foulkes estimate   =  -13405.84666812 Ry
     estimated scf accuracy    <    5799.00462047 Ry

     iteration #  4     ecut=    80.00 Ry     beta=0.70
     Davidson diagonalization with overlap
     ethr =  1.00E-02,  avg # of iterations =  5.8

     negative rho (up, down):  2.380E+01 0.000E+00

     total cpu time spent up to now is     4024.7 secs

     total energy              =  -12846.82764119 Ry
     Harris-Foulkes estimate   =  -13083.80961502 Ry
     estimated scf accuracy    <    1769.19933007 Ry

     iteration #  5     ecut=    80.00 Ry     beta=0.70
     Davidson diagonalization with overlap
     ethr =  1.00E-02,  avg # of iterations =  3.5

     negative rho (up, down):  1.862E+01 0.000E+00

     total cpu time spent up to now is     4294.5 secs

     total energy              =  -12845.84964008 Ry
     Harris-Foulkes estimate   =  -12960.97839037 Ry
     estimated scf accuracy    <    1287.03012663 Ry

     iteration #  6     ecut=    80.00 Ry     beta=0.70
     Davidson diagonalization with overlap
     ethr =  1.00E-02,  avg # of iterations =  3.0

     negative rho (up, down):  1.296E+01 0.000E+00

     total cpu time spent up to now is     4505.2 secs

     total energy              =  -12834.17602360 Ry
     Harris-Foulkes estimate   =  -12908.38144660 Ry
     estimated scf accuracy    <     572.52854057 Ry

     iteration #  7     ecut=    80.00 Ry     beta=0.70
     Davidson diagonalization with overlap
     ethr =  1.00E-02,  avg # of iterations =  2.0

     negative rho (up, down):  9.316E+00 0.000E+00

     total cpu time spent up to now is     4686.8 secs

     total energy              =  -12809.15761957 Ry
     Harris-Foulkes estimate   =  -12852.28251758 Ry
     estimated scf accuracy    <     446.28708293 Ry

     iteration #  8     ecut=    80.00 Ry     beta=0.70
     Davidson diagonalization with overlap
     ethr =  1.00E-02,  avg # of iterations =  2.0

     negative rho (up, down):  7.248E+00 0.000E+00

     total cpu time spent up to now is     4865.2 secs

     total energy              =  -12787.88795493 Ry
     Harris-Foulkes estimate   =  -12824.32140125 Ry
     estimated scf accuracy    <     494.76004549 Ry

     iteration #  9     ecut=    80.00 Ry     beta=0.70
     Davidson diagonalization with overlap
     ethr =  1.00E-02,  avg # of iterations =  1.8

     negative rho (up, down):  5.517E+00 0.000E+00

     total cpu time spent up to now is     5040.4 secs

     total energy              =  -12780.66711642 Ry
     Harris-Foulkes estimate   =  -12800.01178479 Ry
     estimated scf accuracy    <     189.30627678 Ry

     iteration # 10     ecut=    80.00 Ry     beta=0.70
     Davidson diagonalization with overlap
     ethr =  1.00E-02,  avg # of iterations =  1.5

     negative rho (up, down):  1.186E+00 0.000E+00

     total cpu time spent up to now is     5213.4 secs

     total energy              =  -12736.99904163 Ry
     Harris-Foulkes estimate   =  -12782.25117895 Ry
     estimated scf accuracy    <     150.00798065 Ry

     iteration # 11     ecut=    80.00 Ry     beta=0.70
     Davidson diagonalization with overlap
     ethr =  1.00E-02,  avg # of iterations =  3.2

     negative rho (up, down):  8.771E-01 0.000E+00

     total cpu time spent up to now is     5404.4 secs

     total energy              =  -12728.34243517 Ry
     Harris-Foulkes estimate   =  -12746.83236045 Ry
     estimated scf accuracy    <     365.67758505 Ry

     iteration # 12     ecut=    80.00 Ry     beta=0.70
     Davidson diagonalization with overlap
     ethr =  1.00E-02,  avg # of iterations =  1.8

     negative rho (up, down):  5.479E-01 0.000E+00

     total cpu time spent up to now is     5579.9 secs

     total energy              =  -12724.78325655 Ry
     Harris-Foulkes estimate   =  -12741.08798984 Ry
     estimated scf accuracy    <     316.81706993 Ry

     iteration # 13     ecut=    80.00 Ry     beta=0.70
     Davidson diagonalization with overlap
     ethr =  1.00E-02,  avg # of iterations =  1.0

     negative rho (up, down):  3.346E+00 0.000E+00

     total cpu time spent up to now is     5745.5 secs

     total energy              =  -12716.33734832 Ry
     Harris-Foulkes estimate   =  -12734.64756505 Ry
     estimated scf accuracy    <     114.91891425 Ry

     iteration # 14     ecut=    80.00 Ry     beta=0.70
     Davidson diagonalization with overlap
     ethr =  8.89E-03,  avg # of iterations =  2.2

     negative rho (up, down):  5.659E+00 0.000E+00

     total cpu time spent up to now is     5927.1 secs

     total energy              =  -12718.88622492 Ry
     Harris-Foulkes estimate   =  -12724.45624047 Ry
     estimated scf accuracy    <      48.27261536 Ry

     iteration # 15     ecut=    80.00 Ry     beta=0.70
     Davidson diagonalization with overlap
     ethr =  3.74E-03,  avg # of iterations =  1.8

     negative rho (up, down):  5.143E+00 0.000E+00

     total cpu time spent up to now is     6103.9 secs

     total energy              =  -12716.15566442 Ry
     Harris-Foulkes estimate   =  -12720.25980612 Ry
     estimated scf accuracy    <      34.46060508 Ry

     iteration # 16     ecut=    80.00 Ry     beta=0.70
     Davidson diagonalization with overlap
     ethr =  2.67E-03,  avg # of iterations =  2.5

     negative rho (up, down):  4.919E+00 0.000E+00

     total cpu time spent up to now is     6286.4 secs

     total energy              =  -12714.48388329 Ry
     Harris-Foulkes estimate   =  -12717.57154520 Ry
     estimated scf accuracy    <      21.69527063 Ry

     iteration # 17     ecut=    80.00 Ry     beta=0.70
     Davidson diagonalization with overlap
     ethr =  1.68E-03,  avg # of iterations =  3.7

     negative rho (up, down):  5.006E+00 0.000E+00

     total cpu time spent up to now is     6483.3 secs

     total energy              =  -12714.18517802 Ry
     Harris-Foulkes estimate   =  -12715.19527621 Ry
     estimated scf accuracy    <      13.53673156 Ry

     iteration # 18     ecut=    80.00 Ry     beta=0.70
     Davidson diagonalization with overlap
     ethr =  1.05E-03,  avg # of iterations =  7.8

     negative rho (up, down):  4.348E+00 0.000E+00

     total cpu time spent up to now is     6729.0 secs

     total energy              =  -12713.01456711 Ry
     Harris-Foulkes estimate   =  -12714.64665622 Ry
     estimated scf accuracy    <      10.57219519 Ry

     iteration # 19     ecut=    80.00 Ry     beta=0.70
     Davidson diagonalization with overlap
     ethr =  8.18E-04,  avg # of iterations =  6.5

     negative rho (up, down):  3.756E+00 0.000E+00

     total cpu time spent up to now is     6960.8 secs

     total energy              =  -12712.31571895 Ry
     Harris-Foulkes estimate   =  -12713.27121240 Ry
     estimated scf accuracy    <       8.01877795 Ry

     iteration # 20     ecut=    80.00 Ry     beta=0.70
     Davidson diagonalization with overlap
     ethr =  6.21E-04,  avg # of iterations =  1.7

     negative rho (up, down):  2.810E+00 0.000E+00

     total cpu time spent up to now is     7136.5 secs

     total energy              =  -12711.68146742 Ry
     Harris-Foulkes estimate   =  -12712.49163437 Ry
     estimated scf accuracy    <       8.79583291 Ry

     iteration # 21     ecut=    80.00 Ry     beta=0.70
     Davidson diagonalization with overlap
     ethr =  6.21E-04,  avg # of iterations =  1.0

     negative rho (up, down):  2.673E+00 0.000E+00

     total cpu time spent up to now is     7304.8 secs

     total energy              =  -12711.51645760 Ry
     Harris-Foulkes estimate   =  -12711.82581313 Ry
     estimated scf accuracy    <       8.16600814 Ry

     iteration # 22     ecut=    80.00 Ry     beta=0.70
     Davidson diagonalization with overlap
     ethr =  6.21E-04,  avg # of iterations =  1.2

     negative rho (up, down):  1.130E+00 0.000E+00

     total cpu time spent up to now is     7472.0 secs

     total energy              =  -12709.90568307 Ry
     Harris-Foulkes estimate   =  -12711.86854487 Ry
     estimated scf accuracy    <       6.45445552 Ry

     iteration # 23     ecut=    80.00 Ry     beta=0.70
     Davidson diagonalization with overlap
     ethr =  5.00E-04,  avg # of iterations =  3.5

     negative rho (up, down):  1.745E-01 0.000E+00

     total cpu time spent up to now is     7666.4 secs

     total energy              =  -12708.53963380 Ry
     Harris-Foulkes estimate   =  -12710.05838614 Ry
     estimated scf accuracy    <       5.56117964 Ry

     iteration # 24     ecut=    80.00 Ry     beta=0.70
     Davidson diagonalization with overlap
     ethr =  4.30E-04,  avg # of iterations =  3.8

     negative rho (up, down):  1.051E-01 0.000E+00

     total cpu time spent up to now is     7866.7 secs

     total energy              =  -12708.03646082 Ry
     Harris-Foulkes estimate   =  -12708.87460234 Ry
     estimated scf accuracy    <       6.22743804 Ry

     iteration # 25     ecut=    80.00 Ry     beta=0.70
     Davidson diagonalization with overlap
     ethr =  4.30E-04,  avg # of iterations =  2.0

     negative rho (up, down):  1.092E-01 0.000E+00

     total cpu time spent up to now is     8044.8 secs

     total energy              =  -12707.98241150 Ry
     Harris-Foulkes estimate   =  -12708.23859394 Ry
     estimated scf accuracy    <       3.59394799 Ry

     iteration # 26     ecut=    80.00 Ry     beta=0.70
     Davidson diagonalization with overlap
     ethr =  2.78E-04,  avg # of iterations =  7.7

     negative rho (up, down):  3.111E-01 0.000E+00

     total cpu time spent up to now is     8286.8 secs

     total energy              =  -12707.75644273 Ry
     Harris-Foulkes estimate   =  -12708.14533370 Ry
     estimated scf accuracy    <       2.20573819 Ry

     iteration # 27     ecut=    80.00 Ry     beta=0.70
     Davidson diagonalization with overlap
     ethr =  1.71E-04,  avg # of iterations =  3.8

     negative rho (up, down):  3.160E-01 0.000E+00

     total cpu time spent up to now is     8485.0 secs

     total energy              =  -12707.49918862 Ry
     Harris-Foulkes estimate   =  -12707.79307696 Ry
     estimated scf accuracy    <       1.78724223 Ry

     iteration # 28     ecut=    80.00 Ry     beta=0.70
     Davidson diagonalization with overlap
     ethr =  1.38E-04,  avg # of iterations =  7.3

     negative rho (up, down):  2.570E-01 0.000E+00

     total cpu time spent up to now is     8723.4 secs

     total energy              =  -12707.23610817 Ry
     Harris-Foulkes estimate   =  -12707.53357384 Ry
     estimated scf accuracy    <       1.24727470 Ry

     iteration # 29     ecut=    80.00 Ry     beta=0.70
     Davidson diagonalization with overlap
     ethr =  9.65E-05,  avg # of iterations =  9.3

     negative rho (up, down):  1.734E-01 0.000E+00

     total cpu time spent up to now is     9000.7 secs

     total energy              =  -12707.16116264 Ry
     Harris-Foulkes estimate   =  -12707.29963944 Ry
     estimated scf accuracy    <       0.89713698 Ry

     iteration # 30     ecut=    80.00 Ry     beta=0.70
     Davidson diagonalization with overlap
     ethr =  6.94E-05,  avg # of iterations =  7.5

     negative rho (up, down):  9.713E-02 0.000E+00

     total cpu time spent up to now is     9242.2 secs

     total energy              =  -12707.14610975 Ry
     Harris-Foulkes estimate   =  -12707.21734093 Ry
     estimated scf accuracy    <       0.47025826 Ry

     iteration # 31     ecut=    80.00 Ry     beta=0.70
     Davidson diagonalization with overlap
     ethr =  3.64E-05,  avg # of iterations =  9.2

     negative rho (up, down):  1.821E-01 0.000E+00

     total cpu time spent up to now is     9517.3 secs

     total energy              =  -12707.14142502 Ry
     Harris-Foulkes estimate   =  -12707.17263215 Ry
     estimated scf accuracy    <       0.27641073 Ry

     iteration # 32     ecut=    80.00 Ry     beta=0.70
     Davidson diagonalization with overlap
     ethr =  2.14E-05,  avg # of iterations =  5.7

     negative rho (up, down):  1.551E-01 0.000E+00

     total cpu time spent up to now is     9743.4 secs

     total energy              =  -12707.13837820 Ry
     Harris-Foulkes estimate   =  -12707.16608094 Ry
     estimated scf accuracy    <       0.12884716 Ry

     iteration # 33     ecut=    80.00 Ry     beta=0.70
     Davidson diagonalization with overlap
     ethr =  9.97E-06,  avg # of iterations =  9.2

     negative rho (up, down):  9.213E-02 0.000E+00

     total cpu time spent up to now is    10013.0 secs

     total energy              =  -12707.13954297 Ry
     Harris-Foulkes estimate   =  -12707.14779190 Ry
     estimated scf accuracy    <       0.04479117 Ry

     iteration # 34     ecut=    80.00 Ry     beta=0.70
     Davidson diagonalization with overlap
     ethr =  3.47E-06,  avg # of iterations =  8.8

     negative rho (up, down):  4.354E-02 0.000E+00

     total cpu time spent up to now is    10280.6 secs

     total energy              =  -12707.14105165 Ry
     Harris-Foulkes estimate   =  -12707.14310178 Ry
     estimated scf accuracy    <       0.01129442 Ry

     iteration # 35     ecut=    80.00 Ry     beta=0.70
     Davidson diagonalization with overlap
     ethr =  8.74E-07,  avg # of iterations =  5.8

     negative rho (up, down):  1.146E-02 0.000E+00

     total cpu time spent up to now is    10512.5 secs

     total energy              =  -12707.14230286 Ry
     Harris-Foulkes estimate   =  -12707.14188193 Ry
     estimated scf accuracy    <       0.00490390 Ry

     iteration # 36     ecut=    80.00 Ry     beta=0.70
     Davidson diagonalization with overlap
     ethr =  3.80E-07,  avg # of iterations =  8.7

     negative rho (up, down):  4.168E-03 0.000E+00

     total cpu time spent up to now is    10779.1 secs

     total energy              =  -12707.14287580 Ry
     Harris-Foulkes estimate   =  -12707.14248077 Ry
     estimated scf accuracy    <       0.00066747 Ry

     iteration # 37     ecut=    80.00 Ry     beta=0.70
     Davidson diagonalization with overlap
     ethr =  5.17E-08,  avg # of iterations =  9.5

     negative rho (up, down):  6.972E-03 0.000E+00

     total cpu time spent up to now is    11061.8 secs

     total energy              =  -12707.14301544 Ry
     Harris-Foulkes estimate   =  -12707.14292035 Ry
     estimated scf accuracy    <       0.00025059 Ry

     iteration # 38     ecut=    80.00 Ry     beta=0.70
     Davidson diagonalization with overlap
     ethr =  1.94E-08,  avg # of iterations =  5.3

     negative rho (up, down):  2.736E-03 0.000E+00

     total cpu time spent up to now is    11291.4 secs

     total energy              =  -12707.14301119 Ry
     Harris-Foulkes estimate   =  -12707.14304457 Ry
     estimated scf accuracy    <       0.00011088 Ry

     iteration # 39     ecut=    80.00 Ry     beta=0.70
     Davidson diagonalization with overlap
     c_bands:  1 eigenvalues not converged
     c_bands:  1 eigenvalues not converged
     ethr =  8.58E-09,  avg # of iterations = 11.5

     negative rho (up, down):  2.956E-03 0.000E+00

     total cpu time spent up to now is    11603.6 secs

     total energy              =  -12707.14302566 Ry
     Harris-Foulkes estimate   =  -12707.14302141 Ry
     estimated scf accuracy    <       0.00002068 Ry

     iteration # 40     ecut=    80.00 Ry     beta=0.70
     Davidson diagonalization with overlap
     ethr =  1.60E-09,  avg # of iterations =  5.0

     negative rho (up, down):  2.683E-03 0.000E+00

     total cpu time spent up to now is    11824.2 secs

     total energy              =  -12707.14302550 Ry
     Harris-Foulkes estimate   =  -12707.14302746 Ry
     estimated scf accuracy    <       0.00000501 Ry

     iteration # 41     ecut=    80.00 Ry     beta=0.70
     Davidson diagonalization with overlap
     ethr =  3.88E-10,  avg # of iterations =  3.0

     negative rho (up, down):  2.102E-03 0.000E+00

     total cpu time spent up to now is    12021.6 secs

     total energy              =  -12707.14302421 Ry
     Harris-Foulkes estimate   =  -12707.14302595 Ry
     estimated scf accuracy    <       0.00000213 Ry

     iteration # 42     ecut=    80.00 Ry     beta=0.70
     Davidson diagonalization with overlap
     ethr =  1.65E-10,  avg # of iterations =  3.3

     negative rho (up, down):  2.263E-03 0.000E+00

     total cpu time spent up to now is    12229.2 secs

     total energy              =  -12707.14302420 Ry
     Harris-Foulkes estimate   =  -12707.14302448 Ry
     estimated scf accuracy    <       0.00000137 Ry

     iteration # 43     ecut=    80.00 Ry     beta=0.70
     Davidson diagonalization with overlap
     ethr =  1.06E-10,  avg # of iterations =  3.0

     negative rho (up, down):  2.203E-03 0.000E+00

     total cpu time spent up to now is    12428.5 secs

     total energy              =  -12707.14302430 Ry
     Harris-Foulkes estimate   =  -12707.14302437 Ry
     estimated scf accuracy    <       0.00000035 Ry

     iteration # 44     ecut=    80.00 Ry     beta=0.70
     Davidson diagonalization with overlap
     ethr =  2.72E-11,  avg # of iterations =  2.2

     negative rho (up, down):  2.099E-03 0.000E+00

     total cpu time spent up to now is    12616.6 secs

     total energy              =  -12707.14302432 Ry
     Harris-Foulkes estimate   =  -12707.14302433 Ry
     estimated scf accuracy    <       0.00000008 Ry

     iteration # 45     ecut=    80.00 Ry     beta=0.70
     Davidson diagonalization with overlap
     ethr =  6.29E-12,  avg # of iterations =  3.0

     negative rho (up, down):  2.101E-03 0.000E+00

     total cpu time spent up to now is    12824.6 secs

     total energy              =  -12707.14302433 Ry
     Harris-Foulkes estimate   =  -12707.14302433 Ry
     estimated scf accuracy    <       0.00000003 Ry

     iteration # 46     ecut=    80.00 Ry     beta=0.70
     Davidson diagonalization with overlap
     ethr =  2.62E-12,  avg # of iterations =  2.3

     negative rho (up, down):  2.115E-03 0.000E+00

     total cpu time spent up to now is    13004.0 secs

     End of self-consistent calculation

          k = 0.0000 0.0000 0.0000 (256287 PWs)   bands (ev):

   -17.2806 -16.2344 -16.0880 -15.4298 -15.0441 -14.7913 -14.6908 -14.2535
   -14.1988 -14.1399 -14.1240 -13.4671 -13.3248 -13.1546 -13.1229 -13.0866
   -13.0801 -11.6708 -11.5334 -11.4855 -11.3890 -11.2058 -10.3532  -9.7685
    -9.7613  -9.6266  -9.5236  -8.9877  -8.7995  -8.6732  -8.6022  -8.0459
    -7.9034  -7.7625  -7.6411  -7.5818  -7.5739  -7.5352  -7.5241  -6.3600
    -6.3496  -6.1252  -6.0216  -6.0203  -5.9496  -5.8902  -5.8600  -5.8445
    -5.4979  -5.4849  -5.3024  -4.8922  -4.8399  -4.7990  -4.6353  -4.6216
    -4.5833  -4.4254  -4.2567  -4.1471  -3.9893  -3.9878  -3.9696  -3.9470
    -3.6188  -3.5503  -3.5287  -3.5246  -3.4215  -3.4183  -3.4071  -3.4002
    -3.2768  -3.1867  -3.1227  -3.0596  -3.0160  -3.0078  -3.0074  -3.0059
    -2.9916  -2.8586  -2.8352  -2.7992  -2.7813  -2.7452  -2.7397  -2.7390
    -2.7185  -2.7143  -2.5330  -2.4332  -2.3773  -2.3764  -2.3391  -2.3361
    -2.1944  -2.1920  -2.1822  -2.1769  -2.1520  -2.1520  -2.1518  -2.1515
    -2.1132  -2.0783  -2.0778  -2.0358  -2.0211  -2.0210  -2.0209  -2.0204
    -1.9605  -1.8416  -1.7769  -1.7433  -1.7386  -1.7378  -1.7376  -1.7028
    -1.6929  -1.6716  -1.6583  -1.6567  -1.6111  -1.6016  -1.5895  -1.5705
    -1.5643  -1.5633  -1.5612  -1.5509  -1.5397  -1.5352  -1.5347  -1.5154
    -1.5140  -1.4570  -1.4413  -1.4279  -1.4156  -1.3839  -1.3811  -1.3769
    -1.3715  -1.3528  -1.2989  -1.2928  -1.2636  -1.2620  -1.2507  -1.2115
    -1.2113  -1.1917  -1.1896  -1.1753  -1.1669  -1.1640  -1.1274  -1.1196
    -1.1096  -1.1068  -1.0494  -1.0466  -1.0356  -1.0297  -1.0269  -1.0248
    -1.0245  -1.0219  -1.0205  -1.0156  -1.0153  -0.9982  -0.9959  -0.9811
    -0.9517  -0.9415  -0.9379  -0.9344  -0.9233  -0.9188  -0.9178  -0.9172
    -0.8976  -0.8584  -0.8580  -0.8570  -0.8563  -0.8555  -0.8545  -0.8537
    -0.8527  -0.8526  -0.8495  -0.8481  -0.8481  -0.8478  -0.8456  -0.8432
    -0.8418  -0.8333  -0.8297  -0.8292  -0.8226  -0.7856  -0.6896  -0.6896
    -0.6857  -0.6834  -0.6824  -0.6603  -0.6584  -0.6414  -0.6412  -0.6198
    -0.6196  -0.6056  -0.6043  -0.6028  -0.6024  -0.5877  -0.5643  -0.5637
    -0.5618  -0.5612  -0.5538  -0.5528  -0.5421  -0.5420  -0.4920  -0.4920
    -0.4381  -0.4378  -0.4275  -0.4259  -0.4257  -0.4244  -0.4106  -0.4103
    -0.4048  -0.4046  -0.4044  -0.4040  -0.3996  -0.3996  -0.3850  -0.3849
    -0.3845  -0.3770  -0.3753  -0.3745  -0.3510  -0.3504  -0.2993  -0.2987
    -0.2967  -0.2910  -0.2908  -0.2643  -0.2643  -0.2643  -0.2643  -0.2490
    -0.2472  -0.2467  -0.2424  -0.2423  -0.2239  -0.2211  -0.2195  -0.2192
    -0.2148  -0.2144  -0.2143  -0.2140  -0.2115  -0.2087  -0.1927  -0.1900
    -0.1893  -0.1880  -0.1873  -0.1684  -0.1206  -0.1202  -0.1181  -0.1180
    -0.1153  -0.0740  -0.0712  -0.0696  -0.0686  -0.0677  -0.0624  -0.0620
    -0.0618  -0.0616  -0.0614  -0.0532  -0.0468  -0.0343  -0.0111  -0.0089
    -0.0076  -0.0074   0.0011   0.0181   0.0212   0.0216   0.0219   0.0264
     0.0302   0.0455   0.0462   0.0477   0.0484   0.0490   0.0492   0.0627
     0.0637   0.0638   0.0639   0.0690   0.0767   0.0772   0.0779   0.0998
     0.1022   0.1250   0.1353   0.1360   0.1577   0.1646   0.1650   0.1892
     0.1936   0.2322   0.2379   0.2385   0.2388   0.2399   0.2433   0.2486
     0.2703   0.2733   0.2738   0.2740   0.2744   0.2840   0.2843   0.2937
     0.3265   0.3409   0.3409   0.3472   0.3494   0.3505   0.3506   0.3775
     0.3834   0.3836   0.3842   0.3843   0.4028   0.4149   0.4179   0.4222
     0.4236   0.4367   0.4372   0.4392   0.4404   0.4779   0.4793   0.4937
     0.4945   0.4967   0.4970   0.4972   0.5087   0.5248   0.5277   0.5307
     0.5331   0.5346   0.5357   0.5358   0.5375   0.5399   0.5468   0.5473
     0.5484   0.5536   0.5545   0.5556   0.5631   0.5643   0.5872   0.5958
     0.6058   0.6059   0.6163   0.6165   0.6486   0.6497   0.6499   0.6506
     0.6526   0.6529   0.6536   0.6541   0.6644   0.6657   0.6740   0.6784
     0.6790   0.6793   0.6806   0.6874   0.6877   0.6975   0.6977   0.7062
     0.7200   0.7206   0.7209   0.7232   0.7311   0.7324   0.7393   0.7427
     0.7463   0.7486   0.7486   0.7494   0.7553   0.7560   0.7596   0.7619
     0.7685   0.7811   0.8058   0.8061   0.8163   0.8177   0.8234   0.8243
     0.8245   0.8253   0.8557   0.8562   0.8699   0.8709   0.8763   0.8763
     0.8909   0.8911   0.9001   0.9004   0.9009   0.9024   0.9091   0.9227
     0.9370   0.9375   0.9395   0.9419   0.9425   0.9438   0.9583   0.9666
     0.9758   0.9778   0.9861   0.9863   0.9971   1.0004   1.0104   1.0107
     1.0119   1.0130   1.0137   1.0139   1.0239   1.0245   1.0263   1.0288
     1.0288   1.0297   1.0308   1.0438   1.0439   1.0625   1.0628   1.0642
     1.0652   1.0697   1.0737   1.1004   1.1046   1.1060   1.1082   1.1087
     1.1102   1.1116   1.1129   1.1182   1.1195   1.1197   1.1199   1.1200
     1.1206   1.1357   1.1361   1.1608   1.1663   1.1836   1.1840   1.1946
     1.2016   1.2028   1.2035   1.2054   1.2057   1.2108   1.2151   1.2242
     1.2266   1.2331   1.2390   1.2398   1.2402   1.2407   1.2451   1.2464
     1.2466   1.2551   1.2740   1.2747   1.2757   1.2762   1.2777   1.2780
     1.2780   1.2783   1.2944   1.2948   1.2962   1.3019   1.3103   1.3106
     1.3113   1.3117   1.3119   1.3217   1.3237   1.3248   1.3349   1.3445
     1.3522   1.3549   1.3558   1.3561   1.3572   1.3591   1.3594   1.3716
     1.3840   1.3868   1.3882   1.3932   1.4031   1.4162   1.4163   1.4223
     1.4227   1.4228   1.4293   1.4296   1.4326   1.4343   1.4345   1.4346
     1.4349   1.4370   1.4385   1.4458   1.4463   1.4502   1.4676   1.4676
     1.4683   1.4684   1.4719   1.4795   1.4807   1.4946   1.5055   1.5082
     1.5099   1.5207   1.5569   1.5575   1.5603   1.5613   1.5793   1.5799
     1.5800   1.5878   1.5910   1.6060   1.6295   1.6322   1.6325   1.6330
     1.6336   1.6433   1.6439   1.6442   1.9000   1.9560   2.1054   2.1081
     2.1480   2.1548   2.2003   2.2053   2.2063   2.2069   2.2174   2.2246
     2.2253   2.2263   2.3987   2.4018   2.4571   2.4655   2.4669   2.4673
     2.4781   2.4808   2.6511   2.7200   2.7251   2.7255   2.7495   2.9748
     2.9881   3.0230   3.1688   3.5202   3.5226   3.8148   3.8180   3.8449
     3.8521   3.8546   3.8554   3.8912   3.9674   3.9802   3.9861   4.0060
     4.0082   4.0091   4.0097   4.0129   4.0135   4.2315   4.2487   4.2493
     4.2503   4.3581   4.3984   4.6683   4.7660   4.8535   4.8624   4.9281
     5.3050   5.3921   5.3986   5.4060   5.7035   5.7094   5.7219   5.7241
     5.9164   5.9298   6.1956   6.3438   6.3475   6.4080   6.4157   6.4708
     6.4737   6.4779   6.4836   6.5765   6.5912   6.6046   6.7166   6.7746
     6.7805   6.7938   6.8117   6.8185   7.0122   7.0503   7.0531   7.0609
     7.0719   7.0920   7.3559   7.3577   7.5099   7.5492   7.5515   7.6937
     7.6961   7.7070   7.7095   8.0018   8.0389   8.0893   8.1364   8.1915
     8.2215   8.2998   8.3041   8.3055   8.3353   8.3375   8.3457   8.4037
     8.4099   8.4254   8.4925   8.5570   8.5663   8.5749   8.6618   8.6646
     8.6675   8.6685   8.8138   8.8163   8.8286   8.8327   8.8383   8.8399
     9.1072   9.1094   9.1102   9.1160   9.1198   9.1392   9.1745   9.3157
     9.3446   9.3499   9.4222   9.4800   9.4904   9.5769   9.5784   9.6616
     9.6710   9.8106   9.8309  10.0436  10.0438  10.1212  10.1469

          k = 0.0000-0.2165 0.0000 (256176 PWs)   bands (ev):

   -17.2801 -16.3027 -15.8956 -15.6603 -15.0736 -14.6791 -14.3582 -14.3390
   -14.2665 -14.2322 -13.8277 -13.7711 -13.7212 -13.6935 -12.6046 -12.4420
   -12.3845 -12.3095 -12.1473 -12.0801 -10.6528 -10.5542 -10.5206 -10.3923
    -9.4580  -9.4382  -9.3008  -9.1195  -8.9881  -8.9574  -8.4052  -8.2855
    -8.2130  -8.1619  -7.4799  -7.3432  -7.0138  -6.9727  -6.9079  -6.8952
    -6.8506  -6.8416  -6.1899  -6.0829  -5.8911  -5.8826  -5.5195  -5.3859
    -5.2938  -5.2137  -5.1397  -4.9647  -4.9128  -4.8416  -4.8381  -4.7415
    -4.6847  -4.6318  -4.6109  -4.4706  -4.1564  -4.0481  -3.8265  -3.6957
    -3.6634  -3.5906  -3.3158  -3.3051  -3.3019  -3.3012  -3.2460  -3.2268
    -3.1396  -3.0931  -3.0676  -3.0486  -3.0400  -3.0312  -3.0049  -2.8976
    -2.8693  -2.8671  -2.8294  -2.7900  -2.7748  -2.7123  -2.6967  -2.6014
    -2.5879  -2.5877  -2.5785  -2.5784  -2.5779  -2.5767  -2.4776  -2.3688
    -2.3366  -2.3329  -2.2525  -2.2509  -2.2471  -2.2454  -2.1488  -2.1454
    -2.1451  -2.1438  -2.0854  -2.0413  -1.9867  -1.9866  -1.9611  -1.9610
    -1.8763  -1.8650  -1.8555  -1.8094  -1.7905  -1.7832  -1.7685  -1.7675
    -1.7497  -1.7495  -1.7407  -1.7406  -1.7226  -1.7224  -1.6454  -1.6453
    -1.6235  -1.5871  -1.5729  -1.5678  -1.5605  -1.4679  -1.4670  -1.4627
    -1.4622  -1.3784  -1.3759  -1.3708  -1.3705  -1.3693  -1.3167  -1.3165
    -1.2799  -1.2788  -1.2748  -1.2747  -1.2722  -1.2721  -1.2533  -1.2491
    -1.2290  -1.2287  -1.2238  -1.2229  -1.2131  -1.2118  -1.1695  -1.1539
    -1.1503  -1.1486  -1.1332  -1.1324  -1.0888  -1.0887  -1.0506  -1.0505
    -1.0474  -1.0473  -1.0043  -1.0031  -0.9839  -0.9835  -0.9827  -0.9821
    -0.9781  -0.9778  -0.9274  -0.9267  -0.9193  -0.9188  -0.9108  -0.9107
    -0.9010  -0.8985  -0.8972  -0.8968  -0.8331  -0.8281  -0.8281  -0.8187
    -0.8184  -0.8181  -0.8179  -0.8142  -0.7956  -0.7955  -0.7819  -0.7810
    -0.7549  -0.7545  -0.7516  -0.7505  -0.6547  -0.6546  -0.6541  -0.6540
    -0.6335  -0.6332  -0.6243  -0.6100  -0.6070  -0.6058  -0.6049  -0.6013
    -0.6013  -0.5756  -0.5750  -0.5738  -0.5416  -0.5414  -0.5403  -0.5396
    -0.5379  -0.5364  -0.5349  -0.5332  -0.5039  -0.5038  -0.4864  -0.4838
    -0.4838  -0.4696  -0.4483  -0.4476  -0.4474  -0.4471  -0.4457  -0.4364
    -0.4355  -0.4352  -0.4350  -0.4149  -0.3980  -0.3575  -0.3573  -0.3569
    -0.3569  -0.3261  -0.3249  -0.3035  -0.3034  -0.3024  -0.2980  -0.2965
    -0.2953  -0.2945  -0.2722  -0.2696  -0.2692  -0.2687  -0.2677  -0.2594
    -0.2529  -0.2478  -0.2470  -0.2469  -0.2459  -0.2433  -0.2432  -0.2406
    -0.2337  -0.2329  -0.2066  -0.2064  -0.2047  -0.2045  -0.1797  -0.1501
    -0.1423  -0.1404  -0.1401  -0.1366  -0.1326  -0.1314  -0.1290  -0.1281
    -0.1256  -0.1180  -0.1042  -0.1017  -0.0885  -0.0882  -0.0866  -0.0858
    -0.0771  -0.0770  -0.0751  -0.0740  -0.0738  -0.0733  -0.0442  -0.0176
    -0.0164  -0.0140  -0.0133   0.0019   0.0034   0.0052   0.0058   0.0112
     0.0112   0.0125   0.0282   0.0293   0.0299   0.0308   0.0417   0.0464
     0.0585   0.0595   0.0756   0.0759   0.0760   0.0764   0.0943   0.0951
     0.1109   0.1109   0.1218   0.1220   0.1344   0.1350   0.1357   0.1358
     0.1795   0.1806   0.1834   0.1843   0.1957   0.1965   0.2015   0.2021
     0.2288   0.2291   0.2610   0.2628   0.2647   0.2675   0.3002   0.3003
     0.3173   0.3376   0.3857   0.3859   0.3863   0.3873   0.3945   0.4120
     0.4130   0.4135   0.4140   0.4259   0.4423   0.4502   0.4520   0.4543
     0.4547   0.4550   0.4550   0.4553   0.4633   0.4669   0.4767   0.4783
     0.4790   0.4800   0.4804   0.4814   0.4830   0.4837   0.5162   0.5163
     0.5275   0.5275   0.5282   0.5284   0.5360   0.5360   0.5412   0.5557
     0.5569   0.5573   0.5578   0.5580   0.5584   0.5585   0.5588   0.5594
     0.5816   0.5818   0.5833   0.5837   0.5837   0.5844   0.5853   0.5853
     0.6015   0.6016   0.6447   0.6448   0.6567   0.6571   0.6665   0.6677
     0.6690   0.6693   0.6750   0.6754   0.6761   0.6769   0.6819   0.6823
     0.6833   0.6833   0.7233   0.7243   0.7244   0.7251   0.7392   0.7414
     0.7416   0.7424   0.7429   0.7436   0.7547   0.7584   0.7747   0.7758
     0.7792   0.7810   0.7821   0.7825   0.8339   0.8347   0.8848   0.8857
     0.8906   0.8920   0.8941   0.8944   0.9031   0.9040   0.9108   0.9109
     0.9170   0.9172   0.9214   0.9252   0.9255   0.9269   0.9378   0.9384
     0.9407   0.9413   0.9420   0.9424   0.9511   0.9553   0.9625   0.9665
     0.9665   0.9680   0.9689   0.9707   0.9708   0.9739   0.9776   0.9778
     0.9892   0.9893   0.9906   0.9917   0.9928   0.9933   1.0111   1.0114
     1.0203   1.0241   1.0265   1.0270   1.0288   1.0301   1.0386   1.0387
     1.0394   1.0395   1.0404   1.0406   1.0851   1.0878   1.1046   1.1163
     1.1273   1.1274   1.1418   1.1434   1.1505   1.1540   1.1552   1.1560
     1.1700   1.1702   1.1842   1.1860   1.1921   1.1929   1.1952   1.1966
     1.1980   1.1987   1.1991   1.1993   1.2003   1.2016   1.2029   1.2030
     1.2102   1.2103   1.2186   1.2239   1.2299   1.2309   1.2311   1.2315
     1.2395   1.2408   1.2661   1.2697   1.2698   1.2699   1.2765   1.2767
     1.2790   1.2796   1.2925   1.2957   1.2972   1.2972   1.3099   1.3105
     1.3124   1.3135   1.3146   1.3153   1.3320   1.3325   1.3327   1.3335
     1.3513   1.3519   1.3530   1.3549   1.3707   1.3724   1.3786   1.3789
     1.3794   1.3799   1.3949   1.3950   1.3951   1.3953   1.4118   1.4124
     1.4262   1.4263   1.4265   1.4285   1.4465   1.4469   1.4485   1.4491
     1.4502   1.4503   1.4509   1.4513   1.4789   1.4790   1.4869   1.4876
     1.4922   1.4965   1.4994   1.5045   1.5185   1.5195   1.5195   1.5198
     1.5286   1.5288   1.5409   1.5410   1.5816   1.5853   1.5877   1.5881
     1.6713   1.6888   1.6933   1.7128   1.7165   1.7295   1.7304   1.7341
     1.7830   1.7864   1.7917   1.7930   1.8035   1.8121   1.8128   1.8133
     1.8533   1.8533   1.8912   2.0595   2.0636   2.0986   2.4131   2.4151
     2.4190   2.4195   2.4956   2.4981   2.5588   2.5640   2.5640   2.5655
     2.5809   2.5816   2.7089   2.7107   2.7563   2.7603   2.7791   2.7800
     2.9232   2.9241   3.1697   3.1697   3.1776   3.1891   3.3938   3.4149
     3.5782   3.6700   3.6825   3.9149   3.9238   3.9689   4.0815   4.1009
     4.1028   4.1072   4.3216   4.3256   4.3268   4.3286   4.4969   4.4982
     4.6623   4.6895   4.7649   4.7705   4.9076   5.0706   5.0981   5.1022
     5.3138   5.3582   5.3586   5.3594   5.3607   5.4308   5.5178   5.6569
     5.6738   5.7368   5.7462   5.8232   6.3805   6.3893   6.4199   6.4261
     6.4385   6.4395   6.5480   6.5578   6.6618   6.6676   6.8070   6.8105
     6.9739   7.0211   7.0263   7.0460   7.0764   7.0803   7.1142   7.1209
     7.1279   7.1329   7.2297   7.3385   7.3429   7.3717   7.3786   7.4228
     7.5291   7.6053   7.6971   7.7198   7.7361   7.7539   8.1432   8.1438
     8.3275   8.3564   8.3733   8.4232   8.4263   8.4267   8.4329   8.4463
     8.4487   8.4841   8.6395   8.6497   8.7133   8.7152   8.7190   8.7198
     8.7562   8.7617   8.8679   8.9145   8.9349   9.0150   9.0225   9.0599
     9.1424   9.1529   9.2338   9.2381   9.2817   9.3152   9.3853   9.3854
     9.3865   9.3868   9.4588   9.4605   9.4772   9.4832   9.4880   9.4924
     9.6614   9.6653   9.7855   9.7874   9.8052   9.8893   9.8896

          k = 0.2500 0.0000 0.0000 (256240 PWs)   bands (ev):

   -17.2291 -16.1280 -15.9652 -15.6631 -15.1443 -15.0053 -14.9460 -14.8938
   -14.1118 -13.9545 -13.7721 -13.2471 -13.1736 -13.0916 -13.0447 -12.3489
   -12.2341 -12.1508 -12.0786 -11.2365 -11.1421 -10.7891 -10.6725 -10.3595
   -10.2264  -9.9549  -9.9048  -9.5082  -9.2552  -9.1594  -8.6805  -7.9915
    -7.7975  -7.7301  -7.5660  -7.5426  -7.4473  -7.0941  -6.9777  -6.3019
    -6.2211  -6.0440  -5.9685  -5.9153  -5.8420  -5.4537  -5.3305  -5.3118
    -5.3023  -5.1716  -4.9237  -4.7469  -4.6341  -4.5432  -4.4675  -4.4646
    -4.4618  -4.4272  -4.3722  -4.2284  -4.1381  -4.0013  -4.0001  -3.9976
    -3.9095  -3.8452  -3.8405  -3.8110  -3.7946  -3.6283  -3.6009  -3.5742
    -3.5247  -3.4843  -3.4074  -3.4043  -3.2789  -3.2350  -3.2132  -3.1975
    -3.1423  -3.0363  -2.9565  -2.8959  -2.8002  -2.7988  -2.7911  -2.7527
    -2.6550  -2.6255  -2.6233  -2.5070  -2.4012  -2.3947  -2.3474  -2.3375
    -2.1319  -2.0992  -2.0969  -2.0825  -2.0800  -2.0595  -2.0037  -1.9903
    -1.9814  -1.8977  -1.8955  -1.8414  -1.8032  -1.8016  -1.7999  -1.7940
    -1.7934  -1.7849  -1.7737  -1.7462  -1.7351  -1.7240  -1.7195  -1.7169
    -1.7135  -1.6534  -1.6470  -1.6035  -1.5903  -1.5829  -1.5811  -1.5787
    -1.5783  -1.5776  -1.5484  -1.5272  -1.5144  -1.5039  -1.5022  -1.4909
    -1.4889  -1.3726  -1.3364  -1.3290  -1.3130  -1.2777  -1.2696  -1.2588
    -1.2441  -1.2430  -1.2379  -1.2365  -1.2301  -1.2203  -1.2078  -1.1981
    -1.1921  -1.1851  -1.1836  -1.1782  -1.1588  -1.1397  -1.1357  -1.1340
    -1.1333  -1.1325  -1.1171  -1.1117  -1.1110  -1.0915  -1.0769  -1.0670
    -1.0509  -1.0495  -1.0469  -1.0464  -1.0409  -1.0211  -1.0131  -1.0125
    -1.0038  -1.0020  -0.9967  -0.9919  -0.9818  -0.9814  -0.9812  -0.9802
    -0.9761  -0.9757  -0.9646  -0.9542  -0.9515  -0.9466  -0.9457  -0.9398
    -0.9214  -0.9019  -0.9007  -0.8960  -0.8529  -0.8523  -0.8164  -0.8163
    -0.7971  -0.7957  -0.7863  -0.7709  -0.7708  -0.7576  -0.7545  -0.7525
    -0.7500  -0.7428  -0.7416  -0.7224  -0.6066  -0.6030  -0.5999  -0.5971
    -0.5684  -0.5675  -0.5666  -0.5509  -0.5500  -0.5496  -0.5480  -0.5394
    -0.5306  -0.5270  -0.5269  -0.5232  -0.5168  -0.5059  -0.4962  -0.4877
    -0.4849  -0.4849  -0.4818  -0.4813  -0.4608  -0.4607  -0.4575  -0.4030
    -0.3996  -0.3995  -0.3968  -0.3914  -0.3895  -0.3869  -0.3804  -0.3760
    -0.3566  -0.3565  -0.3425  -0.3334  -0.3331  -0.3313  -0.3287  -0.3066
    -0.2950  -0.2948  -0.2919  -0.2907  -0.2817  -0.2806  -0.2709  -0.2693
    -0.2658  -0.2592  -0.2486  -0.2384  -0.2301  -0.2189  -0.2023  -0.1989
    -0.1986  -0.1964  -0.1900  -0.1821  -0.1803  -0.1800  -0.1781  -0.1634
    -0.1523  -0.1520  -0.1484  -0.1395  -0.1373  -0.1248  -0.1124  -0.1109
    -0.1108  -0.0663  -0.0638  -0.0633  -0.0560  -0.0550  -0.0459  -0.0332
    -0.0193  -0.0179  -0.0121  -0.0119  -0.0101  -0.0066  -0.0045   0.0013
     0.0039   0.0048   0.0059   0.0075   0.0081   0.0127   0.0290   0.0330
     0.0336   0.0364   0.0400   0.0441   0.0587   0.0590   0.0721   0.0750
     0.0774   0.0931   0.1142   0.1144   0.1166   0.1167   0.1185   0.1345
     0.1389   0.1409   0.1416   0.1421   0.1424   0.1643   0.1770   0.1794
     0.1964   0.2533   0.2538   0.2549   0.2660   0.2715   0.2735   0.2748
     0.2769   0.2776   0.2827   0.2829   0.2842   0.2866   0.2879   0.2887
     0.2953   0.3048   0.3067   0.3071   0.3090   0.3209   0.3211   0.3265
     0.3287   0.3335   0.3357   0.3582   0.3590   0.3617   0.3717   0.3894
     0.3957   0.4052   0.4134   0.4248   0.4253   0.4424   0.4430   0.4444
     0.4474   0.4554   0.4603   0.4772   0.4800   0.4804   0.4852   0.4856
     0.4911   0.4917   0.4959   0.4960   0.5169   0.5220   0.5240   0.5332
     0.5394   0.5443   0.5445   0.5510   0.5516   0.5524   0.5551   0.5552
     0.5743   0.5794   0.5797   0.5913   0.5926   0.5936   0.5938   0.5966
     0.6098   0.6103   0.6134   0.6178   0.6179   0.6371   0.6375   0.6528
     0.6569   0.6623   0.6638   0.6647   0.6695   0.6714   0.6743   0.6900
     0.7011   0.7050   0.7240   0.7287   0.7405   0.7406   0.7448   0.7453
     0.7499   0.7653   0.7695   0.7717   0.7740   0.7784   0.7795   0.7874
     0.7899   0.7937   0.8031   0.8043   0.8151   0.8243   0.8245   0.8252
     0.8496   0.8516   0.8555   0.8563   0.8572   0.8793   0.8806   0.8913
     0.8929   0.8931   0.8940   0.8960   0.9011   0.9038   0.9054   0.9069
     0.9207   0.9410   0.9467   0.9517   0.9543   0.9545   0.9555   0.9684
     0.9693   0.9895   0.9910   0.9918   0.9929   0.9994   1.0012   1.0016
     1.0156   1.0167   1.0183   1.0188   1.0217   1.0220   1.0226   1.0257
     1.0272   1.0312   1.0325   1.0331   1.0385   1.0422   1.0562   1.0585
     1.0610   1.0628   1.0671   1.0689   1.0690   1.0759   1.0767   1.0900
     1.0905   1.1041   1.1073   1.1078   1.1081   1.1114   1.1219   1.1284
     1.1343   1.1360   1.1374   1.1439   1.1491   1.1536   1.1554   1.1570
     1.1575   1.1743   1.1833   1.1877   1.1895   1.1917   1.1919   1.2267
     1.2282   1.2358   1.2394   1.2426   1.2450   1.2516   1.2528   1.2531
     1.2539   1.2619   1.2641   1.2695   1.2753   1.2776   1.2790   1.2791
     1.2958   1.2965   1.3005   1.3006   1.3060   1.3113   1.3122   1.3139
     1.3152   1.3159   1.3164   1.3219   1.3236   1.3245   1.3324   1.3373
     1.3449   1.3490   1.3511   1.3515   1.3555   1.3556   1.3599   1.3643
     1.3730   1.3798   1.3802   1.3813   1.4033   1.4035   1.4119   1.4166
     1.4187   1.4226   1.4227   1.4253   1.4266   1.4267   1.4335   1.4337
     1.4346   1.4401   1.4408   1.4442   1.4601   1.4628   1.4632   1.4646
     1.4655   1.4693   1.4699   1.4826   1.4831   1.4902   1.4942   1.4972
     1.5058   1.5064   1.5081   1.5129   1.5143   1.5160   1.5457   1.5525
     1.5575   1.5687   1.5816   1.6233   1.6248   1.6279   1.6381   1.6548
     1.6603   1.7456   1.7524   1.7618   1.7626   1.7819   1.7911   1.7976
     1.8367   1.9588   2.0305   2.0621   2.0688   2.0803   2.0852   2.0868
     2.1892   2.2468   2.2533   2.5608   2.5613   2.5633   2.5655   2.9751
     2.9753   3.0084   3.1929   3.1934   3.2178   3.2178   3.2636   3.2792
     3.4554   3.4670   3.5645   3.5794   3.6021   3.6295   3.6551   3.7003
     3.7060   3.7158   3.7245   3.7768   3.8688   3.8706   3.9666   3.9690
     4.0507   4.1786   4.1850   4.1892   4.2791   4.3356   4.4114   4.5495
     4.7524   4.8208   4.8260   5.0918   5.1576   5.2176   5.2183   5.2287
     5.2566   5.3571   5.4616   5.4656   5.5053   5.5477   5.5824   5.5848
     5.6557   5.6775   5.6826   5.7313   5.7337   5.8029   5.8213   5.8258
     6.0076   6.0101   6.0199   6.0413   6.4101   6.6025   6.6911   6.6958
     6.7009   6.7470   6.7584   6.7863   6.8654   6.9254   7.0143   7.0352
     7.0495   7.0514   7.0669   7.2280   7.2407   7.2935   7.3014   7.4999
     7.5059   7.5159   7.5566   7.5677   7.6782   7.7586   7.7633   7.7913
     7.9904   8.0030   8.0363   8.0618   8.0862   8.1862   8.2046   8.2179
     8.2405   8.2616   8.3124   8.3128   8.3926   8.3960   8.4374   8.4715
     8.6438   8.6449   8.9451   8.9541   8.9840   8.9874   9.0072   9.1431
     9.1693   9.1886   9.2106   9.2227   9.2291   9.2541   9.2655   9.3373
     9.3988   9.4055   9.4408   9.4428   9.4838   9.5103   9.6400   9.6781
     9.7147   9.7194   9.8242   9.8325   9.8360   9.8480   9.9388

          k = 0.2500-0.2165 0.0000 (256316 PWs)   bands (ev):

   -17.2288 -16.1788 -15.8744 -15.5406 -15.4586 -15.1910 -14.7124 -14.5645
   -14.2559 -14.1161 -13.7222 -13.2692 -13.2533 -13.1601 -12.7668 -12.6631
   -12.1504 -12.0264 -11.5132 -11.4312 -11.2835 -11.1263 -10.9624 -10.6231
    -9.8685  -9.7857  -9.3916  -9.3574  -9.1045  -9.0506  -8.6766  -8.6251
    -8.4734  -8.4250  -7.3028  -7.0277  -6.8331  -6.6740  -6.5981  -6.5024
    -6.4508  -6.3184  -6.0845  -6.0319  -5.7140  -5.7044  -5.4286  -5.2560
    -5.1737  -5.0701  -4.9351  -4.8021  -4.6785  -4.6747  -4.5433  -4.5427
    -4.4780  -4.3492  -4.3458  -4.3165  -4.1873  -4.1613  -4.1493  -4.0530
    -3.9017  -3.7730  -3.7611  -3.7383  -3.5858  -3.5620  -3.5013  -3.4595
    -3.4583  -3.4554  -3.3630  -3.2912  -3.2542  -3.1971  -3.1425  -3.1026
    -3.0303  -2.9455  -2.9407  -2.9246  -2.9108  -2.9094  -2.8637  -2.8167
    -2.6938  -2.6561  -2.6065  -2.5056  -2.3339  -2.3137  -2.3118  -2.2687
    -2.1867  -2.1809  -2.1688  -2.1687  -2.1033  -2.0689  -2.0099  -2.0094
    -1.9778  -1.9766  -1.9723  -1.9691  -1.8945  -1.8301  -1.8223  -1.8130
    -1.8129  -1.7803  -1.7604  -1.7527  -1.7335  -1.7239  -1.7207  -1.7098
    -1.7095  -1.6931  -1.6788  -1.6777  -1.6764  -1.6762  -1.6673  -1.6671
    -1.5823  -1.5821  -1.5550  -1.4689  -1.4669  -1.3782  -1.3695  -1.3666
    -1.3612  -1.3301  -1.3298  -1.2776  -1.2774  -1.2696  -1.2627  -1.2627
    -1.2495  -1.2490  -1.2413  -1.2398  -1.2252  -1.2245  -1.2131  -1.2129
    -1.2112  -1.2039  -1.2008  -1.1986  -1.1873  -1.1872  -1.1717  -1.1337
    -1.1309  -1.1271  -1.1262  -1.1212  -1.1156  -1.1143  -1.1117  -1.0933
    -1.0832  -1.0817  -1.0399  -1.0396  -1.0357  -1.0297  -1.0264  -1.0240
    -0.9965  -0.9964  -0.9737  -0.9726  -0.9621  -0.9616  -0.9607  -0.9564
    -0.9558  -0.9521  -0.9502  -0.9343  -0.9242  -0.9241  -0.9121  -0.9051
    -0.8836  -0.8682  -0.8680  -0.8626  -0.8621  -0.8248  -0.7783  -0.7782
    -0.7740  -0.7738  -0.7706  -0.7695  -0.7237  -0.7215  -0.7158  -0.7125
    -0.7120  -0.7062  -0.7059  -0.6944  -0.6941  -0.6793  -0.6530  -0.6523
    -0.6157  -0.6144  -0.5824  -0.5680  -0.5666  -0.5665  -0.5639  -0.5610
    -0.5339  -0.5334  -0.5211  -0.5205  -0.5021  -0.5008  -0.4928  -0.4895
    -0.4887  -0.4746  -0.4603  -0.4582  -0.4522  -0.4500  -0.4430  -0.4427
    -0.4120  -0.4081  -0.4080  -0.3969  -0.3936  -0.3874  -0.3816  -0.3803
    -0.3681  -0.3676  -0.3635  -0.3632  -0.3573  -0.3557  -0.3521  -0.3521
    -0.3341  -0.3339  -0.3177  -0.3176  -0.2944  -0.2890  -0.2759  -0.2741
    -0.2618  -0.2567  -0.2402  -0.2401  -0.2354  -0.2311  -0.2181  -0.2175
    -0.2132  -0.2130  -0.1901  -0.1807  -0.1586  -0.1542  -0.1530  -0.1181
    -0.1180  -0.1091  -0.1090  -0.1054  -0.1037  -0.0876  -0.0875  -0.0847
    -0.0702  -0.0699  -0.0601  -0.0565  -0.0493  -0.0480  -0.0430  -0.0426
    -0.0410  -0.0401  -0.0154  -0.0136  -0.0129  -0.0057  -0.0043  -0.0032
    -0.0024  -0.0013  -0.0008   0.0011   0.0055   0.0073   0.0262   0.0314
     0.0315   0.0316   0.0317   0.0653   0.0654   0.0735   0.0736   0.0759
     0.0769   0.0978   0.0995   0.1039   0.1174   0.1314   0.1315   0.1341
     0.1405   0.1412   0.1516   0.1518   0.1548   0.1555   0.1688   0.1689
     0.1750   0.1763   0.2045   0.2049   0.2675   0.2690   0.2809   0.2815
     0.2827   0.2831   0.2858   0.2864   0.2878   0.2889   0.2917   0.2935
     0.3132   0.3169   0.3170   0.3193   0.3201   0.3276   0.3296   0.3313
     0.3342   0.3343   0.3658   0.3669   0.3774   0.3809   0.3821   0.3945
     0.3999   0.4024   0.4153   0.4435   0.4438   0.4491   0.4509   0.4539
     0.4573   0.4574   0.4689   0.4690   0.4743   0.4782   0.4796   0.4811
     0.4816   0.4824   0.5013   0.5121   0.5135   0.5179   0.5210   0.5343
     0.5345   0.5532   0.5665   0.5670   0.5675   0.5690   0.5991   0.6008
     0.6030   0.6048   0.6073   0.6084   0.6122   0.6143   0.6250   0.6256
     0.6273   0.6283   0.6325   0.6363   0.6480   0.6483   0.6585   0.6600
     0.6679   0.6679   0.6709   0.6709   0.6781   0.6799   0.6811   0.6864
     0.6889   0.6891   0.7018   0.7052   0.7096   0.7107   0.7156   0.7164
     0.7185   0.7187   0.7206   0.7211   0.7548   0.7560   0.7668   0.7676
     0.7840   0.7869   0.8033   0.8069   0.8229   0.8232   0.8245   0.8246
     0.8300   0.8310   0.8438   0.8536   0.8537   0.8541   0.8542   0.8552
     0.8556   0.8648   0.8675   0.8780   0.8827   0.8833   0.8915   0.8948
     0.8999   0.9049   0.9224   0.9284   0.9285   0.9431   0.9507   0.9515
     0.9582   0.9595   0.9641   0.9644   0.9708   0.9710   0.9746   0.9903
     1.0000   1.0029   1.0082   1.0169   1.0181   1.0257   1.0307   1.0379
     1.0459   1.0603   1.0628   1.0653   1.0790   1.0802   1.0864   1.0868
     1.0892   1.0893   1.0907   1.0907   1.0950   1.0951   1.1046   1.1051
     1.1132   1.1155   1.1165   1.1179   1.1354   1.1366   1.1625   1.1653
     1.1661   1.1694   1.1706   1.1728   1.1742   1.1757   1.1818   1.1838
     1.1866   1.1904   1.1913   1.1916   1.1945   1.1965   1.2015   1.2020
     1.2079   1.2097   1.2173   1.2203   1.2230   1.2232   1.2242   1.2245
     1.2359   1.2368   1.2447   1.2448   1.2674   1.2692   1.2773   1.2778
     1.2813   1.2918   1.2933   1.2959   1.3030   1.3096   1.3101   1.3123
     1.3188   1.3217   1.3303   1.3308   1.3345   1.3362   1.3427   1.3450
     1.3475   1.3476   1.3561   1.3596   1.3601   1.3705   1.3782   1.3808
     1.3811   1.3812   1.3860   1.3869   1.3908   1.3918   1.3949   1.4048
     1.4050   1.4094   1.4102   1.4166   1.4198   1.4213   1.4288   1.4332
     1.4358   1.4371   1.4372   1.4421   1.4438   1.4439   1.4442   1.4478
     1.4532   1.4532   1.4780   1.4780   1.4856   1.4859   1.4953   1.5006
     1.5120   1.5191   1.5240   1.5264   1.5272   1.5493   1.5498   1.5564
     1.5568   1.5791   1.5825   1.5887   1.6147   1.6461   1.6613   1.6627
     1.7113   1.7492   1.7582   1.7631   1.7693   1.7805   1.7851   1.7858
     1.7861   1.8080   1.8348   1.8427   2.1242   2.1248   2.1561   2.1573
     2.2819   2.2862   2.5819   2.5829   2.7780   2.7829   2.7862   2.7871
     2.7977   2.8008   2.8280   2.8313   2.9801   2.9822   3.0681   3.0792
     3.5244   3.5354   3.5910   3.6038   3.6518   3.6744   3.7645   3.8351
     3.8405   3.8442   3.8650   3.9901   3.9946   4.0577   4.0876   4.1597
     4.1622   4.3258   4.3712   4.3726   4.4250   4.5432   4.5442   4.6141
     4.6623   4.6789   4.7085   4.7211   4.9174   4.9250   4.9950   5.0152
     5.0200   5.1283   5.2582   5.2768   5.3925   5.4343   5.4389   5.4494
     5.4520   5.4726   5.7496   5.7572   5.8108   5.8798   5.8881   5.9489
     5.9537   5.9684   6.5823   6.5875   6.6044   6.6153   6.7270   6.7453
     6.7941   6.8508   6.8697   7.0226   7.0248   7.0451   7.0713   7.0889
     7.0979   7.1160   7.1910   7.2120   7.2149   7.3198   7.3246   7.3285
     7.3317   7.3961   7.4361   7.4376   7.6568   7.6619   7.7583   7.7850
     7.7885   7.8641   7.9721   7.9808   8.1808   8.1908   8.2314   8.2467
     8.2645   8.3904   8.5791   8.5822   8.5948   8.6045   8.6363   8.6375
     8.7039   8.7056   8.8013   8.8148   8.8979   8.9093   8.9380   8.9430
     9.0674   9.1116   9.1333   9.1432   9.1743   9.1785   9.1920   9.2033
     9.2148   9.2626   9.2678   9.3001   9.3413   9.3517   9.4245   9.4408
     9.4462   9.4787   9.6264   9.6275   9.9539   9.9597   9.9680

          k =-0.5000 0.0000 0.0000 (256496 PWs)   bands (ev):

   -17.1677 -16.0103 -15.7423 -15.6295 -15.6093 -15.5601 -14.8131 -14.6179
   -14.5147 -14.4817 -13.2074 -12.9077 -12.7672 -12.7013 -12.4576 -12.4326
   -11.9123 -11.8915 -11.8080 -11.7999 -11.2446 -11.2061 -10.9820 -10.7498
   -10.3356 -10.3034 -10.0801  -9.7617  -9.1480  -9.1477  -8.9778  -8.9452
    -7.8171  -7.6387  -7.5869  -7.4117  -7.3677  -7.3466  -6.3082  -6.2269
    -5.8455  -5.3241  -5.3217  -5.3091  -5.1445  -5.0015  -4.9685  -4.8648
    -4.8085  -4.8037  -4.8031  -4.8022  -4.7770  -4.7637  -4.7386  -4.6927
    -4.6664  -4.5439  -4.5423  -4.4735  -4.3799  -4.3770  -4.2921  -4.0549
    -4.0161  -3.9972  -3.9670  -3.9654  -3.6912  -3.6754  -3.6031  -3.5744
    -3.5733  -3.5560  -3.4282  -3.4208  -3.4198  -3.4190  -3.4186  -3.4128
    -3.3767  -3.3644  -2.9467  -2.9338  -2.8963  -2.8549  -2.8129  -2.7869
    -2.7670  -2.7601  -2.6222  -2.6092  -2.5680  -2.4791  -2.4511  -2.4398
    -2.3069  -2.3037  -2.3028  -2.3024  -1.8795  -1.8791  -1.8789  -1.8787
    -1.8767  -1.8766  -1.8656  -1.8147  -1.7797  -1.7595  -1.7567  -1.7554
    -1.6878  -1.6517  -1.6511  -1.6503  -1.6500  -1.6025  -1.6023  -1.6016
    -1.6011  -1.5122  -1.5065  -1.4885  -1.4884  -1.4876  -1.4771  -1.4536
    -1.4327  -1.4261  -1.4256  -1.4246  -1.4069  -1.4065  -1.3575  -1.3574
    -1.3559  -1.3545  -1.3528  -1.3432  -1.3424  -1.3407  -1.3402  -1.3381
    -1.2943  -1.2924  -1.2922  -1.2910  -1.2702  -1.2685  -1.2677  -1.2675
    -1.2316  -1.2048  -1.2046  -1.1833  -1.1826  -1.1822  -1.1821  -1.1589
    -1.1562  -1.1546  -1.1526  -1.1514  -1.1510  -1.1496  -1.1085  -1.1081
    -1.1069  -1.1069  -1.0861  -1.0860  -1.0725  -1.0561  -1.0558  -1.0548
    -1.0097  -1.0096  -1.0092  -0.9813  -0.9811  -0.9798  -0.9796  -0.9553
    -0.9535  -0.9528  -0.9516  -0.9476  -0.9464  -0.9434  -0.9320  -0.9317
    -0.9292  -0.9292  -0.9047  -0.9027  -0.8900  -0.8407  -0.8405  -0.8387
    -0.8372  -0.7948  -0.7947  -0.7151  -0.7119  -0.7116  -0.7113  -0.7069
    -0.6888  -0.6804  -0.6732  -0.6731  -0.6722  -0.6721  -0.6678  -0.6615
    -0.6409  -0.6335  -0.6302  -0.6297  -0.6243  -0.6182  -0.6137  -0.6021
    -0.6014  -0.5989  -0.5728  -0.5297  -0.5201  -0.5113  -0.4848  -0.4731
    -0.4667  -0.4654  -0.4565  -0.4565  -0.4324  -0.4163  -0.4136  -0.4099
    -0.4061  -0.4060  -0.4045  -0.4044  -0.3943  -0.3816  -0.3684  -0.3683
    -0.3679  -0.3679  -0.3295  -0.3293  -0.3286  -0.3285  -0.3158  -0.2959
    -0.2957  -0.2957  -0.2951  -0.2841  -0.2841  -0.2523  -0.2512  -0.2511
    -0.2498  -0.2498  -0.2467  -0.2407  -0.2288  -0.2125  -0.2029  -0.1999
    -0.1742  -0.1363  -0.1355  -0.1352  -0.1340  -0.1290  -0.1289  -0.1279
    -0.1278  -0.0886  -0.0884  -0.0868  -0.0862  -0.0660  -0.0523  -0.0519
    -0.0260  -0.0258  -0.0238  -0.0236  -0.0221  -0.0219  -0.0211  -0.0210
    -0.0202  -0.0201  -0.0197  -0.0191   0.0547   0.0560   0.0612   0.0628
     0.0663   0.0671   0.0718   0.0721   0.0727   0.0728   0.0776   0.0776
     0.0796   0.0798   0.0834   0.0836   0.0879   0.0889   0.1020   0.1020
     0.1134   0.1161   0.1165   0.1165   0.1167   0.1168   0.1182   0.1275
     0.1277   0.1279   0.1280   0.1406   0.1409   0.1436   0.1528   0.1530
     0.1534   0.1536   0.1731   0.1819   0.1827   0.1947   0.2513   0.2660
     0.2860   0.2862   0.2874   0.2875   0.3189   0.3195   0.3200   0.3206
     0.3345   0.3345   0.3404   0.3405   0.3441   0.3447   0.3451   0.3457
     0.3491   0.3500   0.3519   0.3521   0.3523   0.3531   0.3666   0.3667
     0.3706   0.3745   0.3814   0.3835   0.3893   0.3898   0.3951   0.3953
     0.3996   0.4010   0.4337   0.4379   0.4902   0.4918   0.4918   0.4924
     0.5006   0.5013   0.5208   0.5236   0.5254   0.5264   0.5279   0.5286
     0.5302   0.5308   0.5323   0.5329   0.5350   0.5355   0.5371   0.5373
     0.5435   0.5445   0.5454   0.5460   0.5600   0.5663   0.5830   0.5833
     0.5891   0.5977   0.6060   0.6115   0.6176   0.6189   0.6214   0.6219
     0.6302   0.6304   0.6311   0.6313   0.6334   0.6338   0.6463   0.6475
     0.6512   0.6518   0.6671   0.6681   0.6687   0.6690   0.7057   0.7059
     0.7066   0.7066   0.7072   0.7072   0.7247   0.7256   0.7514   0.7574
     0.7650   0.7663   0.7674   0.7675   0.7679   0.7681   0.7892   0.8070
     0.8347   0.8349   0.8381   0.8391   0.8398   0.8402   0.8441   0.8452
     0.8494   0.8524   0.8528   0.8535   0.8623   0.8648   0.8836   0.8848
     0.8852   0.8865   0.8866   0.8973   0.9055   0.9057   0.9062   0.9063
     0.9074   0.9079   0.9434   0.9453   0.9457   0.9458   0.9627   0.9911
     1.0121   1.0121   1.0122   1.0127   1.0409   1.0460   1.0462   1.0464
     1.0477   1.0487   1.0649   1.0659   1.0758   1.0765   1.0782   1.0850
     1.0884   1.0890   1.1091   1.1105   1.1153   1.1156   1.1160   1.1165
     1.1234   1.1239   1.1249   1.1250   1.1347   1.1347   1.1359   1.1364
     1.1373   1.1377   1.1381   1.1383   1.1724   1.1741   1.1755   1.1755
     1.1880   1.1988   1.2053   1.2073   1.2102   1.2113   1.2114   1.2121
     1.2291   1.2303   1.2328   1.2401   1.2406   1.2408   1.2417   1.2503
     1.2510   1.2514   1.2515   1.2571   1.2617   1.2649   1.2692   1.2742
     1.2982   1.2985   1.3114   1.3136   1.3141   1.3142   1.3145   1.3146
     1.3146   1.3147   1.3250   1.3268   1.3281   1.3282   1.3285   1.3285
     1.3307   1.3310   1.3359   1.3366   1.3412   1.3413   1.3417   1.3420
     1.3490   1.3492   1.3639   1.3641   1.3794   1.3821   1.3829   1.3831
     1.3910   1.3912   1.3927   1.3929   1.4063   1.4093   1.4130   1.4131
     1.4280   1.4290   1.4328   1.4347   1.4387   1.4474   1.4476   1.4476
     1.4486   1.4658   1.4683   1.4684   1.4694   1.4710   1.4783   1.4785
     1.4787   1.4788   1.4831   1.4875   1.4983   1.4983   1.5112   1.5124
     1.5124   1.5128   1.5129   1.5245   1.5258   1.5259   1.5761   1.5763
     1.5955   1.6060   1.6060   1.6104   1.6104   1.6191   2.0239   2.0275
     2.0285   2.0294   2.2313   2.2327   2.2468   2.2506   2.2831   2.2835
     2.2901   2.2908   2.6037   2.6125   2.6159   2.6173   2.8250   2.8274
     2.8327   2.8348   3.1820   3.1827   3.1853   3.1861   3.4658   3.4677
     3.7271   3.7505   3.7524   3.7543   3.8463   3.9167   3.9204   3.9230
     3.9537   4.0657   4.0709   4.0723   4.0812   4.1780   4.1845   4.3866
     4.3994   4.4831   4.7244   4.7403   4.7479   4.7509   4.8087   4.8234
     4.8236   4.8523   4.9284   5.0187   5.0198   5.0346   5.0407   5.0439
     5.0465   5.0517   5.0703   5.0717   5.0962   5.1038   5.1528   5.1621
     5.4812   5.5123   5.5318   5.5358   5.6431   5.6583   5.7558   5.8271
     5.9858   5.9894   5.9955   6.0004   6.0250   6.0326   6.0389   6.0419
     6.1876   6.3927   6.4293   6.4323   6.4327   6.4372   6.4501   6.4756
     7.0799   7.0907   7.1058   7.1068   7.1192   7.1205   7.5657   7.5790
     7.5961   7.5983   7.5990   7.5992   7.6222   7.6260   7.8102   7.8153
     7.8767   7.8809   7.8842   7.8855   8.0370   8.0479   8.0505   8.0542
     8.1147   8.1196   8.1282   8.1302   8.1597   8.1959   8.6450   8.6897
     8.6919   8.7063   8.8253   8.8266   8.8306   8.8309   8.9641   8.9867
     8.9905   9.0638   9.0668   9.0684   9.0851   9.2585   9.2606   9.3735
     9.4244   9.4462   9.4923   9.4950   9.4951   9.4959   9.5067   9.5106
     9.5158   9.5170   9.5302   9.5337   9.8242   9.8315  10.0195

          k =-0.5000-0.2165 0.0000 (256328 PWs)   bands (ev):

   -17.1676 -15.9786 -15.8205 -15.7956 -15.3893 -15.2198 -15.1508 -15.1148
   -14.0570 -13.8410 -13.7099 -13.6734 -12.6820 -12.4576 -12.0020 -11.9972
   -11.9225 -11.7760 -11.6726 -11.5887 -11.5440 -11.5317 -11.4239 -11.4053
   -10.0442 -10.0379  -9.7698  -9.7240  -9.2270  -8.9136  -8.7979  -8.7595
    -8.2690  -8.2319  -8.0222  -8.0002  -6.5351  -6.3431  -6.1229  -5.9495
    -5.8399  -5.6264  -5.3889  -5.3155  -5.3070  -5.2186  -5.2143  -5.1817
    -5.1798  -5.1796  -5.0191  -5.0052  -4.9531  -4.5119  -4.3887  -4.3514
    -4.3268  -4.3204  -4.2642  -4.2148  -4.2019  -4.1984  -4.1979  -4.1975
    -4.0821  -4.0758  -3.9156  -3.8777  -3.8649  -3.8586  -3.7554  -3.7461
    -3.7035  -3.6903  -3.6000  -3.5930  -3.5867  -3.4874  -3.4665  -3.4567
    -3.1731  -3.0871  -3.0725  -3.0621  -2.6368  -2.5823  -2.5813  -2.5792
    -2.5789  -2.5786  -2.5447  -2.5289  -2.5237  -2.5232  -2.4097  -2.3534
    -2.1630  -2.1532  -2.1099  -2.1007  -2.0966  -2.0959  -2.0529  -2.0500
    -2.0219  -2.0184  -2.0166  -2.0112  -1.9371  -1.8031  -1.8030  -1.8020
    -1.8019  -1.7717  -1.7394  -1.7280  -1.5681  -1.5240  -1.5092  -1.5023
    -1.4935  -1.4935  -1.4934  -1.4934  -1.4595  -1.4563  -1.4540  -1.4539
    -1.4337  -1.4335  -1.4333  -1.4333  -1.3843  -1.3841  -1.3840  -1.3837
    -1.3824  -1.3822  -1.3817  -1.3815  -1.3586  -1.3586  -1.3584  -1.3584
    -1.3091  -1.3086  -1.3074  -1.3074  -1.3038  -1.2385  -1.2335  -1.2330
    -1.2323  -1.1911  -1.1910  -1.1908  -1.1908  -1.1737  -1.1712  -1.1710
    -1.1706  -1.1283  -1.1220  -1.1218  -1.1216  -1.1172  -1.1157  -1.1157
    -1.1156  -1.1119  -1.0962  -1.0924  -1.0905  -1.0881  -1.0573  -1.0572
    -1.0569  -1.0568  -1.0409  -1.0402  -1.0401  -1.0401  -1.0377  -1.0372
    -1.0370  -1.0368  -1.0368  -1.0151  -0.8826  -0.8825  -0.8820  -0.8819
    -0.8534  -0.8529  -0.8526  -0.8526  -0.8038  -0.7711  -0.7702  -0.7699
    -0.7694  -0.7691  -0.7682  -0.7668  -0.7627  -0.7623  -0.7614  -0.7613
    -0.7045  -0.7004  -0.7002  -0.6999  -0.6936  -0.6890  -0.6884  -0.6880
    -0.6753  -0.6678  -0.6672  -0.6670  -0.6425  -0.5836  -0.5713  -0.5710
    -0.5682  -0.5672  -0.5669  -0.5663  -0.5078  -0.4985  -0.4980  -0.4978
    -0.4956  -0.4495  -0.4488  -0.4486  -0.4460  -0.4284  -0.4284  -0.4273
    -0.4273  -0.4100  -0.4001  -0.3999  -0.3893  -0.3893  -0.3884  -0.3884
    -0.3749  -0.3512  -0.3482  -0.3471  -0.3321  -0.2738  -0.2738  -0.2730
    -0.2730  -0.2577  -0.2576  -0.2571  -0.2570  -0.2414  -0.2407  -0.2402
    -0.2388  -0.1600  -0.1592  -0.1583  -0.1575  -0.1535  -0.1533  -0.1530
    -0.1529  -0.1518  -0.1494  -0.1494  -0.1469  -0.1127  -0.1127  -0.1125
    -0.1125  -0.1005  -0.1001  -0.0997  -0.0992  -0.0964  -0.0960  -0.0958
    -0.0957  -0.0698  -0.0268  -0.0267  -0.0261  -0.0258  -0.0004  -0.0001
     0.0016   0.0027   0.0484   0.0490   0.0536   0.0549   0.0610   0.0651
     0.0792   0.0797   0.0802   0.0804   0.0853   0.0863   0.0877   0.0887
     0.0897   0.0905   0.0927   0.0937   0.1002   0.1003   0.1009   0.1010
     0.1062   0.1063   0.1065   0.1065   0.1198   0.1227   0.1229   0.1231
     0.1386   0.1508   0.1509   0.1510   0.1511   0.1602   0.1611   0.1615
     0.1639   0.2096   0.2105   0.2110   0.2112   0.2330   0.2429   0.2437
     0.2442   0.2504   0.2706   0.3107   0.3141   0.3183   0.3260   0.3275
     0.3285   0.3290   0.3351   0.3407   0.3446   0.3450   0.3456   0.3471
     0.3562   0.3609   0.3610   0.3614   0.3617   0.3642   0.3681   0.3687
     0.3691   0.3694   0.3711   0.3728   0.3796   0.3858   0.3975   0.4008
     0.4473   0.4485   0.4506   0.4526   0.4574   0.4578   0.4581   0.4584
     0.4691   0.4692   0.4694   0.4697   0.5058   0.5069   0.5079   0.5086
     0.5098   0.5100   0.5105   0.5110   0.5410   0.5535   0.5537   0.5542
     0.5543   0.5582   0.5664   0.5673   0.5678   0.5681   0.5683   0.5699
     0.5760   0.5764   0.5766   0.5767   0.5878   0.5892   0.5913   0.5915
     0.6028   0.6061   0.6081   0.6097   0.6621   0.6762   0.6763   0.6790
     0.6791   0.6829   0.6830   0.6831   0.6833   0.6865   0.6907   0.6908
     0.6922   0.6983   0.7072   0.7105   0.7281   0.7282   0.7291   0.7292
     0.7305   0.7307   0.7318   0.7321   0.7706   0.7783   0.7832   0.7833
     0.7995   0.8102   0.8114   0.8116   0.8119   0.8164   0.8284   0.8333
     0.8475   0.8476   0.8482   0.8483   0.8690   0.8707   0.8726   0.8729
     0.9252   0.9252   0.9258   0.9259   0.9574   0.9578   0.9597   0.9599
     1.0022   1.0107   1.0122   1.0132   1.0158   1.0212   1.0257   1.0269
     1.0341   1.0371   1.0378   1.0383   1.0390   1.0440   1.0441   1.0443
     1.0445   1.0468   1.0472   1.0482   1.0483   1.0505   1.0707   1.0731
     1.0759   1.0762   1.0772   1.0781   1.0782   1.0791   1.0797   1.0813
     1.0923   1.0941   1.0962   1.0970   1.1177   1.1193   1.1217   1.1221
     1.1253   1.1268   1.1318   1.1328   1.1407   1.1410   1.1416   1.1423
     1.1880   1.1899   1.1940   1.1941   1.1949   1.1953   1.1959   1.1967
     1.2200   1.2207   1.2210   1.2212   1.2302   1.2354   1.2368   1.2388
     1.2397   1.2439   1.2555   1.2560   1.2699   1.2701   1.2704   1.2705
     1.2783   1.2787   1.2800   1.2801   1.2851   1.2855   1.2861   1.2862
     1.3446   1.3521   1.3522   1.3527   1.3530   1.3537   1.3538   1.3544
     1.3544   1.3586   1.3621   1.3638   1.3663   1.3702   1.3712   1.3716
     1.3743   1.3771   1.3809   1.3810   1.3839   1.3853   1.3860   1.3870
     1.3926   1.3932   1.3939   1.3941   1.3981   1.4015   1.4031   1.4044
     1.4142   1.4147   1.4148   1.4152   1.4473   1.4476   1.4478   1.4479
     1.4602   1.4616   1.4630   1.4632   1.4741   1.4762   1.4785   1.4786
     1.4969   1.4993   1.4998   1.5004   1.5371   1.5468   1.5491   1.5519
     1.5723   1.5723   1.5729   1.5730   1.6009   1.6019   1.6033   1.6037
     1.6061   1.6078   1.6086   1.6092   1.6146   1.6148   1.6154   1.6155
     1.8318   1.8334   1.8337   1.8344   2.3280   2.3363   2.3420   2.3427
     2.5547   2.5563   2.5589   2.5589   2.7861   2.7912   2.7927   2.7934
     3.0778   3.0862   3.0874   3.0886   3.4491   3.4518   3.4520   3.4522
     3.6311   3.6374   3.6406   3.6411   3.9016   3.9273   3.9277   3.9278
     3.9974   4.2240   4.2248   4.2261   4.2323   4.3127   4.3263   4.3360
     4.3381   4.5097   4.5514   4.5560   4.5582   4.5638   4.5899   4.5960
     4.6486   4.7922   4.8470   4.8862   4.8998   5.0069   5.0375   5.0696
     5.1624   5.1658   5.1712   5.1726   5.2183   5.2417   5.2995   5.3038
     5.3229   5.3346   5.3461   5.3494   5.5093   5.5948   5.7307   5.7342
     5.7451   5.7460   5.7481   5.7493   5.8416   5.8601   5.8856   5.8866
     6.7814   6.7828   6.7837   6.7841   7.1005   7.1143   7.1190   7.1226
     7.1424   7.1495   7.1506   7.1522   7.2513   7.2672   7.2681   7.2730
     7.3602   7.3653   7.3660   7.3664   7.5193   7.6017   7.6069   7.6091
     7.6615   7.8938   7.9511   7.9569   7.9742   7.9845   7.9849   8.0011
     8.2198   8.2376   8.2398   8.2425   8.2453   8.2836   8.3594   8.3647
     8.8871   8.8890   8.8901   8.8911   8.9209   8.9221   8.9234   8.9246
     8.9625   8.9641   8.9653   8.9663   9.1062   9.1104   9.1185   9.1189
     9.3047   9.3245   9.3380   9.3444   9.5130   9.5220   9.5393   9.5421
     9.5613   9.5652   9.5707   9.5725   9.9261   9.9378   9.9666

     the Fermi energy is     3.3208 ev

!    total energy              =  -12707.14302435 Ry
     Harris-Foulkes estimate   =  -12707.14302433 Ry
     estimated scf accuracy    <          9.9E-09 Ry

     The total energy is the sum of the following terms:

     one-electron contribution = -109279.34246922 Ry
     hartree contribution      =   56001.07783542 Ry
     xc contribution           =   -4447.77469193 Ry
     ewald contribution        =   45025.23904427 Ry
     Dispersion Correction     =      -2.98742724 Ry
     smearing contrib. (-TS)   =      -3.35531564 Ry

     convergence has been achieved in  46 iterations

     Writing output data file gc.save
 
     init_run     :     99.13s CPU    106.73s WALL (       1 calls)
     electrons    :  12058.92s CPU  12896.75s WALL (       1 calls)

     Called by init_run:
     wfcinit      :     96.98s CPU    104.04s WALL (       1 calls)
     potinit      :      0.36s CPU      0.38s WALL (       1 calls)

     Called by electrons:
     c_bands      :  11057.30s CPU  11798.49s WALL (      46 calls)
     sum_band     :    846.29s CPU    916.97s WALL (      46 calls)
     v_of_rho     :      2.85s CPU      3.66s WALL (      47 calls)
     newd         :      7.55s CPU     13.67s WALL (      47 calls)
     mix_rho      :    144.60s CPU    163.60s WALL (      46 calls)

     Called by c_bands:
     init_us_2    :     37.04s CPU     38.28s WALL (     558 calls)
     cegterg      :  10894.84s CPU  11624.81s WALL (     282 calls)

     Called by sum_band:
     sum_band:bec :      4.85s CPU      5.51s WALL (     276 calls)
     addusdens    :      7.91s CPU     13.59s WALL (      46 calls)

     Called by *egterg:
     h_psi        :   4087.20s CPU   4411.27s WALL (    1791 calls)
     s_psi        :    988.94s CPU   1000.61s WALL (    1791 calls)
     g_psi        :     10.32s CPU     10.34s WALL (    1503 calls)
     cdiaghg      :   2877.12s CPU   2991.59s WALL (    1779 calls)

     Called by h_psi:
     add_vuspsi   :    993.30s CPU   1006.76s WALL (    1791 calls)

     General routines
     calbec       :   1438.50s CPU   1449.89s WALL (    2067 calls)
     fft          :      3.33s CPU      4.14s WALL (     610 calls)
     ffts         :     84.99s CPU     95.81s WALL (   22499 calls)
     fftw         :   2333.20s CPU   2591.49s WALL ( 1320866 calls)
     davcio       :      0.28s CPU      5.54s WALL (       6 calls)
 
     Parallel routines
     fft_scatter  :   1478.33s CPU   1617.85s WALL ( 1343975 calls)
 
     PWSCF        :     3h22m CPU        3h36m WALL

 
   This run was terminated on:   1: 7:56   8Sep2017            

=------------------------------------------------------------------------------=
   JOB DONE.
=------------------------------------------------------------------------------=
