 CRYSTAL
 PRIMVEC
    2.471000000    0.000000000    0.000000000
   -1.235500000    2.140000000    0.000000000
    0.000000000    0.000000000   10.000000000
 PRIMCOORD
           2           1
C         1.235500124    0.713333262    5.000000000
C        -0.000000124    1.426666738    5.000000000
BEGIN_BLOCK_DATAGRID_3D
3D_PWSCF
DATAGRID_3D_UNKNOWN
          28          28         109
  0.000000  0.000000  0.000000
    2.471000    0.000000    0.000000
   -1.235500    2.140000    0.000000
    0.000000    0.000000   10.000000
  0.14509E-09  0.72587E-09  0.58000E-09  0.30831E-10  0.45555E-09  0.28576E-09
  0.19784E-10  0.36222E-10  0.10387E-09  0.58941E-09  0.39789E-09  0.22822E-10
  0.23476E-09  0.83439E-10  0.83380E-10  0.23467E-09  0.22835E-10  0.39797E-09
  0.58947E-09  0.10388E-09  0.36192E-10  0.19783E-10  0.28594E-09  0.45583E-09
  0.30852E-10  0.57960E-09  0.72541E-09  0.14509E-09  0.27021E-09  0.24473E-09
  0.67364E-09  0.34015E-09  0.21363E-10  0.18417E-09  0.46189E-09  0.97077E-10
  0.70860E-10  0.19141E-09  0.19337E-09  0.25963E-09  0.12730E-09  0.11458E-09
  0.30522E-10  0.39072E-09  0.46905E-09  0.16932E-10  0.41345E-09  0.43811E-09
  0.72951E-10  0.13872E-09  0.14117E-09  0.59056E-09  0.28294E-09  0.12080E-09
  0.79579E-09  0.27021E-09  0.44258E-09  0.60562E-11  0.30990E-09  0.26801E-09
  0.40989E-09  0.21633E-09  0.33967E-09  0.57410E-09  0.15907E-09  0.56898E-10
  0.24545E-09  0.10226E-10  0.55723E-09  0.91411E-09  0.53108E-10  0.46872E-09
  0.47512E-09  0.13054E-09  0.32224E-10  0.20536E-09  0.46293E-09  0.15253E-09
  0.32140E-09  0.18059E-09  0.21134E-09  0.91881E-10  0.42847E-09  0.44258E-09
  0.63953E-09  0.23298E-09  0.21712E-09  0.33127E-09  0.58075E-10  0.89959E-09
  0.62415E-09  0.96499E-10  0.76680E-09  0.19531E-09  0.84128E-09  0.17636E-08
  0.16420E-10  0.17364E-08  0.10906E-08  0.25285E-09  0.14816E-08  0.12968E-09
  0.48015E-09  0.19699E-09  0.24272E-09  0.18718E-09  0.22387E-09  0.14355E-09
  0.32227E-09  0.98054E-09  0.16480E-09  0.63953E-09  0.50722E-09  0.13953E-08
  0.14066E-09  0.13667E-08  0.84584E-09  0.62205E-09  0.18046E-08  0.75417E-09
  0.19948E-09  0.95945E-09  0.19336E-09  0.32412E-08  0.21987E-08  0.32252E-09
  0.28058E-08  0.33037E-09  0.15097E-08  0.17909E-08  0.54352E-09  0.10579E-08
  0.38698E-09  0.13848E-09  0.14108E-09  0.21571E-09  0.44038E-09  0.27109E-08
  0.90038E-09  0.50722E-09  0.52685E-10  0.23904E-08  0.75670E-09  0.12334E-08
  0.25804E-08  0.12464E-08  0.13982E-08  0.16928E-08  0.40178E-09  0.37786E-09
  0.30415E-09  0.92170E-09  0.37184E-08  0.70234E-09  0.16475E-08  0.22503E-08
  0.13106E-09  0.20408E-08  0.12496E-08  0.73173E-09  0.79540E-09  0.38672E-09
  0.15913E-09  0.52495E-09  0.39155E-10  0.27664E-08  0.25786E-08  0.52685E-10
  0.24655E-09  0.15985E-08  0.16704E-08  0.31202E-09  0.20771E-08  0.13749E-08
  0.11670E-08  0.64705E-09  0.65553E-09  0.13658E-09  0.27595E-09  0.19597E-09
  0.12011E-08  0.16045E-08  0.41715E-09  0.20612E-08  0.69521E-09  0.38390E-09
  0.13134E-08  0.42274E-09  0.34622E-09  0.64817E-09  0.14994E-09  0.48814E-09
  0.22364E-09  0.82699E-09  0.27048E-08  0.24655E-09  0.68679E-09  0.27099E-09
  0.13991E-08  0.10089E-09  0.71956E-09  0.48424E-09  0.34448E-09  0.51292E-09
  0.53259E-10  0.65251E-09  0.85112E-10  0.57214E-09  0.51537E-09  0.34307E-09
  0.47156E-09  0.82798E-09  0.71308E-09  0.80698E-11  0.59662E-09  0.45609E-09
  0.52469E-10  0.69724E-09  0.62383E-09  0.29302E-10  0.44889E-09  0.58683E-11
  0.96184E-09  0.68679E-09  0.41336E-09  0.45017E-10  0.37273E-09  0.46229E-09
  0.33750E-10  0.46958E-09  0.23219E-09  0.26999E-09  0.36859E-09  0.71707E-09
  0.45195E-09  0.77580E-10  0.71692E-09  0.32758E-09  0.63670E-10  0.56213E-09
  0.42345E-09  0.13512E-10  0.30455E-09  0.47458E-09  0.93076E-10  0.31709E-09
  0.91055E-09  0.33584E-09  0.43651E-10  0.19371E-09  0.26115E-10  0.41336E-09
  0.37715E-10  0.16507E-09  0.15621E-09  0.45113E-09  0.19244E-09  0.11892E-09
  0.72346E-09  0.32344E-09  0.22989E-09  0.71240E-09  0.49849E-09  0.88207E-10
  0.57690E-10  0.44825E-09  0.41981E-09  0.21586E-09  0.52918E-09  0.46983E-09
  0.15981E-09  0.34441E-09  0.35545E-09  0.66618E-10  0.32394E-09  0.56901E-09
  0.16081E-09  0.18702E-10  0.29261E-10  0.37715E-10  0.71291E-11  0.19822E-10
  0.18791E-09  0.31911E-09  0.11900E-09  0.77522E-11  0.96098E-10  0.19977E-09
  0.20365E-10  0.34293E-09  0.54722E-09  0.87244E-10  0.11353E-09  0.21358E-10
  0.47604E-09  0.42748E-09  0.14510E-09  0.94963E-09  0.48491E-09  0.83193E-10
  0.57162E-09  0.28481E-09  0.75808E-11  0.27434E-09  0.30678E-09  0.88529E-10
  0.86513E-11  0.71291E-11  0.10386E-09  0.15210E-09  0.17564E-09  0.64065E-10
  0.15730E-09  0.11798E-09  0.38566E-10  0.42864E-09  0.48594E-09  0.98176E-10
  0.10945E-08  0.57902E-09  0.87334E-10  0.45019E-09  0.49475E-10  0.67560E-09
  0.10215E-09  0.71169E-09  0.11185E-08  0.15585E-10  0.64054E-09  0.57869E-09
  0.12518E-10  0.14988E-09  0.18932E-09  0.55549E-10  0.15994E-09  0.10386E-09
  0.45946E-09  0.25425E-09  0.74812E-09  0.33190E-09  0.32122E-09  0.11483E-08
  0.15584E-09  0.11172E-08  0.23968E-08  0.53871E-09  0.14126E-08  0.20308E-08
  0.14579E-09  0.61880E-09  0.10797E-09  0.61876E-09  0.66701E-09  0.30626E-09
  0.18307E-08  0.39689E-09  0.47934E-09  0.98244E-09  0.42283E-10  0.22929E-09
  0.13664E-09  0.24329E-11  0.25345E-09  0.45946E-09  0.71262E-09  0.39085E-09
  0.52641E-09  0.11165E-08  0.28078E-09  0.15935E-08  0.11837E-08  0.34591E-09
  0.33479E-08  0.17921E-08  0.83753E-09  0.25421E-08  0.56644E-09  0.27712E-09
  0.15865E-09  0.65776E-09  0.16579E-08  0.28174E-09  0.23686E-08  0.17943E-08
  0.83088E-10  0.16530E-08  0.53249E-09  0.43549E-09  0.63469E-09  0.63637E-10
  0.41465E-09  0.71262E-09  0.71259E-09  0.41442E-09  0.63635E-10  0.63508E-09
  0.43585E-09  0.53259E-09  0.16531E-08  0.83170E-10  0.17941E-08  0.23683E-08
  0.28173E-09  0.16583E-08  0.65800E-09  0.15856E-09  0.27700E-09  0.56630E-09
  0.25418E-08  0.83726E-09  0.17922E-08  0.33482E-08  0.34594E-09  0.11836E-08
  0.15934E-08  0.28059E-09  0.11161E-08  0.52615E-09  0.39088E-09  0.71259E-09
  0.45934E-09  0.25328E-09  0.23957E-11  0.13694E-09  0.22963E-09  0.42260E-10
  0.98221E-09  0.47927E-09  0.39692E-09  0.18305E-08  0.30610E-09  0.66716E-09
  0.61900E-09  0.10786E-09  0.61850E-09  0.14572E-09  0.20308E-08  0.14125E-08
  0.53853E-09  0.23969E-08  0.11173E-08  0.15583E-09  0.11484E-08  0.32129E-09
  0.33172E-09  0.74779E-09  0.25404E-09  0.45934E-09  0.10370E-09  0.15987E-09
  0.55707E-10  0.18976E-09  0.15028E-09  0.12441E-10  0.57820E-09  0.64017E-09
  0.15660E-10  0.11187E-08  0.71170E-09  0.10209E-09  0.67568E-09  0.49477E-10
  0.44995E-09  0.87214E-10  0.57927E-09  0.10948E-08  0.98149E-10  0.48576E-09
  0.42856E-09  0.38583E-10  0.11803E-09  0.15736E-09  0.64026E-10  0.17545E-09
  0.15188E-09  0.10370E-09  0.70597E-11  0.86066E-11  0.88722E-10  0.30729E-09
  0.27483E-09  0.76086E-11  0.28438E-09  0.57120E-09  0.83240E-10  0.48534E-09
  0.94991E-09  0.14501E-09  0.42730E-09  0.47601E-09  0.21326E-10  0.11341E-09
  0.87276E-10  0.54750E-09  0.34318E-09  0.20367E-10  0.19968E-09  0.96107E-10
  0.77737E-11  0.11888E-09  0.31889E-09  0.18775E-09  0.19746E-10  0.70597E-11
  0.37747E-10  0.29238E-10  0.18758E-10  0.16106E-09  0.56924E-09  0.32386E-09
  0.66302E-10  0.35526E-09  0.34457E-09  0.16024E-09  0.47015E-09  0.52913E-09
  0.21557E-09  0.41962E-09  0.44829E-09  0.57761E-10  0.88106E-10  0.49835E-09
  0.71243E-09  0.23005E-09  0.32354E-09  0.72350E-09  0.11894E-09  0.19233E-09
  0.45085E-09  0.15596E-09  0.16502E-09  0.37747E-10  0.41329E-09  0.26039E-10
  0.19374E-09  0.43719E-10  0.33566E-09  0.91002E-09  0.31657E-09  0.93016E-10
  0.47501E-09  0.30499E-09  0.13550E-10  0.42316E-09  0.56185E-09  0.63553E-10
  0.32764E-09  0.71712E-09  0.77676E-10  0.45174E-09  0.71677E-09  0.36859E-09
  0.27021E-09  0.23225E-09  0.46943E-09  0.33657E-10  0.46233E-09  0.37277E-09
  0.44993E-10  0.41329E-09  0.68651E-09  0.96139E-09  0.58187E-11  0.44915E-09
  0.29194E-10  0.62306E-09  0.69635E-09  0.52246E-10  0.45671E-09  0.59737E-09
  0.80627E-11  0.71234E-09  0.82738E-09  0.47159E-09  0.34338E-09  0.51560E-09
  0.57231E-09  0.85152E-10  0.65232E-09  0.53175E-10  0.51317E-09  0.34464E-09
  0.48388E-09  0.71911E-09  0.10108E-09  0.13997E-08  0.27134E-09  0.68651E-09
  0.24634E-09  0.27038E-08  0.82645E-09  0.22394E-09  0.48847E-09  0.14952E-09
  0.64728E-09  0.34575E-09  0.42322E-09  0.13144E-08  0.38439E-09  0.69457E-09
  0.20602E-08  0.41691E-09  0.16051E-08  0.12016E-08  0.19607E-09  0.27599E-09
  0.13662E-09  0.65558E-09  0.64736E-09  0.11674E-08  0.13747E-08  0.20764E-08
  0.31178E-09  0.16713E-08  0.15994E-08  0.24634E-09  0.52837E-10  0.25776E-08
  0.27654E-08  0.39052E-10  0.52539E-09  0.15915E-09  0.38620E-09  0.79493E-09
  0.73187E-09  0.12504E-08  0.20417E-08  0.13110E-09  0.22494E-08  0.16469E-08
  0.70261E-09  0.37191E-08  0.92192E-09  0.30407E-09  0.37787E-09  0.40189E-09
  0.16930E-08  0.13987E-08  0.12468E-08  0.25800E-08  0.12328E-08  0.75702E-09
  0.23913E-08  0.52837E-10  0.50761E-09  0.89983E-09  0.27099E-08  0.43999E-09
  0.21590E-09  0.14116E-09  0.13821E-09  0.38669E-09  0.10578E-08  0.54378E-09
  0.17914E-08  0.15101E-08  0.33016E-09  0.28052E-08  0.32234E-09  0.21990E-08
  0.32415E-08  0.19335E-09  0.95939E-09  0.19952E-09  0.75422E-09  0.18048E-08
  0.62244E-09  0.84587E-09  0.13663E-08  0.14052E-09  0.13958E-08  0.50761E-09
  0.63992E-09  0.16477E-09  0.98010E-09  0.32203E-09  0.14365E-09  0.22390E-09
  0.18697E-09  0.24252E-09  0.19696E-09  0.48016E-09  0.12975E-09  0.14818E-08
  0.25293E-09  0.10905E-08  0.17362E-08  0.16437E-10  0.17637E-08  0.84132E-09
  0.19530E-09  0.76683E-09  0.96437E-10  0.62400E-09  0.89958E-09  0.58121E-10
  0.33106E-09  0.21688E-09  0.23317E-09  0.63992E-09  0.44292E-09  0.42874E-09
  0.91805E-10  0.21122E-09  0.18070E-09  0.32152E-09  0.15243E-09  0.46277E-09
  0.20534E-09  0.32241E-10  0.13052E-09  0.47511E-09  0.46874E-09  0.53087E-10
  0.91406E-09  0.55722E-09  0.10233E-10  0.24542E-09  0.56888E-10  0.15911E-09
  0.57409E-09  0.33952E-09  0.21615E-09  0.40973E-09  0.26774E-09  0.30958E-09
  0.60396E-11  0.44292E-09  0.27045E-09  0.79622E-09  0.12096E-09  0.28277E-09
  0.59040E-09  0.14121E-09  0.13877E-09  0.72909E-10  0.43806E-09  0.41341E-09
  0.16920E-10  0.46909E-09  0.39078E-09  0.30505E-10  0.11452E-09  0.12730E-09
  0.25969E-09  0.19340E-09  0.19140E-09  0.70857E-10  0.97082E-10  0.46191E-09
  0.18424E-09  0.21367E-10  0.33989E-09  0.67317E-09  0.24447E-09  0.27045E-09
  0.14509E-09  0.72587E-09  0.58000E-09  0.30831E-10  0.45555E-09  0.28576E-09
  0.19784E-10  0.36222E-10  0.10387E-09  0.58941E-09  0.39789E-09  0.22822E-10
  0.23476E-09  0.83439E-10  0.83380E-10  0.23467E-09  0.22835E-10  0.39797E-09
  0.58947E-09  0.10388E-09  0.36192E-10  0.19783E-10  0.28594E-09  0.45583E-09
  0.30852E-10  0.57960E-09  0.72541E-09  0.14509E-09  0.73332E-10  0.22134E-09
  0.95899E-10  0.74813E-10  0.38048E-09  0.13899E-09  0.48879E-10  0.12166E-09
  0.53681E-10  0.34919E-09  0.24326E-09  0.65992E-10  0.30285E-09  0.89539E-10
  0.89410E-10  0.30265E-09  0.65984E-10  0.24343E-09  0.34932E-09  0.53670E-10
  0.12156E-09  0.48823E-10  0.13915E-09  0.38080E-09  0.74957E-10  0.95715E-10
  0.22107E-09  0.73332E-10  0.10032E-09  0.74697E-10  0.14582E-09  0.49243E-10
  0.15819E-10  0.19027E-09  0.33378E-09  0.44582E-10  0.17171E-09  0.20630E-09
  0.10638E-09  0.16472E-09  0.87220E-11  0.15685E-09  0.30426E-10  0.25727E-09
  0.47208E-09  0.20813E-10  0.27167E-09  0.29826E-09  0.98434E-10  0.19430E-09
  0.10663E-09  0.40191E-09  0.29092E-09  0.52353E-11  0.23135E-09  0.10032E-09
  0.15402E-09  0.28862E-12  0.76228E-10  0.35462E-10  0.11178E-09  0.10664E-09
  0.40457E-09  0.36560E-09  0.47797E-10  0.15922E-09  0.16351E-09  0.37740E-10
  0.23291E-09  0.35394E-09  0.86508E-10  0.27022E-09  0.28168E-09  0.23087E-09
  0.50465E-10  0.21724E-09  0.53325E-09  0.16578E-09  0.28394E-09  0.23694E-09
  0.11411E-09  0.65223E-10  0.13691E-09  0.15402E-09  0.28617E-09  0.14749E-09
  0.97746E-10  0.16980E-09  0.30224E-10  0.32915E-09  0.33228E-09  0.18754E-09
  0.56330E-09  0.18304E-09  0.31803E-09  0.94136E-09  0.23188E-10  0.85283E-09
  0.43703E-09  0.27798E-09  0.86470E-09  0.42917E-11  0.49538E-09  0.77926E-10
  0.35464E-09  0.28431E-09  0.10365E-09  0.26090E-09  0.34595E-10  0.46405E-09
  0.12460E-09  0.28617E-09  0.26583E-09  0.77999E-09  0.14830E-09  0.77996E-09
  0.58107E-09  0.31200E-09  0.71442E-09  0.29640E-09  0.22297E-09  0.10520E-08
  0.75825E-10  0.13587E-08  0.11217E-08  0.15786E-09  0.14129E-08  0.81027E-10
  0.11062E-08  0.81149E-09  0.29118E-09  0.65490E-09  0.70384E-10  0.18240E-09
  0.35932E-10  0.28553E-09  0.41211E-10  0.11475E-08  0.51752E-09  0.26583E-09
  0.38768E-10  0.13075E-08  0.44143E-09  0.87888E-09  0.14673E-08  0.80306E-09
  0.61074E-09  0.70550E-09  0.13666E-09  0.42839E-09  0.68157E-09  0.14167E-09
  0.16370E-08  0.29567E-09  0.78464E-09  0.10570E-08  0.16571E-09  0.11207E-08
  0.37198E-09  0.41691E-09  0.27175E-09  0.10754E-09  0.31468E-10  0.45492E-09
  0.23863E-10  0.10499E-08  0.12123E-08  0.38768E-10  0.55625E-10  0.97682E-09
  0.80234E-09  0.32163E-09  0.13025E-08  0.66925E-09  0.67155E-09  0.19168E-09
  0.54522E-09  0.12078E-09  0.28827E-09  0.22931E-09  0.31239E-09  0.74795E-09
  0.39711E-10  0.89625E-09  0.34118E-09  0.21688E-09  0.43226E-09  0.98617E-10
  0.17776E-09  0.28319E-09  0.32859E-10  0.30434E-09  0.29079E-09  0.22079E-09
  0.11489E-08  0.55625E-10  0.22861E-09  0.24435E-09  0.80046E-09  0.14063E-10
  0.55822E-09  0.24293E-09  0.17550E-09  0.21094E-09  0.20922E-09  0.83575E-09
  0.79852E-10  0.32209E-09  0.23167E-09  0.11896E-09  0.16988E-09  0.17665E-09
  0.27893E-09  0.26145E-11  0.14755E-09  0.83606E-10  0.54405E-10  0.38362E-09
  0.35689E-09  0.40949E-11  0.35230E-09  0.51373E-10  0.31784E-09  0.22861E-09
  0.13682E-09  0.27039E-10  0.24447E-09  0.37603E-09  0.59374E-10  0.31592E-09
  0.28296E-09  0.12988E-09  0.24871E-09  0.71351E-09  0.45136E-09  0.42975E-10
  0.32119E-09  0.12684E-09  0.37110E-10  0.15520E-09  0.74679E-10  0.26688E-11
  0.87726E-10  0.10643E-09  0.32698E-10  0.16397E-09  0.43783E-09  0.17131E-09
  0.42130E-10  0.22089E-09  0.78347E-11  0.13682E-09  0.16984E-10  0.10194E-09
  0.62064E-10  0.37467E-09  0.26080E-09  0.40304E-10  0.56807E-09  0.26539E-09
  0.10180E-09  0.54721E-09  0.33001E-09  0.59556E-10  0.17645E-10  0.11283E-09
  0.17498E-09  0.83153E-10  0.12919E-09  0.15949E-09  0.73769E-10  0.63364E-10
  0.82924E-10  0.35411E-10  0.10464E-09  0.21086E-09  0.48584E-10  0.30829E-10
  0.61113E-10  0.16984E-10  0.89182E-11  0.15942E-10  0.10617E-09  0.29830E-09
  0.16477E-09  0.34105E-10  0.81071E-10  0.15694E-09  0.18578E-10  0.19270E-09
  0.42716E-09  0.61381E-10  0.11463E-09  0.64590E-10  0.10654E-09  0.18849E-09
  0.82396E-11  0.26859E-09  0.16949E-09  0.75921E-11  0.14974E-09  0.99610E-10
  0.12059E-11  0.88953E-10  0.92336E-10  0.17611E-10  0.44845E-11  0.89182E-11
  0.26684E-10  0.27953E-10  0.32905E-10  0.10940E-09  0.15113E-09  0.49224E-10
  0.84897E-10  0.16257E-09  0.38135E-09  0.20778E-10  0.51910E-09  0.38943E-09
  0.73897E-10  0.58771E-09  0.69038E-10  0.19954E-09  0.91161E-10  0.14560E-09
  0.30825E-09  0.89689E-12  0.23861E-09  0.21769E-09  0.33366E-10  0.45134E-10
  0.14543E-09  0.12494E-10  0.65437E-10  0.26684E-10  0.18520E-09  0.10971E-10
  0.28641E-09  0.17402E-09  0.92694E-10  0.55994E-09  0.18413E-09  0.48797E-09
  0.12676E-08  0.41328E-09  0.54356E-09  0.90943E-09  0.80794E-11  0.74146E-09
  0.38455E-09  0.11146E-09  0.33507E-09  0.30056E-10  0.53358E-09  0.76146E-10
  0.24582E-09  0.28936E-09  0.68406E-10  0.10543E-09  0.56138E-10  0.14139E-09
  0.40363E-10  0.18520E-09  0.17375E-09  0.17598E-09  0.84502E-10  0.61758E-09
  0.85316E-10  0.55731E-09  0.70992E-09  0.12800E-09  0.14661E-08  0.89556E-09
  0.36315E-09  0.10245E-08  0.86270E-10  0.49746E-09  0.45305E-09  0.10524E-09
  0.68368E-09  0.88758E-10  0.87636E-09  0.59953E-09  0.10716E-09  0.68329E-09
  0.35243E-10  0.35353E-09  0.20041E-09  0.61664E-10  0.19140E-09  0.17375E-09
  0.17374E-09  0.19126E-09  0.61604E-10  0.20052E-09  0.35360E-09  0.35255E-10
  0.68342E-09  0.10726E-09  0.59930E-09  0.87606E-09  0.88862E-10  0.68406E-09
  0.10531E-09  0.45278E-09  0.49734E-09  0.86252E-10  0.10242E-08  0.36279E-09
  0.89562E-09  0.14664E-08  0.12808E-09  0.70975E-09  0.55721E-09  0.85281E-10
  0.61748E-09  0.84453E-10  0.17606E-09  0.17374E-09  0.18517E-09  0.40266E-10
  0.14136E-09  0.56250E-10  0.10550E-09  0.68268E-10  0.28920E-09  0.24581E-09
  0.76118E-10  0.53340E-09  0.29996E-10  0.33531E-09  0.11161E-09  0.38420E-09
  0.74101E-09  0.80476E-11  0.90954E-09  0.54337E-09  0.41301E-09  0.12677E-08
  0.48816E-09  0.18416E-09  0.55988E-09  0.92689E-10  0.17399E-09  0.28633E-09
  0.10948E-10  0.18517E-09  0.26656E-10  0.65384E-10  0.12573E-10  0.14569E-09
  0.45322E-10  0.33225E-10  0.21732E-09  0.23836E-09  0.88471E-12  0.30828E-09
  0.14559E-09  0.91243E-10  0.19970E-09  0.68924E-10  0.58729E-09  0.73744E-10
  0.38980E-09  0.51946E-09  0.20679E-10  0.38109E-09  0.16255E-09  0.85026E-10
  0.49248E-10  0.15104E-09  0.10931E-09  0.32871E-10  0.27953E-10  0.26656E-10
  0.89661E-11  0.44293E-11  0.17659E-10  0.92630E-10  0.89259E-10  0.12029E-11
  0.99321E-10  0.14948E-09  0.75838E-11  0.16967E-09  0.26869E-09  0.82108E-11
  0.18849E-09  0.10658E-09  0.64480E-10  0.11446E-09  0.61497E-10  0.42759E-09
  0.19299E-09  0.18484E-10  0.15676E-09  0.81098E-10  0.34185E-10  0.16464E-09
  0.29805E-09  0.10606E-09  0.16010E-10  0.89661E-11  0.17082E-10  0.61092E-10
  0.30789E-10  0.48681E-10  0.21098E-09  0.10458E-09  0.35205E-10  0.82807E-10
  0.63465E-10  0.74002E-10  0.15965E-09  0.12916E-09  0.83014E-10  0.17493E-09
  0.11290E-09  0.17674E-10  0.59441E-10  0.32993E-09  0.54732E-09  0.10195E-09
  0.26539E-09  0.56798E-09  0.40289E-10  0.26076E-09  0.37449E-09  0.61908E-10
  0.10199E-09  0.17082E-10  0.13679E-09  0.77798E-11  0.22092E-09  0.42193E-10
  0.17118E-09  0.43745E-09  0.16359E-09  0.32611E-10  0.10664E-09  0.87967E-10
  0.27059E-11  0.74562E-10  0.15507E-09  0.37036E-10  0.12688E-09  0.32135E-09
  0.43011E-10  0.45106E-09  0.71316E-09  0.24872E-09  0.13011E-09  0.28296E-09
  0.31567E-09  0.59240E-10  0.37613E-09  0.24462E-09  0.27099E-10  0.13679E-09
  0.22839E-09  0.31747E-09  0.51407E-10  0.35266E-09  0.41572E-11  0.35641E-09
  0.38301E-09  0.54190E-10  0.83855E-10  0.14788E-09  0.25790E-11  0.27857E-09
  0.17641E-09  0.16991E-09  0.11907E-09  0.23177E-09  0.32223E-09  0.79790E-10
  0.83537E-09  0.20898E-09  0.21119E-09  0.17575E-09  0.24260E-09  0.55770E-09
  0.14141E-10  0.80106E-09  0.24472E-09  0.22839E-09  0.55464E-10  0.11481E-08
  0.22044E-09  0.29125E-09  0.30485E-09  0.32711E-10  0.28266E-09  0.17749E-09
  0.98815E-10  0.43268E-09  0.21704E-09  0.34084E-09  0.89578E-09  0.39636E-10
  0.74819E-09  0.31252E-09  0.22933E-09  0.28833E-09  0.12069E-09  0.54501E-09
  0.19184E-09  0.67203E-09  0.66923E-09  0.13018E-08  0.32125E-09  0.80294E-09
  0.97757E-09  0.55464E-10  0.38909E-10  0.12115E-08  0.10491E-08  0.24000E-10
  0.45550E-09  0.31624E-10  0.10727E-09  0.27159E-09  0.41706E-09  0.37230E-09
  0.11210E-08  0.16570E-09  0.10567E-08  0.78437E-09  0.29579E-09  0.16373E-08
  0.14168E-09  0.68156E-09  0.42845E-09  0.13661E-09  0.70551E-09  0.61115E-09
  0.80345E-09  0.14670E-08  0.87824E-09  0.44155E-09  0.13083E-08  0.38909E-10
  0.26617E-09  0.51710E-09  0.11468E-08  0.41071E-10  0.28589E-09  0.36070E-10
  0.18216E-09  0.70264E-10  0.65506E-09  0.29135E-09  0.81159E-09  0.11063E-08
  0.80979E-10  0.14128E-08  0.15781E-09  0.11218E-08  0.13588E-08  0.75806E-10
  0.10521E-08  0.22302E-09  0.29629E-09  0.71446E-09  0.31235E-09  0.58119E-09
  0.77959E-09  0.14810E-09  0.78039E-09  0.26617E-09  0.28649E-09  0.12459E-09
  0.46371E-09  0.34495E-10  0.26116E-09  0.10376E-09  0.28404E-09  0.35438E-09
  0.77990E-10  0.49554E-09  0.42813E-11  0.86462E-09  0.27795E-09  0.43704E-09
  0.85284E-09  0.23196E-10  0.94132E-09  0.31798E-09  0.18310E-09  0.56341E-09
  0.18745E-09  0.33203E-09  0.32909E-09  0.30329E-10  0.16971E-09  0.97556E-10
  0.14761E-09  0.28649E-09  0.15425E-09  0.13709E-09  0.65122E-10  0.11400E-09
  0.23710E-09  0.28414E-09  0.16569E-09  0.53298E-09  0.21711E-09  0.50531E-10
  0.23096E-09  0.28167E-09  0.27014E-09  0.86447E-10  0.35398E-09  0.23300E-09
  0.37756E-10  0.16343E-09  0.15918E-09  0.47854E-10  0.36560E-09  0.40440E-09
  0.10646E-09  0.11171E-09  0.35359E-10  0.76056E-10  0.28245E-12  0.15425E-09
  0.10047E-09  0.23161E-09  0.52573E-11  0.29069E-09  0.40174E-09  0.10671E-09
  0.19441E-09  0.98386E-10  0.29811E-09  0.27153E-09  0.20827E-10  0.47224E-09
  0.25739E-09  0.30359E-10  0.15671E-09  0.87329E-11  0.16486E-09  0.10646E-09
  0.20626E-09  0.17165E-09  0.44544E-10  0.33379E-09  0.19034E-09  0.15893E-10
  0.49162E-10  0.14557E-09  0.74552E-10  0.10047E-09  0.73332E-10  0.22134E-09
  0.95899E-10  0.74813E-10  0.38048E-09  0.13899E-09  0.48879E-10  0.12166E-09
  0.53681E-10  0.34919E-09  0.24326E-09  0.65992E-10  0.30285E-09  0.89539E-10
  0.89410E-10  0.30265E-09  0.65984E-10  0.24343E-09  0.34932E-09  0.53670E-10
  0.12156E-09  0.48823E-10  0.13915E-09  0.38080E-09  0.74957E-10  0.95715E-10
  0.22107E-09  0.73332E-10  0.17665E-11  0.86033E-10  0.20829E-09  0.22180E-09
  0.12106E-09  0.94190E-11  0.13738E-09  0.25630E-09  0.10853E-09  0.61140E-10
  0.11407E-09  0.20134E-09  0.27907E-09  0.16249E-09  0.16229E-09  0.27876E-09
  0.20131E-09  0.11425E-09  0.61203E-10  0.10839E-09  0.25608E-09  0.13722E-09
  0.94508E-11  0.12128E-09  0.22211E-09  0.20859E-09  0.86231E-10  0.17665E-11
  0.11924E-10  0.32262E-10  0.15567E-09  0.16073E-09  0.73461E-10  0.11459E-09
  0.13259E-09  0.11986E-09  0.45595E-09  0.24949E-09  0.42269E-10  0.37165E-09
  0.15582E-09  0.25036E-09  0.14089E-09  0.12075E-09  0.36569E-09  0.40234E-10
  0.81718E-10  0.68237E-10  0.14446E-09  0.24058E-09  0.72503E-10  0.96864E-10
  0.14414E-09  0.18245E-09  0.11747E-09  0.11924E-10  0.20491E-10  0.11642E-10
  0.69773E-10  0.13319E-09  0.27606E-10  0.12814E-09  0.32311E-09  0.63943E-10
  0.14864E-09  0.42434E-09  0.54036E-10  0.21676E-09  0.21216E-09  0.39793E-10
  0.28826E-09  0.46525E-10  0.19278E-09  0.41296E-09  0.10819E-09  0.15415E-09
  0.48303E-09  0.25688E-09  0.12855E-09  0.28777E-09  0.65662E-10  0.59313E-10
  0.92538E-10  0.20491E-10  0.31981E-11  0.54814E-10  0.85405E-11  0.66328E-10
  0.82317E-10  0.32637E-10  0.33670E-09  0.26660E-09  0.14653E-09  0.27575E-09
  0.60112E-10  0.78529E-10  0.82128E-10  0.14564E-10  0.10806E-09  0.28247E-09
  0.12899E-09  0.24568E-09  0.46958E-09  0.29940E-10  0.63934E-09  0.63366E-09
  0.19623E-12  0.42049E-09  0.21752E-09  0.27344E-10  0.11173E-09  0.31981E-11
  0.42471E-10  0.50044E-10  0.12866E-09  0.41075E-10  0.12786E-09  0.60736E-10
  0.11587E-09  0.37203E-09  0.23162E-09  0.73948E-09  0.48273E-09  0.98652E-11
  0.36941E-10  0.62312E-10  0.15635E-09  0.81561E-10  0.43955E-09  0.14133E-09
  0.28373E-09  0.13407E-09  0.28408E-09  0.92146E-09  0.20970E-09  0.35396E-09
  0.35041E-09  0.19472E-10  0.15198E-09  0.42471E-10  0.99017E-10  0.52441E-10
  0.10803E-09  0.29629E-09  0.69462E-10  0.17179E-09  0.11778E-10  0.32337E-09
  0.36402E-09  0.37278E-09  0.11645E-08  0.49570E-09  0.16394E-11  0.12986E-09
  0.36033E-09  0.79175E-10  0.20220E-09  0.45316E-09  0.13643E-09  0.12306E-09
  0.42115E-10  0.67055E-09  0.47273E-09  0.28914E-09  0.37339E-09  0.24199E-10
  0.62939E-10  0.99017E-10  0.35171E-10  0.15817E-09  0.50825E-11  0.27864E-09
  0.23759E-09  0.20433E-10  0.13313E-09  0.71048E-10  0.74665E-09  0.29322E-09
  0.34506E-09  0.84459E-09  0.19279E-09  0.41951E-10  0.33653E-09  0.29916E-09
  0.51044E-11  0.30102E-09  0.29723E-09  0.13432E-09  0.20781E-10  0.27191E-09
  0.40439E-09  0.14402E-09  0.22842E-09  0.57998E-10  0.28187E-11  0.35171E-10
  0.34794E-10  0.10567E-09  0.13819E-09  0.16908E-09  0.20487E-09  0.99570E-10
  0.15832E-09  0.44269E-11  0.46676E-09  0.80562E-09  0.10355E-09  0.16215E-09
  0.28698E-09  0.28461E-10  0.10182E-09  0.27119E-09  0.96331E-10  0.35660E-10
  0.19302E-09  0.14248E-09  0.51831E-10  0.43737E-10  0.19090E-09  0.58069E-10
  0.89893E-10  0.15843E-09  0.18539E-10  0.34794E-10  0.83210E-10  0.15221E-09
  0.25960E-10  0.36291E-09  0.18274E-09  0.77237E-10  0.33347E-09  0.33493E-10
  0.18841E-09  0.44391E-09  0.25958E-09  0.49720E-10  0.21232E-10  0.11531E-09
  0.38825E-10  0.67829E-10  0.12747E-09  0.13699E-10  0.39745E-10  0.78841E-10
  0.26507E-10  0.34102E-12  0.41529E-10  0.39628E-10  0.27037E-10  0.25421E-09
  0.13483E-09  0.83210E-10  0.86779E-10  0.28585E-09  0.95095E-10  0.22090E-09
  0.38240E-09  0.40968E-10  0.26240E-09  0.13745E-09  0.10609E-09  0.28673E-09
  0.27007E-10  0.71263E-10  0.73101E-10  0.11715E-09  0.12312E-09  0.64665E-12
  0.75883E-10  0.55941E-10  0.43118E-11  0.11083E-09  0.98000E-10  0.15734E-11
  0.63035E-10  0.64941E-10  0.26326E-11  0.13593E-09  0.14561E-09  0.86779E-10
  0.42419E-10  0.24245E-09  0.19918E-09  0.26904E-09  0.22889E-09  0.15329E-09
  0.16138E-09  0.74688E-10  0.18164E-09  0.22350E-09  0.22288E-09  0.10000E-09
  0.70007E-10  0.31179E-09  0.20981E-09  0.21652E-11  0.12557E-09  0.17288E-09
  0.30793E-10  0.93463E-10  0.34138E-09  0.18166E-09  0.11130E-10  0.22547E-09
  0.98041E-10  0.32741E-10  0.39912E-10  0.42419E-10  0.10033E-09  0.20186E-09
  0.61705E-10  0.19796E-09  0.27741E-09  0.11905E-10  0.28119E-09  0.32384E-10
  0.21931E-09  0.25379E-09  0.12123E-09  0.28638E-09  0.16300E-11  0.44943E-09
  0.53619E-09  0.58465E-10  0.15179E-09  0.31116E-09  0.19380E-09  0.56130E-10
  0.30789E-09  0.66044E-09  0.19304E-09  0.14065E-09  0.51321E-09  0.11286E-09
  0.31211E-10  0.10033E-09  0.29515E-09  0.34207E-09  0.60036E-10  0.96155E-10
  0.28837E-09  0.51312E-10  0.20165E-09  0.20200E-09  0.60573E-10  0.25203E-09
  0.21463E-10  0.15827E-09  0.10743E-09  0.48715E-09  0.81230E-09  0.24850E-09
  0.10687E-09  0.23065E-09  0.22996E-09  0.15728E-09  0.82080E-10  0.54623E-09
  0.83283E-09  0.10169E-09  0.47942E-09  0.70654E-09  0.47774E-10  0.29515E-09
  0.16945E-09  0.73295E-09  0.20360E-09  0.13392E-09  0.53213E-09  0.17627E-09
  0.93944E-10  0.23575E-09  0.57209E-10  0.29384E-10  0.84424E-11  0.54209E-10
  0.26174E-09  0.65353E-09  0.82048E-09  0.33905E-09  0.54773E-10  0.42683E-10
  0.62447E-10  0.15306E-09  0.14150E-09  0.89914E-10  0.69299E-09  0.60556E-09
  0.28235E-10  0.79154E-09  0.52056E-09  0.16945E-09  0.16949E-09  0.52063E-09
  0.79163E-09  0.28219E-10  0.60532E-09  0.69270E-09  0.89870E-10  0.14165E-09
  0.15316E-09  0.62460E-10  0.42688E-10  0.54591E-10  0.33852E-09  0.81997E-09
  0.65357E-09  0.26218E-09  0.54460E-10  0.83966E-11  0.29391E-10  0.57338E-10
  0.23575E-09  0.93841E-10  0.17630E-09  0.53227E-09  0.13398E-09  0.20356E-09
  0.73294E-09  0.16949E-09  0.29522E-09  0.47847E-10  0.70665E-09  0.47948E-09
  0.10152E-09  0.83244E-09  0.54590E-09  0.82025E-10  0.15743E-09  0.23015E-09
  0.23080E-09  0.10684E-09  0.24808E-09  0.81159E-09  0.48677E-09  0.10772E-09
  0.15872E-09  0.21469E-10  0.25179E-09  0.60601E-10  0.20226E-09  0.20176E-09
  0.51212E-10  0.28828E-09  0.96151E-10  0.60079E-10  0.34214E-09  0.29522E-09
  0.10042E-09  0.31176E-10  0.11289E-09  0.51336E-09  0.14069E-09  0.19281E-09
  0.66007E-09  0.30761E-09  0.56080E-10  0.19395E-09  0.31139E-09  0.15193E-09
  0.58319E-10  0.53567E-09  0.44889E-09  0.16568E-11  0.28694E-09  0.12157E-09
  0.25355E-09  0.21900E-09  0.32519E-10  0.28154E-09  0.11969E-10  0.27717E-09
  0.19777E-09  0.61764E-10  0.20205E-09  0.10042E-09  0.42562E-10  0.39753E-10
  0.32584E-10  0.98165E-10  0.22571E-09  0.11188E-10  0.18149E-09  0.34114E-09
  0.93314E-10  0.30805E-10  0.17301E-09  0.12570E-09  0.21571E-11  0.20959E-09
  0.31142E-09  0.69823E-10  0.10025E-09  0.22330E-09  0.22356E-09  0.18131E-09
  0.74522E-10  0.16164E-09  0.15355E-09  0.22875E-09  0.26873E-09  0.19916E-09
  0.24272E-09  0.42562E-10  0.87014E-10  0.14546E-09  0.13563E-09  0.26028E-11
  0.65194E-10  0.63254E-10  0.15802E-11  0.97870E-10  0.11071E-09  0.42893E-11
  0.56033E-10  0.75986E-10  0.63914E-12  0.12301E-09  0.11701E-09  0.72975E-10
  0.71172E-10  0.26992E-10  0.28673E-09  0.10598E-09  0.13728E-09  0.26241E-09
  0.41131E-10  0.38241E-09  0.22070E-09  0.95043E-10  0.28612E-09  0.87014E-10
  0.83458E-10  0.13483E-09  0.25403E-09  0.26967E-10  0.39755E-10  0.41680E-10
  0.35042E-12  0.26366E-10  0.78649E-10  0.39634E-10  0.13750E-10  0.12763E-09
  0.67923E-10  0.38771E-10  0.11524E-09  0.21245E-10  0.49664E-10  0.25926E-09
  0.44352E-09  0.18824E-09  0.33533E-10  0.33348E-09  0.77148E-10  0.18263E-09
  0.36284E-09  0.26015E-10  0.15245E-09  0.83458E-10  0.34951E-10  0.18593E-10
  0.15852E-09  0.90064E-10  0.58196E-10  0.19091E-09  0.43656E-10  0.51659E-10
  0.14220E-09  0.19275E-09  0.35558E-10  0.96435E-10  0.27138E-09  0.10191E-09
  0.28418E-10  0.28698E-09  0.16224E-09  0.10340E-09  0.80511E-09  0.46633E-09
  0.44704E-11  0.15854E-09  0.99447E-10  0.20448E-09  0.16889E-09  0.13835E-09
  0.10594E-09  0.34951E-10  0.35266E-10  0.27782E-11  0.58211E-10  0.22888E-09
  0.14432E-09  0.40432E-09  0.27174E-09  0.20670E-10  0.13413E-09  0.29693E-09
  0.30080E-09  0.50832E-11  0.29928E-09  0.33667E-09  0.41994E-10  0.19276E-09
  0.84464E-09  0.34514E-09  0.29299E-09  0.74617E-09  0.70873E-10  0.13341E-09
  0.20554E-10  0.23718E-09  0.27819E-09  0.51184E-11  0.15847E-09  0.35266E-10
  0.99127E-10  0.62832E-10  0.24333E-10  0.37393E-09  0.28956E-09  0.47262E-09
  0.67023E-09  0.42042E-10  0.12311E-09  0.13630E-09  0.45295E-09  0.20212E-09
  0.79213E-10  0.36039E-09  0.12991E-09  0.16350E-11  0.49573E-09  0.11647E-08
  0.37286E-09  0.36377E-09  0.32304E-09  0.11846E-10  0.17209E-09  0.69364E-10
  0.29583E-09  0.10783E-09  0.52628E-10  0.99127E-10  0.42546E-10  0.15191E-09
  0.19523E-10  0.35086E-09  0.35440E-09  0.20957E-09  0.92095E-09  0.28385E-09
  0.13425E-09  0.28387E-09  0.14123E-09  0.43942E-09  0.81535E-10  0.15637E-09
  0.62317E-10  0.36926E-10  0.98695E-11  0.48285E-09  0.73969E-09  0.23164E-09
  0.37175E-09  0.11566E-09  0.60895E-10  0.12806E-09  0.40945E-10  0.12842E-09