
     Program PWSCF v.5.4.0 starts on 16Mar2017 at 18: 9:36 

     This program is part of the open-source Quantum ESPRESSO suite
     for quantum simulation of materials; please cite
         "P. Giannozzi et al., J. Phys.:Condens. Matter 21 395502 (2009);
          URL http://www.quantum-espresso.org", 
     in publications or presentations arising from this work. More details at
     http://www.quantum-espresso.org/quote

     Parallel version (MPI & OpenMP), running on      56 processor cores
     Number of MPI processes:                56
     Threads/MPI process:                     1
     R & G space division:  proc/nbgrp/npool/nimage =      56
     Waiting for input...
     Reading input from standard input

     Current dimensions of program PWSCF are:
     Max number of different atomic species (ntypx) = 10
     Max number of k-points (npk) =  40000
     Max angular momentum in pseudopotentials (lmaxx) =  3

     -------------------------------------
     Parameters for Dispersion Correction:
     -------------------------------------
       atom      VdW radius       C_6     

        C          2.744         60.710

     Subspace diagonalization in iterative solution of the eigenvalue problem:
     one sub-group per band group will be used
     scalapack distributed-memory algorithm (size of sub-group:  5*  5 procs)

 
     Parallelization info
     --------------------
     sticks:   dense  smooth     PW     G-vecs:    dense   smooth      PW
     Min           8       8      2                  606      606      92
     Max           9       9      3                  625      625     115
     Sum         475     475    151                34433    34433    5661
 


     bravais-lattice index     =            0
     lattice parameter (alat)  =       4.6695  a.u.
     unit-cell volume          =     356.8479 (a.u.)^3
     number of atoms/cell      =            2
     number of atomic types    =            1
     number of electrons       =         8.00
     number of Kohn-Sham states=            8
     kinetic-energy cutoff     =      80.0000  Ry
     charge density cutoff     =     320.0000  Ry
     convergence threshold     =      1.0E-10
     mixing beta               =       0.7000
     number of iterations used =            8  local-TF  mixing
     Exchange-correlation      =  SLA  PW   PBX  PBC ( 1  4  3  4 0 0)

     celldm(1)=   4.669513  celldm(2)=   0.000000  celldm(3)=   0.000000
     celldm(4)=   0.000000  celldm(5)=   0.000000  celldm(6)=   0.000000

     crystal axes: (cart. coord. in units of alat)
               a(1) = (   1.000000   0.000000   0.000000 )  
               a(2) = (  -0.500000   0.866046   0.000000 )  
               a(3) = (   0.000000   0.000000   4.046945 )  

     reciprocal axes: (cart. coord. in units 2 pi/alat)
               b(1) = (  1.000000  0.577336  0.000000 )  
               b(2) = (  0.000000  1.154673  0.000000 )  
               b(3) = (  0.000000  0.000000  0.247100 )  


     PseudoPot. # 1 for C  read from file:
     /home/549/hxw549/Short/pseudopotentials/C.pbe-mt_gipaw.UPF
     MD5 check sum: 5ac2f21f2c440b14befe521540822c15
     Pseudo is Norm-conserving, Zval =  4.0
     Generated by new atomic code, or converted to UPF format
     Using radial grid of 1073 points,  1 beta functions with: 
                l(1) =   0

     atomic species   valence    mass     pseudopotential
        C              4.00    12.01070     C ( 1.00)

      8 Sym. Ops., with inversion, found


                                    s                        frac. trans.

      isym =  1     identity                                     

 cryst.   s( 1) = (     1          0          0      )
                  (     0          1          0      )
                  (     0          0          1      )

 cart.    s( 1) = (  1.0000000  0.0000000  0.0000000 )
                  (  0.0000000  1.0000000  0.0000000 )
                  (  0.0000000  0.0000000  1.0000000 )


      isym =  2     180 deg rotation - cart. axis [0,0,1]        

 cryst.   s( 2) = (    -1          0          0      )
                  (     0         -1          0      )
                  (     0          0          1      )

 cart.    s( 2) = ( -1.0000000  0.0000000  0.0000000 )
                  (  0.0000000 -1.0000000  0.0000000 )
                  (  0.0000000  0.0000000  1.0000000 )


      isym =  3     180 deg rotation - cart. axis [0,1,0]        

 cryst.   s( 3) = (    -1          0          0      )
                  (     1          1          0      )
                  (     0          0         -1      )

 cart.    s( 3) = ( -1.0000000  0.0000000  0.0000000 )
                  (  0.0000000  1.0000000  0.0000000 )
                  (  0.0000000  0.0000000 -1.0000000 )


      isym =  4     180 deg rotation - cart. axis [1,0,0]        

 cryst.   s( 4) = (     1          0          0      )
                  (    -1         -1          0      )
                  (     0          0         -1      )

 cart.    s( 4) = (  1.0000000  0.0000000  0.0000000 )
                  (  0.0000000 -1.0000000  0.0000000 )
                  (  0.0000000  0.0000000 -1.0000000 )


      isym =  5     inversion                                    

 cryst.   s( 5) = (    -1          0          0      )
                  (     0         -1          0      )
                  (     0          0         -1      )

 cart.    s( 5) = ( -1.0000000  0.0000000  0.0000000 )
                  (  0.0000000 -1.0000000  0.0000000 )
                  (  0.0000000  0.0000000 -1.0000000 )


      isym =  6     inv. 180 deg rotation - cart. axis [0,0,1]   

 cryst.   s( 6) = (     1          0          0      )
                  (     0          1          0      )
                  (     0          0         -1      )

 cart.    s( 6) = (  1.0000000  0.0000000  0.0000000 )
                  (  0.0000000  1.0000000  0.0000000 )
                  (  0.0000000  0.0000000 -1.0000000 )


      isym =  7     inv. 180 deg rotation - cart. axis [0,1,0]   

 cryst.   s( 7) = (     1          0          0      )
                  (    -1         -1          0      )
                  (     0          0          1      )

 cart.    s( 7) = (  1.0000000  0.0000000  0.0000000 )
                  (  0.0000000 -1.0000000  0.0000000 )
                  (  0.0000000  0.0000000  1.0000000 )


      isym =  8     inv. 180 deg rotation - cart. axis [1,0,0]   

 cryst.   s( 8) = (    -1          0          0      )
                  (     1          1          0      )
                  (     0          0          1      )

 cart.    s( 8) = ( -1.0000000  0.0000000  0.0000000 )
                  (  0.0000000  1.0000000  0.0000000 )
                  (  0.0000000  0.0000000  1.0000000 )


   Cartesian axes

     site n.     atom                  positions (alat units)
         1           C   tau(   1) = (   0.5000000   0.2886820   2.0234723  )
         2           C   tau(   2) = (  -0.0000000   0.5773641   2.0234723  )

   Crystallographic axes

     site n.     atom                  positions (cryst. coord.)
         1           C   tau(   1) = (  0.6666667  0.3333333  0.5000000  )
         2           C   tau(   2) = (  0.3333333  0.6666667  0.5000000  )

     number of k points=    21  gaussian smearing, width (Ry)=  0.1000
                       cart. coord. in units 2pi/alat
        k(    1) = (   0.0000000   0.0000000   0.0000000), wk =   0.0312500
        k(    2) = (   0.0000000   0.1443341   0.0000000), wk =   0.0625000
        k(    3) = (   0.0000000   0.2886682   0.0000000), wk =   0.0625000
        k(    4) = (   0.0000000   0.4330023   0.0000000), wk =   0.0625000
        k(    5) = (   0.0000000  -0.5773364   0.0000000), wk =   0.0312500
        k(    6) = (   0.1250000   0.0721671   0.0000000), wk =   0.1250000
        k(    7) = (   0.1250000   0.2165012   0.0000000), wk =   0.1250000
        k(    8) = (   0.1250000   0.3608353   0.0000000), wk =   0.1250000
        k(    9) = (   0.1250000   0.5051694   0.0000000), wk =   0.1250000
        k(   10) = (   0.2500000   0.1443341   0.0000000), wk =   0.1250000
        k(   11) = (   0.2500000   0.2886682   0.0000000), wk =   0.1250000
        k(   12) = (   0.2500000   0.4330023   0.0000000), wk =   0.1250000
        k(   13) = (   0.2500000   0.5773364   0.0000000), wk =   0.0625000
        k(   14) = (   0.2500000   0.0000000   0.0000000), wk =   0.0625000
        k(   15) = (   0.3750000   0.2165012   0.0000000), wk =   0.1250000
        k(   16) = (   0.3750000   0.3608353   0.0000000), wk =   0.1250000
        k(   17) = (   0.3750000   0.5051694   0.0000000), wk =   0.1250000
        k(   18) = (   0.3750000  -0.0721671   0.0000000), wk =   0.1250000
        k(   19) = (  -0.5000000  -0.2886682   0.0000000), wk =   0.0625000
        k(   20) = (  -0.5000000  -0.1443341   0.0000000), wk =   0.1250000
        k(   21) = (  -0.5000000   0.0000000   0.0000000), wk =   0.0625000

                       cryst. coord.
        k(    1) = (   0.0000000   0.0000000   0.0000000), wk =   0.0312500
        k(    2) = (   0.0000000   0.1250000   0.0000000), wk =   0.0625000
        k(    3) = (   0.0000000   0.2500000   0.0000000), wk =   0.0625000
        k(    4) = (   0.0000000   0.3750000   0.0000000), wk =   0.0625000
        k(    5) = (   0.0000000  -0.5000000   0.0000000), wk =   0.0312500
        k(    6) = (   0.1250000   0.0000000   0.0000000), wk =   0.1250000
        k(    7) = (   0.1250000   0.1250000   0.0000000), wk =   0.1250000
        k(    8) = (   0.1250000   0.2500000   0.0000000), wk =   0.1250000
        k(    9) = (   0.1250000   0.3750000   0.0000000), wk =   0.1250000
        k(   10) = (   0.2500000   0.0000000   0.0000000), wk =   0.1250000
        k(   11) = (   0.2500000   0.1250000   0.0000000), wk =   0.1250000
        k(   12) = (   0.2500000   0.2500000   0.0000000), wk =   0.1250000
        k(   13) = (   0.2500000   0.3750000   0.0000000), wk =   0.0625000
        k(   14) = (   0.2500000  -0.1250000   0.0000000), wk =   0.0625000
        k(   15) = (   0.3750000   0.0000000   0.0000000), wk =   0.1250000
        k(   16) = (   0.3750000   0.1250000   0.0000000), wk =   0.1250000
        k(   17) = (   0.3750000   0.2500000   0.0000000), wk =   0.1250000
        k(   18) = (   0.3750000  -0.2500000   0.0000000), wk =   0.1250000
        k(   19) = (  -0.5000000   0.0000000   0.0000000), wk =   0.0625000
        k(   20) = (  -0.5000000   0.1250000   0.0000000), wk =   0.1250000
        k(   21) = (  -0.5000000   0.2500000   0.0000000), wk =   0.0625000

     Dense  grid:    34433 G-vectors     FFT dimensions: (  27,  27, 108)

     Largest allocated arrays     est. size (Mb)     dimensions
        Kohn-Sham Wavefunctions         0.01 Mb     (      93,    8)
        NL pseudopotentials             0.00 Mb     (      93,    2)
        Each V/rho on FFT grid          0.02 Mb     (    1458)
        Each G-vector array             0.00 Mb     (     608)
        G-vector shells                 0.00 Mb     (     308)
     Largest temporary arrays     est. size (Mb)     dimensions
        Auxiliary wavefunctions         0.05 Mb     (      93,   32)
        Each subspace H/S matrix        0.00 Mb     (       6,    6)
        Each <psi_i|beta_j> matrix      0.00 Mb     (       2,    8)
        Arrays for rho mixing           0.18 Mb     (    1458,    8)

     Initial potential from superposition of free atoms

     starting charge    7.00000, renormalised to    8.00000

     negative rho (up, down):  1.155E-07 0.000E+00
     Starting wfc are   16 randomized atomic wfcs

     total cpu time spent up to now is        4.8 secs

     Self-consistent Calculation

     iteration #  1     ecut=    80.00 Ry     beta=0.70
     Davidson diagonalization with overlap
     ethr =  1.00E-04,  avg # of iterations =  9.9

     total cpu time spent up to now is        6.2 secs

     total energy              =     -22.82366510 Ry
     Harris-Foulkes estimate   =     -22.83215195 Ry
     estimated scf accuracy    <       0.04623156 Ry

     iteration #  2     ecut=    80.00 Ry     beta=0.70
     Davidson diagonalization with overlap
     ethr =  5.78E-04,  avg # of iterations =  1.0

     total cpu time spent up to now is        6.4 secs

     total energy              =     -22.82137539 Ry
     Harris-Foulkes estimate   =     -22.82467433 Ry
     estimated scf accuracy    <       0.00978957 Ry

     iteration #  3     ecut=    80.00 Ry     beta=0.70
     Davidson diagonalization with overlap
     ethr =  1.22E-04,  avg # of iterations =  2.6

     total cpu time spent up to now is        6.8 secs

     total energy              =     -22.82215670 Ry
     Harris-Foulkes estimate   =     -22.82221900 Ry
     estimated scf accuracy    <       0.00019948 Ry

     iteration #  4     ecut=    80.00 Ry     beta=0.70
     Davidson diagonalization with overlap
     ethr =  2.49E-06,  avg # of iterations =  4.9

     total cpu time spent up to now is        7.5 secs

     total energy              =     -22.82217040 Ry
     Harris-Foulkes estimate   =     -22.82218581 Ry
     estimated scf accuracy    <       0.00004738 Ry

     iteration #  5     ecut=    80.00 Ry     beta=0.70
     Davidson diagonalization with overlap
     ethr =  5.92E-07,  avg # of iterations =  1.2

     total cpu time spent up to now is        7.7 secs

     total energy              =     -22.82219201 Ry
     Harris-Foulkes estimate   =     -22.82217404 Ry
     estimated scf accuracy    <       0.00001080 Ry

     iteration #  6     ecut=    80.00 Ry     beta=0.70
     Davidson diagonalization with overlap
     ethr =  1.35E-07,  avg # of iterations =  2.7

     total cpu time spent up to now is        8.2 secs

     total energy              =     -22.82219801 Ry
     Harris-Foulkes estimate   =     -22.82219282 Ry
     estimated scf accuracy    <       0.00000068 Ry

     iteration #  7     ecut=    80.00 Ry     beta=0.70
     Davidson diagonalization with overlap
     ethr =  8.51E-09,  avg # of iterations =  3.9

     total cpu time spent up to now is        8.7 secs

     total energy              =     -22.82219865 Ry
     Harris-Foulkes estimate   =     -22.82219810 Ry
     estimated scf accuracy    <       0.00000011 Ry

     iteration #  8     ecut=    80.00 Ry     beta=0.70
     Davidson diagonalization with overlap
     ethr =  1.34E-09,  avg # of iterations =  3.6

     total cpu time spent up to now is        9.3 secs

     total energy              =     -22.82219866 Ry
     Harris-Foulkes estimate   =     -22.82219866 Ry
     estimated scf accuracy    <          3.3E-09 Ry

     iteration #  9     ecut=    80.00 Ry     beta=0.70
     Davidson diagonalization with overlap
     ethr =  4.16E-11,  avg # of iterations =  2.2

     total cpu time spent up to now is        9.7 secs

     End of self-consistent calculation

          k = 0.0000 0.0000 0.0000 (  4325 PWs)   bands (ev):

   -19.9067  -8.0529  -3.5706  -3.5705   2.6575   4.2337   5.4830   7.8310

     occupation numbers 
     1.0000   1.0000   0.9991   0.9991   0.0004   0.0000   0.0000   0.0000

          k = 0.0000 0.1443 0.0000 (  4349 PWs)   bands (ev):

   -19.5382  -7.6165  -4.9291  -4.2655   3.1581   4.7290   5.9755   7.9199

     occupation numbers 
     1.0000   1.0000   1.0000   0.9999   0.0001   0.0000   0.0000   0.0000

          k = 0.0000 0.2887 0.0000 (  4318 PWs)   bands (ev):

   -18.4429  -7.8931  -6.3374  -5.5614   4.6576   6.1441   6.7675   7.3667

     occupation numbers 
     1.0000   1.0000   1.0000   1.0000   0.0000   0.0000   0.0000   0.0000

          k = 0.0000 0.4330 0.0000 (  4300 PWs)   bands (ev):

   -16.6614 -11.1354  -6.5601  -4.3745   3.2775   7.0245   7.2508   8.6748

     occupation numbers 
     1.0000   1.0000   1.0000   1.0000   0.0000   0.0000   0.0000   0.0000

          k = 0.0000-0.5773 0.0000 (  4286 PWs)   bands (ev):

   -14.6813 -13.6452  -6.9196  -2.8398   1.1923   6.9376  10.5189  10.6534

     occupation numbers 
     1.0000   1.0000   1.0000   0.9910   0.0338   0.0000   0.0000   0.0000

          k = 0.1250 0.0722 0.0000 (  4349 PWs)   bands (ev):

   -19.5381  -7.6165  -4.9289  -4.2657   3.1581   4.7290   5.9755   7.9198

     occupation numbers 
     1.0000   1.0000   1.0000   0.9999   0.0001   0.0000   0.0000   0.0000

          k = 0.1250 0.2165 0.0000 (  4319 PWs)   bands (ev):

   -18.8063  -6.7570  -6.7068  -5.6497   4.1593   5.7128   6.9646   7.6433

     occupation numbers 
     1.0000   1.0000   1.0000   1.0000   0.0000   0.0000   0.0000   0.0000

          k = 0.1250 0.3608 0.0000 (  4306 PWs)   bands (ev):

   -17.3670  -9.4613  -7.1495  -5.1103   4.6649   6.1541   7.6583   8.7339

     occupation numbers 
     1.0000   1.0000   1.0000   1.0000   0.0000   0.0000   0.0000   0.0000

          k = 0.1250 0.5052 0.0000 (  4301 PWs)   bands (ev):

   -15.3090 -12.4307  -7.9097  -3.0392   1.7331   8.4818   9.1312  10.3957

     occupation numbers 
     1.0000   1.0000   1.0000   0.9949   0.0084   0.0000   0.0000   0.0000

          k = 0.2500 0.1443 0.0000 (  4318 PWs)   bands (ev):

   -18.4429  -7.8929  -6.3373  -5.5617   4.6577   6.1443   6.7675   7.3666

     occupation numbers 
     1.0000   1.0000   1.0000   1.0000   0.0000   0.0000   0.0000   0.0000

          k = 0.2500 0.2887 0.0000 (  4306 PWs)   bands (ev):

   -17.3669  -9.4611  -7.1498  -5.1102   4.6650   6.1541   7.6583   8.7335

     occupation numbers 
     1.0000   1.0000   1.0000   1.0000   0.0000   0.0000   0.0000   0.0000

          k = 0.2500 0.4330 0.0000 (  4311 PWs)   bands (ev):

   -15.6343 -10.9635  -9.4099  -3.2096   2.3004   8.6198   9.7220  11.3169

     occupation numbers 
     1.0000   1.0000   1.0000   0.9970   0.0014   0.0000   0.0000   0.0000

          k = 0.2500 0.5773 0.0000 (  4316 PWs)   bands (ev):

   -13.7397 -12.8670 -10.1841  -1.5107   0.4501  10.4741  11.5797  11.7270

     occupation numbers 
     1.0000   1.0000   1.0000   0.8371   0.1456   0.0000   0.0000   0.0000

          k = 0.2500 0.0000 0.0000 (  4319 PWs)   bands (ev):

   -18.8063  -6.7570  -6.7069  -5.6496   4.1593   5.7129   6.9647   7.6433

     occupation numbers 
     1.0000   1.0000   1.0000   1.0000   0.0000   0.0000   0.0000   0.0000

          k = 0.3750 0.2165 0.0000 (  4300 PWs)   bands (ev):

   -16.6613 -11.1352  -6.5604  -4.3743   3.2775   7.0242   7.2506   8.6749

     occupation numbers 
     1.0000   1.0000   1.0000   1.0000   0.0000   0.0000   0.0000   0.0000

          k = 0.3750 0.3608 0.0000 (  4301 PWs)   bands (ev):

   -15.3089 -12.4306  -7.9101  -3.0390   1.7331   8.4809   9.1313  10.3957

     occupation numbers 
     1.0000   1.0000   1.0000   0.9949   0.0084   0.0000   0.0000   0.0000

          k = 0.3750 0.5052 0.0000 (  4316 PWs)   bands (ev):

   -13.7394 -12.8672 -10.1842  -1.5104   0.4499  10.4740  11.5789  11.7273

     occupation numbers 
     1.0000   1.0000   1.0000   0.8370   0.1456   0.0000   0.0000   0.0000

          k = 0.3750-0.0722 0.0000 (  4306 PWs)   bands (ev):

   -17.3668  -9.4613  -7.1497  -5.1101   4.6649   6.1542   7.6584   8.7335

     occupation numbers 
     1.0000   1.0000   1.0000   1.0000   0.0000   0.0000   0.0000   0.0000

          k =-0.5000-0.2887 0.0000 (  4286 PWs)   bands (ev):

   -14.6809 -13.6453  -6.9199  -2.8395   1.1922   6.9367  10.5192  10.6537

     occupation numbers 
     1.0000   1.0000   1.0000   0.9910   0.0339   0.0000   0.0000   0.0000

          k =-0.5000-0.1443 0.0000 (  4301 PWs)   bands (ev):

   -15.3088 -12.4307  -7.9100  -3.0389   1.7331   8.4809   9.1314  10.3959

     occupation numbers 
     1.0000   1.0000   1.0000   0.9949   0.0084   0.0000   0.0000   0.0000

          k =-0.5000 0.0000 0.0000 (  4311 PWs)   bands (ev):

   -15.6341 -10.9637  -9.4098  -3.2094   2.3003   8.6201   9.7222  11.3170

     occupation numbers 
     1.0000   1.0000   1.0000   0.9970   0.0014   0.0000   0.0000   0.0000

     the Fermi energy is    -0.5654 ev

!    total energy              =     -22.82219866 Ry
     Harris-Foulkes estimate   =     -22.82219866 Ry
     estimated scf accuracy    <          5.7E-11 Ry

     The total energy is the sum of the following terms:

     one-electron contribution =     -90.34098166 Ry
     hartree contribution      =      46.91312549 Ry
     xc contribution           =      -7.00457810 Ry
     ewald contribution        =      27.62648213 Ry
     Dispersion Correction     =      -0.00808275 Ry
     smearing contrib. (-TS)   =      -0.00816377 Ry

     convergence has been achieved in   9 iterations

     Writing output data file graphene.save
 
     init_run     :      0.89s CPU      4.52s WALL (       1 calls)
     electrons    :      4.46s CPU      4.84s WALL (       1 calls)

     Called by init_run:
     wfcinit      :      0.18s CPU      3.60s WALL (       1 calls)
     potinit      :      0.01s CPU      0.02s WALL (       1 calls)

     Called by electrons:
     c_bands      :      4.09s CPU      4.42s WALL (       9 calls)
     sum_band     :      0.12s CPU      0.14s WALL (       9 calls)
     v_of_rho     :      0.02s CPU      0.02s WALL (      10 calls)
     v_h          :      0.00s CPU      0.00s WALL (      10 calls)
     v_xc         :      0.01s CPU      0.02s WALL (      10 calls)
     mix_rho      :      0.20s CPU      0.20s WALL (       9 calls)

     Called by c_bands:
     init_us_2    :      0.00s CPU      0.00s WALL (     399 calls)
     cegterg      :      4.08s CPU      4.41s WALL (     189 calls)

     Called by sum_band:

     Called by *egterg:
     h_psi        :      0.63s CPU      0.73s WALL (     883 calls)
     g_psi        :      0.00s CPU      0.00s WALL (     673 calls)
     cdiaghg      :      2.80s CPU      6.36s WALL (     862 calls)
     cegterg:over :      0.19s CPU      0.19s WALL (     673 calls)
     cegterg:upda :      0.23s CPU      0.31s WALL (     673 calls)
     cegterg:last :      0.05s CPU      0.09s WALL (     210 calls)
     cdiaghg:chol :      0.18s CPU      0.33s WALL (     862 calls)
     cdiaghg:inve :      0.03s CPU      0.05s WALL (     862 calls)
     cdiaghg:para :      0.26s CPU      0.33s WALL (    1724 calls)

     Called by h_psi:
     h_psi:vloc   :      0.58s CPU      0.67s WALL (     883 calls)
     h_psi:vnl    :      0.05s CPU      0.06s WALL (     883 calls)
     add_vuspsi   :      0.02s CPU      0.02s WALL (     883 calls)

     General routines
     calbec       :      0.03s CPU      0.04s WALL (     883 calls)
     fft          :      0.02s CPU      0.13s WALL (     109 calls)
     ffts         :      0.08s CPU      0.10s WALL (     902 calls)
     fftw         :      0.65s CPU      0.75s WALL (   10788 calls)
 
     Parallel routines
     fft_scatter  :      0.61s CPU      0.68s WALL (   11799 calls)
 
     PWSCF        :     5.53s CPU        10.09s WALL

 
   This run was terminated on:  18: 9:46  16Mar2017            

=------------------------------------------------------------------------------=
   JOB DONE.
=------------------------------------------------------------------------------=
