mpirun: INFO: switching to OpenMPI runtime version 1.10.2

     Program PWSCF v.5.4.0 starts on 11Sep2017 at 18: 1: 0 

     This program is part of the open-source Quantum ESPRESSO suite
     for quantum simulation of materials; please cite
         "P. Giannozzi et al., J. Phys.:Condens. Matter 21 395502 (2009);
          URL http://www.quantum-espresso.org", 
     in publications or presentations arising from this work. More details at
     http://www.quantum-espresso.org/quote

     Parallel version (MPI & OpenMP), running on      28 processor cores
     Number of MPI processes:                28
     Threads/MPI process:                     1
     R & G space division:  proc/nbgrp/npool/nimage =      28
     Waiting for input...
     Reading input from standard input

     Current dimensions of program PWSCF are:
     Max number of different atomic species (ntypx) = 10
     Max number of k-points (npk) =  40000
     Max angular momentum in pseudopotentials (lmaxx) =  3
     WARNING: atomic wfc #  2 for atom type 4 has zero norm
     WARNING: atomic wfc #  4 for atom type 4 has zero norm
     WARNING: atomic wfc #  5 for atom type 4 has zero norm

     -------------------------------------
     Parameters for Dispersion Correction:
     -------------------------------------
       atom      VdW radius       C_6     

        Cu         2.952        374.666
        C_h        2.744         60.710
        C          2.744         60.710
        O          2.536         24.284
        H          1.892          4.857

     Subspace diagonalization in iterative solution of the eigenvalue problem:
     one sub-group per band group will be used
     scalapack distributed-memory algorithm (size of sub-group:  3*  3 procs)

 
     Parallelization info
     --------------------
     sticks:   dense  smooth     PW     G-vecs:    dense   smooth      PW
     Min         408     408    108                73226    73226    9928
     Max         410     410    109                73231    73231    9931
     Sum       11433   11433   3039              2050409  2050409  278033
 


     bravais-lattice index     =            0
     lattice parameter (alat)  =      13.9425  a.u.
     unit-cell volume          =   21209.0878 (a.u.)^3
     number of atoms/cell      =          139
     number of atomic types    =            5
     number of electrons       =      1242.00
     number of Kohn-Sham states=          745
     kinetic-energy cutoff     =      80.0000  Ry
     charge density cutoff     =     320.0000  Ry
     convergence threshold     =      1.0E-08
     mixing beta               =       0.7000
     number of iterations used =            8  local-TF  mixing
     Exchange-correlation      =  SLA  PW   PBE  PBE ( 1  4  3  4 0 0)
     nstep                     =           50


     celldm(1)=  13.942539  celldm(2)=   0.000000  celldm(3)=   0.000000
     celldm(4)=   0.000000  celldm(5)=   0.000000  celldm(6)=   0.000000

     crystal axes: (cart. coord. in units of alat)
               a(1) = (   1.000000   0.000000   0.000000 )  
               a(2) = (   0.000000   2.309401   0.000000 )  
               a(3) = (   0.000000   0.000000   3.388418 )  

     reciprocal axes: (cart. coord. in units 2 pi/alat)
               b(1) = (  1.000000  0.000000  0.000000 )  
               b(2) = (  0.000000  0.433013  0.000000 )  
               b(3) = (  0.000000  0.000000  0.295123 )  


     PseudoPot. # 1 for Cu read from file:
     /home/549/hxw549/Short/pseudopotentials/Cu.pbe-n-van_ak.UPF
     MD5 check sum: 601f7c30f7467666bec936e0661ce3e1
     Pseudo is Ultrasoft + core correction, Zval = 11.0
     Generated by new atomic code, or converted to UPF format
     Using radial grid of  867 points,  6 beta functions with: 
                l(1) =   0
                l(2) =   0
                l(3) =   1
                l(4) =   1
                l(5) =   2
                l(6) =   2
     Q(r) pseudized with  8 coefficients,  rinner =    1.400   1.400   1.400
                                                       1.400   1.400

     PseudoPot. # 2 for C  read from file:
     /home/549/hxw549/Short/pseudopotentials/C.star1s-pbe-mt_gipaw.UPF
     MD5 check sum: ef0cb3dee31bd9e4ba2a832a2c716264
     Pseudo is Norm-conserving, Zval =  5.0
     Generated by new atomic code, or converted to UPF format
     Using radial grid of 1073 points,  1 beta functions with: 
                l(1) =   0

     PseudoPot. # 3 for C  read from file:
     /home/549/hxw549/Short/pseudopotentials/C.pbe-mt_gipaw.UPF
     MD5 check sum: 5ac2f21f2c440b14befe521540822c15
     Pseudo is Norm-conserving, Zval =  4.0
     Generated by new atomic code, or converted to UPF format
     Using radial grid of 1073 points,  1 beta functions with: 
                l(1) =   0

     PseudoPot. # 4 for O  read from file:
     /home/549/hxw549/Short/pseudopotentials/O.pbe-van_gipaw.UPF
     MD5 check sum: 5ce2a047509d4f331db576c963e74b29
     Pseudo is Ultrasoft, Zval =  6.0
     Generated by new atomic code, or converted to UPF format
     Using radial grid of 1095 points,  4 beta functions with: 
                l(1) =   0
                l(2) =   0
                l(3) =   1
                l(4) =   1
     Q(r) pseudized with 0 coefficients 


     PseudoPot. # 5 for H  read from file:
     /home/549/hxw549/Short/pseudopotentials/H.pbe-van_ak.UPF
     MD5 check sum: 077eb6d537518a38cb46c6de387227b7
     Pseudo is Ultrasoft, Zval =  1.0
     Generated by new atomic code, or converted to UPF format
     Using radial grid of  615 points,  1 beta functions with: 
                l(1) =   0
     Q(r) pseudized with  8 coefficients,  rinner =    0.800

     atomic species   valence    mass     pseudopotential
        Cu            11.00    63.54600     Cu( 1.00)
        C_h            5.00    12.01070     C ( 1.00)
        C              4.00    12.01070     C ( 1.00)
        O              6.00    15.99940     O ( 1.00)
        H              1.00     1.00783     H ( 1.00)

     No symmetry found



   Cartesian axes

     site n.     atom                  positions (alat units)
         1           Cu  tau(   1) = (  -0.0000065  -0.0001196   1.0023460  )
         2           Cu  tau(   2) = (   0.2499725   0.2311376   1.0038913  )
         3           Cu  tau(   3) = (   0.5000229  -0.0000136   1.0022982  )
         4           Cu  tau(   4) = (   0.7500464   0.2313516   1.0038146  )
         5           Cu  tau(   5) = (   0.0000399   0.4621067   1.0055384  )
         6           Cu  tau(   6) = (   0.2499646   0.6926278   1.0058235  )
         7           Cu  tau(   7) = (   0.4999785   0.4620693   1.0053340  )
         8           Cu  tau(   8) = (   0.7500521   0.6924567   1.0056314  )
         9           Cu  tau(   9) = (   0.0000111   0.9235890   1.0043434  )
        10           Cu  tau(  10) = (   0.2501384   1.1549459   1.0028218  )
        11           Cu  tau(  11) = (   0.5000039   0.9233850   1.0045625  )
        12           Cu  tau(  12) = (   0.7498795   1.1550560   1.0029760  )
        13           Cu  tau(  13) = (  -0.0000214   1.3863543   1.0022984  )
        14           Cu  tau(  14) = (   0.2499792   1.6173801   1.0023905  )
        15           Cu  tau(  15) = (   0.5000265   1.3866519   1.0025352  )
        16           Cu  tau(  16) = (   0.7500365   1.6174007   1.0023793  )
        17           Cu  tau(  17) = (  -0.0000255   1.8478211   1.0020763  )
        18           Cu  tau(  18) = (   0.2500373   2.0783293   1.0017222  )
        19           Cu  tau(  19) = (   0.5000300   1.8476453   1.0020999  )
        20           Cu  tau(  20) = (   0.7499735   2.0781843   1.0019313  )
        21           Cu  tau(  21) = (   0.0000262   0.2295048   1.2519926  )
        22           Cu  tau(  22) = (   0.2500005  -0.0013165   1.2510337  )
        23           Cu  tau(  23) = (   0.4999946   0.2295936   1.2519438  )
        24           Cu  tau(  24) = (   0.7500123  -0.0009693   1.2506048  )
        25           Cu  tau(  25) = (  -0.0000007   0.6934410   1.2538513  )
        26           Cu  tau(  26) = (   0.2500236   0.4609299   1.2537101  )
        27           Cu  tau(  27) = (   0.5000165   0.6929479   1.2538420  )
        28           Cu  tau(  28) = (   0.7499963   0.4611051   1.2539468  )
        29           Cu  tau(  29) = (   0.0000535   1.1563069   1.2511428  )
        30           Cu  tau(  30) = (   0.2499966   0.9255005   1.2525555  )
        31           Cu  tau(  31) = (   0.4999489   1.1563555   1.2512797  )
        32           Cu  tau(  32) = (   0.7500091   0.9251371   1.2520609  )
        33           Cu  tau(  33) = (  -0.0000783   1.6174386   1.2509610  )
        34           Cu  tau(  34) = (   0.2500537   1.3866709   1.2505959  )
        35           Cu  tau(  35) = (   0.5000564   1.6176761   1.2515506  )
        36           Cu  tau(  36) = (   0.7499277   1.3868711   1.2508593  )
        37           Cu  tau(  37) = (   0.0000375   2.0780997   1.2509521  )
        38           Cu  tau(  38) = (   0.2499901   1.8482143   1.2511508  )
        39           Cu  tau(  39) = (   0.4999565   2.0781593   1.2507266  )
        40           Cu  tau(  40) = (   0.7499636   1.8479622   1.2516428  )
        41           Cu  tau(  41) = (   0.0001720  -0.0015486   1.5014058  )
        42           Cu  tau(  42) = (   0.2502640   0.2277374   1.5020134  )
        43           Cu  tau(  43) = (   0.4998217  -0.0017493   1.5014558  )
        44           Cu  tau(  44) = (   0.7497499   0.2275958   1.5020315  )
        45           Cu  tau(  45) = (  -0.0001055   0.4599474   1.5012331  )
        46           Cu  tau(  46) = (   0.2501130   0.6942132   1.5008120  )
        47           Cu  tau(  47) = (   0.5001214   0.4594481   1.5022074  )
        48           Cu  tau(  48) = (   0.7498864   0.6950021   1.5015642  )
        49           Cu  tau(  49) = (  -0.0000364   0.9271944   1.5017780  )
        50           Cu  tau(  50) = (   0.2497729   1.1581744   1.5024656  )
        51           Cu  tau(  51) = (   0.4999791   0.9266358   1.5010946  )
        52           Cu  tau(  52) = (   0.7500691   1.1571315   1.5010852  )
        53           Cu  tau(  53) = (   0.0001546   1.3873420   1.5014948  )
        54           Cu  tau(  54) = (   0.2498821   1.6172223   1.5004191  )
        55           Cu  tau(  55) = (   0.4997580   1.3871722   1.5018615  )
        56           Cu  tau(  56) = (   0.7498150   1.6168862   1.5015310  )
        57           Cu  tau(  57) = (   0.0001694   1.8477437   1.5017232  )
        58           Cu  tau(  58) = (   0.2500011   2.0778355   1.5028769  )
        59           Cu  tau(  59) = (   0.4995459   1.8490453   1.5022485  )
        60           Cu  tau(  60) = (   0.7499243   2.0790472   1.5014087  )
        61           Cu  tau(  61) = (  -0.0000468   0.2279097   1.7510684  )
        62           Cu  tau(  62) = (   0.2505211  -0.0022498   1.7548985  )
        63           Cu  tau(  63) = (   0.5000203   0.2249949   1.7545262  )
        64           Cu  tau(  64) = (   0.7493783  -0.0024476   1.7546955  )
        65           Cu  tau(  65) = (  -0.0003808   0.6935218   1.7464730  )
        66           Cu  tau(  66) = (   0.2509041   0.4614953   1.7464756  )
        67           Cu  tau(  67) = (   0.5003066   0.6946011   1.7477685  )
        68           Cu  tau(  68) = (   0.7490789   0.4614215   1.7466330  )
        69           Cu  tau(  69) = (  -0.0007450   1.1582702   1.7532430  )
        70           Cu  tau(  70) = (   0.2497467   0.9261728   1.7498623  )
        71           Cu  tau(  71) = (   0.4997759   1.1567367   1.7513938  )
        72           Cu  tau(  72) = (   0.7499002   0.9286919   1.7527499  )
        73           Cu  tau(  73) = (   0.0002071   1.6175768   1.7531664  )
        74           Cu  tau(  74) = (   0.2490766   1.3909784   1.7552323  )
        75           Cu  tau(  75) = (   0.4982982   1.6187728   1.7515081  )
        76           Cu  tau(  76) = (   0.7503697   1.3868573   1.7523627  )
        77           Cu  tau(  77) = (   0.0002655   2.0785899   1.7517363  )
        78           Cu  tau(  78) = (   0.2496786   1.8445864   1.7538988  )
        79           Cu  tau(  79) = (   0.4993472   2.0805169   1.7551616  )
        80           Cu  tau(  80) = (   0.7492480   1.8481804   1.7487940  )
        81           Cu  tau(  81) = (   0.0000738  -0.0008635   2.0024556  )
        82           Cu  tau(  82) = (   0.2496120   0.2348701   1.9922868  )
        83           Cu  tau(  83) = (   0.4995251  -0.0034943   2.0185160  )
        84           Cu  tau(  84) = (   0.7502833   0.2345737   1.9923325  )
        85           Cu  tau(  85) = (  -0.0001765   0.4639654   1.9915041  )
        86           Cu  tau(  86) = (   0.2505920   0.6919375   1.9922299  )
        87           Cu  tau(  87) = (   0.5000556   0.4631223   1.9932967  )
        88           Cu  tau(  88) = (   0.7491037   0.6923932   1.9923898  )
        89           Cu  tau(  89) = (   0.0000871   0.9210588   1.9926953  )
        90           Cu  tau(  90) = (   0.2480923   1.1564238   1.9960064  )
        91           Cu  tau(  91) = (   0.4989310   0.9237693   1.9951871  )
        92           Cu  tau(  92) = (   0.7488731   1.1578905   2.0081324  )
        93           Cu  tau(  93) = (  -0.0031562   1.3879076   2.0009397  )
        94           Cu  tau(  94) = (   0.2474369   1.6207657   2.0183921  )
        95           Cu  tau(  95) = (   0.5011009   1.3880980   1.9928418  )
        96           Cu  tau(  96) = (   0.7476348   1.6199610   1.9992640  )
        97           Cu  tau(  97) = (  -0.0034900   1.8487859   1.9994749  )
        98           Cu  tau(  98) = (   0.2480955   2.0736264   1.9997420  )
        99           Cu  tau(  99) = (   0.5006240   1.8485336   2.0011817  )
       100           Cu  tau( 100) = (   0.7506301   2.0749284   1.9997428  )
       101           C   tau( 101) = (  -0.0001366   0.0846165   2.3715873  )
       102           C   tau( 102) = (  -0.0001132   0.2800461   2.3823051  )
       103           C   tau( 103) = (   0.1664970  -0.0092764   2.3614100  )
       104           C   tau( 104) = (   0.1664871   0.3765119   2.3839438  )
       105           C   tau( 105) = (   0.3323850   0.0844718   2.3571415  )
       106           C   tau( 106) = (   0.3327502   0.2794833   2.3710798  )
       107           C   tau( 107) = (   0.5001257  -0.0088482   2.3322025  )
       108           C   tau( 108) = (   0.4996397   0.3768301   2.3738481  )
       109           C   tau( 109) = (   0.6675800   0.0850629   2.3572874  )
       110           C   tau( 110) = (   0.6669848   0.2801140   2.3712721  )
       111           C   tau( 111) = (   0.8332559  -0.0090333   2.3615107  )
       112           C   tau( 112) = (   0.8334386   0.3769078   2.3841598  )
       113           C   tau( 113) = (   0.0005468   0.6677139   2.3911532  )
       114           C   tau( 114) = (   0.0012570   0.8616727   2.3831603  )
       115           C   tau( 115) = (   0.1667193   0.5707964   2.3888560  )
       116           C   tau( 116) = (   0.1672045   0.9617566   2.3782017  )
       117           C   tau( 117) = (   0.3329383   0.6691374   2.3848420  )
       118           C   tau( 118) = (   0.3330393   0.8637785   2.3829084  )
       119           C   tau( 119) = (   0.4993730   0.5708415   2.3822111  )
       120           C   tau( 120) = (   0.4995477   0.9614635   2.3775742  )
       121           C   tau( 121) = (   0.6660653   0.6677001   2.3848598  )
       122           C   tau( 122) = (   0.6658443   0.8615472   2.3805342  )
       123           C   tau( 123) = (   0.8334429   0.5711182   2.3891257  )
       124           C   tau( 124) = (   0.8335001   0.9550986   2.3759475  )
       125           C   tau( 125) = (  -0.0028611   1.2454181   2.3565284  )
       126           C   tau( 126) = (   0.1660550   1.1582526   2.3672929  )
       127           C   tau( 127) = (   0.3343786   1.2588620   2.3708782  )
       128           C   tau( 128) = (   0.5011332   1.1574110   2.3711610  )
       129           C   tau( 129) = (   0.6694413   1.2432143   2.3458716  )
       130           C   tau( 130) = (   0.8338301   1.1472047   2.3577938  )
       131           H   tau( 131) = (   0.1660513  -0.1574840   2.3560056  )
       132           H   tau( 132) = (   0.5004229  -0.1567044   2.3425233  )
       133           H   tau( 133) = (   0.8335442  -0.1572292   2.3559960  )
       134           H   tau( 134) = (  -0.0117420   1.3924087   2.3576504  )
       135           H   tau( 135) = (   0.6785872   1.3896218   2.3376181  )
       136           C   tau( 136) = (   0.3310950   1.4567362   2.3650982  )
       137           O   tau( 137) = (   0.2031182   1.5549621   2.3010417  )
       138           O   tau( 138) = (   0.4761845   1.5492445   2.4358165  )
       139           H   tau( 139) = (   0.4573245   1.6774672   2.4015550  )

     number of k points=     6  gaussian smearing, width (Ry)=  0.1000
                       cart. coord. in units 2pi/alat
        k(    1) = (   0.0000000   0.0000000   0.0000000), wk =   0.2500000
        k(    2) = (   0.0000000  -0.2165064   0.0000000), wk =   0.2500000
        k(    3) = (   0.2500000   0.0000000   0.0000000), wk =   0.5000000
        k(    4) = (   0.2500000  -0.2165064   0.0000000), wk =   0.5000000
        k(    5) = (  -0.5000000   0.0000000   0.0000000), wk =   0.2500000
        k(    6) = (  -0.5000000  -0.2165064   0.0000000), wk =   0.2500000

     Dense  grid:  2050409 G-vectors     FFT dimensions: (  80, 192, 270)

     Largest allocated arrays     est. size (Mb)     dimensions
        Kohn-Sham Wavefunctions       104.25 Mb     (    9171,  745)
        NL pseudopotentials           259.31 Mb     (    9171, 1853)
        Each V/rho on FFT grid          2.34 Mb     (  153600)
        Each G-vector array             0.56 Mb     (   73230)
        G-vector shells                 0.27 Mb     (   35784)
     Largest temporary arrays     est. size (Mb)     dimensions
        Auxiliary wavefunctions       417.02 Mb     (    9171, 2980)
        Each subspace H/S matrix       15.05 Mb     (     993,  993)
        Each <psi_i|beta_j> matrix     21.06 Mb     (    1853,  745)
        Arrays for rho mixing          18.75 Mb     (  153600,    8)

     Initial potential from superposition of free atoms
     Check: negative starting charge=   -0.002148

     starting charge 1225.31748, renormalised to 1242.00000

     negative rho (up, down):  2.177E-03 0.000E+00
     Starting wfc are 1162 randomized atomic wfcs

     total cpu time spent up to now is      180.5 secs

     Self-consistent Calculation

     iteration #  1     ecut=    80.00 Ry     beta=0.70
     Davidson diagonalization with overlap
     c_bands:  1 eigenvalues not converged
     ethr =  1.00E-04,  avg # of iterations = 20.0

     negative rho (up, down):  2.895E+01 0.000E+00

     total cpu time spent up to now is     3118.1 secs

     total energy              =   -8325.41726525 Ry
     Harris-Foulkes estimate   =  -14931.94462534 Ry
     estimated scf accuracy    <  144654.51545342 Ry

     iteration #  2     ecut=    80.00 Ry     beta=0.70
     Davidson diagonalization with overlap
     c_bands:  3 eigenvalues not converged
     ethr =  1.00E-02,  avg # of iterations = 13.8

     negative rho (up, down):  2.104E+01 0.000E+00

     total cpu time spent up to now is     4806.7 secs

     total energy              =  -12651.72831809 Ry
     Harris-Foulkes estimate   =  -13223.02566753 Ry
     estimated scf accuracy    <    1728.40985824 Ry

     iteration #  3     ecut=    80.00 Ry     beta=0.70
     Davidson diagonalization with overlap
     ethr =  1.00E-02,  avg # of iterations =  4.5

     negative rho (up, down):  1.564E+01 0.000E+00

     total cpu time spent up to now is     5437.4 secs

     total energy              =  -12708.70535596 Ry
     Harris-Foulkes estimate   =  -12792.14985783 Ry
     estimated scf accuracy    <     664.66990917 Ry

     iteration #  4     ecut=    80.00 Ry     beta=0.70
     Davidson diagonalization with overlap
     ethr =  1.00E-02,  avg # of iterations =  3.3

     negative rho (up, down):  1.568E+01 0.000E+00

     total cpu time spent up to now is     5912.6 secs

     total energy              =  -12748.77535181 Ry
     Harris-Foulkes estimate   =  -12746.70867312 Ry
     estimated scf accuracy    <    1213.38039231 Ry

     iteration #  5     ecut=    80.00 Ry     beta=0.70
     Davidson diagonalization with overlap
     ethr =  1.00E-02,  avg # of iterations =  1.8

     negative rho (up, down):  1.239E+01 0.000E+00

     total cpu time spent up to now is     6236.8 secs

     total energy              =  -12715.07091959 Ry
     Harris-Foulkes estimate   =  -12749.94600040 Ry
     estimated scf accuracy    <    1376.42368388 Ry

     iteration #  6     ecut=    80.00 Ry     beta=0.70
     Davidson diagonalization with overlap
     ethr =  1.00E-02,  avg # of iterations =  3.5

     negative rho (up, down):  7.547E+00 0.000E+00

     total cpu time spent up to now is     6642.5 secs

     total energy              =  -12671.47047110 Ry
     Harris-Foulkes estimate   =  -12744.33693664 Ry
     estimated scf accuracy    <    1537.35742307 Ry

     iteration #  7     ecut=    80.00 Ry     beta=0.70
     Davidson diagonalization with overlap
     ethr =  1.00E-02,  avg # of iterations =  4.0

     negative rho (up, down):  6.199E+00 0.000E+00

     total cpu time spent up to now is     7022.1 secs

     total energy              =  -12679.48995464 Ry
     Harris-Foulkes estimate   =  -12716.77735451 Ry
     estimated scf accuracy    <     545.70693742 Ry

     iteration #  8     ecut=    80.00 Ry     beta=0.70
     Davidson diagonalization with overlap
     ethr =  1.00E-02,  avg # of iterations =  4.7

     negative rho (up, down):  5.029E+00 0.000E+00

     total cpu time spent up to now is     7422.0 secs

     total energy              =  -12657.53962761 Ry
     Harris-Foulkes estimate   =  -12683.12496621 Ry
     estimated scf accuracy    <     370.97967155 Ry

     iteration #  9     ecut=    80.00 Ry     beta=0.70
     Davidson diagonalization with overlap
     ethr =  1.00E-02,  avg # of iterations =  1.2

     negative rho (up, down):  3.289E+00 0.000E+00

     total cpu time spent up to now is     7735.4 secs

     total energy              =  -12640.81847905 Ry
     Harris-Foulkes estimate   =  -12661.93020455 Ry
     estimated scf accuracy    <     212.90486919 Ry

     iteration # 10     ecut=    80.00 Ry     beta=0.70
     Davidson diagonalization with overlap
     ethr =  1.00E-02,  avg # of iterations =  1.0

     negative rho (up, down):  2.072E+00 0.000E+00

     total cpu time spent up to now is     8044.8 secs

     total energy              =  -12591.12689788 Ry
     Harris-Foulkes estimate   =  -12644.76181674 Ry
     estimated scf accuracy    <     247.15646065 Ry

     iteration # 11     ecut=    80.00 Ry     beta=0.70
     Davidson diagonalization with overlap
     ethr =  1.00E-02,  avg # of iterations =  2.0

     negative rho (up, down):  3.539E+00 0.000E+00

     total cpu time spent up to now is     8377.7 secs

     total energy              =  -12586.48719604 Ry
     Harris-Foulkes estimate   =  -12614.17634246 Ry
     estimated scf accuracy    <     582.00337357 Ry

     iteration # 12     ecut=    80.00 Ry     beta=0.70
     Davidson diagonalization with overlap
     ethr =  1.00E-02,  avg # of iterations =  1.0

     negative rho (up, down):  7.495E+00 0.000E+00

     total cpu time spent up to now is     8686.5 secs

     total energy              =  -12584.59635456 Ry
     Harris-Foulkes estimate   =  -12597.49023643 Ry
     estimated scf accuracy    <      90.29713917 Ry

     iteration # 13     ecut=    80.00 Ry     beta=0.70
     Davidson diagonalization with overlap
     ethr =  7.27E-03,  avg # of iterations =  1.0

     negative rho (up, down):  7.989E+00 0.000E+00

     total cpu time spent up to now is     8995.4 secs

     total energy              =  -12584.17247189 Ry
     Harris-Foulkes estimate   =  -12590.25213851 Ry
     estimated scf accuracy    <      78.64418868 Ry

     iteration # 14     ecut=    80.00 Ry     beta=0.70
     Davidson diagonalization with overlap
     ethr =  6.33E-03,  avg # of iterations =  2.0

     negative rho (up, down):  6.844E+00 0.000E+00

     total cpu time spent up to now is     9324.7 secs

     total energy              =  -12584.81234819 Ry
     Harris-Foulkes estimate   =  -12588.15768614 Ry
     estimated scf accuracy    <      25.31829435 Ry

     iteration # 15     ecut=    80.00 Ry     beta=0.70
     Davidson diagonalization with overlap
     ethr =  2.04E-03,  avg # of iterations =  1.0

     negative rho (up, down):  5.524E+00 0.000E+00

     total cpu time spent up to now is     9634.5 secs

     total energy              =  -12583.60530091 Ry
     Harris-Foulkes estimate   =  -12585.51258003 Ry
     estimated scf accuracy    <      17.08897578 Ry

     iteration # 16     ecut=    80.00 Ry     beta=0.70
     Davidson diagonalization with overlap
     ethr =  1.38E-03,  avg # of iterations =  3.7

     negative rho (up, down):  5.145E+00 0.000E+00

     total cpu time spent up to now is     9991.1 secs

     total energy              =  -12582.24638407 Ry
     Harris-Foulkes estimate   =  -12584.05455374 Ry
     estimated scf accuracy    <      16.13141858 Ry

     iteration # 17     ecut=    80.00 Ry     beta=0.70
     Davidson diagonalization with overlap
     ethr =  1.30E-03,  avg # of iterations =  5.8

     negative rho (up, down):  4.713E+00 0.000E+00

     total cpu time spent up to now is    10409.2 secs

     total energy              =  -12581.61445209 Ry
     Harris-Foulkes estimate   =  -12582.71424783 Ry
     estimated scf accuracy    <      15.53959812 Ry

     iteration # 18     ecut=    80.00 Ry     beta=0.70
     Davidson diagonalization with overlap
     ethr =  1.25E-03,  avg # of iterations =  2.5

     negative rho (up, down):  3.702E+00 0.000E+00

     total cpu time spent up to now is    10748.3 secs

     total energy              =  -12580.90045385 Ry
     Harris-Foulkes estimate   =  -12582.05326250 Ry
     estimated scf accuracy    <      12.32097566 Ry

     iteration # 19     ecut=    80.00 Ry     beta=0.70
     Davidson diagonalization with overlap
     ethr =  9.92E-04,  avg # of iterations =  1.8

     negative rho (up, down):  2.771E+00 0.000E+00

     total cpu time spent up to now is    11074.3 secs

     total energy              =  -12579.31617452 Ry
     Harris-Foulkes estimate   =  -12581.05802696 Ry
     estimated scf accuracy    <       8.93452426 Ry

     iteration # 20     ecut=    80.00 Ry     beta=0.70
     Davidson diagonalization with overlap
     ethr =  7.19E-04,  avg # of iterations =  4.8

     negative rho (up, down):  1.917E+00 0.000E+00

     total cpu time spent up to now is    11459.7 secs

     total energy              =  -12578.30753378 Ry
     Harris-Foulkes estimate   =  -12579.52698667 Ry
     estimated scf accuracy    <       9.33934329 Ry

     iteration # 21     ecut=    80.00 Ry     beta=0.70
     Davidson diagonalization with overlap
     ethr =  7.19E-04,  avg # of iterations =  3.3

     negative rho (up, down):  1.199E+00 0.000E+00

     total cpu time spent up to now is    11812.8 secs

     total energy              =  -12577.03923900 Ry
     Harris-Foulkes estimate   =  -12578.50679429 Ry
     estimated scf accuracy    <       6.92520498 Ry

     iteration # 22     ecut=    80.00 Ry     beta=0.70
     Davidson diagonalization with overlap
     ethr =  5.58E-04,  avg # of iterations =  5.2

     negative rho (up, down):  8.253E-01 0.000E+00

     total cpu time spent up to now is    12209.3 secs

     total energy              =  -12576.60973100 Ry
     Harris-Foulkes estimate   =  -12577.19190866 Ry
     estimated scf accuracy    <       4.46810175 Ry

     iteration # 23     ecut=    80.00 Ry     beta=0.70
     Davidson diagonalization with overlap
     ethr =  3.60E-04,  avg # of iterations =  2.0

     negative rho (up, down):  5.026E-01 0.000E+00

     total cpu time spent up to now is    12538.8 secs

     total energy              =  -12575.95134093 Ry
     Harris-Foulkes estimate   =  -12576.91562004 Ry
     estimated scf accuracy    <       6.72924715 Ry

     iteration # 24     ecut=    80.00 Ry     beta=0.70
     Davidson diagonalization with overlap
     ethr =  3.60E-04,  avg # of iterations =  6.7

     negative rho (up, down):  8.538E-01 0.000E+00

     total cpu time spent up to now is    12956.3 secs

     total energy              =  -12575.82641929 Ry
     Harris-Foulkes estimate   =  -12576.29973964 Ry
     estimated scf accuracy    <       2.35159328 Ry

     iteration # 25     ecut=    80.00 Ry     beta=0.70
     Davidson diagonalization with overlap
     ethr =  1.89E-04,  avg # of iterations =  8.5

     negative rho (up, down):  6.960E-01 0.000E+00

     total cpu time spent up to now is    13428.9 secs

     total energy              =  -12575.64309441 Ry
     Harris-Foulkes estimate   =  -12575.94509660 Ry
     estimated scf accuracy    <       2.25675434 Ry

     iteration # 26     ecut=    80.00 Ry     beta=0.70
     Davidson diagonalization with overlap
     ethr =  1.82E-04,  avg # of iterations =  6.3

     negative rho (up, down):  4.412E-01 0.000E+00

     total cpu time spent up to now is    13848.5 secs

     total energy              =  -12575.57408943 Ry
     Harris-Foulkes estimate   =  -12575.76246800 Ry
     estimated scf accuracy    <       0.80803845 Ry

     iteration # 27     ecut=    80.00 Ry     beta=0.70
     Davidson diagonalization with overlap
     ethr =  6.51E-05,  avg # of iterations =  8.0

     negative rho (up, down):  2.805E-01 0.000E+00

     total cpu time spent up to now is    14335.6 secs

     total energy              =  -12575.50438826 Ry
     Harris-Foulkes estimate   =  -12575.62850533 Ry
     estimated scf accuracy    <       0.55678656 Ry

     iteration # 28     ecut=    80.00 Ry     beta=0.70
     Davidson diagonalization with overlap
     ethr =  4.48E-05,  avg # of iterations =  8.0

     negative rho (up, down):  8.054E-02 0.000E+00

     total cpu time spent up to now is    14808.9 secs

     total energy              =  -12575.51198646 Ry
     Harris-Foulkes estimate   =  -12575.57838605 Ry
     estimated scf accuracy    <       0.36655224 Ry

     iteration # 29     ecut=    80.00 Ry     beta=0.70
     Davidson diagonalization with overlap
     ethr =  2.95E-05,  avg # of iterations =  8.8

     negative rho (up, down):  1.180E-01 0.000E+00

     total cpu time spent up to now is    15293.8 secs

     total energy              =  -12575.52285916 Ry
     Harris-Foulkes estimate   =  -12575.54562219 Ry
     estimated scf accuracy    <       0.14255263 Ry

     iteration # 30     ecut=    80.00 Ry     beta=0.70
     Davidson diagonalization with overlap
     ethr =  1.15E-05,  avg # of iterations =  8.5

     negative rho (up, down):  6.513E-02 0.000E+00

     total cpu time spent up to now is    15820.3 secs

     total energy              =  -12575.52789420 Ry
     Harris-Foulkes estimate   =  -12575.53306893 Ry
     estimated scf accuracy    <       0.03072830 Ry

     iteration # 31     ecut=    80.00 Ry     beta=0.70
     Davidson diagonalization with overlap
     c_bands:  1 eigenvalues not converged
     c_bands:  1 eigenvalues not converged
     ethr =  2.47E-06,  avg # of iterations = 16.3

     negative rho (up, down):  5.336E-02 0.000E+00

     total cpu time spent up to now is    16501.5 secs

     total energy              =  -12575.52946245 Ry
     Harris-Foulkes estimate   =  -12575.53213332 Ry
     estimated scf accuracy    <       0.02029448 Ry

     iteration # 32     ecut=    80.00 Ry     beta=0.70
     Davidson diagonalization with overlap
     ethr =  1.63E-06,  avg # of iterations = 11.0

     negative rho (up, down):  2.246E-02 0.000E+00

     total cpu time spent up to now is    17027.1 secs

     total energy              =  -12575.53011052 Ry
     Harris-Foulkes estimate   =  -12575.53105737 Ry
     estimated scf accuracy    <       0.00673978 Ry

     iteration # 33     ecut=    80.00 Ry     beta=0.70
     Davidson diagonalization with overlap
     ethr =  5.43E-07,  avg # of iterations = 10.7

     negative rho (up, down):  1.123E-02 0.000E+00

     total cpu time spent up to now is    17570.8 secs

     total energy              =  -12575.53001067 Ry
     Harris-Foulkes estimate   =  -12575.53048859 Ry
     estimated scf accuracy    <       0.00320284 Ry

     iteration # 34     ecut=    80.00 Ry     beta=0.70
     Davidson diagonalization with overlap
     ethr =  2.58E-07,  avg # of iterations =  6.8

     negative rho (up, down):  6.072E-03 0.000E+00

     total cpu time spent up to now is    18037.0 secs

     total energy              =  -12575.53013814 Ry
     Harris-Foulkes estimate   =  -12575.53021406 Ry
     estimated scf accuracy    <       0.00146153 Ry

     iteration # 35     ecut=    80.00 Ry     beta=0.70
     Davidson diagonalization with overlap
     ethr =  1.18E-07,  avg # of iterations =  6.8

     negative rho (up, down):  3.962E-04 0.000E+00

     total cpu time spent up to now is    18500.6 secs

     total energy              =  -12575.53023018 Ry
     Harris-Foulkes estimate   =  -12575.53025147 Ry
     estimated scf accuracy    <       0.00079498 Ry

     iteration # 36     ecut=    80.00 Ry     beta=0.70
     Davidson diagonalization with overlap
     c_bands:  1 eigenvalues not converged
     ethr =  6.40E-08,  avg # of iterations =  8.7

     negative rho (up, down):  4.565E-03 0.000E+00

     total cpu time spent up to now is    19009.0 secs

     total energy              =  -12575.53048560 Ry
     Harris-Foulkes estimate   =  -12575.53032062 Ry
     estimated scf accuracy    <       0.00063722 Ry

     iteration # 37     ecut=    80.00 Ry     beta=0.70
     Davidson diagonalization with overlap
     ethr =  5.13E-08,  avg # of iterations =  9.8

     negative rho (up, down):  3.230E-03 0.000E+00

     total cpu time spent up to now is    19550.5 secs

     total energy              =  -12575.53056481 Ry
     Harris-Foulkes estimate   =  -12575.53052622 Ry
     estimated scf accuracy    <       0.00012223 Ry

     iteration # 38     ecut=    80.00 Ry     beta=0.70
     Davidson diagonalization with overlap
     c_bands:  1 eigenvalues not converged
     ethr =  9.84E-09,  avg # of iterations =  9.5

     negative rho (up, down):  2.238E-03 0.000E+00

     total cpu time spent up to now is    20067.4 secs

     total energy              =  -12575.53059828 Ry
     Harris-Foulkes estimate   =  -12575.53057535 Ry
     estimated scf accuracy    <       0.00005637 Ry

     iteration # 39     ecut=    80.00 Ry     beta=0.70
     Davidson diagonalization with overlap
     ethr =  4.54E-09,  avg # of iterations =  9.0

     negative rho (up, down):  2.369E-03 0.000E+00

     total cpu time spent up to now is    20592.4 secs

     total energy              =  -12575.53060280 Ry
     Harris-Foulkes estimate   =  -12575.53060418 Ry
     estimated scf accuracy    <       0.00001287 Ry

     iteration # 40     ecut=    80.00 Ry     beta=0.70
     Davidson diagonalization with overlap
     ethr =  1.04E-09,  avg # of iterations =  3.0

     negative rho (up, down):  2.322E-03 0.000E+00

     total cpu time spent up to now is    20971.2 secs

     total energy              =  -12575.53060465 Ry
     Harris-Foulkes estimate   =  -12575.53060492 Ry
     estimated scf accuracy    <       0.00000784 Ry

     iteration # 41     ecut=    80.00 Ry     beta=0.70
     Davidson diagonalization with overlap
     ethr =  6.31E-10,  avg # of iterations =  3.0

     negative rho (up, down):  2.260E-03 0.000E+00

     total cpu time spent up to now is    21346.9 secs

     total energy              =  -12575.53060555 Ry
     Harris-Foulkes estimate   =  -12575.53060552 Ry
     estimated scf accuracy    <       0.00000194 Ry

     iteration # 42     ecut=    80.00 Ry     beta=0.70
     Davidson diagonalization with overlap
     ethr =  1.56E-10,  avg # of iterations =  2.3

     negative rho (up, down):  2.237E-03 0.000E+00

     total cpu time spent up to now is    21697.8 secs

     total energy              =  -12575.53060568 Ry
     Harris-Foulkes estimate   =  -12575.53060567 Ry
     estimated scf accuracy    <       0.00000070 Ry

     iteration # 43     ecut=    80.00 Ry     beta=0.70
     Davidson diagonalization with overlap
     ethr =  5.66E-11,  avg # of iterations =  3.0

     negative rho (up, down):  2.210E-03 0.000E+00

     total cpu time spent up to now is    22080.0 secs

     total energy              =  -12575.53060585 Ry
     Harris-Foulkes estimate   =  -12575.53060577 Ry
     estimated scf accuracy    <       0.00000013 Ry

     iteration # 44     ecut=    80.00 Ry     beta=0.70
     Davidson diagonalization with overlap
     ethr =  1.05E-11,  avg # of iterations =  2.7

     negative rho (up, down):  2.192E-03 0.000E+00

     total cpu time spent up to now is    22463.8 secs

     total energy              =  -12575.53060591 Ry
     Harris-Foulkes estimate   =  -12575.53060587 Ry
     estimated scf accuracy    <       0.00000003 Ry

     iteration # 45     ecut=    80.00 Ry     beta=0.70
     Davidson diagonalization with overlap
     ethr =  2.58E-12,  avg # of iterations =  3.0

     negative rho (up, down):  2.166E-03 0.000E+00

     total cpu time spent up to now is    22837.4 secs

     End of self-consistent calculation

          k = 0.0000 0.0000 0.0000 (256287 PWs)   bands (ev):

   -20.5574 -18.0152 -16.2353 -15.6498 -14.7283 -14.2803 -14.2685 -13.7385
   -13.6849 -13.5081 -12.8699 -12.7965 -12.1306 -11.7359 -11.6069 -10.5493
   -10.2606  -9.6869  -9.1496  -8.9936  -8.6841  -8.2397  -8.1383  -7.4835
    -7.4005  -7.3271  -7.0270  -6.9173  -6.4133  -6.2749  -6.1540  -5.8968
    -5.6812  -5.6229  -5.6159  -5.5834  -5.3627  -5.2251  -5.1592  -5.0378
    -4.7056  -4.6871  -4.4938  -4.4340  -4.3220  -4.1327  -4.1221  -4.0524
    -3.8545  -3.7796  -3.5406  -3.5387  -3.4033  -3.2775  -3.2073  -3.1537
    -3.1474  -3.1436  -3.1413  -3.1374  -3.1300  -3.1047  -3.0857  -3.0649
    -2.9269  -2.8510  -2.8449  -2.7855  -2.7393  -2.7301  -2.7114  -2.6331
    -2.5006  -2.4740  -2.4671  -2.4638  -2.4120  -2.3334  -2.3280  -2.3065
    -2.2979  -2.2898  -2.2895  -2.2861  -2.2849  -2.1624  -2.1609  -2.1529
    -2.1519  -2.0919  -2.0407  -2.0043  -1.9793  -1.9736  -1.9134  -1.8794
    -1.8779  -1.8736  -1.8636  -1.8435  -1.8150  -1.8078  -1.8040  -1.7884
    -1.7832  -1.7563  -1.7503  -1.7111  -1.7083  -1.7057  -1.6903  -1.6867
    -1.6575  -1.6503  -1.6438  -1.6273  -1.6211  -1.5878  -1.5825  -1.5504
    -1.5320  -1.5082  -1.4968  -1.4883  -1.4419  -1.4293  -1.4125  -1.4057
    -1.3941  -1.3838  -1.3485  -1.3463  -1.3297  -1.3237  -1.3053  -1.2980
    -1.2419  -1.2375  -1.2006  -1.1895  -1.1882  -1.1762  -1.1725  -1.1685
    -1.1674  -1.1628  -1.1625  -1.1575  -1.1565  -1.1431  -1.1389  -1.1378
    -1.1328  -1.1266  -1.0893  -1.0806  -1.0790  -1.0727  -1.0648  -1.0565
    -1.0558  -1.0541  -1.0216  -1.0065  -1.0005  -0.9961  -0.9935  -0.9923
    -0.9914  -0.9899  -0.9867  -0.9853  -0.9844  -0.9830  -0.9827  -0.9771
    -0.9757  -0.9748  -0.9630  -0.9385  -0.9128  -0.8618  -0.8326  -0.8243
    -0.8194  -0.8184  -0.8118  -0.8044  -0.7936  -0.7798  -0.7775  -0.7646
    -0.7536  -0.7434  -0.7371  -0.7348  -0.7334  -0.7278  -0.7028  -0.7024
    -0.6972  -0.6945  -0.6936  -0.6903  -0.6854  -0.6801  -0.6342  -0.6245
    -0.5986  -0.5784  -0.5772  -0.5717  -0.5680  -0.5641  -0.5611  -0.5525
    -0.5469  -0.5450  -0.5436  -0.5412  -0.5386  -0.5369  -0.5368  -0.5287
    -0.5242  -0.5222  -0.5214  -0.5200  -0.5073  -0.4873  -0.4839  -0.4803
    -0.4482  -0.4354  -0.4320  -0.4317  -0.4282  -0.4072  -0.4071  -0.4002
    -0.3993  -0.3927  -0.3910  -0.3865  -0.3821  -0.3798  -0.3666  -0.3636
    -0.3613  -0.3607  -0.3577  -0.3548  -0.3502  -0.3496  -0.3492  -0.3478
    -0.3362  -0.3345  -0.3275  -0.3238  -0.3231  -0.3084  -0.2901  -0.2670
    -0.2606  -0.2591  -0.2564  -0.2500  -0.2296  -0.2238  -0.2135  -0.2114
    -0.2064  -0.2016  -0.2009  -0.1992  -0.1974  -0.1964  -0.1698  -0.1572
    -0.1552  -0.1533  -0.1473  -0.1408  -0.1381  -0.1356  -0.1199  -0.1177
    -0.1121  -0.1095  -0.1043  -0.1016  -0.0954  -0.0928  -0.0923  -0.0875
    -0.0825  -0.0806  -0.0802  -0.0779  -0.0763  -0.0708  -0.0568  -0.0530
    -0.0417  -0.0363  -0.0244  -0.0083  -0.0045   0.0053   0.0151   0.0282
     0.0493   0.0567   0.0797   0.0889   0.0907   0.0918   0.1013   0.1077
     0.1089   0.1130   0.1230   0.1266   0.1353   0.1386   0.1469   0.1556
     0.1631   0.1895   0.1939   0.1957   0.1971   0.2011   0.2081   0.2136
     0.2223   0.2289   0.2346   0.2401   0.2456   0.2488   0.2689   0.2760
     0.2848   0.2859   0.2957   0.2994   0.3043   0.3082   0.3326   0.3368
     0.3470   0.3491   0.3499   0.3622   0.3638   0.3683   0.3720   0.3741
     0.3758   0.3831   0.3870   0.3885   0.3936   0.3955   0.3967   0.4038
     0.4067   0.4080   0.4108   0.4134   0.4156   0.4275   0.4291   0.4367
     0.4600   0.4610   0.4620   0.4640   0.4726   0.4762   0.4838   0.5008
     0.5047   0.5069   0.5082   0.5120   0.5132   0.5157   0.5171   0.5307
     0.5328   0.5386   0.5415   0.5446   0.5466   0.5480   0.5542   0.5561
     0.5590   0.5611   0.5759   0.5838   0.5862   0.5930   0.5940   0.5987
     0.6040   0.6041   0.6052   0.6133   0.6145   0.6187   0.6225   0.6280
     0.6523   0.6652   0.6657   0.6734   0.6755   0.6764   0.6845   0.6860
     0.6878   0.7130   0.7155   0.7232   0.7270   0.7368   0.7372   0.7463
     0.7484   0.7527   0.7539   0.7586   0.7625   0.7678   0.7766   0.7814
     0.7840   0.7900   0.7946   0.7978   0.8012   0.8077   0.8135   0.8189
     0.8313   0.8382   0.8397   0.8438   0.8470   0.8559   0.8625   0.8643
     0.8680   0.8701   0.8709   0.8732   0.8775   0.8789   0.8829   0.8917
     0.8923   0.8958   0.8980   0.9010   0.9070   0.9148   0.9240   0.9258
     0.9335   0.9413   0.9415   0.9459   0.9551   0.9583   0.9641   0.9676
     0.9696   0.9717   0.9728   0.9732   0.9761   0.9781   0.9892   0.9908
     0.9956   1.0006   1.0112   1.0223   1.0333   1.0358   1.0523   1.0542
     1.0582   1.0616   1.0640   1.0664   1.0682   1.0716   1.0757   1.0812
     1.0836   1.0933   1.0939   1.0971   1.0983   1.1026   1.1088   1.1114
     1.1153   1.1176   1.1219   1.1288   1.1332   1.1350   1.1368   1.1414
     1.1424   1.1477   1.1497   1.1519   1.1568   1.1596   1.1620   1.1661
     1.1688   1.1703   1.1720   1.1725   1.1769   1.1873   1.1904   1.1999
     1.2059   1.2095   1.2098   1.2147   1.2180   1.2244   1.2276   1.2392
     1.2447   1.2471   1.2514   1.2614   1.2647   1.2668   1.2692   1.2700
     1.2744   1.2799   1.2822   1.2856   1.2887   1.2924   1.2963   1.2997
     1.3032   1.3077   1.3088   1.3099   1.3180   1.3219   1.3251   1.3276
     1.3298   1.3328   1.3375   1.3393   1.3443   1.3482   1.3752   1.3794
     1.3878   1.4140   1.4158   1.4223   1.4273   1.4306   1.4422   1.4431
     1.4560   1.4638   1.4698   1.4826   1.4885   1.4910   1.4989   1.5039
     1.5060   1.5136   1.5225   1.7478   1.8131   1.8685   1.9260   1.9455
     1.9809   2.0152   2.0494   2.0631   2.0698   2.0701   2.0768   2.0858
     2.0986   2.1397   2.1783   2.2751   2.3065   2.3179   2.3281   2.3367
     2.3387   2.3706   2.3831   2.5686   2.5921   2.6036   2.6501   3.0096
     3.3294   3.3451   3.3948   3.5208   3.6306   3.6557   3.6929   3.7036
     3.7226   3.7374   3.7753   3.7957   3.8237   3.8386   3.8532   3.8662
     3.8822   3.8912   3.9385   3.9604   4.0741   4.0933   4.1415   4.2084
     4.3456   4.5477   4.6441   4.8143   5.0097   5.1060   5.1424   5.2760
     5.4195   5.4813   5.5381   5.6173   5.6723   5.7365   5.7979   5.8448
     6.0139   6.1424   6.1949   6.2561   6.2902   6.3226   6.3352   6.3934
     6.4701   6.5409   6.5605   6.5750   6.5948   6.6179   6.6505   6.7803
     6.8699   6.8953   6.9207   6.9666   6.9952   7.1197   7.2065   7.2140
     7.2863   7.3382   7.4483   7.5013   7.5113   7.5371   7.5497   7.5681
     7.5881   7.6740   7.7549   7.8170   7.9488   7.9839   7.9856   8.0215
     8.0360   8.1523   8.1920   8.2005   8.2075   8.2577   8.2776   8.3259
     8.3941   8.4055   8.4145   8.4616   8.4990   8.5219   8.5566   8.5664
     8.6540   8.6583   8.6906   8.7000   8.7614   8.7853   8.8205   8.8410
     8.8791   8.9130   8.9580   8.9999   9.0180   9.0719   9.1856   9.1939
     9.2223   9.3190   9.3652   9.4251   9.4383   9.4605   9.5610   9.6197
     9.6337

          k = 0.0000-0.2165 0.0000 (256176 PWs)   bands (ev):

   -20.5574 -18.0152 -16.2353 -15.6497 -14.7284 -14.2803 -14.2685 -13.7384
   -13.6849 -13.5079 -12.8700 -12.7965 -12.1309 -11.7356 -11.6069 -10.5495
   -10.2607  -9.6852  -9.1503  -8.9935  -8.6864  -8.2395  -8.1387  -7.4815
    -7.4005  -7.3256  -7.0266  -6.9178  -6.4128  -6.2753  -6.0283  -6.0134
    -5.8982  -5.6679  -5.5943  -5.3633  -5.2249  -5.1064  -5.0386  -4.9942
    -4.9676  -4.9218  -4.5440  -4.4506  -4.4085  -4.2337  -4.0149  -3.9094
    -3.7870  -3.6922  -3.4470  -3.4446  -3.4273  -3.4200  -3.2670  -3.2305
    -3.1964  -3.1703  -3.1605  -3.1423  -3.1019  -3.0953  -3.0539  -3.0076
    -2.7916  -2.7309  -2.7291  -2.7234  -2.7158  -2.7147  -2.6984  -2.6976
    -2.6324  -2.5961  -2.5805  -2.4467  -2.4014  -2.3861  -2.3593  -2.3237
    -2.3153  -2.2859  -2.2802  -2.2708  -2.2664  -2.2565  -2.1223  -2.1219
    -2.0978  -2.0977  -2.0553  -2.0226  -1.9905  -1.9787  -1.9236  -1.9056
    -1.8988  -1.8850  -1.8789  -1.8779  -1.8709  -1.8639  -1.8519  -1.8352
    -1.8167  -1.8069  -1.7814  -1.7749  -1.7546  -1.7379  -1.6487  -1.5971
    -1.5961  -1.5885  -1.5869  -1.5279  -1.5202  -1.5082  -1.5069  -1.4549
    -1.4504  -1.4348  -1.4164  -1.4159  -1.4115  -1.4090  -1.4047  -1.4025
    -1.3804  -1.3758  -1.3746  -1.3637  -1.3576  -1.3540  -1.3480  -1.3447
    -1.3230  -1.2945  -1.2916  -1.2706  -1.2673  -1.2256  -1.2241  -1.1892
    -1.1862  -1.1844  -1.1819  -1.1578  -1.1368  -1.1303  -1.1288  -1.1212
    -1.1181  -1.1113  -1.1098  -1.1096  -1.0773  -1.0698  -1.0597  -1.0583
    -1.0566  -1.0552  -1.0508  -1.0476  -1.0436  -1.0386  -1.0218  -1.0127
    -0.9748  -0.9680  -0.9670  -0.9599  -0.9562  -0.9477  -0.9418  -0.9376
    -0.9258  -0.9187  -0.9080  -0.8942  -0.8892  -0.8869  -0.8813  -0.8319
    -0.7998  -0.7993  -0.7936  -0.7821  -0.7776  -0.7694  -0.7684  -0.7475
    -0.7461  -0.7402  -0.7386  -0.7373  -0.7329  -0.7171  -0.7166  -0.6906
    -0.6888  -0.6799  -0.6770  -0.6741  -0.6723  -0.6697  -0.6672  -0.6465
    -0.6449  -0.6342  -0.6260  -0.6259  -0.6075  -0.5919  -0.5899  -0.5891
    -0.5889  -0.5841  -0.5818  -0.5587  -0.5542  -0.5368  -0.5170  -0.5116
    -0.5065  -0.4993  -0.4871  -0.4845  -0.4789  -0.4680  -0.4597  -0.4440
    -0.4417  -0.4369  -0.4322  -0.4300  -0.4266  -0.4193  -0.4185  -0.4001
    -0.3985  -0.3942  -0.3926  -0.3847  -0.3846  -0.3837  -0.3797  -0.3773
    -0.3720  -0.3630  -0.3567  -0.3492  -0.3482  -0.3406  -0.3401  -0.3281
    -0.3109  -0.2877  -0.2842  -0.2804  -0.2773  -0.2746  -0.2739  -0.2680
    -0.2629  -0.2505  -0.2466  -0.2408  -0.2347  -0.2293  -0.2275  -0.2234
    -0.2220  -0.2204  -0.2177  -0.2099  -0.2076  -0.2048  -0.1661  -0.1637
    -0.1621  -0.1599  -0.1585  -0.1555  -0.1431  -0.1322  -0.1313  -0.1261
    -0.1235  -0.1137  -0.1127  -0.1085  -0.1069  -0.0997  -0.0822  -0.0795
    -0.0691  -0.0674  -0.0659  -0.0639  -0.0502  -0.0448  -0.0407  -0.0334
    -0.0305  -0.0239  -0.0211  -0.0187  -0.0132  -0.0066   0.0027   0.0244
     0.0349   0.0407   0.0463   0.0491   0.0529   0.0631   0.0648   0.0702
     0.0777   0.0880   0.0993   0.1217   0.1261   0.1278   0.1375   0.1518
     0.1788   0.1821   0.2129   0.2236   0.2305   0.2391   0.2434   0.2482
     0.2516   0.2620   0.2700   0.2747   0.2853   0.2911   0.2943   0.2992
     0.3023   0.3050   0.3126   0.3142   0.3212   0.3237   0.3298   0.3317
     0.3328   0.3383   0.3415   0.3435   0.3585   0.3629   0.3654   0.3736
     0.3793   0.3813   0.3851   0.3906   0.3920   0.3922   0.3939   0.4008
     0.4071   0.4158   0.4162   0.4187   0.4213   0.4233   0.4307   0.4317
     0.4369   0.4425   0.4439   0.4463   0.4490   0.4542   0.4576   0.4630
     0.4779   0.4794   0.4951   0.5000   0.5095   0.5152   0.5159   0.5201
     0.5240   0.5287   0.5320   0.5336   0.5373   0.5391   0.5405   0.5417
     0.5549   0.5639   0.5739   0.5795   0.5857   0.5884   0.5889   0.5966
     0.6024   0.6044   0.6130   0.6213   0.6220   0.6274   0.6292   0.6332
     0.6376   0.6458   0.6477   0.6775   0.6821   0.6923   0.6982   0.7314
     0.7431   0.7478   0.7488   0.7500   0.7545   0.7588   0.7632   0.7634
     0.7673   0.7710   0.7744   0.7779   0.7815   0.7844   0.7887   0.7935
     0.7946   0.7973   0.8007   0.8072   0.8105   0.8151   0.8183   0.8191
     0.8220   0.8225   0.8235   0.8259   0.8294   0.8329   0.8375   0.8425
     0.8452   0.8456   0.8487   0.8513   0.8517   0.8586   0.8636   0.8690
     0.8717   0.8816   0.8859   0.8880   0.8901   0.8923   0.8946   0.8957
     0.8993   0.9002   0.9050   0.9080   0.9250   0.9410   0.9471   0.9807
     0.9843   0.9909   0.9934   0.9984   1.0077   1.0102   1.0128   1.0248
     1.0261   1.0291   1.0352   1.0374   1.0386   1.0433   1.0445   1.0533
     1.0571   1.0578   1.0588   1.0607   1.0626   1.0646   1.0661   1.0689
     1.0722   1.0729   1.0809   1.0839   1.0875   1.0902   1.0932   1.0949
     1.0998   1.1079   1.1139   1.1202   1.1252   1.1265   1.1285   1.1313
     1.1340   1.1368   1.1385   1.1517   1.1536   1.1550   1.1581   1.1637
     1.1644   1.1689   1.1755   1.1801   1.1826   1.1898   1.1907   1.1939
     1.1983   1.2079   1.2110   1.2130   1.2225   1.2324   1.2358   1.2373
     1.2420   1.2438   1.2476   1.2500   1.2506   1.2546   1.2560   1.2676
     1.2720   1.2790   1.2839   1.2874   1.2900   1.2998   1.3016   1.3063
     1.3080   1.3087   1.3098   1.3116   1.3133   1.3366   1.3398   1.3445
     1.3457   1.3510   1.3664   1.3685   1.3719   1.3751   1.3816   1.3827
     1.3867   1.3885   1.3942   1.3993   1.4119   1.4521   1.4539   1.4574
     1.4711   1.5369   1.5650   1.5866   1.5929   1.6018   1.6113   1.6200
     1.6325   1.6360   1.6490   1.6565   1.6613   1.6745   1.6780   1.6793
     1.6935   1.7087   1.7117   2.0124   2.0937   2.2580   2.2628   2.3019
     2.3083   2.3415   2.3563   2.4217   2.4288   2.4435   2.4501   2.4839
     2.5312   2.5605   2.5613   2.5700   2.6416   2.6491   2.6674   2.7796
     2.7807   3.0180   3.0181   3.0379   3.0533   3.2332   3.3035   3.3885
     3.5027   3.5363   3.6002   3.8821   3.9211   3.9686   4.0036   4.1678
     4.1812   4.1935   4.2025   4.2079   4.3161   4.4477   4.5629   4.5925
     4.6951   4.7484   4.8877   4.9285   4.9683   5.0814   5.1328   5.2081
     5.2122   5.2289   5.2685   5.3142   5.4280   5.5109   5.7112   6.0266
     6.0852   6.1184   6.1810   6.3095   6.3332   6.3897   6.4051   6.4427
     6.4618   6.5273   6.5556   6.6144   6.6482   6.7640   6.8053   6.8504
     6.8824   6.9184   6.9578   6.9618   6.9734   6.9857   6.9985   7.0025
     7.0948   7.1243   7.1950   7.2532   7.2923   7.4282   7.4868   7.5278
     7.5439   7.6575   7.6705   7.7678   7.8097   7.9370   7.9725   8.0288
     8.1215   8.1661   8.2096   8.2236   8.2692   8.3403   8.3785   8.4565
     8.5081   8.5224   8.5503   8.5613   8.5694   8.6289   8.6318   8.6604
     8.6733   8.7009   8.7280   8.7693   8.7892   8.8521   8.8816   8.9472
     9.0386   9.0749   9.1247   9.2173   9.2410   9.2451   9.2766   9.2826
     9.2999   9.3338   9.3986   9.4053   9.4960   9.5422   9.5615   9.6102
     9.6457

          k = 0.2500 0.0000 0.0000 (256240 PWs)   bands (ev):

   -20.5573 -18.0155 -16.1113 -15.5273 -15.1247 -14.6090 -14.5497 -13.6582
   -13.3916 -13.1982 -12.6576 -12.4783 -12.0088 -11.8008 -11.1498 -10.8498
   -10.3447  -9.9758  -9.5557  -9.2071  -9.0075  -8.7917  -8.3525  -7.8166
    -7.3597  -7.1008  -6.7493  -6.4887  -6.3568  -5.9746  -5.9251  -5.7674
    -5.5748  -5.4582  -5.4425  -5.3793  -5.0167  -4.9285  -4.6970  -4.6337
    -4.5894  -4.5514  -4.5098  -4.3148  -4.2240  -4.1520  -4.1335  -4.1144
    -3.9873  -3.9755  -3.9379  -3.8274  -3.7176  -3.6829  -3.6561  -3.6239
    -3.4066  -3.3469  -3.3191  -3.2580  -3.2150  -3.1649  -3.1403  -3.1022
    -3.0446  -3.0287  -2.9374  -2.9341  -2.8311  -2.8057  -2.7475  -2.7317
    -2.6578  -2.5352  -2.4696  -2.4513  -2.4176  -2.2393  -2.2369  -2.2208
    -2.2168  -2.2056  -2.1213  -2.0656  -2.0409  -2.0030  -1.9832  -1.9770
    -1.9648  -1.9400  -1.9396  -1.9339  -1.9283  -1.9256  -1.9098  -1.8903
    -1.8563  -1.8205  -1.8028  -1.7835  -1.7777  -1.7703  -1.7434  -1.7189
    -1.7182  -1.7169  -1.7133  -1.7066  -1.6935  -1.6772  -1.6587  -1.6411
    -1.6368  -1.6334  -1.6323  -1.5570  -1.5083  -1.5034  -1.4712  -1.4667
    -1.4484  -1.4464  -1.3974  -1.3933  -1.3853  -1.3792  -1.3724  -1.3635
    -1.3464  -1.3451  -1.3300  -1.3215  -1.3169  -1.3143  -1.3072  -1.2854
    -1.2795  -1.2741  -1.2682  -1.2648  -1.2527  -1.2498  -1.2462  -1.2412
    -1.2134  -1.2025  -1.1962  -1.1851  -1.1734  -1.1644  -1.1609  -1.1532
    -1.1451  -1.1432  -1.1387  -1.1355  -1.1293  -1.1247  -1.1245  -1.1209
    -1.1164  -1.1139  -1.1126  -1.1100  -1.0999  -1.0899  -1.0831  -1.0661
    -1.0472  -1.0372  -1.0314  -0.9975  -0.9916  -0.9893  -0.9516  -0.9486
    -0.9388  -0.9309  -0.9235  -0.9090  -0.9075  -0.8997  -0.8927  -0.8894
    -0.8847  -0.8818  -0.8778  -0.8661  -0.8618  -0.7948  -0.7602  -0.7473
    -0.7387  -0.7278  -0.7153  -0.7062  -0.7051  -0.7007  -0.6968  -0.6908
    -0.6887  -0.6841  -0.6745  -0.6728  -0.6695  -0.6626  -0.6494  -0.6366
    -0.6285  -0.6261  -0.6241  -0.6211  -0.6097  -0.6001  -0.5989  -0.5945
    -0.5890  -0.5779  -0.5459  -0.5397  -0.5386  -0.5350  -0.5296  -0.5238
    -0.5202  -0.5174  -0.5163  -0.4957  -0.4920  -0.4781  -0.4765  -0.4735
    -0.4634  -0.4380  -0.4353  -0.4316  -0.4305  -0.4236  -0.4203  -0.4152
    -0.4075  -0.4001  -0.3862  -0.3846  -0.3833  -0.3729  -0.3710  -0.3556
    -0.3528  -0.3401  -0.3381  -0.3334  -0.3279  -0.3209  -0.3206  -0.3133
    -0.3045  -0.2938  -0.2923  -0.2843  -0.2746  -0.2590  -0.2555  -0.2539
    -0.2488  -0.2341  -0.2139  -0.2099  -0.2071  -0.2013  -0.1982  -0.1836
    -0.1792  -0.1723  -0.1631  -0.1587  -0.1526  -0.1509  -0.1491  -0.1402
    -0.1363  -0.1350  -0.1318  -0.1309  -0.1297  -0.1265  -0.1212  -0.1158
    -0.1104  -0.1062  -0.1028  -0.0982  -0.0905  -0.0863  -0.0816  -0.0734
    -0.0658  -0.0576  -0.0541  -0.0396  -0.0308  -0.0257  -0.0227  -0.0174
    -0.0109  -0.0060  -0.0023   0.0002   0.0045   0.0099   0.0315   0.0428
     0.0731   0.0813   0.1032   0.1077   0.1144   0.1178   0.1220   0.1270
     0.1296   0.1323   0.1359   0.1403   0.1430   0.1474   0.1512   0.1535
     0.1558   0.1579   0.1642   0.1706   0.1717   0.1776   0.1833   0.1885
     0.1926   0.1953   0.1997   0.2031   0.2115   0.2187   0.2245   0.2432
     0.2645   0.2707   0.2777   0.2795   0.2854   0.2904   0.2960   0.3004
     0.3066   0.3134   0.3270   0.3291   0.3314   0.3334   0.3435   0.3466
     0.3498   0.3542   0.3583   0.3614   0.3653   0.3735   0.3755   0.3821
     0.3864   0.3911   0.3996   0.4062   0.4114   0.4123   0.4146   0.4190
     0.4298   0.4364   0.4391   0.4439   0.4488   0.4518   0.4562   0.4607
     0.4624   0.4664   0.4725   0.4760   0.4778   0.4916   0.4972   0.5006
     0.5107   0.5139   0.5186   0.5213   0.5247   0.5320   0.5394   0.5437
     0.5585   0.5675   0.5770   0.5861   0.5967   0.5989   0.6031   0.6066
     0.6127   0.6159   0.6245   0.6267   0.6343   0.6355   0.6394   0.6409
     0.6457   0.6573   0.6623   0.6731   0.6762   0.6832   0.6868   0.6932
     0.7003   0.7077   0.7128   0.7161   0.7202   0.7369   0.7393   0.7397
     0.7475   0.7488   0.7504   0.7510   0.7526   0.7624   0.7661   0.7751
     0.7856   0.7962   0.8048   0.8111   0.8159   0.8192   0.8273   0.8311
     0.8369   0.8439   0.8469   0.8488   0.8528   0.8562   0.8601   0.8622
     0.8657   0.8701   0.8723   0.8744   0.8762   0.8791   0.8807   0.8835
     0.8874   0.8892   0.8939   0.8957   0.8977   0.9034   0.9114   0.9141
     0.9190   0.9241   0.9257   0.9281   0.9324   0.9368   0.9451   0.9485
     0.9558   0.9586   0.9626   0.9667   0.9690   0.9733   0.9753   0.9803
     0.9848   0.9872   0.9955   1.0023   1.0059   1.0109   1.0124   1.0189
     1.0283   1.0388   1.0445   1.0472   1.0498   1.0558   1.0649   1.0684
     1.0753   1.0897   1.0934   1.0998   1.1024   1.1082   1.1128   1.1161
     1.1178   1.1200   1.1241   1.1280   1.1340   1.1370   1.1441   1.1460
     1.1481   1.1523   1.1544   1.1558   1.1578   1.1620   1.1635   1.1678
     1.1727   1.1780   1.1793   1.1825   1.1869   1.1901   1.1935   1.1976
     1.2082   1.2104   1.2150   1.2192   1.2224   1.2269   1.2311   1.2353
     1.2391   1.2428   1.2512   1.2547   1.2573   1.2633   1.2677   1.2739
     1.2763   1.2793   1.2814   1.2846   1.2862   1.2872   1.2892   1.2939
     1.2960   1.2976   1.3005   1.3017   1.3144   1.3201   1.3257   1.3286
     1.3297   1.3303   1.3382   1.3404   1.3419   1.3467   1.3499   1.3565
     1.3653   1.3669   1.3764   1.3794   1.3907   1.4019   1.4059   1.4162
     1.4359   1.4470   1.4639   1.4788   1.4813   1.4839   1.4897   1.5332
     1.5728   1.6102   1.6224   1.6269   1.6349   1.6595   1.6726   1.6937
     1.8861   1.8932   1.9230   1.9424   1.9598   1.9787   2.0384   2.1014
     2.1718   2.3848   2.4006   2.4181   2.4245   2.5665   2.6834   2.8312
     2.8375   2.8938   3.0420   3.0563   3.0745   3.0753   3.1008   3.1849
     3.2741   3.3323   3.4222   3.4828   3.4930   3.5023   3.5480   3.5622
     3.5948   3.6150   3.6674   3.6945   3.7271   3.7846   3.8445   3.9677
     4.0812   4.1277   4.1543   4.2443   4.3708   4.6074   4.6365   4.6964
     4.7813   4.9389   4.9512   5.0734   5.0887   5.1103   5.1715   5.2415
     5.3133   5.3397   5.3453   5.3706   5.4196   5.4724   5.5568   5.5832
     5.6395   5.7005   5.7298   5.8026   5.8520   5.8752   5.8777   5.9333
     6.0748   6.2871   6.4373   6.5358   6.5512   6.5939   6.6128   6.6408
     6.7627   6.8582   6.8690   6.8808   6.8931   6.9052   6.9745   7.0278
     7.0704   7.1844   7.2133   7.2661   7.2975   7.3665   7.4136   7.4315
     7.5078   7.5720   7.5855   7.6638   7.6928   7.7176   7.8135   7.8908
     7.8984   7.9142   7.9691   8.0001   8.0606   8.1301   8.1554   8.1643
     8.2010   8.2138   8.2448   8.3002   8.3668   8.4196   8.4727   8.4931
     8.5986   8.6145   8.6975   8.7849   8.8518   8.8662   8.9545   8.9951
     9.0051   9.0145   9.0375   9.0500   9.0639   9.0723   9.0885   9.1236
     9.1448   9.1681   9.2532   9.2954   9.3493   9.3810   9.4532   9.4861
     9.5198

          k = 0.2500-0.2165 0.0000 (256316 PWs)   bands (ev):

   -20.5573 -18.0155 -16.1113 -15.5273 -15.1247 -14.6091 -14.5496 -13.6582
   -13.3914 -13.1982 -12.6576 -12.4782 -12.0092 -11.8008 -11.1500 -10.8497
   -10.3443  -9.9757  -9.5546  -9.2073  -9.0081  -8.7918  -8.3556  -7.8168
    -7.3564  -7.0989  -6.7494  -6.4885  -6.3573  -5.9275  -5.8500  -5.8373
    -5.7655  -5.5696  -5.3901  -4.9764  -4.9193  -4.8286  -4.8063  -4.7646
    -4.6928  -4.6100  -4.4908  -4.4670  -4.3857  -4.2586  -4.1894  -4.0767
    -3.9309  -3.7996  -3.7218  -3.6855  -3.6629  -3.6463  -3.6059  -3.5961
    -3.5704  -3.4694  -3.3846  -3.2229  -3.2187  -3.1511  -3.1256  -3.0755
    -3.0571  -3.0403  -3.0197  -2.9838  -2.8965  -2.8461  -2.7310  -2.6540
    -2.4570  -2.4440  -2.4252  -2.3373  -2.3323  -2.3063  -2.3053  -2.3022
    -2.2339  -2.1835  -2.1496  -2.1455  -2.1336  -2.0824  -2.0590  -2.0089
    -1.9592  -1.9514  -1.9481  -1.9371  -1.8812  -1.8692  -1.8590  -1.8514
    -1.8420  -1.8368  -1.8330  -1.8216  -1.8166  -1.8122  -1.8108  -1.8043
    -1.8001  -1.7821  -1.7612  -1.7171  -1.7109  -1.6368  -1.6093  -1.6023
    -1.5605  -1.5291  -1.4706  -1.4666  -1.4644  -1.4323  -1.4156  -1.4143
    -1.4074  -1.4003  -1.3988  -1.3872  -1.3826  -1.3785  -1.3752  -1.3710
    -1.3688  -1.3624  -1.3555  -1.3532  -1.3465  -1.3401  -1.3312  -1.3199
    -1.3184  -1.3110  -1.3090  -1.2750  -1.2676  -1.2608  -1.2527  -1.2489
    -1.2478  -1.2347  -1.2204  -1.2126  -1.1842  -1.1798  -1.1753  -1.1722
    -1.1671  -1.1550  -1.1380  -1.1341  -1.1318  -1.1288  -1.1205  -1.1024
    -1.0992  -1.0968  -1.0940  -1.0915  -1.0861  -1.0696  -1.0640  -1.0573
    -1.0537  -1.0266  -1.0148  -1.0057  -0.9995  -0.9946  -0.9850  -0.9267
    -0.9213  -0.9159  -0.9077  -0.9046  -0.8995  -0.8679  -0.8628  -0.8579
    -0.8525  -0.8508  -0.8426  -0.8410  -0.8385  -0.8226  -0.7944  -0.7890
    -0.7850  -0.7596  -0.7481  -0.7457  -0.7207  -0.7097  -0.7021  -0.7001
    -0.6977  -0.6760  -0.6744  -0.6730  -0.6636  -0.6507  -0.6460  -0.6412
    -0.6400  -0.6322  -0.6269  -0.6076  -0.6052  -0.5895  -0.5851  -0.5718
    -0.5672  -0.5535  -0.5499  -0.5484  -0.5417  -0.5299  -0.5286  -0.5279
    -0.5126  -0.5109  -0.5047  -0.5036  -0.5025  -0.4943  -0.4914  -0.4871
    -0.4824  -0.4788  -0.4660  -0.4567  -0.4554  -0.4312  -0.4219  -0.4161
    -0.4055  -0.4000  -0.3945  -0.3881  -0.3802  -0.3784  -0.3654  -0.3607
    -0.3601  -0.3562  -0.3473  -0.3396  -0.3264  -0.3192  -0.2975  -0.2945
    -0.2592  -0.2516  -0.2501  -0.2485  -0.2477  -0.2453  -0.2365  -0.2266
    -0.2241  -0.2138  -0.2101  -0.2085  -0.2016  -0.1991  -0.1919  -0.1873
    -0.1803  -0.1756  -0.1710  -0.1643  -0.1587  -0.1542  -0.1493  -0.1466
    -0.1448  -0.1413  -0.1393  -0.1321  -0.1306  -0.1275  -0.1226  -0.1189
    -0.1137  -0.1126  -0.1110  -0.1063  -0.1011  -0.0824  -0.0767  -0.0702
    -0.0644  -0.0618  -0.0568  -0.0399  -0.0343  -0.0210  -0.0133  -0.0108
    -0.0045   0.0011   0.0056   0.0100   0.0116   0.0235   0.0252   0.0329
     0.0345   0.0423   0.0577   0.0611   0.0844   0.1062   0.1199   0.1269
     0.1302   0.1328   0.1369   0.1409   0.1447   0.1503   0.1529   0.1608
     0.1650   0.1665   0.1717   0.1758   0.1800   0.1854   0.1907   0.1939
     0.1980   0.2009   0.2159   0.2187   0.2254   0.2303   0.2362   0.2472
     0.2474   0.2530   0.2608   0.2702   0.2780   0.2877   0.2962   0.3023
     0.3087   0.3124   0.3153   0.3202   0.3299   0.3329   0.3353   0.3400
     0.3431   0.3451   0.3488   0.3553   0.3712   0.3748   0.3763   0.3832
     0.3868   0.4005   0.4237   0.4272   0.4299   0.4309   0.4471   0.4514
     0.4528   0.4596   0.4631   0.4681   0.4732   0.4759   0.4802   0.4821
     0.4861   0.4970   0.5014   0.5037   0.5064   0.5113   0.5145   0.5208
     0.5236   0.5264   0.5276   0.5338   0.5367   0.5423   0.5457   0.5483
     0.5520   0.5559   0.5596   0.5612   0.5662   0.5679   0.5709   0.5740
     0.5769   0.5822   0.5856   0.6023   0.6116   0.6133   0.6213   0.6231
     0.6272   0.6446   0.6539   0.6703   0.6779   0.6815   0.6826   0.6847
     0.6864   0.6892   0.6917   0.7059   0.7084   0.7093   0.7125   0.7142
     0.7162   0.7189   0.7292   0.7375   0.7435   0.7456   0.7542   0.7570
     0.7596   0.7650   0.7772   0.7806   0.7841   0.7894   0.8010   0.8128
     0.8176   0.8206   0.8227   0.8247   0.8291   0.8369   0.8413   0.8504
     0.8567   0.8585   0.8690   0.8714   0.8784   0.8861   0.8934   0.9013
     0.9067   0.9161   0.9298   0.9327   0.9403   0.9435   0.9445   0.9449
     0.9469   0.9481   0.9492   0.9515   0.9548   0.9596   0.9614   0.9647
     0.9676   0.9752   0.9789   0.9832   0.9871   0.9941   1.0069   1.0155
     1.0175   1.0223   1.0260   1.0272   1.0325   1.0345   1.0361   1.0415
     1.0434   1.0476   1.0507   1.0515   1.0562   1.0574   1.0613   1.0635
     1.0695   1.0743   1.0759   1.0783   1.0812   1.0835   1.0860   1.0899
     1.0957   1.1080   1.1103   1.1141   1.1258   1.1266   1.1291   1.1344
     1.1381   1.1444   1.1522   1.1565   1.1610   1.1657   1.1680   1.1772
     1.1791   1.1852   1.1861   1.1891   1.1919   1.1940   1.2019   1.2041
     1.2087   1.2114   1.2138   1.2180   1.2257   1.2312   1.2336   1.2375
     1.2380   1.2395   1.2415   1.2446   1.2509   1.2527   1.2538   1.2577
     1.2608   1.2635   1.2677   1.2746   1.2786   1.2886   1.2908   1.2934
     1.2948   1.2979   1.2997   1.3016   1.3034   1.3094   1.3106   1.3125
     1.3141   1.3331   1.3342   1.3358   1.3419   1.3529   1.3573   1.3602
     1.3666   1.3756   1.3795   1.3853   1.4035   1.4075   1.4089   1.4146
     1.4167   1.4339   1.4505   1.4690   1.5154   1.5240   1.5445   1.5586
     1.6068   1.6104   1.6144   1.6323   1.6465   1.6553   1.6759   1.7166
     1.7509   1.7763   1.9753   1.9819   2.0083   2.0138   2.1213   2.1497
     2.4251   2.4417   2.5214   2.5872   2.6025   2.6240   2.6501   2.6563
     2.6628   2.6831   2.7065   2.7652   2.8381   2.8794   2.9389   2.9909
     3.3881   3.4221   3.4346   3.4606   3.5504   3.5907   3.6505   3.7018
     3.7038   3.7361   3.8357   3.8452   3.9212   3.9400   4.0140   4.0198
     4.1923   4.2360   4.2502   4.3251   4.3495   4.4264   4.5194   4.5392
     4.5878   4.7442   4.7875   4.9098   4.9833   5.0199   5.0934   5.1328
     5.1810   5.2353   5.2751   5.3102   5.3376   5.3883   5.5246   5.6138
     5.6359   5.6946   5.7328   5.7737   5.8620   6.0278   6.2121   6.3218
     6.4112   6.4482   6.4570   6.5083   6.5865   6.6357   6.6765   6.7372
     6.7938   6.8826   6.9305   6.9615   6.9678   7.0024   7.0212   7.0617
     7.0906   7.1118   7.1795   7.2098   7.2624   7.2672   7.2878   7.2928
     7.3803   7.5034   7.5649   7.6142   7.6407   7.7247   7.7504   7.8370
     7.8455   7.9271   7.9516   8.0328   8.0514   8.0832   8.1512   8.2867
     8.3329   8.3705   8.4016   8.4287   8.4813   8.5027   8.5299   8.5560
     8.5755   8.6076   8.6243   8.6938   8.7305   8.7913   8.8440   8.8669
     8.8952   8.9441   8.9616   8.9981   9.0348   9.0604   9.0845   9.0999
     9.1183   9.1283   9.1642   9.2011   9.2251   9.2470   9.2670   9.3202
     9.3620

          k =-0.5000 0.0000 0.0000 (256496 PWs)   bands (ev):

   -20.5572 -18.0159 -15.7520 -15.7285 -15.1756 -15.1419 -14.2592 -14.2370
   -13.0990 -12.9928 -11.9373 -11.9338 -11.7794 -11.5807 -11.4631 -11.4559
   -10.5903 -10.3350  -9.6718  -9.2442  -9.1010  -8.9705  -8.4633  -8.1039
    -7.9570  -7.2219  -7.0918  -5.8311  -5.5003  -5.4450  -5.4371  -5.3573
    -5.3375  -5.1333  -4.9494  -4.9420  -4.9374  -4.9352  -4.9316  -4.8559
    -4.5980  -4.5868  -4.4817  -4.4732  -4.3081  -4.2826  -4.1333  -4.0973
    -4.0722  -4.0263  -3.9824  -3.9605  -3.8187  -3.7623  -3.6376  -3.6044
    -3.5626  -3.5602  -3.5592  -3.5497  -3.5351  -3.4397  -3.3916  -3.3517
    -3.3478  -3.0280  -2.9035  -2.8827  -2.7884  -2.7830  -2.7732  -2.7423
    -2.6271  -2.5424  -2.5088  -2.4719  -2.4252  -2.4182  -2.3997  -2.3685
    -2.2460  -2.1346  -2.0204  -2.0168  -2.0160  -2.0147  -2.0126  -2.0104
    -1.9552  -1.9476  -1.8829  -1.8679  -1.7910  -1.7896  -1.7892  -1.7871
    -1.7648  -1.7408  -1.7388  -1.7364  -1.7341  -1.6401  -1.6376  -1.6287
    -1.6267  -1.6201  -1.5873  -1.5728  -1.5583  -1.5562  -1.5482  -1.5464
    -1.5128  -1.5039  -1.4989  -1.4973  -1.4921  -1.4861  -1.4829  -1.4819
    -1.4794  -1.4769  -1.4397  -1.4380  -1.4353  -1.4324  -1.4091  -1.4068
    -1.4028  -1.4005  -1.3762  -1.3696  -1.3421  -1.3404  -1.3251  -1.3209
    -1.3180  -1.3155  -1.3041  -1.2883  -1.2821  -1.2780  -1.2747  -1.2708
    -1.2505  -1.2463  -1.2443  -1.2418  -1.2233  -1.2217  -1.2158  -1.1944
    -1.1911  -1.1813  -1.1689  -1.1497  -1.1455  -1.1289  -1.1217  -1.1179
    -1.1157  -1.1133  -1.0898  -1.0886  -1.0854  -1.0782  -1.0757  -1.0741
    -1.0669  -1.0636  -1.0576  -1.0514  -1.0445  -1.0387  -0.9933  -0.9817
    -0.9786  -0.9768  -0.9745  -0.9724  -0.9342  -0.9304  -0.9246  -0.8506
    -0.8481  -0.8463  -0.8426  -0.8160  -0.8139  -0.8118  -0.8102  -0.8031
    -0.8025  -0.7814  -0.7770  -0.7714  -0.7665  -0.7546  -0.7502  -0.7472
    -0.7451  -0.7427  -0.7396  -0.7167  -0.7145  -0.6977  -0.6942  -0.6099
    -0.6078  -0.6008  -0.5979  -0.5956  -0.5901  -0.5765  -0.5717  -0.5644
    -0.5595  -0.5525  -0.5464  -0.5391  -0.5349  -0.5156  -0.5141  -0.5099
    -0.5087  -0.4915  -0.4879  -0.4740  -0.4716  -0.4694  -0.4663  -0.4554
    -0.4478  -0.4386  -0.4373  -0.4332  -0.4311  -0.4226  -0.4214  -0.4148
    -0.4108  -0.3906  -0.3875  -0.3864  -0.3855  -0.3559  -0.3540  -0.3476
    -0.3430  -0.2834  -0.2810  -0.2785  -0.2766  -0.2716  -0.2698  -0.2687
    -0.2649  -0.2408  -0.2353  -0.2273  -0.2186  -0.2001  -0.1970  -0.1752
    -0.1727  -0.1697  -0.1688  -0.1681  -0.1641  -0.1634  -0.1607  -0.1602
    -0.1600  -0.1580  -0.1550  -0.1131  -0.1034  -0.0944  -0.0907  -0.0892
    -0.0836  -0.0746  -0.0706  -0.0693  -0.0690  -0.0636  -0.0613  -0.0595
    -0.0577  -0.0565  -0.0530  -0.0509  -0.0499  -0.0410  -0.0404  -0.0369
    -0.0286  -0.0276  -0.0261  -0.0259  -0.0224  -0.0216  -0.0182  -0.0154
    -0.0140  -0.0129  -0.0091  -0.0039   0.0018   0.0049   0.0090   0.0118
     0.0131   0.0154   0.0243   0.0275   0.0432   0.0507   0.0660   0.1125
     0.1318   0.1363   0.1416   0.1529   0.1692   0.1738   0.1774   0.1781
     0.1850   0.1883   0.1884   0.1915   0.1947   0.1957   0.2024   0.2041
     0.2099   0.2131   0.2176   0.2205   0.2214   0.2222   0.2229   0.2307
     0.2346   0.2369   0.2380   0.2417   0.2471   0.2550   0.2592   0.2615
     0.2632   0.2653   0.2751   0.2905   0.3218   0.3311   0.3488   0.3505
     0.3536   0.3554   0.3711   0.3738   0.3755   0.3786   0.3806   0.3827
     0.3854   0.3883   0.3905   0.3918   0.3939   0.3961   0.4003   0.4033
     0.4047   0.4069   0.4127   0.4192   0.4259   0.4348   0.4403   0.4425
     0.4500   0.4554   0.4600   0.4661   0.4778   0.4841   0.4891   0.4927
     0.4932   0.4943   0.4964   0.5027   0.5042   0.5055   0.5081   0.5110
     0.5195   0.5222   0.5265   0.5273   0.5388   0.5457   0.5545   0.5646
     0.5684   0.5688   0.5701   0.5732   0.5766   0.5850   0.5949   0.6043
     0.6110   0.6166   0.6203   0.6266   0.6493   0.6586   0.6646   0.6720
     0.6777   0.6883   0.6939   0.6947   0.6960   0.6967   0.7000   0.7026
     0.7074   0.7122   0.7126   0.7242   0.7275   0.7380   0.7409   0.7445
     0.7476   0.7504   0.7527   0.7619   0.7634   0.7639   0.7677   0.7691
     0.7787   0.7844   0.7993   0.8093   0.8144   0.8175   0.8453   0.8519
     0.8668   0.8681   0.8743   0.8773   0.8789   0.8886   0.8984   0.9009
     0.9068   0.9100   0.9202   0.9285   0.9342   0.9368   0.9405   0.9455
     0.9577   0.9631   0.9675   0.9696   0.9732   0.9740   0.9781   0.9788
     0.9817   0.9826   0.9878   0.9888   0.9900   0.9918   0.9945   0.9948
     1.0012   1.0034   1.0082   1.0267   1.0304   1.0324   1.0328   1.0332
     1.0420   1.0491   1.0526   1.0633   1.0670   1.0680   1.0700   1.0759
     1.0868   1.0898   1.0947   1.0977   1.1002   1.1005   1.1019   1.1043
     1.1075   1.1126   1.1165   1.1216   1.1261   1.1384   1.1490   1.1519
     1.1579   1.1628   1.1700   1.1729   1.1734   1.1752   1.1769   1.1771
     1.1814   1.1825   1.1846   1.1862   1.1888   1.1910   1.1919   1.1923
     1.1937   1.1958   1.1962   1.1971   1.2013   1.2035   1.2048   1.2079
     1.2162   1.2224   1.2237   1.2322   1.2386   1.2407   1.2464   1.2519
     1.2573   1.2587   1.2704   1.2726   1.2729   1.2749   1.2795   1.2850
     1.2880   1.2903   1.2952   1.2961   1.3013   1.3044   1.3055   1.3194
     1.3238   1.3273   1.3286   1.3295   1.3321   1.3354   1.3376   1.3414
     1.3495   1.3537   1.3578   1.3672   1.3691   1.3702   1.3709   1.3710
     1.3745   1.3810   1.3895   1.3935   1.4265   1.4340   1.4401   1.4477
     1.4630   1.4653   1.4670   1.4688   1.8757   1.8823   1.8842   1.9264
     2.0419   2.0572   2.1178   2.1337   2.1389   2.1444   2.1453   2.1613
     2.3836   2.4272   2.4417   2.5076   2.5780   2.6737   2.6832   2.6917
     2.6967   2.7133   3.0381   3.0409   3.0614   3.0694   3.3424   3.3623
     3.5273   3.5603   3.5937   3.6661   3.7519   3.7618   3.7817   3.7877
     3.9163   3.9186   3.9538   3.9668   4.0259   4.0973   4.3856   4.4625
     4.5298   4.5810   4.6100   4.6442   4.6759   4.6848   4.7248   4.7573
     4.7700   4.8282   4.8552   4.8652   4.8741   4.8834   4.9121   4.9232
     4.9345   4.9610   5.0040   5.0798   5.1996   5.2226   5.3133   5.3387
     5.3656   5.4283   5.4684   5.4922   5.5475   5.7994   5.8316   5.8438
     5.8554   5.9052   5.9215   5.9480   6.0296   6.1236   6.1818   6.3958
     6.4588   6.5082   6.6755   6.8994   6.9504   6.9776   6.9984   7.0376
     7.0597   7.3692   7.3774   7.4353   7.4381   7.4511   7.4572   7.4683
     7.5009   7.5486   7.6399   7.6775   7.6876   7.6997   7.7109   7.7418
     7.7611   7.7815   7.8151   7.8289   7.8480   7.8947   7.9274   7.9794
     8.0195   8.0733   8.1378   8.1600   8.1644   8.2176   8.2208   8.5336
     8.5488   8.5773   8.6149   8.6474   8.6683   8.6815   8.6998   8.7808
     8.8008   8.8161   8.8614   8.8703   8.9099   8.9191   8.9898   9.1116
     9.1190   9.1386   9.1682   9.2124   9.2486   9.3061   9.4103   9.4368
     9.4515

          k =-0.5000-0.2165 0.0000 (256328 PWs)   bands (ev):

   -20.5572 -18.0159 -15.7520 -15.7285 -15.1756 -15.1419 -14.2593 -14.2371
   -13.0987 -12.9928 -11.9373 -11.9338 -11.7799 -11.5807 -11.4631 -11.4558
   -10.5899 -10.3351  -9.6706  -9.2441  -9.1005  -8.9705  -8.4670  -8.1040
    -7.9579  -7.2221  -7.0855  -5.8301  -5.5031  -5.3750  -5.3420  -5.3253
    -5.3232  -5.2980  -5.2918  -5.1267  -4.9474  -4.8562  -4.5936  -4.5708
    -4.4634  -4.4404  -4.3730  -4.3502  -4.3414  -4.3271  -4.3092  -4.2996
    -4.2420  -4.2260  -4.0176  -3.9828  -3.9357  -3.9132  -3.6972  -3.6724
    -3.5953  -3.5610  -3.5483  -3.4242  -3.4043  -3.3707  -3.3398  -3.2634
    -3.1956  -3.0214  -2.7511  -2.7393  -2.7170  -2.7143  -2.7033  -2.6946
    -2.6852  -2.6670  -2.6196  -2.5678  -2.5206  -2.4475  -2.2557  -2.2250
    -2.2213  -2.2115  -2.2050  -2.1664  -2.1598  -2.1353  -2.0886  -2.0712
    -1.9471  -1.9415  -1.9366  -1.9292  -1.7805  -1.7710  -1.7632  -1.7176
    -1.7153  -1.6697  -1.6365  -1.6334  -1.6301  -1.6271  -1.6083  -1.5870
    -1.5817  -1.5808  -1.5752  -1.5745  -1.5706  -1.5644  -1.5301  -1.5269
    -1.5231  -1.5186  -1.5179  -1.5145  -1.5060  -1.5033  -1.4996  -1.4977
    -1.4966  -1.4942  -1.4487  -1.4469  -1.4449  -1.4428  -1.4166  -1.3895
    -1.3773  -1.3732  -1.3685  -1.3619  -1.3296  -1.3283  -1.3277  -1.3266
    -1.3123  -1.3084  -1.2969  -1.2883  -1.2740  -1.2706  -1.2634  -1.2614
    -1.2588  -1.2578  -1.2554  -1.2519  -1.2513  -1.2458  -1.2195  -1.2024
    -1.1990  -1.1882  -1.1858  -1.1845  -1.1816  -1.1796  -1.1768  -1.1742
    -1.1708  -1.1689  -1.1614  -1.1527  -1.1284  -1.0919  -1.0289  -1.0267
    -1.0188  -1.0132  -0.9912  -0.9898  -0.9891  -0.9883  -0.9686  -0.9268
    -0.9146  -0.9110  -0.9084  -0.9027  -0.9023  -0.8998  -0.8966  -0.8961
    -0.8874  -0.8719  -0.8687  -0.8408  -0.8406  -0.8357  -0.8319  -0.8311
    -0.8245  -0.8187  -0.8144  -0.8071  -0.8046  -0.7947  -0.7843  -0.7291
    -0.7272  -0.7148  -0.7122  -0.6904  -0.6826  -0.6771  -0.6746  -0.6448
    -0.6402  -0.6352  -0.6285  -0.5901  -0.5886  -0.5876  -0.5861  -0.5727
    -0.5719  -0.5655  -0.5615  -0.5490  -0.5448  -0.5328  -0.5312  -0.5297
    -0.5293  -0.5268  -0.5234  -0.4847  -0.4736  -0.4653  -0.4559  -0.4201
    -0.4182  -0.4066  -0.4054  -0.3973  -0.3967  -0.3919  -0.3913  -0.3825
    -0.3816  -0.3781  -0.3740  -0.3189  -0.3146  -0.3025  -0.3011  -0.2972
    -0.2946  -0.2923  -0.2909  -0.2903  -0.2881  -0.2855  -0.2803  -0.2565
    -0.2558  -0.2542  -0.2516  -0.2467  -0.2438  -0.2415  -0.2404  -0.2357
    -0.2327  -0.2320  -0.2300  -0.1803  -0.1748  -0.1697  -0.1686  -0.1551
    -0.1509  -0.1425  -0.1325  -0.1170  -0.1015  -0.0926  -0.0858  -0.0839
    -0.0783  -0.0767  -0.0673  -0.0630  -0.0620  -0.0610  -0.0554  -0.0537
    -0.0512  -0.0497  -0.0467  -0.0439  -0.0416  -0.0392  -0.0383  -0.0368
    -0.0357  -0.0347  -0.0338  -0.0318  -0.0270  -0.0228  -0.0207  -0.0160
    -0.0146   0.0010   0.0063   0.0078   0.0085   0.0107   0.0172   0.0206
     0.0246   0.0292   0.0403   0.0484   0.0508   0.0674   0.0711   0.0750
     0.0771   0.1028   0.1051   0.1074   0.1078   0.1355   0.1719   0.1764
     0.1817   0.1854   0.1867   0.1922   0.2008   0.2034   0.2062   0.2111
     0.2140   0.2177   0.2208   0.2243   0.2257   0.2301   0.2340   0.2346
     0.2351   0.2366   0.2384   0.2437   0.2489   0.2578   0.2891   0.2933
     0.3045   0.3067   0.3123   0.3138   0.3177   0.3204   0.3214   0.3219
     0.3240   0.3393   0.3488   0.3546   0.3575   0.3585   0.3637   0.3677
     0.3698   0.3706   0.3838   0.3931   0.4024   0.4069   0.4093   0.4105
     0.4125   0.4173   0.4226   0.4234   0.4243   0.4262   0.4311   0.4335
     0.4368   0.4381   0.4407   0.4454   0.4465   0.4545   0.4626   0.4653
     0.4772   0.4781   0.4917   0.5027   0.5051   0.5170   0.5242   0.5278
     0.5375   0.5386   0.5442   0.5454   0.5467   0.5498   0.5536   0.5580
     0.5649   0.5725   0.5805   0.5816   0.5845   0.5856   0.5863   0.5882
     0.5897   0.5954   0.6078   0.6277   0.6374   0.6389   0.6454   0.6529
     0.6666   0.6681   0.6725   0.6735   0.6790   0.6931   0.7008   0.7012
     0.7059   0.7123   0.7301   0.7360   0.7408   0.7446   0.7816   0.7829
     0.7841   0.7865   0.8022   0.8054   0.8120   0.8133   0.8188   0.8237
     0.8334   0.8449   0.8540   0.8589   0.8626   0.8691   0.8744   0.8776
     0.8868   0.8916   0.8952   0.8988   0.8999   0.9005   0.9009   0.9021
     0.9032   0.9038   0.9059   0.9078   0.9089   0.9154   0.9188   0.9235
     0.9297   0.9324   0.9358   0.9390   0.9434   0.9461   0.9509   0.9536
     0.9574   0.9605   0.9671   0.9689   0.9743   0.9778   0.9835   0.9885
     0.9912   0.9950   0.9985   1.0001   1.0049   1.0073   1.0293   1.0362
     1.0411   1.0435   1.0456   1.0477   1.0504   1.0510   1.0626   1.0714
     1.0755   1.0801   1.0814   1.0836   1.1019   1.1053   1.1122   1.1148
     1.1182   1.1211   1.1230   1.1257   1.1295   1.1346   1.1370   1.1409
     1.1413   1.1423   1.1447   1.1462   1.1491   1.1525   1.1752   1.1871
     1.1922   1.1968   1.1981   1.2024   1.2041   1.2069   1.2086   1.2119
     1.2132   1.2133   1.2157   1.2210   1.2240   1.2281   1.2340   1.2379
     1.2423   1.2431   1.2440   1.2468   1.2479   1.2496   1.2498   1.2547
     1.2551   1.2563   1.2591   1.2607   1.2651   1.2674   1.2714   1.2783
     1.2801   1.2819   1.2988   1.3064   1.3108   1.3108   1.3187   1.3199
     1.3230   1.3307   1.3320   1.3343   1.3391   1.3433   1.3454   1.3569
     1.3608   1.3641   1.3799   1.3862   1.4052   1.4223   1.4260   1.4287
     1.4297   1.4320   1.4514   1.4539   1.4587   1.4623   1.4663   1.4704
     1.4729   1.4743   1.4778   1.4843   1.5184   1.5357   1.6852   1.6947
     1.6951   1.7047   2.1455   2.1914   2.2105   2.2392   2.3206   2.3491
     2.4188   2.4233   2.5375   2.6102   2.6332   2.6553   2.6629   2.6966
     2.9231   2.9332   2.9832   3.0527   3.3010   3.3094   3.3112   3.3136
     3.4904   3.4994   3.5281   3.5463   3.7862   3.7892   3.7920   3.7957
     4.0118   4.0453   4.0550   4.0822   4.0887   4.1317   4.2162   4.2451
     4.2972   4.3710   4.3856   4.4269   4.4656   4.4971   4.5350   4.5540
     4.6276   4.7669   4.7898   4.8950   4.9723   4.9954   5.0042   5.0277
     5.0365   5.0748   5.0896   5.1225   5.1385   5.1986   5.2381   5.2813
     5.3722   5.4450   5.5423   5.5648   5.5817   5.6004   5.6239   5.7313
     5.7451   5.8422   5.8735   6.4639   6.5282   6.6723   6.6913   6.7083
     6.7365   6.8307   6.8854   6.9340   6.9446   6.9853   7.0051   7.0166
     7.0377   7.0672   7.0854   7.1791   7.1924   7.1974   7.2035   7.2051
     7.2711   7.3275   7.4211   7.4489   7.5394   7.6103   7.6770   7.7794
     7.7921   7.8075   7.8138   7.9008   8.0043   8.0812   8.0959   8.1018
     8.1106   8.1719   8.2495   8.3575   8.3590   8.4066   8.4741   8.6453
     8.6621   8.6764   8.6928   8.7092   8.7241   8.7817   8.7998   8.8026
     8.8082   8.8186   8.8379   8.8540   8.8701   8.9013   8.9294   8.9594
[...]
     atom   36 type  1   force =    -0.00004468   -0.00005918   -0.00024508
     atom   37 type  1   force =    -0.00004070   -0.00001857   -0.00015054
     atom   38 type  1   force =    -0.00005346   -0.00011364   -0.00004818
     atom   39 type  1   force =    -0.00005584   -0.00008171   -0.00008995
     atom   40 type  1   force =    -0.00001802   -0.00004031   -0.00025918
     atom   41 type  1   force =     0.00006789   -0.00000032    0.00009884
     atom   42 type  1   force =     0.00002429    0.00023993    0.00003263
     atom   43 type  1   force =    -0.00007180   -0.00000288    0.00006272
     atom   44 type  1   force =     0.00000144   -0.00012254    0.00002137
     atom   45 type  1   force =    -0.00011414    0.00006260    0.00019664
     atom   46 type  1   force =     0.00000123   -0.00013345    0.00021569
     atom   47 type  1   force =     0.00012472   -0.00004424    0.00014031
     atom   48 type  1   force =    -0.00000574    0.00020236    0.00018543
     atom   49 type  1   force =    -0.00000742   -0.00000246    0.00010645
     atom   50 type  1   force =    -0.00007777    0.00007016    0.00002012
     atom   51 type  1   force =    -0.00005960    0.00000131    0.00016939
     atom   52 type  1   force =    -0.00004059   -0.00012144   -0.00015860
     atom   53 type  1   force =    -0.00008049   -0.00011367   -0.00013554
     atom   54 type  1   force =    -0.00006579   -0.00011617   -0.00000931
     atom   55 type  1   force =     0.00000531   -0.00005411   -0.00011713
     atom   56 type  1   force =    -0.00004258   -0.00023805   -0.00018757
     atom   57 type  1   force =    -0.00014277   -0.00015724   -0.00018766
     atom   58 type  1   force =     0.00000374   -0.00006852   -0.00001516
     atom   59 type  1   force =     0.00012976   -0.00016262   -0.00020368
     atom   60 type  1   force =    -0.00001744    0.00007998   -0.00022782
     atom   61 type  1   force =    -0.00007917   -0.00004207   -0.00011013
     atom   62 type  1   force =     0.00002925   -0.00012197    0.00006809
     atom   63 type  1   force =     0.00010666   -0.00002954   -0.00017145
     atom   64 type  1   force =    -0.00009815   -0.00013467   -0.00010472
     atom   65 type  1   force =    -0.00004672    0.00012230   -0.00021886
     atom   66 type  1   force =    -0.00000904   -0.00008193   -0.00009508
     atom   67 type  1   force =     0.00009959    0.00002265   -0.00024490
     atom   68 type  1   force =     0.00012387    0.00005960   -0.00025098
     atom   69 type  1   force =     0.00013904    0.00009028    0.00005775
     atom   70 type  1   force =    -0.00002759    0.00002427   -0.00008524
     atom   71 type  1   force =    -0.00033914    0.00021413    0.00000491
     atom   72 type  1   force =    -0.00009147    0.00029790   -0.00025839
     atom   73 type  1   force =    -0.00027078    0.00009337    0.00030050
     atom   74 type  1   force =    -0.00017577    0.00035448    0.00033623
     atom   75 type  1   force =     0.00011078    0.00013262    0.00022224
     atom   76 type  1   force =     0.00003717   -0.00012079   -0.00000304
     atom   77 type  1   force =     0.00012895   -0.00019481    0.00012165
     atom   78 type  1   force =    -0.00010467   -0.00032970    0.00040497
     atom   79 type  1   force =    -0.00019011   -0.00023266    0.00020098
     atom   80 type  1   force =    -0.00008702    0.00002322   -0.00012414
     atom   81 type  1   force =    -0.00033717   -0.00019280   -0.00022035
     atom   82 type  1   force =    -0.00001694   -0.00036779    0.00018994
     atom   83 type  1   force =     0.00030418   -0.00005117   -0.00012928
     atom   84 type  1   force =     0.00012425    0.00005822    0.00002484
     atom   85 type  1   force =     0.00023233    0.00001890    0.00009092
     atom   86 type  1   force =     0.00002076    0.00024211    0.00003058
     atom   87 type  1   force =    -0.00008861   -0.00004227    0.00003945
     atom   88 type  1   force =    -0.00005354    0.00002655    0.00003567
     atom   89 type  1   force =    -0.00013260    0.00017544   -0.00003506
     atom   90 type  1   force =    -0.00016882    0.00027927    0.00003766
     atom   91 type  1   force =    -0.00001396    0.00007348    0.00004776
     atom   92 type  1   force =    -0.00016922    0.00001256    0.00039815
     atom   93 type  1   force =    -0.00010274    0.00015153    0.00020265
     atom   94 type  1   force =    -0.00000141    0.00017018   -0.00109099
     atom   95 type  1   force =    -0.00022498    0.00026100    0.00028962
     atom   96 type  1   force =     0.00000089    0.00012935   -0.00001216
     atom   97 type  1   force =     0.00005753    0.00003270    0.00016125
     atom   98 type  1   force =     0.00006190   -0.00010142    0.00019509
     atom   99 type  1   force =    -0.00025903   -0.00005344    0.00036578
     atom  100 type  1   force =    -0.00011961   -0.00012666    0.00013091
     atom  101 type  3   force =     0.00007381   -0.00033948    0.00053483
     atom  102 type  3   force =     0.00080737    0.00019916    0.00031759
     atom  103 type  3   force =     0.00027628    0.00058492    0.00013875
     atom  104 type  3   force =    -0.00003891    0.00012682    0.00016450
     atom  105 type  3   force =     0.00016354    0.00029329    0.00004140
     atom  106 type  3   force =     0.00050267    0.00044740    0.00044152
     atom  107 type  3   force =    -0.00005970    0.00011772   -0.00001816
     atom  108 type  3   force =     0.00052995    0.00029588   -0.00012412
     atom  109 type  3   force =     0.00006729   -0.00012072    0.00040698
     atom  110 type  3   force =     0.00037577    0.00038690    0.00034439
     atom  111 type  3   force =     0.00015941    0.00097490   -0.00119593
     atom  112 type  3   force =     0.00023136   -0.00001738   -0.00089404
     atom  113 type  3   force =    -0.00014160    0.00022869    0.00033906
     atom  114 type  3   force =     0.00000349    0.00000739   -0.00060780
     atom  115 type  3   force =     0.00042089   -0.00000590   -0.00040116
     atom  116 type  3   force =     0.00004062   -0.00089551   -0.00029962
     atom  117 type  3   force =     0.00011843   -0.00081500   -0.00019928
     atom  118 type  3   force =     0.00008586   -0.00036563    0.00002646
     atom  119 type  3   force =     0.00020442    0.00007065   -0.00045068
     atom  120 type  3   force =    -0.00031354   -0.00066600   -0.00008491
     atom  121 type  3   force =     0.00058365    0.00016785    0.00024893
     atom  122 type  3   force =    -0.00012811   -0.00030996   -0.00050648
     atom  123 type  3   force =     0.00028505    0.00003885    0.00039275
     atom  124 type  3   force =    -0.00040862    0.00016360   -0.00038963
     atom  125 type  3   force =     0.00002351   -0.00117747   -0.00012254
     atom  126 type  3   force =    -0.00003751    0.00033974    0.00099057
     atom  127 type  3   force =     0.00016876    0.00010133    0.00011571
     atom  128 type  3   force =     0.00057276    0.00055223    0.00055128
     atom  129 type  3   force =    -0.00098636   -0.00010034   -0.00004276
     atom  130 type  3   force =     0.00010601    0.00019980   -0.00041007
     atom  131 type  5   force =    -0.00043643    0.00012205    0.00025664
     atom  132 type  5   force =    -0.00019567   -0.00016820    0.00037834
     atom  133 type  5   force =    -0.00023192    0.00008167    0.00065888
     atom  134 type  5   force =    -0.00001403   -0.00035834    0.00037398
     atom  135 type  5   force =     0.00091998    0.00107255   -0.00037504
     atom  136 type  3   force =     0.00129948    0.00075667   -0.00177289
     atom  137 type  4   force =    -0.00131634    0.00011846    0.00156152
     atom  138 type  4   force =     0.00078413    0.00028097    0.00212729
     atom  139 type  5   force =     0.00008081   -0.00121643    0.00014766

     Total force =     0.006533     Total SCF correction =     0.000302

     number of scf cycles    =  31
     number of bfgs steps    =  30

     energy   old            =  -12575.5335395318 Ry
     energy   new            =  -12575.5336035220 Ry

     CASE: energy  _new < energy  _old

     new trust radius        =       0.0202607492 bohr
     new conv_thr            =       0.0000000064 Ry


ATOMIC_POSITIONS (angstrom)
Cu      -0.007850042  -0.017639471   7.412115077
Cu       1.838846299   1.687689048   7.410194151
Cu       3.686980469  -0.015166891   7.410668720
Cu       5.529466239   1.695009917   7.410780960
Cu      -0.002314639   3.402656594   7.414355132
Cu       1.839686819   5.115468443   7.416367456
Cu       3.681548580   3.400812657   7.412756257
Cu       5.528409338   5.110283260   7.414229191
Cu      -0.007026796   6.827380668   7.413200212
Cu       1.839614773   8.538318490   7.411839709
Cu       3.685778630   6.827061947   7.414259153
Cu       5.527990173   8.541940678   7.414448777
Cu      -0.005612483  10.244103525   7.416425400
Cu       1.839245750  11.938938590   7.421791478
Cu       3.683956824  10.245421588   7.418086740
Cu       5.528188163  11.940751947   7.420288648
Cu      -0.003816949  13.630556651   7.419882586
Cu       1.839893708  15.325691881   7.414751606
Cu       3.682401868  13.629085688   7.421224996
Cu       5.528035474  15.318961252   7.418246901
Cu      -0.007103508   1.689097055   9.236618201
Cu       1.836926215  -0.016489248   9.247027496
Cu       3.681634313   1.689075587   9.237244947
Cu       5.526523122  -0.012464764   9.242238153
Cu      -0.007282416   5.113927302   9.237579510
Cu       1.837635427   3.396091802   9.238137755
Cu       3.681827592   5.111013250   9.237430718
Cu       5.525916871   3.399506642   9.240850546
Cu      -0.007672001   8.537944929   9.241713374
Cu       1.837160999   6.831874900   9.237004318
Cu       3.682327964   8.538265598   9.243180274
Cu       5.526550936   6.827124312   9.233580181
Cu      -0.007967825  11.938012879   9.261262461
Cu       1.837425716  10.236380264   9.250076685
Cu       3.682000240  11.938496384   9.266032743
Cu       5.525951002  10.240730520   9.253793449
Cu      -0.007342572  15.326282986   9.258296671
Cu       1.837140170  13.636613659   9.262492361
Cu       3.681548775  15.328542370   9.255381826
Cu       5.525671383  13.631958478   9.269242548
Cu      -0.008878013  -0.006641722  11.088024953
Cu       1.835720670   1.682799233  11.081179681
Cu       3.676759746  -0.008971646  11.089707085
Cu       5.520910994   1.684011477  11.080205222
Cu      -0.011386733   3.390972622  11.065345214
Cu       1.834550109   5.115562684  11.056177303
Cu       3.678811530   3.389220022  11.071567586
Cu       5.522058789   5.120125051  11.066538900
Cu      -0.011365267   6.830245859  11.070108624
Cu       1.833045331   8.537203336  11.089589874
Cu       3.679355622   6.827356259  11.067207884
Cu       5.523890952   8.529776520  11.079686188
Cu      -0.008538015  10.233627246  11.097208053
Cu       1.833353062  11.931282662  11.097456551
Cu       3.677260303  10.231021926  11.100491737
Cu       5.522530781  11.928926036  11.110744418
Cu      -0.008052431  13.632211231  11.114830737
Cu       1.833247568  15.330900315  11.116770661
Cu       3.674198762  13.643172520  11.114577995
Cu       5.522881699  15.341044266  11.101927774
Cu      -0.014182039   1.689148246  12.922452897
Cu       1.834897289  -0.002772566  12.958695417
Cu       3.674650354   1.672304964  12.944331590
Cu       5.516275684  -0.003937182  12.950395920
Cu      -0.018429292   5.105204471  12.874373818
Cu       1.836767315   3.408942385  12.876206828
Cu       3.679003692   5.112419743  12.883695314
Cu       5.512582018   3.403267289  12.884250122
Cu      -0.016593193   8.522470200  12.928354632
Cu       1.829272948   6.811566756  12.898945567
Cu       3.674228867   8.512601611  12.919489512
Cu       5.519922307   6.835076507  12.924868876
Cu      -0.009914640  11.923295291  12.962702821
Cu       1.825253203  10.246201372  12.958464378
Cu       3.664832987  11.937690585  12.941646017
Cu       5.526136350  10.213509394  12.938891761
Cu      -0.010584855  15.349077941  12.943575209
Cu       1.828059278  13.604947372  12.966618888
Cu       3.669832413  15.358312526  12.964939791
Cu       5.517144653  13.638116917  12.926602577
Cu      -0.005095049   0.012280394  14.791879290
Cu       1.826941277   1.757485972  14.698656126
Cu       3.658199264  -0.006278854  14.889306536
Cu       5.516428849   1.735226192  14.704722334
Cu      -0.024490227   3.425304769  14.694379323
Cu       1.831003835   5.090797122  14.697333250
Cu       3.679392464   3.422773592  14.710885037
Cu       5.512405614   5.103441480  14.700765690
Cu      -0.011891923   6.773108380  14.689992081
Cu       1.825009207   8.498350788  14.721279485
Cu       3.663450653   6.785705154  14.709323816
Cu       5.500989590   8.510311841  14.814668790
Cu      -0.035136363  10.196547600  14.760609565
Cu       1.812239970  11.949066452  14.890699515
Cu       3.687285358  10.220387334  14.690265057
Cu       5.509813435  11.933643890  14.758293556
Cu      -0.051399759  13.648082584  14.764643093
Cu       1.817091419  15.302159169  14.758393355
Cu       3.694251861  13.640070540  14.773386226
Cu       5.521223811  15.332415110  14.756445807
C        0.021436359   0.643845830  17.473382788
C        0.021868491   2.082759607  17.564899510
C        1.250625791  -0.046638501  17.396816047
C        1.251104172   2.793768255  17.586788691
C        2.474351126   0.645430881  17.376108819
C        2.477532874   2.080769792  17.491485650
C        3.710680777  -0.042053414  17.186669870
C        3.709240687   2.796408272  17.518162141
C        4.946378145   0.648198953  17.373575589
C        4.943248756   2.083843090  17.488422383
C        6.169488585  -0.045198312  17.394081607
C        6.172504626   2.795670641  17.585312165
C        0.029448752   4.937877220  17.634805173
C        0.035330483   6.365937351  17.559724674
C        1.254658309   4.224025438  17.629656561
C        1.260342375   7.098134983  17.507423659
C        2.482100057   4.946365441  17.611270441
C        2.483707451   6.378427644  17.577941745
C        3.710088118   4.224682572  17.590800933
C        3.713338542   7.094681945  17.533523887
C        4.940787685   4.937875979  17.599464996
C        4.941476252   6.365434758  17.561511258
C        6.174539180   4.226063298  17.622761499
C        6.177559872   7.057069453  17.503901238
C        0.009489133   9.193622890  17.268067596
C        1.251700530   8.541174631  17.375224718
C        2.493336359   9.274306670  17.423755430
C        3.723018911   8.531814362  17.453123039
C        4.959079493   9.167457822  17.234343405
C        6.178765758   8.471849683  17.327003278
H        1.250177000  -1.138449988  17.345543690
H        3.714059411  -1.132408518  17.254018478
H        6.173220570  -1.137023731  17.339681811
H       -0.040190318  10.281491765  17.268694290
H        5.012652520  10.246948718  17.149594703
C        2.481379460  10.728877517  17.440203525
O        1.601894209  11.492749198  16.907149962
O        3.493321602  11.352475940  18.118613073
H        3.397394607  12.313399958  17.911326353



     Writing output data file gc.save
     Check: negative starting charge=   -0.002132
     NEW-OLD atomic charge density approx. for the potential
     Check: negative starting charge=   -0.002129

     negative rho (up, down):  2.140E-03 0.000E+00

     total cpu time spent up to now is   168288.4 secs

     Self-consistent Calculation

     iteration #  1     ecut=    80.00 Ry     beta=0.70
     Davidson diagonalization with overlap
     ethr =  1.00E-06,  avg # of iterations =  3.0

     Threshold (ethr) on eigenvalues was too large:
     Diagonalizing with lowered threshold

     Davidson diagonalization with overlap
     ethr =  1.00E-07,  avg # of iterations =  2.2

     negative rho (up, down):  2.032E-03 0.000E+00

     total cpu time spent up to now is   169196.8 secs

     total energy              =  -12575.53358643 Ry
     Harris-Foulkes estimate   =  -12575.53370930 Ry
     estimated scf accuracy    <       0.00125477 Ry

     iteration #  2     ecut=    80.00 Ry     beta=0.70
     Davidson diagonalization with overlap
     ethr =  1.01E-07,  avg # of iterations =  1.8

     negative rho (up, down):  1.980E-03 0.000E+00

     total cpu time spent up to now is   169546.0 secs

     total energy              =  -12575.53360252 Ry
     Harris-Foulkes estimate   =  -12575.53367685 Ry
     estimated scf accuracy    <       0.00031111 Ry

     iteration #  3     ecut=    80.00 Ry     beta=0.70
     Davidson diagonalization with overlap
     ethr =  2.50E-08,  avg # of iterations =  2.0

     negative rho (up, down):  1.911E-03 0.000E+00

     total cpu time spent up to now is   169961.3 secs

     total energy              =  -12575.53364068 Ry
     Harris-Foulkes estimate   =  -12575.53367100 Ry
     estimated scf accuracy    <       0.00039677 Ry

     iteration #  4     ecut=    80.00 Ry     beta=0.70
     Davidson diagonalization with overlap
     ethr =  2.50E-08,  avg # of iterations =  1.8

     negative rho (up, down):  1.906E-03 0.000E+00

     total cpu time spent up to now is   170312.8 secs

     total energy              =  -12575.53365203 Ry
     Harris-Foulkes estimate   =  -12575.53365394 Ry
     estimated scf accuracy    <       0.00001268 Ry

     iteration #  5     ecut=    80.00 Ry     beta=0.70
     Davidson diagonalization with overlap
     ethr =  1.02E-09,  avg # of iterations =  3.0

     negative rho (up, down):  1.918E-03 0.000E+00

     total cpu time spent up to now is   170701.6 secs

     total energy              =  -12575.53365238 Ry
     Harris-Foulkes estimate   =  -12575.53365348 Ry
     estimated scf accuracy    <       0.00000678 Ry

     iteration #  6     ecut=    80.00 Ry     beta=0.70
     Davidson diagonalization with overlap
     ethr =  5.46E-10,  avg # of iterations =  1.2

     negative rho (up, down):  1.968E-03 0.000E+00

     total cpu time spent up to now is   171049.1 secs

     total energy              =  -12575.53365240 Ry
     Harris-Foulkes estimate   =  -12575.53365298 Ry
     estimated scf accuracy    <       0.00000603 Ry

     iteration #  7     ecut=    80.00 Ry     beta=0.70
     Davidson diagonalization with overlap
     ethr =  4.86E-10,  avg # of iterations =  2.0

     negative rho (up, down):  1.995E-03 0.000E+00

     total cpu time spent up to now is   171411.7 secs

     total energy              =  -12575.53365255 Ry
     Harris-Foulkes estimate   =  -12575.53365274 Ry
     estimated scf accuracy    <       0.00000097 Ry

     iteration #  8     ecut=    80.00 Ry     beta=0.70
     Davidson diagonalization with overlap
     ethr =  7.85E-11,  avg # of iterations =  2.2

     negative rho (up, down):  2.029E-03 0.000E+00

     total cpu time spent up to now is   171788.9 secs

     total energy              =  -12575.53365250 Ry
     Harris-Foulkes estimate   =  -12575.53365267 Ry
     estimated scf accuracy    <       0.00000036 Ry

     iteration #  9     ecut=    80.00 Ry     beta=0.70
     Davidson diagonalization with overlap
     ethr =  2.88E-11,  avg # of iterations =  2.0

     negative rho (up, down):  2.090E-03 0.000E+00

     total cpu time spent up to now is   172148.1 secs

     total energy              =  -12575.53365233 Ry
     Harris-Foulkes estimate   =  -12575.53365253 Ry
     estimated scf accuracy    <       0.00000021 Ry

     iteration # 10     ecut=    80.00 Ry     beta=0.70
     Davidson diagonalization with overlap
     ethr =  1.70E-11,  avg # of iterations =  3.0

     negative rho (up, down):  2.096E-03 0.000E+00

     total cpu time spent up to now is   172650.0 secs

     total energy              =  -12575.53365234 Ry
     Harris-Foulkes estimate   =  -12575.53365237 Ry
     estimated scf accuracy    <       0.00000005 Ry

     iteration # 11     ecut=    80.00 Ry     beta=0.70
     Davidson diagonalization with overlap
