mpirun: INFO: switching to OpenMPI runtime version 1.10.2

     Program PWSCF v.5.4.0 starts on 12Sep2017 at 11:13:33 

     This program is part of the open-source Quantum ESPRESSO suite
     for quantum simulation of materials; please cite
         "P. Giannozzi et al., J. Phys.:Condens. Matter 21 395502 (2009);
          URL http://www.quantum-espresso.org", 
     in publications or presentations arising from this work. More details at
     http://www.quantum-espresso.org/quote

     Parallel version (MPI & OpenMP), running on      28 processor cores
     Number of MPI processes:                28
     Threads/MPI process:                     1
     R & G space division:  proc/nbgrp/npool/nimage =      28
     Waiting for input...
     Reading input from standard input

     Current dimensions of program PWSCF are:
     Max number of different atomic species (ntypx) = 10
     Max number of k-points (npk) =  40000
     Max angular momentum in pseudopotentials (lmaxx) =  3
     WARNING: atomic wfc #  2 for atom type 4 has zero norm
     WARNING: atomic wfc #  4 for atom type 4 has zero norm
     WARNING: atomic wfc #  5 for atom type 4 has zero norm

     -------------------------------------
     Parameters for Dispersion Correction:
     -------------------------------------
       atom      VdW radius       C_6     

        Cu         2.952        374.666
        C_h        2.744         60.710
        C          2.744         60.710
        O          2.536         24.284

     Subspace diagonalization in iterative solution of the eigenvalue problem:
     one sub-group per band group will be used
     scalapack distributed-memory algorithm (size of sub-group:  3*  3 procs)

 
     Parallelization info
     --------------------
     sticks:   dense  smooth     PW     G-vecs:    dense   smooth      PW
     Min         408     408    108                73226    73226    9928
     Max         410     410    109                73231    73231    9931
     Sum       11433   11433   3039              2050409  2050409  278033
 


     bravais-lattice index     =            0
     lattice parameter (alat)  =      13.9425  a.u.
     unit-cell volume          =   21209.0878 (a.u.)^3
     number of atoms/cell      =          150
     number of atomic types    =            4
     number of electrons       =      1302.00
     number of Kohn-Sham states=          781
     kinetic-energy cutoff     =      80.0000  Ry
     charge density cutoff     =     320.0000  Ry
     convergence threshold     =      1.0E-08
     mixing beta               =       0.7000
     number of iterations used =            8  local-TF  mixing
     Exchange-correlation      =  SLA  PW   PBX  PBC ( 1  4  3  4 0 0)
     nstep                     =           50


     celldm(1)=  13.942539  celldm(2)=   0.000000  celldm(3)=   0.000000
     celldm(4)=   0.000000  celldm(5)=   0.000000  celldm(6)=   0.000000

     crystal axes: (cart. coord. in units of alat)
               a(1) = (   1.000000   0.000000   0.000000 )  
               a(2) = (   0.000000   2.309401   0.000000 )  
               a(3) = (   0.000000   0.000000   3.388418 )  

     reciprocal axes: (cart. coord. in units 2 pi/alat)
               b(1) = (  1.000000  0.000000  0.000000 )  
               b(2) = (  0.000000  0.433013  0.000000 )  
               b(3) = (  0.000000  0.000000  0.295123 )  


     PseudoPot. # 1 for Cu read from file:
     /home/549/hxw549/Short/pseudopotentials/Cu.pbe-n-van_ak.UPF
     MD5 check sum: 601f7c30f7467666bec936e0661ce3e1
     Pseudo is Ultrasoft + core correction, Zval = 11.0
     Generated by new atomic code, or converted to UPF format
     Using radial grid of  867 points,  6 beta functions with: 
                l(1) =   0
                l(2) =   0
                l(3) =   1
                l(4) =   1
                l(5) =   2
                l(6) =   2
     Q(r) pseudized with  8 coefficients,  rinner =    1.400   1.400   1.400
                                                       1.400   1.400

     PseudoPot. # 2 for C  read from file:
     /home/549/hxw549/Short/pseudopotentials/C.star1s-pbe-mt_gipaw.UPF
     MD5 check sum: ef0cb3dee31bd9e4ba2a832a2c716264
     Pseudo is Norm-conserving, Zval =  5.0
     Generated by new atomic code, or converted to UPF format
     Using radial grid of 1073 points,  1 beta functions with: 
                l(1) =   0

     PseudoPot. # 3 for C  read from file:
     /home/549/hxw549/Short/pseudopotentials/C.pbe-mt_gipaw.UPF
     MD5 check sum: 5ac2f21f2c440b14befe521540822c15
     Pseudo is Norm-conserving, Zval =  4.0
     Generated by new atomic code, or converted to UPF format
     Using radial grid of 1073 points,  1 beta functions with: 
                l(1) =   0

     PseudoPot. # 4 for O  read from file:
     /home/549/hxw549/Short/pseudopotentials/O.pbe-van_gipaw.UPF
     MD5 check sum: 5ce2a047509d4f331db576c963e74b29
     Pseudo is Ultrasoft, Zval =  6.0
     Generated by new atomic code, or converted to UPF format
     Using radial grid of 1095 points,  4 beta functions with: 
                l(1) =   0
                l(2) =   0
                l(3) =   1
                l(4) =   1
     Q(r) pseudized with 0 coefficients 


     atomic species   valence    mass     pseudopotential
        Cu            11.00    63.54600     Cu( 1.00)
        C_h            5.00    12.01070     C ( 1.00)
        C              4.00    12.01070     C ( 1.00)
        O              6.00    15.99940     O ( 1.00)

     No symmetry found



   Cartesian axes

     site n.     atom                  positions (alat units)
         1           Cu  tau(   1) = (   0.0005942  -0.0038463   0.9930871  )
         2           Cu  tau(   2) = (   0.2511630   0.2244508   0.9942371  )
         3           Cu  tau(   3) = (   0.5007811  -0.0044706   0.9933156  )
         4           Cu  tau(   4) = (   0.7505207   0.2245418   0.9940835  )
         5           Cu  tau(   5) = (   0.0008481   0.4562049   0.9956409  )
         6           Cu  tau(   6) = (   0.2506786   0.6900795   0.9976618  )
         7           Cu  tau(   7) = (   0.5008632   0.4564016   0.9956302  )
         8           Cu  tau(   8) = (   0.7509606   0.6899328   0.9972468  )
         9           Cu  tau(   9) = (   0.0010626   0.9239011   0.9978053  )
        10           Cu  tau(  10) = (   0.2506086   1.1579934   0.9970288  )
        11           Cu  tau(  11) = (   0.5007037   0.9239065   0.9982690  )
        12           Cu  tau(  12) = (   0.7509822   1.1580641   0.9967192  )
        13           Cu  tau(  13) = (   0.0007618   1.3923352   0.9946266  )
        14           Cu  tau(  14) = (   0.2511320   1.6244682   0.9931181  )
        15           Cu  tau(  15) = (   0.5008944   1.3922557   0.9946286  )
        16           Cu  tau(  16) = (   0.7504689   1.6245618   0.9928784  )
        17           Cu  tau(  17) = (   0.0006403   1.8529676   0.9923519  )
        18           Cu  tau(  18) = (   0.2502663   2.0793525   0.9921530  )
        19           Cu  tau(  19) = (   0.5006837   1.8534625   0.9923857  )
        20           Cu  tau(  20) = (   0.7509333   2.0791621   0.9926036  )
        21           Cu  tau(  21) = (   0.0008436   0.2226903   1.2439799  )
        22           Cu  tau(  22) = (   0.2508004  -0.0053476   1.2453895  )
        23           Cu  tau(  23) = (   0.5008992   0.2231066   1.2437588  )
        24           Cu  tau(  24) = (   0.7506478  -0.0047299   1.2459640  )
        25           Cu  tau(  25) = (   0.0008489   0.6881471   1.2427947  )
        26           Cu  tau(  26) = (   0.2509174   0.4537933   1.2424126  )
        27           Cu  tau(  27) = (   0.5014493   0.6879078   1.2426873  )
        28           Cu  tau(  28) = (   0.7510800   0.4540268   1.2428095  )
        29           Cu  tau(  29) = (   0.0008866   1.1607300   1.2418123  )
        30           Cu  tau(  30) = (   0.2504606   0.9243917   1.2433168  )
        31           Cu  tau(  31) = (   0.5012960   1.1608479   1.2417939  )
        32           Cu  tau(  32) = (   0.7514211   0.9242728   1.2422531  )
        33           Cu  tau(  33) = (   0.0008238   1.6260289   1.2427661  )
        34           Cu  tau(  34) = (   0.2508668   1.3949963   1.2411065  )
        35           Cu  tau(  35) = (   0.5008273   1.6259522   1.2425316  )
        36           Cu  tau(  36) = (   0.7510233   1.3949321   1.2413170  )
        37           Cu  tau(  37) = (   0.0002797   2.0789654   1.2472520  )
        38           Cu  tau(  38) = (   0.2506780   1.8539880   1.2445803  )
        39           Cu  tau(  39) = (   0.5009511   2.0786742   1.2465668  )
        40           Cu  tau(  40) = (   0.7506849   1.8531565   1.2454973  )
        41           Cu  tau(  41) = (   0.0004902  -0.0048640   1.5012899  )
        42           Cu  tau(  42) = (   0.2509479   0.2213919   1.4948764  )
        43           Cu  tau(  43) = (   0.5008633  -0.0055096   1.4998236  )
        44           Cu  tau(  44) = (   0.7507049   0.2224039   1.4962002  )
        45           Cu  tau(  45) = (   0.0008858   0.4521035   1.4909719  )
        46           Cu  tau(  46) = (   0.2508978   0.6868072   1.4865842  )
        47           Cu  tau(  47) = (   0.5015522   0.4518694   1.4903810  )
        48           Cu  tau(  48) = (   0.7514726   0.6871259   1.4876615  )
        49           Cu  tau(  49) = (   0.0002500   0.9250368   1.4863019  )
        50           Cu  tau(  50) = (   0.2505897   1.1628075   1.4859838  )
        51           Cu  tau(  51) = (   0.5009744   0.9248361   1.4856989  )
        52           Cu  tau(  52) = (   0.7515423   1.1627813   1.4863707  )
        53           Cu  tau(  53) = (   0.0008363   1.3971227   1.4898823  )
        54           Cu  tau(  54) = (   0.2508389   1.6273910   1.4937434  )
        55           Cu  tau(  55) = (   0.5014752   1.3979066   1.4886943  )
        56           Cu  tau(  56) = (   0.7508714   1.6259248   1.4956944  )
        57           Cu  tau(  57) = (   0.0004376   1.8527965   1.5010687  )
        58           Cu  tau(  58) = (   0.2504027   2.0785939   1.5029371  )
        59           Cu  tau(  59) = (   0.5009858   1.8533152   1.5000881  )
        60           Cu  tau(  60) = (   0.7509970   2.0786638   1.5031194  )
        61           Cu  tau(  61) = (   0.0005135   0.2248349   1.7497996  )
        62           Cu  tau(  62) = (   0.2501688  -0.0032339   1.7566496  )
        63           Cu  tau(  63) = (   0.5014742   0.2227743   1.7482991  )
        64           Cu  tau(  64) = (   0.7513585  -0.0030754   1.7572858  )
        65           Cu  tau(  65) = (   0.0000215   0.6870712   1.7299070  )
        66           Cu  tau(  66) = (   0.2511009   0.4509547   1.7369529  )
        67           Cu  tau(  67) = (   0.5011158   0.6873251   1.7301161  )
        68           Cu  tau(  68) = (   0.7509595   0.4537932   1.7402830  )
        69           Cu  tau(  69) = (  -0.0003510   1.1635795   1.7301589  )
        70           Cu  tau(  70) = (   0.2492962   0.9254838   1.7262694  )
        71           Cu  tau(  71) = (   0.5010931   1.1645368   1.7281440  )
        72           Cu  tau(  72) = (   0.7500918   0.9261363   1.7284522  )
        73           Cu  tau(  73) = (   0.0004784   1.6236149   1.7503063  )
        74           Cu  tau(  74) = (   0.2505399   1.3989206   1.7362958  )
        75           Cu  tau(  75) = (   0.5017544   1.6243122   1.7491481  )
        76           Cu  tau(  76) = (   0.7514313   1.3951350   1.7410358  )
        77           Cu  tau(  77) = (   0.0004742   2.0783503   1.7607120  )
        78           Cu  tau(  78) = (   0.2504192   1.8508274   1.7564756  )
        79           Cu  tau(  79) = (   0.5010106   2.0787662   1.7584609  )
        80           Cu  tau(  80) = (   0.7513912   1.8507985   1.7573143  )
        81           Cu  tau(  81) = (   0.0008813   0.0026029   2.0105797  )
        82           Cu  tau(  82) = (   0.2519774   0.2322381   2.0016112  )
        83           Cu  tau(  83) = (   0.5009841  -0.0002499   2.0097966  )
        84           Cu  tau(  84) = (   0.7498649   0.2319461   2.0026418  )
        85           Cu  tau(  85) = (  -0.0012443   0.4602900   1.9907264  )
        86           Cu  tau(  86) = (   0.2447511   0.6860828   1.9647703  )
        87           Cu  tau(  87) = (   0.5020074   0.4610094   1.9864182  )
        88           Cu  tau(  88) = (   0.7551572   0.6927395   1.9742647  )
        89           Cu  tau(  89) = (   0.0001840   0.9258909   1.9694068  )
        90           Cu  tau(  90) = (   0.2448855   1.1650488   1.9657380  )
        91           Cu  tau(  91) = (   0.5029455   0.9323233   1.9496787  )
        92           Cu  tau(  92) = (   0.7546301   1.1577145   1.9787635  )
        93           Cu  tau(  93) = (  -0.0008328   1.3888834   1.9925616  )
        94           Cu  tau(  94) = (   0.2520653   1.6166694   2.0024762  )
        95           Cu  tau(  95) = (   0.5010134   1.3858075   1.9896408  )
        96           Cu  tau(  96) = (   0.7496504   1.6159218   2.0035855  )
        97           Cu  tau(  97) = (   0.0005533   1.8454381   2.0118807  )
        98           Cu  tau(  98) = (   0.2497981   2.0783156   2.0123703  )
        99           Cu  tau(  99) = (   0.5015435   1.8482404   2.0091037  )
       100           Cu  tau( 100) = (   0.7518512   2.0787787   2.0132458  )
       101           C   tau( 101) = (  -0.0003126   0.1006325   2.4740383  )
       102           C   tau( 102) = (  -0.0003775   0.2920325   2.5081418  )
       103           C   tau( 103) = (   0.1663980   0.0036286   2.4620667  )
       104           C   tau( 104) = (   0.1663498   0.3875619   2.5287554  )
       105           C   tau( 105) = (   0.3329568   0.1006649   2.4741495  )
       106           C   tau( 106) = (   0.3329888   0.2921582   2.5077789  )
       107           C   tau( 107) = (   0.4997204   0.0036301   2.4626464  )
       108           C   tau( 108) = (   0.4994819   0.3878807   2.5283181  )
       109           C   tau( 109) = (   0.6664286   0.1006943   2.4742667  )
       110           C   tau( 110) = (   0.6662607   0.2923989   2.5068094  )
       111           C   tau( 111) = (   0.8330134   0.0037573   2.4607979  )
       112           C   tau( 112) = (   0.8329291   0.3878381   2.5270081  )
       113           C   tau( 113) = (  -0.0004818   0.6734409   2.5851986  )
       114           C   tau( 114) = (  -0.0002469   0.8665147   2.6029464  )
       115           C   tau( 115) = (   0.1665021   0.5772827   2.5711435  )
       116           C   tau( 116) = (   0.1664542   0.9638089   2.6091331  )
       117           C   tau( 117) = (   0.3326642   0.6726237   2.5966217  )
       118           C   tau( 118) = (   0.3324550   0.8658708   2.6237839  )
       119           C   tau( 119) = (   0.4993534   0.5773360   2.5728227  )
       120           C   tau( 120) = (   0.4998971   0.9649202   2.6219659  )
       121           C   tau( 121) = (   0.6661760   0.6737708   2.5875107  )
       122           C   tau( 122) = (   0.6665804   0.8667296   2.6107608  )
       123           C   tau( 123) = (   0.8328401   0.5779267   2.5667895  )
       124           C   tau( 124) = (   0.8330747   0.9640677   2.6024886  )
       125           C   tau( 125) = (  -0.0000737   1.2522501   2.5628112  )
       126           C   tau( 126) = (  -0.0001253   1.4422912   2.5224834  )
       127           C   tau( 127) = (   0.1666321   1.1566227   2.5840568  )
       128           C   tau( 128) = (   0.1665763   1.5380253   2.5039308  )
       129           C   tau( 129) = (   0.3332648   1.2530529   2.5690923  )
       130           C   tau( 130) = (   0.3332880   1.4426743   2.5261218  )
       131           C   tau( 131) = (   0.4999030   1.1576825   2.5919202  )
       132           C   tau( 132) = (   0.4998036   1.5383355   2.5061839  )
       133           C   tau( 133) = (   0.6663241   1.2529384   2.5671493  )
       134           C   tau( 134) = (   0.6664542   1.4427271   2.5254651  )
       135           C   tau( 135) = (   0.8332378   1.1569421   2.5820745  )
       136           C   tau( 136) = (   0.8331711   1.5381531   2.5038020  )
       137           C   tau( 137) = (  -0.0001042   1.8267606   2.4581975  )
       138           C   tau( 138) = (  -0.0001516   2.0211056   2.4468364  )
       139           C   tau( 139) = (   0.1666301   1.7298093   2.4723584  )
       140           C   tau( 140) = (   0.1664718   2.1188427   2.4491755  )
       141           C   tau( 141) = (   0.3331974   1.8269638   2.4626428  )
       142           C   tau( 142) = (   0.3331985   2.0211166   2.4504279  )
       143           C   tau( 143) = (   0.4998554   1.7299413   2.4736692  )
       144           C   tau( 144) = (   0.4997837   2.1189131   2.4508552  )
       145           C   tau( 145) = (   0.6664794   1.8269319   2.4609715  )
       146           C   tau( 146) = (   0.6664253   2.0211530   2.4491533  )
       147           C   tau( 147) = (   0.8330798   1.7297223   2.4708304  )
       148           C   tau( 148) = (   0.8330937   2.1189094   2.4468884  )
       149           C   tau( 149) = (   0.3968788   0.8859315   2.3372669  )
       150           O   tau( 150) = (   0.5039678   0.9921025   2.3373430  )

     number of k points=     6  gaussian smearing, width (Ry)=  0.1000
                       cart. coord. in units 2pi/alat
        k(    1) = (   0.0000000   0.0000000   0.0000000), wk =   0.2500000
        k(    2) = (   0.0000000  -0.2165064   0.0000000), wk =   0.2500000
        k(    3) = (   0.2500000   0.0000000   0.0000000), wk =   0.5000000
        k(    4) = (   0.2500000  -0.2165064   0.0000000), wk =   0.5000000
        k(    5) = (  -0.5000000   0.0000000   0.0000000), wk =   0.2500000
        k(    6) = (  -0.5000000  -0.2165064   0.0000000), wk =   0.2500000

     Dense  grid:  2050409 G-vectors     FFT dimensions: (  80, 192, 270)

     Largest allocated arrays     est. size (Mb)     dimensions
        Kohn-Sham Wavefunctions       109.29 Mb     (    9171,  781)
        NL pseudopotentials           259.87 Mb     (    9171, 1857)
        Each V/rho on FFT grid          2.34 Mb     (  153600)
        Each G-vector array             0.56 Mb     (   73230)
        G-vector shells                 0.27 Mb     (   35784)
     Largest temporary arrays     est. size (Mb)     dimensions
        Auxiliary wavefunctions       437.17 Mb     (    9171, 3124)
        Each subspace H/S matrix       16.54 Mb     (    1041, 1041)
        Each <psi_i|beta_j> matrix     22.13 Mb     (    1857,  781)
        Arrays for rho mixing          18.75 Mb     (  153600,    8)

     Initial potential from superposition of free atoms
     Check: negative starting charge=   -0.001463

     starting charge 1276.31751, renormalised to 1302.00000

     negative rho (up, down):  1.492E-03 0.000E+00
     Starting wfc are 1296 randomized atomic wfcs

     total cpu time spent up to now is      203.5 secs

     Self-consistent Calculation

     iteration #  1     ecut=    80.00 Ry     beta=0.70
     Davidson diagonalization with overlap
     c_bands:  3 eigenvalues not converged
     c_bands:  2 eigenvalues not converged
     ethr =  1.00E-04,  avg # of iterations = 44.7

     negative rho (up, down):  2.627E+01 0.000E+00

     total cpu time spent up to now is     4869.5 secs

     total energy              =   -9837.04186912 Ry
     Harris-Foulkes estimate   =  -18115.24065359 Ry
     estimated scf accuracy    <  211834.91097503 Ry

     iteration #  2     ecut=    80.00 Ry     beta=0.70
     Davidson diagonalization with overlap
     ethr =  1.00E-02,  avg # of iterations = 15.5

     negative rho (up, down):  3.293E+01 0.000E+00

     total cpu time spent up to now is     6961.9 secs

     total energy              =  -12092.08451208 Ry
     Harris-Foulkes estimate   =  -13766.81668848 Ry
     estimated scf accuracy    <   27501.57399153 Ry

     iteration #  3     ecut=    80.00 Ry     beta=0.70
     Davidson diagonalization with overlap
     ethr =  1.00E-02,  avg # of iterations =  7.8

     negative rho (up, down):  3.473E+01 0.000E+00

     total cpu time spent up to now is     8065.4 secs

     total energy              =  -12415.21307053 Ry
     Harris-Foulkes estimate   =  -13507.15909845 Ry
     estimated scf accuracy    <    8087.47862445 Ry

     iteration #  4     ecut=    80.00 Ry     beta=0.70
     Davidson diagonalization with overlap
     ethr =  1.00E-02,  avg # of iterations =  5.8

     negative rho (up, down):  2.501E+01 0.000E+00

     total cpu time spent up to now is     9069.2 secs

     total energy              =  -12879.61990152 Ry
     Harris-Foulkes estimate   =  -13147.24632052 Ry
     estimated scf accuracy    <    1550.66458326 Ry

     iteration #  5     ecut=    80.00 Ry     beta=0.70
     Davidson diagonalization with overlap
     ethr =  1.00E-02,  avg # of iterations =  4.0

     negative rho (up, down):  1.549E+01 0.000E+00

     total cpu time spent up to now is     9703.9 secs

     total energy              =  -12868.61189466 Ry
     Harris-Foulkes estimate   =  -12979.86886578 Ry
     estimated scf accuracy    <     884.63592548 Ry

     iteration #  6     ecut=    80.00 Ry     beta=0.70
     Davidson diagonalization with overlap
     ethr =  1.00E-02,  avg # of iterations =  2.0

     negative rho (up, down):  1.041E+01 0.000E+00

     total cpu time spent up to now is    10073.8 secs

     total energy              =  -12850.46734263 Ry
     Harris-Foulkes estimate   =  -12890.92938064 Ry
     estimated scf accuracy    <     399.20231205 Ry

     iteration #  7     ecut=    80.00 Ry     beta=0.70
     Davidson diagonalization with overlap
     ethr =  1.00E-02,  avg # of iterations =  2.0

     negative rho (up, down):  8.085E+00 0.000E+00

     total cpu time spent up to now is    10424.5 secs

     total energy              =  -12834.61834943 Ry
     Harris-Foulkes estimate   =  -12862.37128345 Ry
     estimated scf accuracy    <     409.96756749 Ry

     iteration #  8     ecut=    80.00 Ry     beta=0.70
     Davidson diagonalization with overlap
     ethr =  1.00E-02,  avg # of iterations =  1.2

     negative rho (up, down):  7.024E+00 0.000E+00

     total cpu time spent up to now is    10755.1 secs

     total energy              =  -12829.96151040 Ry
     Harris-Foulkes estimate   =  -12843.29457183 Ry
     estimated scf accuracy    <     209.05782168 Ry

     iteration #  9     ecut=    80.00 Ry     beta=0.70
     Davidson diagonalization with overlap
     ethr =  1.00E-02,  avg # of iterations =  1.0

     negative rho (up, down):  3.406E+00 0.000E+00

     total cpu time spent up to now is    11083.2 secs

     total energy              =  -12798.09246210 Ry
     Harris-Foulkes estimate   =  -12833.23185365 Ry
     estimated scf accuracy    <     227.60790071 Ry

     iteration # 10     ecut=    80.00 Ry     beta=0.70
     Davidson diagonalization with overlap
     ethr =  1.00E-02,  avg # of iterations =  1.0

     negative rho (up, down):  2.298E+00 0.000E+00

     total cpu time spent up to now is    11412.6 secs

     total energy              =  -12760.95533858 Ry
     Harris-Foulkes estimate   =  -12801.78440550 Ry
     estimated scf accuracy    <     116.34808733 Ry

     iteration # 11     ecut=    80.00 Ry     beta=0.70
     Davidson diagonalization with overlap
     ethr =  8.94E-03,  avg # of iterations =  3.3

     negative rho (up, down):  3.227E+00 0.000E+00

     total cpu time spent up to now is    11791.9 secs

     total energy              =  -12754.65138454 Ry
     Harris-Foulkes estimate   =  -12767.22496496 Ry
     estimated scf accuracy    <     122.56050811 Ry

     iteration # 12     ecut=    80.00 Ry     beta=0.70
     Davidson diagonalization with overlap
     ethr =  8.94E-03,  avg # of iterations =  2.0

     negative rho (up, down):  1.840E+00 0.000E+00

     total cpu time spent up to now is    12140.1 secs

     total energy              =  -12752.55328096 Ry
     Harris-Foulkes estimate   =  -12762.20227942 Ry
     estimated scf accuracy    <      58.31303767 Ry

     iteration # 13     ecut=    80.00 Ry     beta=0.70
     Davidson diagonalization with overlap
     ethr =  4.48E-03,  avg # of iterations =  2.0

     negative rho (up, down):  5.606E+00 0.000E+00

     total cpu time spent up to now is    12492.5 secs

     total energy              =  -12748.97633795 Ry
     Harris-Foulkes estimate   =  -12760.11881421 Ry
     estimated scf accuracy    <      44.95061332 Ry

     iteration # 14     ecut=    80.00 Ry     beta=0.70
     Davidson diagonalization with overlap
     ethr =  3.45E-03,  avg # of iterations =  2.0

     negative rho (up, down):  6.384E+00 0.000E+00

     total cpu time spent up to now is    12839.8 secs

     total energy              =  -12748.44740942 Ry
     Harris-Foulkes estimate   =  -12751.46196968 Ry
     estimated scf accuracy    <      18.20037782 Ry

     iteration # 15     ecut=    80.00 Ry     beta=0.70
     Davidson diagonalization with overlap
     ethr =  1.40E-03,  avg # of iterations =  5.0

     negative rho (up, down):  6.030E+00 0.000E+00

     total cpu time spent up to now is    13276.1 secs

     total energy              =  -12748.35889283 Ry
     Harris-Foulkes estimate   =  -12749.57804863 Ry
     estimated scf accuracy    <      21.15235309 Ry

     iteration # 16     ecut=    80.00 Ry     beta=0.70
     Davidson diagonalization with overlap
     ethr =  1.40E-03,  avg # of iterations =  1.7

     negative rho (up, down):  3.221E+00 0.000E+00

     total cpu time spent up to now is    13616.7 secs

     total energy              =  -12746.80340637 Ry
     Harris-Foulkes estimate   =  -12748.83384297 Ry
     estimated scf accuracy    <      13.62020508 Ry

     iteration # 17     ecut=    80.00 Ry     beta=0.70
     Davidson diagonalization with overlap
     ethr =  1.05E-03,  avg # of iterations =  2.7

     negative rho (up, down):  2.662E+00 0.000E+00

     total cpu time spent up to now is    13979.8 secs

     total energy              =  -12746.24082618 Ry
     Harris-Foulkes estimate   =  -12747.44472078 Ry
     estimated scf accuracy    <       9.45189578 Ry

     iteration # 18     ecut=    80.00 Ry     beta=0.70
     Davidson diagonalization with overlap
     ethr =  7.26E-04,  avg # of iterations =  1.0

     negative rho (up, down):  1.709E+00 0.000E+00

     total cpu time spent up to now is    14307.3 secs

     total energy              =  -12744.83783652 Ry
     Harris-Foulkes estimate   =  -12746.48171698 Ry
     estimated scf accuracy    <       6.75394049 Ry

     iteration # 19     ecut=    80.00 Ry     beta=0.70
     Davidson diagonalization with overlap
     ethr =  5.19E-04,  avg # of iterations =  8.2

     negative rho (up, down):  9.657E-01 0.000E+00

     total cpu time spent up to now is    14805.1 secs

     total energy              =  -12744.22079732 Ry
     Harris-Foulkes estimate   =  -12745.19853686 Ry
     estimated scf accuracy    <      20.63757191 Ry

     iteration # 20     ecut=    80.00 Ry     beta=0.70
     Davidson diagonalization with overlap
     ethr =  5.19E-04,  avg # of iterations =  1.2

     negative rho (up, down):  1.072E+00 0.000E+00

     total cpu time spent up to now is    15138.3 secs

     total energy              =  -12744.42611002 Ry
     Harris-Foulkes estimate   =  -12744.33309871 Ry
     estimated scf accuracy    <      13.93160682 Ry

     iteration # 21     ecut=    80.00 Ry     beta=0.70
     Davidson diagonalization with overlap
     ethr =  5.19E-04,  avg # of iterations =  5.0

     negative rho (up, down):  4.110E-01 0.000E+00

     total cpu time spent up to now is    15553.1 secs

     total energy              =  -12742.70170133 Ry
     Harris-Foulkes estimate   =  -12745.13292170 Ry
     estimated scf accuracy    <       8.68792502 Ry

     iteration # 22     ecut=    80.00 Ry     beta=0.70
     Davidson diagonalization with overlap
     ethr =  5.19E-04,  avg # of iterations =  3.5

     negative rho (up, down):  3.212E-01 0.000E+00

     total cpu time spent up to now is    15937.6 secs

     total energy              =  -12742.63887301 Ry
     Harris-Foulkes estimate   =  -12742.99917290 Ry
     estimated scf accuracy    <       9.06160579 Ry

     iteration # 23     ecut=    80.00 Ry     beta=0.70
     Davidson diagonalization with overlap
     ethr =  5.19E-04,  avg # of iterations =  1.3

     negative rho (up, down):  5.074E-01 0.000E+00

     total cpu time spent up to now is    16272.9 secs

     total energy              =  -12742.33070142 Ry
     Harris-Foulkes estimate   =  -12742.72712715 Ry
     estimated scf accuracy    <       7.08470253 Ry

     iteration # 24     ecut=    80.00 Ry     beta=0.70
     Davidson diagonalization with overlap
     ethr =  5.19E-04,  avg # of iterations =  5.3

     negative rho (up, down):  3.001E-01 0.000E+00

     total cpu time spent up to now is    16690.1 secs

     total energy              =  -12742.09120927 Ry
     Harris-Foulkes estimate   =  -12742.39706508 Ry
     estimated scf accuracy    <       3.05204507 Ry

     iteration # 25     ecut=    80.00 Ry     beta=0.70
     Davidson diagonalization with overlap
     ethr =  2.34E-04,  avg # of iterations =  6.3

     negative rho (up, down):  4.409E-01 0.000E+00

     total cpu time spent up to now is    17133.5 secs

     total energy              =  -12742.01202444 Ry
     Harris-Foulkes estimate   =  -12742.20107117 Ry
     estimated scf accuracy    <       1.97779217 Ry

     iteration # 26     ecut=    80.00 Ry     beta=0.70
     Davidson diagonalization with overlap
     ethr =  1.52E-04,  avg # of iterations =  4.5

     negative rho (up, down):  6.034E-02 0.000E+00

     total cpu time spent up to now is    17540.1 secs

     total energy              =  -12741.81469647 Ry
     Harris-Foulkes estimate   =  -12742.07555676 Ry
     estimated scf accuracy    <       1.28172958 Ry

     iteration # 27     ecut=    80.00 Ry     beta=0.70
     Davidson diagonalization with overlap
     ethr =  9.84E-05,  avg # of iterations = 10.0

     negative rho (up, down):  9.169E-02 0.000E+00

     total cpu time spent up to now is    18088.9 secs

     total energy              =  -12741.74999452 Ry
     Harris-Foulkes estimate   =  -12741.85839173 Ry
     estimated scf accuracy    <       0.61845892 Ry

     iteration # 28     ecut=    80.00 Ry     beta=0.70
     Davidson diagonalization with overlap
     ethr =  4.75E-05,  avg # of iterations =  8.5

     negative rho (up, down):  3.921E-01 0.000E+00

     total cpu time spent up to now is    18600.2 secs

     total energy              =  -12741.70439618 Ry
     Harris-Foulkes estimate   =  -12741.78918737 Ry
     estimated scf accuracy    <       0.51539029 Ry

     iteration # 29     ecut=    80.00 Ry     beta=0.70
     Davidson diagonalization with overlap
     ethr =  3.96E-05,  avg # of iterations =  7.8

     negative rho (up, down):  7.918E-02 0.000E+00

     total cpu time spent up to now is    19143.5 secs

     total energy              =  -12741.70549926 Ry
     Harris-Foulkes estimate   =  -12741.74217807 Ry
     estimated scf accuracy    <       0.20048087 Ry

     iteration # 30     ecut=    80.00 Ry     beta=0.70
     Davidson diagonalization with overlap
     ethr =  1.54E-05,  avg # of iterations = 12.7

     negative rho (up, down):  5.983E-02 0.000E+00

     total cpu time spent up to now is    19813.8 secs

     total energy              =  -12741.71775311 Ry
     Harris-Foulkes estimate   =  -12741.72410877 Ry
     estimated scf accuracy    <       0.06611864 Ry

     iteration # 31     ecut=    80.00 Ry     beta=0.70
     Davidson diagonalization with overlap
     ethr =  5.08E-06,  avg # of iterations =  8.0

     negative rho (up, down):  2.065E-02 0.000E+00

     total cpu time spent up to now is    20315.9 secs

     total energy              =  -12741.72188852 Ry
     Harris-Foulkes estimate   =  -12741.72073376 Ry
     estimated scf accuracy    <       0.02109469 Ry

     iteration # 32     ecut=    80.00 Ry     beta=0.70
     Davidson diagonalization with overlap
     ethr =  1.62E-06,  avg # of iterations =  9.8

     negative rho (up, down):  3.065E-02 0.000E+00

     total cpu time spent up to now is    20912.9 secs

     total energy              =  -12741.72289590 Ry
     Harris-Foulkes estimate   =  -12741.72328517 Ry
     estimated scf accuracy    <       0.00461939 Ry

     iteration # 33     ecut=    80.00 Ry     beta=0.70
     Davidson diagonalization with overlap
     c_bands:  1 eigenvalues not converged
     ethr =  3.55E-07,  avg # of iterations = 10.7

     negative rho (up, down):  2.227E-02 0.000E+00

     total cpu time spent up to now is    21500.2 secs

     total energy              =  -12741.72329699 Ry
     Harris-Foulkes estimate   =  -12741.72345556 Ry
     estimated scf accuracy    <       0.00184553 Ry

     iteration # 34     ecut=    80.00 Ry     beta=0.70
     Davidson diagonalization with overlap
     ethr =  1.42E-07,  avg # of iterations =  7.7

     negative rho (up, down):  1.316E-02 0.000E+00

     total cpu time spent up to now is    22006.7 secs

     total energy              =  -12741.72342033 Ry
     Harris-Foulkes estimate   =  -12741.72341352 Ry
     estimated scf accuracy    <       0.00054079 Ry

     iteration # 35     ecut=    80.00 Ry     beta=0.70
     Davidson diagonalization with overlap
     ethr =  4.15E-08,  avg # of iterations = 10.3

     negative rho (up, down):  5.005E-03 0.000E+00

     total cpu time spent up to now is    22562.3 secs

     total energy              =  -12741.72342953 Ry
     Harris-Foulkes estimate   =  -12741.72346407 Ry
     estimated scf accuracy    <       0.00024549 Ry

     iteration # 36     ecut=    80.00 Ry     beta=0.70
     Davidson diagonalization with overlap
     ethr =  1.89E-08,  avg # of iterations =  9.0

     negative rho (up, down):  3.887E-03 0.000E+00

     total cpu time spent up to now is    23122.1 secs

     total energy              =  -12741.72342789 Ry
     Harris-Foulkes estimate   =  -12741.72344926 Ry
     estimated scf accuracy    <       0.00010741 Ry

     iteration # 37     ecut=    80.00 Ry     beta=0.70
     Davidson diagonalization with overlap
     ethr =  8.25E-09,  avg # of iterations =  3.2

     negative rho (up, down):  3.809E-03 0.000E+00

     total cpu time spent up to now is    23526.2 secs

     total energy              =  -12741.72342937 Ry
     Harris-Foulkes estimate   =  -12741.72343573 Ry
     estimated scf accuracy    <       0.00003459 Ry

     iteration # 38     ecut=    80.00 Ry     beta=0.70
     Davidson diagonalization with overlap
     ethr =  2.66E-09,  avg # of iterations =  6.2

     negative rho (up, down):  2.822E-03 0.000E+00

     total cpu time spent up to now is    23992.4 secs

     total energy              =  -12741.72341648 Ry
     Harris-Foulkes estimate   =  -12741.72343279 Ry
     estimated scf accuracy    <       0.00001292 Ry

     iteration # 39     ecut=    80.00 Ry     beta=0.70
     Davidson diagonalization with overlap
     ethr =  9.92E-10,  avg # of iterations =  3.8

     negative rho (up, down):  1.687E-03 0.000E+00

     total cpu time spent up to now is    24403.9 secs

     total energy              =  -12741.72340987 Ry
     Harris-Foulkes estimate   =  -12741.72341780 Ry
     estimated scf accuracy    <       0.00000489 Ry

     iteration # 40     ecut=    80.00 Ry     beta=0.70
     Davidson diagonalization with overlap
     ethr =  3.76E-10,  avg # of iterations =  6.5

     negative rho (up, down):  1.524E-03 0.000E+00

     total cpu time spent up to now is    24905.0 secs

     total energy              =  -12741.72341037 Ry
     Harris-Foulkes estimate   =  -12741.72341066 Ry
     estimated scf accuracy    <       0.00000273 Ry

     iteration # 41     ecut=    80.00 Ry     beta=0.70
     Davidson diagonalization with overlap
     ethr =  2.10E-10,  avg # of iterations =  3.0

     negative rho (up, down):  1.457E-03 0.000E+00

     total cpu time spent up to now is    25292.2 secs

     total energy              =  -12741.72341107 Ry
     Harris-Foulkes estimate   =  -12741.72341063 Ry
     estimated scf accuracy    <       0.00000046 Ry

     iteration # 42     ecut=    80.00 Ry     beta=0.70
     Davidson diagonalization with overlap
     ethr =  3.54E-11,  avg # of iterations =  3.0

     negative rho (up, down):  1.463E-03 0.000E+00

     total cpu time spent up to now is    25688.5 secs

     total energy              =  -12741.72341133 Ry
     Harris-Foulkes estimate   =  -12741.72341112 Ry
     estimated scf accuracy    <       0.00000011 Ry

     iteration # 43     ecut=    80.00 Ry     beta=0.70
     Davidson diagonalization with overlap
     ethr =  8.20E-12,  avg # of iterations =  3.0

     negative rho (up, down):  1.456E-03 0.000E+00

     total cpu time spent up to now is    26101.4 secs

     total energy              =  -12741.72341141 Ry
     Harris-Foulkes estimate   =  -12741.72341135 Ry
     estimated scf accuracy    <       0.00000003 Ry

     iteration # 44     ecut=    80.00 Ry     beta=0.70
     Davidson diagonalization with overlap
     ethr =  2.33E-12,  avg # of iterations =  3.0

     negative rho (up, down):  1.476E-03 0.000E+00

     total cpu time spent up to now is    26522.1 secs

     total energy              =  -12741.72341146 Ry
     Harris-Foulkes estimate   =  -12741.72341141 Ry
     estimated scf accuracy    <       0.00000002 Ry

     iteration # 45     ecut=    80.00 Ry     beta=0.70
     Davidson diagonalization with overlap
     ethr =  1.20E-12,  avg # of iterations =  3.5

     negative rho (up, down):  1.466E-03 0.000E+00

     total cpu time spent up to now is    26910.3 secs

     End of self-consistent calculation

          k = 0.0000 0.0000 0.0000 (256287 PWs)   bands (ev):

   -21.4747 -15.7364 -15.3966 -15.3495 -14.3023 -14.2856 -13.7830 -13.7704
   -13.4597 -13.4393 -13.3973 -13.3915 -12.5503 -12.5338 -12.3912 -12.3809
   -12.3707 -12.3600 -10.7513 -10.7349 -10.7167 -10.7075 -10.6288  -9.4743
    -8.9553  -8.9368  -8.7861  -8.7657  -7.9440  -7.9269  -7.8846  -7.8822
    -7.0611  -7.0422  -6.8964  -6.8690  -6.8492  -6.8392  -6.8127  -6.8082
    -5.8056  -5.6928  -5.3683  -5.3489  -5.3271  -5.3007  -5.2312  -5.2199
    -5.2113  -5.1880  -5.1602  -5.1570  -4.9114  -4.5801  -4.1162  -4.0890
    -4.0825  -4.0710  -3.9538  -3.8660  -3.8517  -3.8049  -3.6619  -3.6606
    -3.4002  -3.2252  -3.0823  -3.0806  -2.9998  -2.9893  -2.9759  -2.9745
    -2.9350  -2.7365  -2.7244  -2.7030  -2.6932  -2.6872  -2.6861  -2.6803
    -2.6802  -2.6154  -2.5070  -2.4608  -2.2990  -2.2787  -2.2482  -2.1905
    -2.1856  -2.1819  -2.1655  -2.1372  -2.1340  -2.0762  -1.9748  -1.9723
    -1.9682  -1.9656  -1.8757  -1.8741  -1.8443  -1.8427  -1.8414  -1.8392
    -1.7590  -1.7115  -1.7112  -1.6891  -1.6888  -1.6711  -1.6071  -1.5405
    -1.5039  -1.4652  -1.4239  -1.4207  -1.4162  -1.4130  -1.4044  -1.4014
    -1.3777  -1.3376  -1.3269  -1.3127  -1.2972  -1.2947  -1.2917  -1.2822
    -1.2732  -1.2578  -1.2540  -1.2527  -1.2363  -1.2159  -1.2121  -1.2036
    -1.2021  -1.1854  -1.1675  -1.1485  -1.1427  -1.0999  -1.0432  -1.0367
    -0.9974  -0.9900  -0.9853  -0.9742  -0.9698  -0.9581  -0.9472  -0.9302
    -0.9038  -0.8955  -0.8792  -0.8762  -0.8627  -0.8588  -0.8448  -0.8379
    -0.7517  -0.7415  -0.7408  -0.7367  -0.7328  -0.7280  -0.7259  -0.7222
    -0.7205  -0.7174  -0.7078  -0.7038  -0.6961  -0.6821  -0.6802  -0.6756
    -0.6751  -0.6731  -0.6324  -0.6315  -0.6292  -0.6031  -0.5977  -0.5966
    -0.5790  -0.5649  -0.5605  -0.5517  -0.5456  -0.5419  -0.5402  -0.5371
    -0.5365  -0.5350  -0.5322  -0.5291  -0.5286  -0.5245  -0.5229  -0.5212
    -0.5197  -0.5118  -0.4850  -0.4439  -0.3801  -0.3765  -0.3761  -0.3723
    -0.3315  -0.3259  -0.3218  -0.3209  -0.3156  -0.3097  -0.3050  -0.3014
    -0.2922  -0.2905  -0.2782  -0.2515  -0.2510  -0.2485  -0.2434  -0.2417
    -0.2379  -0.2343  -0.2249  -0.2179  -0.2161  -0.1716  -0.1701  -0.1377
    -0.1340  -0.1288  -0.1196  -0.1107  -0.1090  -0.1055  -0.1046  -0.1021
    -0.0990  -0.0975  -0.0924  -0.0891  -0.0886  -0.0837  -0.0814  -0.0730
    -0.0675  -0.0659  -0.0543  -0.0400  -0.0365  -0.0331  -0.0226  -0.0209
    -0.0158   0.0011   0.0077   0.0092   0.0197   0.0235   0.0270   0.0315
     0.0368   0.0458   0.0471   0.0561   0.0584   0.0630   0.0666   0.0701
     0.0773   0.0787   0.0863   0.0905   0.0965   0.1001   0.1038   0.1133
     0.1169   0.1245   0.1251   0.1278   0.1302   0.1309   0.1332   0.1595
     0.1772   0.1783   0.1849   0.1901   0.1953   0.2227   0.2237   0.2443
     0.2469   0.2517   0.2544   0.2585   0.2593   0.2672   0.2713   0.2779
     0.2805   0.2878   0.2913   0.2996   0.3121   0.3160   0.3223   0.3246
     0.3324   0.3374   0.3385   0.3450   0.3495   0.3531   0.3679   0.3705
     0.3733   0.3757   0.3781   0.3928   0.3939   0.4069   0.4083   0.4148
     0.4157   0.4230   0.4247   0.4439   0.4481   0.4709   0.4750   0.4788
     0.4853   0.4863   0.4891   0.4914   0.5172   0.5186   0.5195   0.5402
     0.5462   0.5699   0.5846   0.5866   0.6047   0.6076   0.6144   0.6181
     0.6214   0.6254   0.6426   0.6452   0.6475   0.6575   0.6612   0.6742
     0.6753   0.6833   0.6849   0.6887   0.6960   0.7028   0.7083   0.7119
     0.7240   0.7267   0.7397   0.7422   0.7483   0.7554   0.7602   0.7772
     0.7787   0.7808   0.7845   0.7940   0.7988   0.8078   0.8131   0.8160
     0.8214   0.8304   0.8354   0.8397   0.8425   0.8490   0.8545   0.8600
     0.8618   0.8657   0.8668   0.8719   0.8751   0.8786   0.8808   0.8824
     0.8907   0.8920   0.8948   0.9078   0.9091   0.9184   0.9247   0.9409
     0.9450   0.9464   0.9521   0.9570   0.9659   0.9690   0.9754   0.9781
     0.9859   0.9869   0.9888   0.9905   0.9918   0.9942   0.9969   0.9997
     1.0212   1.0239   1.0269   1.0286   1.0307   1.0363   1.0385   1.0401
     1.0430   1.0465   1.0468   1.0475   1.0664   1.0694   1.0733   1.0792
     1.0809   1.0850   1.1058   1.1079   1.1263   1.1284   1.1355   1.1408
     1.1576   1.1589   1.1669   1.1675   1.1730   1.1767   1.1792   1.1801
     1.1954   1.1965   1.1979   1.2035   1.2050   1.2056   1.2169   1.2230
     1.2295   1.2304   1.2338   1.2363   1.2406   1.2455   1.2466   1.2482
     1.2545   1.2602   1.2677   1.2897   1.2944   1.2955   1.2986   1.3062
     1.3076   1.3082   1.3211   1.3261   1.3308   1.3325   1.3329   1.3337
     1.3394   1.3410   1.3496   1.3550   1.3560   1.3593   1.3644   1.3685
     1.3718   1.3857   1.3918   1.3950   1.3975   1.4013   1.4040   1.4055
     1.4065   1.4142   1.4171   1.4186   1.4211   1.4255   1.4270   1.4313
     1.4319   1.4359   1.4375   1.4399   1.4438   1.4469   1.4594   1.4629
     1.4742   1.4791   1.4863   1.4880   1.4927   1.4942   1.5109   1.5154
     1.5156   1.5174   1.5306   1.5452   1.5458   1.5486   1.5493   1.5559
     1.5565   1.5628   1.5663   1.5741   1.5810   1.5836   1.5852   1.5856
     1.5876   1.5895   1.5950   1.5957   1.5977   1.6010   1.6102   1.6107
     1.6120   1.6151   1.6170   1.6190   1.6208   1.6245   1.6289   1.6310
     1.6347   1.6380   1.6414   1.6453   1.6486   1.6494   1.6650   1.6740
     1.6743   1.6794   1.6851   1.6919   1.6934   1.6943   1.6998   1.7037
     1.7064   1.7103   1.7150   1.7193   1.7249   1.7280   1.7302   1.7313
     1.7326   1.7344   1.7350   1.7355   1.7417   1.7458   1.7515   1.7561
     1.7675   1.7695   1.7737   1.7772   1.7787   1.7790   1.7840   1.7845
     1.7883   1.7919   1.8062   1.8107   1.8201   1.8284   1.8428   1.8567
     1.8585   1.8598   1.8605   1.8680   1.8742   1.8894   1.8958   1.9205
     1.9227   1.9307   1.9337   1.9362   1.9396   1.9434   1.9451   1.9588
     1.9692   2.2426   2.2563   2.3539   2.3643   2.3796   2.4340   2.4984
     2.4986   2.5077   2.5084   2.5120   2.5132   2.5255   2.5264   2.6413
     2.6419   2.7198   2.7217   2.7597   2.7652   2.7744   2.7862   2.9849
     2.9872   3.0150   3.0170   3.2673   3.5262   3.6047   3.6558   3.7043
     3.7343   3.7516   4.0408   4.0739   4.0807   4.1178   4.1313   4.1363
     4.1372   4.1727   4.2001   4.2191   4.2395   4.2980   4.2986   4.3083
     4.3095   4.3114   4.4071   4.4386   4.4479   4.5194   4.5598   5.0589
     5.1537   5.3664   5.4159   5.4620   5.5316   5.5521   5.5769   5.5989
     5.6196   5.8031   5.8316   5.9766   6.0391   6.2206   6.2257   6.3939
     6.4206   6.5190   6.5933   6.6228   6.6364   6.7230   6.8003   6.8259
     6.8506   6.9212   6.9330   6.9588   6.9986   7.1574   7.1867   7.1958
     7.2064   7.2518   7.2706   7.3429   7.3780   7.3807   7.4211   7.4335
     7.4701   7.6517   7.6621   7.6640   7.6856   7.8240   7.9269   7.9371
     7.9430   7.9838   7.9946   8.0270   8.0981   8.3162   8.3340   8.3501
     8.3693   8.4475   8.5476   8.5589   8.5632   8.5650   8.6307   8.6360
     8.6818   8.7111   8.8111   8.8167   8.8257   8.8322   8.8676   8.9607
     8.9959   9.0069   9.0592   9.0711   9.0753   9.0979   9.1187   9.1336
     9.2621   9.2824   9.3030   9.3478   9.3534   9.3723   9.3888   9.4512
     9.5380   9.6285   9.6492   9.6935   9.8291   9.8425   9.8799   9.8940
    10.0846  10.0885  10.0960  10.1105  10.1332

          k = 0.0000-0.2165 0.0000 (256176 PWs)   bands (ev):

   -21.4747 -15.6487 -15.6429 -14.9327 -14.9090 -13.7088 -13.6856 -13.6848
   -13.6786 -13.4969 -13.4911 -13.0046 -12.9879 -12.9727 -12.9624 -11.6387
   -11.6277 -11.6064 -11.6038 -11.4633 -11.4500  -9.7743  -9.7677  -9.7485
    -9.7387  -8.5273  -8.5129  -8.3154  -8.3028  -8.2852  -8.2818  -7.4731
    -7.4564  -7.4317  -7.4277  -6.3607  -6.3140  -6.3111  -6.3085  -6.1778
    -6.1488  -6.1370  -6.1285  -5.7248  -5.5615  -5.5542  -5.4581  -5.4236
    -4.9435  -4.5544  -4.5413  -4.5394  -4.5169  -4.5107  -4.5076  -4.4734
    -4.4268  -4.0765  -4.0349  -4.0257  -4.0227  -3.9364  -3.8225  -3.5341
    -3.4679  -3.4535  -2.9871  -2.9817  -2.9749  -2.9738  -2.9453  -2.8470
    -2.7940  -2.7602  -2.7075  -2.7055  -2.5332  -2.5207  -2.4456  -2.4434
    -2.4413  -2.4182  -2.3316  -2.3195  -2.2932  -2.2888  -2.2655  -2.2650
    -2.2619  -2.2599  -2.2586  -2.2513  -2.1369  -2.1353  -2.1118  -2.1094
    -1.9932  -1.9778  -1.8915  -1.8745  -1.8522  -1.8420  -1.8146  -1.8122
    -1.8067  -1.8054  -1.7929  -1.6671  -1.6670  -1.6495  -1.6492  -1.6046
    -1.5919  -1.5875  -1.5443  -1.4679  -1.4562  -1.4471  -1.4390  -1.4226
    -1.4224  -1.4064  -1.3972  -1.3950  -1.3525  -1.3497  -1.3453  -1.3433
    -1.3393  -1.3196  -1.2926  -1.2190  -1.1896  -1.1864  -1.1613  -1.1441
    -1.0607  -1.0517  -1.0230  -1.0207  -1.0083  -1.0012  -0.9948  -0.9797
    -0.9740  -0.9691  -0.9640  -0.9618  -0.9561  -0.9523  -0.9443  -0.9388
    -0.9167  -0.9125  -0.8993  -0.8948  -0.8901  -0.8858  -0.8830  -0.8825
    -0.8492  -0.8013  -0.7893  -0.7708  -0.7699  -0.7422  -0.7399  -0.7356
    -0.7351  -0.7300  -0.7042  -0.6885  -0.6817  -0.6707  -0.6643  -0.6583
    -0.6577  -0.6571  -0.6533  -0.6532  -0.6454  -0.6214  -0.6186  -0.6163
    -0.6149  -0.6125  -0.5994  -0.5939  -0.5874  -0.5827  -0.5695  -0.5630
    -0.5296  -0.5236  -0.5167  -0.5134  -0.5028  -0.4994  -0.4936  -0.4870
    -0.4722  -0.4714  -0.4674  -0.4461  -0.4441  -0.4358  -0.4327  -0.4210
    -0.3691  -0.3675  -0.3259  -0.3254  -0.3127  -0.3111  -0.3007  -0.2980
    -0.2961  -0.2949  -0.2943  -0.2942  -0.2745  -0.2440  -0.2262  -0.2244
    -0.2173  -0.2160  -0.2139  -0.2111  -0.2074  -0.2034  -0.1821  -0.1809
    -0.1710  -0.1707  -0.1540  -0.1504  -0.1440  -0.1423  -0.1357  -0.1349
    -0.1326  -0.1285  -0.0869  -0.0864  -0.0843  -0.0839  -0.0493  -0.0488
    -0.0102  -0.0071  -0.0056  -0.0047  -0.0029  -0.0013  -0.0005   0.0038
     0.0091   0.0109   0.0299   0.0341   0.0519   0.0552   0.0579   0.0581
     0.0604   0.0689   0.0703   0.0710   0.0736   0.0919   0.0932   0.1058
     0.1076   0.1129   0.1143   0.1157   0.1178   0.1341   0.1383   0.1481
     0.1520   0.1548   0.1558   0.1590   0.1624   0.1668   0.1786   0.1807
     0.1909   0.2049   0.2133   0.2139   0.2201   0.2249   0.2264   0.2287
     0.2375   0.2431   0.2445   0.2514   0.2653   0.2794   0.2855   0.2946
     0.2988   0.3060   0.3072   0.3126   0.3157   0.3198   0.3329   0.3349
     0.3410   0.3474   0.3534   0.3602   0.3661   0.3692   0.3713   0.3765
     0.3838   0.3922   0.3960   0.4095   0.4105   0.4200   0.4212   0.4231
     0.4387   0.4423   0.4467   0.4507   0.4563   0.4570   0.4644   0.4678
     0.4697   0.4722   0.4991   0.4992   0.5064   0.5098   0.5110   0.5316
     0.5404   0.5471   0.5507   0.5519   0.5616   0.5893   0.5956   0.6079
     0.6090   0.6395   0.6675   0.6745   0.6800   0.6843   0.7013   0.7073
     0.7104   0.7118   0.7229   0.7314   0.7336   0.7359   0.7392   0.7430
     0.7459   0.7480   0.7526   0.7574   0.7586   0.7739   0.7844   0.7878
     0.7898   0.7980   0.8011   0.8018   0.8036   0.8106   0.8115   0.8179
     0.8203   0.8235   0.8258   0.8347   0.8352   0.8362   0.8365   0.8415
     0.8430   0.8524   0.8552   0.8588   0.8610   0.8631   0.8709   0.8749
     0.8768   0.8793   0.8856   0.8872   0.8898   0.8948   0.8996   0.9055
     0.9126   0.9129   0.9178   0.9193   0.9310   0.9400   0.9403   0.9451
     0.9586   0.9613   0.9630   0.9681   0.9718   0.9778   0.9817   0.9837
     0.9905   0.9945   0.9951   0.9979   0.9998   1.0063   1.0139   1.0256
     1.0281   1.0487   1.0568   1.0623   1.0627   1.0648   1.0712   1.0733
     1.0759   1.0766   1.0974   1.1003   1.1014   1.1038   1.1047   1.1056
     1.1374   1.1390   1.1699   1.1840   1.1947   1.2032   1.2062   1.2129
     1.2132   1.2164   1.2232   1.2234   1.2261   1.2274   1.2275   1.2293
     1.2335   1.2366   1.2385   1.2458   1.2504   1.2546   1.2602   1.2630
     1.2639   1.2682   1.2706   1.2730   1.2752   1.2762   1.2772   1.2783
     1.2829   1.2845   1.2855   1.2866   1.2925   1.2977   1.2999   1.3009
     1.3068   1.3099   1.3121   1.3260   1.3277   1.3311   1.3322   1.3387
     1.3415   1.3420   1.3450   1.3463   1.3509   1.3529   1.3548   1.3571
     1.3599   1.3913   1.3941   1.3973   1.3990   1.4274   1.4290   1.4312
     1.4378   1.4714   1.4742   1.4770   1.4795   1.4808   1.4901   1.4925
     1.4968   1.4983   1.5040   1.5054   1.5059   1.5088   1.5118   1.5124
     1.5149   1.5158   1.5190   1.5218   1.5236   1.5274   1.5288   1.5299
     1.5319   1.5342   1.5416   1.5473   1.5505   1.5514   1.5532   1.5631
     1.5655   1.5717   1.5740   1.5868   1.5875   1.5899   1.5941   1.5956
     1.6007   1.6034   1.6115   1.6121   1.6177   1.6232   1.6249   1.6338
     1.6364   1.6392   1.6396   1.6483   1.6503   1.6604   1.6712   1.6747
     1.6750   1.6810   1.6832   1.6860   1.6865   1.6878   1.6883   1.6981
     1.6989   1.7007   1.7010   1.7115   1.7151   1.7328   1.7353   1.7440
     1.7460   1.7495   1.7503   1.7506   1.7534   1.7556   1.7698   1.7718
     1.7756   1.7783   1.7932   1.7939   1.7976   1.7987   1.7999   1.8022
     1.8048   1.8136   1.8145   1.8165   1.8187   1.8190   1.8405   1.8678
     1.8726   1.8737   1.8834   1.8858   1.8874   1.9456   1.9586   1.9620
     2.0111   2.0686   2.0692   2.0725   2.0735   2.0761   2.0793   2.1144
     2.1275   2.1285   2.1298   2.1325   2.1387   2.1518   2.1749   2.5692
     2.6271   2.6404   2.6439   2.6592   2.6896   2.7127   2.7169   2.7969
     2.8001   2.8260   2.8286   2.8495   2.8561   2.8856   2.8871   2.9664
     2.9824   3.0202   3.0211   3.0565   3.0666   3.2262   3.2265   3.4470
     3.4597   3.4610   3.4664   3.4761   3.6056   3.9645   3.9737   4.2175
     4.2194   4.3332   4.3522   4.4632   4.5538   4.5544   4.5715   4.5818
     4.5972   4.6215   4.6271   4.6405   4.6980   4.7158   4.8121   4.8821
     5.0204   5.3944   5.4018   5.4583   5.5259   5.6278   5.6397   5.6421
     5.6454   5.7248   5.7769   5.9120   6.1216   6.1812   6.2844   6.4048
     6.4381   6.4507   6.4639   6.4725   6.4776   6.5918   6.6619   6.7671
     6.7697   6.8560   6.9489   6.9589   7.0054   7.0663   7.1370   7.1593
     7.2482   7.3166   7.3349   7.3484   7.3722   7.3920   7.4138   7.4592
     7.4670   7.5356   7.5677   7.5927   7.6063   7.6213   7.6336   7.6750
     7.8124   8.1341   8.1851   8.1887   8.2299   8.2318   8.3263   8.3885
     8.3935   8.4039   8.4214   8.5455   8.5844   8.6120   8.6268   8.6614
     8.6779   8.8851   8.9121   8.9709   8.9730   8.9816   9.0084   9.0243
     9.0381   9.0588   9.0834   9.1590   9.1915   9.2156   9.2524   9.2596
     9.2974   9.3083   9.3593   9.5366   9.5564   9.5690   9.5990   9.6122
     9.6254   9.6287   9.6389   9.6518   9.6915   9.8008   9.8058   9.8406
     9.8546  10.0249  10.0893  10.2084  10.2146

          k = 0.2500 0.0000 0.0000 (256240 PWs)   bands (ev):

   -21.4747 -15.6127 -15.2740 -15.2258 -14.6281 -14.2980 -14.2433 -14.1762
   -14.1638 -13.2158 -13.1988 -12.7015 -12.4359 -12.4167 -12.3745 -12.3243
   -11.5086 -11.4948 -11.3558 -11.3384 -10.5310 -10.0777 -10.0460 -10.0114
    -9.6821  -9.3692  -9.0998  -9.0862  -8.6705  -8.4316  -8.4097  -8.0049
    -6.9935  -6.9669  -6.9125  -6.8904  -6.8065  -6.7730  -6.2866  -5.9853
    -5.7687  -5.5490  -5.5129  -5.2719  -5.2425  -5.2285  -5.2113  -4.9899
    -4.9852  -4.8865  -4.5899  -4.5824  -4.4091  -4.1395  -4.0545  -3.9635
    -3.9261  -3.9017  -3.8580  -3.8295  -3.7308  -3.6910  -3.6772  -3.6745
    -3.6670  -3.5156  -3.5142  -3.2822  -3.1425  -3.1360  -3.1042  -3.0732
    -3.0609  -2.9486  -2.9432  -2.8713  -2.8661  -2.7971  -2.7856  -2.7669
    -2.7621  -2.7541  -2.6107  -2.5900  -2.5835  -2.5445  -2.4822  -2.4808
    -2.3856  -2.3606  -2.2778  -2.1525  -2.0820  -2.0618  -1.9929  -1.9915
    -1.9093  -1.7847  -1.7828  -1.7737  -1.7710  -1.7638  -1.7619  -1.7357
    -1.6241  -1.6030  -1.5497  -1.4936  -1.4896  -1.4874  -1.4846  -1.4833
    -1.4830  -1.4804  -1.4660  -1.4610  -1.4572  -1.4448  -1.4404  -1.4282
    -1.3728  -1.3200  -1.3178  -1.3076  -1.2641  -1.2583  -1.2571  -1.2551
    -1.2460  -1.2440  -1.2334  -1.2250  -1.1921  -1.1888  -1.1845  -1.1832
    -1.1489  -1.0917  -1.0814  -1.0563  -1.0080  -1.0047  -1.0020  -0.9913
    -0.9538  -0.9389  -0.9339  -0.9307  -0.9267  -0.9225  -0.9054  -0.8893
    -0.8865  -0.8753  -0.8731  -0.8693  -0.8624  -0.8572  -0.8291  -0.8239
    -0.8231  -0.8201  -0.8023  -0.7967  -0.7882  -0.7872  -0.7800  -0.7756
    -0.7409  -0.7316  -0.7116  -0.7061  -0.7017  -0.6986  -0.6956  -0.6938
    -0.6915  -0.6872  -0.6865  -0.6852  -0.6839  -0.6662  -0.6641  -0.6587
    -0.6548  -0.6499  -0.6472  -0.6440  -0.6394  -0.6264  -0.5891  -0.5655
    -0.5594  -0.5388  -0.5348  -0.5085  -0.5022  -0.4976  -0.4941  -0.4727
    -0.4660  -0.4628  -0.4567  -0.4509  -0.4306  -0.4272  -0.4222  -0.4100
    -0.4069  -0.4008  -0.3932  -0.3890  -0.3612  -0.2959  -0.2918  -0.2690
    -0.2648  -0.2576  -0.2543  -0.2528  -0.2434  -0.2390  -0.2379  -0.2350
    -0.2157  -0.2128  -0.2099  -0.2085  -0.1921  -0.1822  -0.1714  -0.1694
    -0.1667  -0.1660  -0.1641  -0.1590  -0.1568  -0.1557  -0.1461  -0.1422
    -0.1028  -0.0978  -0.0958  -0.0810  -0.0761  -0.0757  -0.0718  -0.0568
    -0.0541  -0.0504  -0.0403  -0.0366  -0.0343  -0.0328  -0.0307  -0.0164
     0.0025   0.0058   0.0082   0.0190   0.0201   0.0247   0.0304   0.0317
     0.0458   0.0502   0.0549   0.0587   0.0621   0.0707   0.0812   0.1002
     0.1145   0.1175   0.1194   0.1213   0.1308   0.1369   0.1381   0.1416
     0.1447   0.1462   0.1589   0.1707   0.1826   0.1848   0.1947   0.1960
     0.2018   0.2046   0.2172   0.2227   0.2298   0.2458   0.2603   0.2649
     0.2695   0.2716   0.2839   0.2862   0.2879   0.2896   0.3027   0.3039
     0.3094   0.3100   0.3239   0.3289   0.3306   0.3339   0.3348   0.3371
     0.3461   0.3471   0.3503   0.3516   0.3588   0.3607   0.3654   0.3781
     0.3889   0.3928   0.4057   0.4067   0.4141   0.4187   0.4274   0.4316
     0.4335   0.4382   0.4413   0.4508   0.4524   0.4553   0.4606   0.4685
     0.4838   0.4865   0.5149   0.5338   0.5370   0.5557   0.5582   0.5686
     0.5827   0.5892   0.5925   0.5938   0.5953   0.5972   0.6003   0.6020
     0.6058   0.6074   0.6126   0.6233   0.6357   0.6412   0.6420   0.6451
     0.6486   0.6602   0.6634   0.6803   0.6854   0.6897   0.6929   0.6944
     0.6960   0.7178   0.7193   0.7387   0.7440   0.7505   0.7556   0.7634
     0.7651   0.7705   0.7724   0.7772   0.7802   0.7869   0.7927   0.7981
     0.8055   0.8079   0.8116   0.8142   0.8163   0.8187   0.8193   0.8244
     0.8367   0.8504   0.8572   0.8625   0.8656   0.8698   0.8719   0.8769
     0.8781   0.8819   0.8916   0.8939   0.8974   0.9045   0.9065   0.9086
     0.9114   0.9194   0.9261   0.9317   0.9346   0.9411   0.9428   0.9462
     0.9479   0.9559   0.9599   0.9648   0.9667   0.9708   0.9774   0.9799
     0.9818   1.0075   1.0117   1.0145   1.0244   1.0362   1.0434   1.0524
     1.0533   1.0633   1.0651   1.0685   1.0697   1.0724   1.0765   1.0787
     1.0901   1.0943   1.0971   1.1043   1.1057   1.1314   1.1341   1.1393
     1.1435   1.1484   1.1555   1.1578   1.1624   1.1636   1.1710   1.1813
     1.1866   1.1880   1.1912   1.1930   1.1952   1.1985   1.2020   1.2094
     1.2115   1.2184   1.2249   1.2262   1.2329   1.2420   1.2473   1.2621
     1.2644   1.2775   1.2803   1.2906   1.2937   1.2969   1.3039   1.3115
     1.3157   1.3168   1.3191   1.3212   1.3229   1.3268   1.3278   1.3322
     1.3358   1.3381   1.3420   1.3494   1.3508   1.3536   1.3566   1.3589
     1.3614   1.3636   1.3677   1.3722   1.3740   1.3812   1.3828   1.3918
     1.3925   1.3966   1.3980   1.4051   1.4171   1.4181   1.4213   1.4232
     1.4255   1.4280   1.4305   1.4314   1.4340   1.4362   1.4390   1.4412
     1.4472   1.4632   1.4659   1.4677   1.4718   1.4776   1.4943   1.4971
     1.4984   1.4997   1.5026   1.5138   1.5201   1.5233   1.5283   1.5369
     1.5566   1.5578   1.5593   1.5609   1.5622   1.5647   1.5688   1.5701
     1.5776   1.5805   1.5865   1.5888   1.5940   1.5950   1.5970   1.6046
     1.6063   1.6088   1.6134   1.6161   1.6213   1.6244   1.6272   1.6279
     1.6307   1.6325   1.6350   1.6361   1.6471   1.6478   1.6522   1.6557
     1.6585   1.6610   1.6684   1.6802   1.6853   1.6868   1.6987   1.7027
     1.7170   1.7184   1.7208   1.7216   1.7268   1.7276   1.7349   1.7375
     1.7386   1.7392   1.7429   1.7438   1.7529   1.7535   1.7561   1.7564
     1.7616   1.7657   1.7680   1.7695   1.7821   1.7834   1.7852   1.7875
     1.7901   1.7911   1.7953   1.7974   1.8072   1.8101   1.8116   1.8129
     1.8257   1.8309   1.8537   1.8608   1.8735   1.8855   1.8990   1.9248
     1.9274   1.9309   1.9336   1.9397   1.9862   2.0164   2.0235   2.0487
     2.0682   2.0705   2.0981   2.1208   2.1392   2.3246   2.3295   2.3375
     2.3393   2.3503   2.3533   2.4301   2.4542   2.4695   2.5327   2.5894
     2.8465   2.8553   2.8576   2.8693   3.2136   3.2782   3.2785   3.4646
     3.4997   3.5056   3.5171   3.5185   3.5260   3.5832   3.7108   3.7866
     3.8031   3.9110   3.9222   3.9726   3.9799   3.9855   4.0208   4.0732
     4.1189   4.1388   4.2020   4.2063   4.2587   4.3749   4.5505   4.5874
     4.6164   4.7840   4.8379   4.9823   5.0419   5.1132   5.1257   5.1773
     5.2544   5.4922   5.4944   5.5268   5.5335   5.6611   5.6708   5.6810
     5.7094   5.7366   5.7865   5.8143   5.8334   5.8892   5.9101   5.9275
     5.9463   6.0178   6.0851   6.2473   6.2988   6.3051   6.3181   6.3345
     6.4091   6.7269   6.8682   6.9106   6.9203   6.9731   7.0388   7.0478
     7.1706   7.2224   7.2593   7.2990   7.3053   7.3196   7.3307   7.3539
     7.3700   7.3888   7.4121   7.4373   7.4573   7.5130   7.5732   7.6716
     7.7705   7.8109   7.8369   7.8492   7.9113   8.0046   8.0792   8.1077
     8.1563   8.2279   8.2500   8.2819   8.3461   8.3589   8.3742   8.4706
     8.5297   8.5365   8.5605   8.6209   8.7191   8.7280   8.7393   8.7695
     8.8222   8.9195   8.9382   8.9664   9.1482   9.2135   9.2508   9.3233
     9.3384   9.4018   9.4065   9.4354   9.4619   9.4841   9.4949   9.4960
     9.5089   9.5328   9.5557   9.5800   9.5887   9.6219   9.6721   9.7546
     9.7797   9.8227   9.9817   9.9910   9.9975

          k = 0.2500-0.2165 0.0000 (256316 PWs)   bands (ev):

   -21.4747 -15.5245 -15.5200 -14.8113 -14.7861 -14.5386 -14.5371 -13.8368
   -13.8101 -13.3796 -13.3720 -12.6197 -12.6087 -12.4312 -12.4241 -11.9414
   -11.9114 -11.3536 -11.3432 -10.6602 -10.6581 -10.4706 -10.4610  -9.9837
    -9.9669  -8.9567  -8.9301  -8.5238  -8.5155  -8.4279  -8.4146  -7.8582
    -7.8416  -7.7244  -7.7118  -6.1215  -6.0562  -6.0200  -5.9552  -5.8487
    -5.7935  -5.7326  -5.6540  -5.5810  -5.4127  -5.3857  -5.3784  -5.3753
    -4.9094  -4.4876  -4.4796  -4.3496  -4.3476  -4.3056  -4.2612  -4.2520
    -4.2383  -4.0256  -4.0169  -3.9700  -3.7150  -3.5874  -3.5818  -3.5707
    -3.5582  -3.4133  -3.3292  -3.3158  -3.1372  -3.1351  -3.0554  -3.0466
    -3.0427  -3.0099  -2.9559  -2.9445  -2.8211  -2.7226  -2.6728  -2.6544
    -2.6433  -2.6250  -2.5874  -2.5858  -2.5652  -2.4062  -2.3771  -2.3707
    -2.3564  -2.3509  -2.3432  -2.3081  -2.0516  -2.0421  -2.0007  -1.9922
    -1.9213  -1.9088  -1.8578  -1.8573  -1.8446  -1.8342  -1.8102  -1.7258
    -1.6932  -1.6923  -1.6711  -1.6241  -1.5344  -1.5195  -1.5012  -1.5005
    -1.4883  -1.4422  -1.4066  -1.3944  -1.3935  -1.3906  -1.3755  -1.3673
    -1.3657  -1.3650  -1.3604  -1.3566  -1.3531  -1.3508  -1.3497  -1.3325
    -1.2746  -1.2511  -1.2339  -1.1503  -1.1467  -1.1387  -1.0935  -1.0912
    -1.0727  -1.0408  -1.0193  -1.0117  -0.9751  -0.9710  -0.9679  -0.9593
    -0.9523  -0.9499  -0.9373  -0.9359  -0.9309  -0.9279  -0.9248  -0.9236
    -0.9155  -0.9094  -0.8989  -0.8959  -0.8934  -0.8823  -0.8592  -0.8559
    -0.8526  -0.8481  -0.8299  -0.8237  -0.8224  -0.7973  -0.7934  -0.7908
    -0.7899  -0.7627  -0.7462  -0.7289  -0.7268  -0.7087  -0.7077  -0.7054
    -0.6871  -0.6853  -0.6674  -0.6629  -0.6561  -0.6517  -0.6463  -0.6440
    -0.6372  -0.6359  -0.6281  -0.6180  -0.6106  -0.6041  -0.6022  -0.5969
    -0.5785  -0.5477  -0.5466  -0.5322  -0.5224  -0.4935  -0.4870  -0.4462
    -0.4385  -0.4349  -0.4311  -0.4051  -0.4024  -0.3978  -0.3953  -0.3896
    -0.3861  -0.3792  -0.3759  -0.3641  -0.3252  -0.3218  -0.3002  -0.2991
    -0.2845  -0.2806  -0.2655  -0.2546  -0.2542  -0.2323  -0.2296  -0.2278
    -0.2241  -0.2156  -0.2044  -0.1906  -0.1889  -0.1867  -0.1843  -0.1752
    -0.1712  -0.1705  -0.1524  -0.1425  -0.1194  -0.1185  -0.1034  -0.1025
    -0.0981  -0.0926  -0.0894  -0.0858  -0.0838  -0.0663  -0.0638  -0.0613
    -0.0587  -0.0541  -0.0516  -0.0491  -0.0430  -0.0340  -0.0247  -0.0232
    -0.0190  -0.0041  -0.0016   0.0030   0.0101   0.0217   0.0301   0.0385
     0.0435   0.0478   0.0661   0.0684   0.0699   0.0723   0.0760   0.0855
     0.1070   0.1117   0.1216   0.1224   0.1255   0.1314   0.1355   0.1373
     0.1638   0.1697   0.1789   0.2038   0.2053   0.2071   0.2101   0.2137
     0.2164   0.2185   0.2288   0.2300   0.2412   0.2456   0.2512   0.2615
     0.2640   0.2703   0.2747   0.2902   0.2957   0.2968   0.3014   0.3031
     0.3057   0.3069   0.3126   0.3167   0.3180   0.3225   0.3235   0.3255
     0.3281   0.3422   0.3441   0.3483   0.3517   0.3576   0.3734   0.3790
     0.3851   0.3869   0.3980   0.4061   0.4098   0.4128   0.4277   0.4373
     0.4405   0.4548   0.4570   0.4586   0.4639   0.4699   0.4740   0.4805
     0.4825   0.4864   0.4908   0.4923   0.4975   0.5277   0.5377   0.5480
     0.5515   0.5722   0.5806   0.5878   0.5943   0.5982   0.6030   0.6071
     0.6126   0.6222   0.6290   0.6340   0.6354   0.6473   0.6483   0.6548
     0.6588   0.6600   0.6635   0.6705   0.6845   0.6876   0.6914   0.6967
     0.7024   0.7062   0.7108   0.7160   0.7232   0.7276   0.7358   0.7397
     0.7429   0.7461   0.7552   0.7696   0.7757   0.7820   0.7885   0.7956
     0.8017   0.8059   0.8111   0.8141   0.8191   0.8232   0.8257   0.8274
     0.8359   0.8449   0.8465   0.8608   0.8833   0.8950   0.8974   0.8979
     0.9018   0.9052   0.9069   0.9164   0.9180   0.9239   0.9254   0.9267
     0.9294   0.9383   0.9415   0.9548   0.9606   0.9618   0.9647   0.9700
     0.9729   0.9750   0.9797   0.9814   0.9849   0.9906   0.9940   0.9978
     1.0027   1.0063   1.0096   1.0108   1.0142   1.0183   1.0190   1.0227
     1.0258   1.0290   1.0396   1.0467   1.0563   1.0594   1.0627   1.0663
     1.0692   1.0699   1.0755   1.1078   1.1181   1.1308   1.1321   1.1351
     1.1422   1.1454   1.1472   1.1491   1.1509   1.1517   1.1522   1.1618
     1.1628   1.1669   1.1678   1.1712   1.1725   1.1773   1.1872   1.1922
     1.1969   1.2108   1.2171   1.2187   1.2208   1.2227   1.2265   1.2322
     1.2373   1.2395   1.2407   1.2501   1.2571   1.2655   1.2763   1.2795
     1.2815   1.2833   1.3112   1.3209   1.3225   1.3237   1.3342   1.3542
     1.3572   1.3645   1.3709   1.3750   1.3876   1.3893   1.3904   1.3929
     1.3941   1.3947   1.3990   1.4022   1.4049   1.4065   1.4077   1.4103
     1.4121   1.4139   1.4188   1.4258   1.4307   1.4334   1.4415   1.4485
     1.4522   1.4560   1.4570   1.4594   1.4657   1.4670   1.4688   1.4767
     1.4803   1.4812   1.4833   1.4891   1.4929   1.4978   1.5001   1.5044
     1.5065   1.5088   1.5116   1.5132   1.5210   1.5241   1.5290   1.5299
     1.5339   1.5355   1.5389   1.5406   1.5456   1.5480   1.5523   1.5600
     1.5623   1.5645   1.5735   1.5742   1.5812   1.5884   1.5930   1.6004
     1.6029   1.6093   1.6132   1.6178   1.6217   1.6280   1.6317   1.6343
     1.6378   1.6409   1.6419   1.6485   1.6498   1.6623   1.6643   1.6692
     1.6697   1.6754   1.6765   1.6804   1.6820   1.6924   1.6933   1.6968
     1.6986   1.7141   1.7165   1.7202   1.7212   1.7218   1.7237   1.7253
     1.7276   1.7306   1.7317   1.7326   1.7377   1.7423   1.7438   1.7572
     1.7598   1.7611   1.7617   1.7632   1.7657   1.7670   1.7708   1.7866
     1.7872   1.7893   1.8081   1.8088   1.8142   1.8235   1.8257   1.8322
     1.8448   1.8504   1.8516   1.8585   1.8715   1.8869   1.8888   1.9318
     1.9382   1.9774   1.9923   1.9960   2.0205   2.0264   2.0295   2.0369
     2.0422   2.0521   2.0684   2.0765   2.0791   2.0844   2.1505   2.2979
     2.3769   2.4276   2.4289   2.4585   2.4617   2.5462   2.6022   2.8834
     2.8859   3.0156   3.0178   3.0611   3.0682   3.0828   3.0858   3.0978
     3.1080   3.2346   3.2834   3.2872   3.3559   3.7111   3.7427   3.8030
     3.8165   3.8424   3.9031   4.1274   4.1328   4.1371   4.1450   4.2696
     4.2744   4.3771   4.3924   4.4572   4.4589   4.6664   4.6705   4.7423
     4.7491   4.8285   4.8827   4.9291   4.9497   4.9595   5.0339   5.0465
     5.1352   5.2247   5.2493   5.3075   5.3593   5.4084   5.4815   5.5376
     5.5738   5.6053   5.7195   5.7270   5.7692   5.8238   5.9006   6.0335
     6.0514   6.0595   6.0668   6.0828   6.4402   6.4909   6.5291   6.6332
     6.6917   6.7505   6.8692   6.8901   6.9477   6.9542   6.9943   7.0075
     7.0859   7.1843   7.2229   7.2476   7.3007   7.3159   7.4142   7.4344
     7.5244   7.5389   7.5437   7.5776   7.6302   7.6801   7.6961   7.7054
     7.7204   7.7365   7.7564   7.8145   7.8561   7.9560   7.9976   8.0261
     8.0530   8.0983   8.2383   8.3077   8.3601   8.3698   8.4746   8.4810
     8.6339   8.6991   8.7341   8.7924   8.7958   8.8248   8.8360   8.8574
     8.8970   8.9606   8.9764   9.0296   9.0368   9.0516   9.1146   9.1423
     9.1455   9.2167   9.2963   9.3269   9.3740   9.3874   9.3968   9.4222
     9.4486   9.4888   9.5052   9.5307   9.5784   9.5947   9.6642   9.6660
     9.6825   9.7127   9.7489   9.7772   9.8158

          k =-0.5000 0.0000 0.0000 (256496 PWs)   bands (ev):

   -21.4746 -15.2525 -15.2326 -14.9247 -14.8855 -14.8580 -14.8535 -13.8343
   -13.8094 -13.7977 -13.7913 -12.1037 -12.0807 -12.0606 -12.0543 -11.4268
   -11.4227 -11.1357 -11.1302 -11.0709 -11.0692 -10.4761 -10.4729 -10.2307
   -10.1916  -9.4849  -9.4771  -9.0873  -9.0544  -8.3018  -8.2922  -8.2720
    -8.2657  -6.8884  -6.8704  -6.8184  -6.7775  -6.7590  -6.7569  -5.8092
    -5.2373  -5.2127  -4.9903  -4.9820  -4.9010  -4.4803  -4.4773  -4.4744
    -4.4721  -4.4386  -4.4221  -4.1450  -4.0927  -4.0764  -4.0710  -4.0549
    -4.0430  -4.0144  -4.0089  -3.9316  -3.9082  -3.8976  -3.7994  -3.7834
    -3.7798  -3.7674  -3.4748  -3.4649  -3.4526  -3.4450  -3.3123  -3.2749
    -3.0989  -3.0983  -3.0962  -3.0938  -2.9765  -2.8824  -2.8411  -2.8265
    -2.7967  -2.7589  -2.7369  -2.7307  -2.7273  -2.5963  -2.3548  -2.3453
    -2.3287  -2.3260  -2.3189  -2.3150  -2.1520  -2.1434  -2.1353  -2.1276
    -2.0555  -2.0458  -2.0380  -1.9899  -1.8328  -1.6712  -1.6246  -1.5702
    -1.5688  -1.5670  -1.5663  -1.5644  -1.5569  -1.5195  -1.4719  -1.4677
    -1.4633  -1.4021  -1.3374  -1.3371  -1.3331  -1.3319  -1.2941  -1.2911
    -1.2847  -1.2791  -1.2170  -1.2069  -1.1855  -1.1783  -1.1132  -1.1104
    -1.1054  -1.1029  -1.0987  -1.0977  -1.0546  -1.0472  -1.0459  -1.0400
    -1.0379  -1.0354  -1.0339  -1.0337  -1.0325  -1.0237  -1.0185  -1.0134
    -0.9876  -0.9859  -0.9816  -0.9745  -0.9536  -0.9529  -0.9506  -0.9484
    -0.9381  -0.9192  -0.9155  -0.9026  -0.8982  -0.8969  -0.8821  -0.8703
    -0.8649  -0.8629  -0.8620  -0.8554  -0.8544  -0.8473  -0.8226  -0.8174
    -0.8121  -0.8112  -0.7969  -0.7945  -0.7822  -0.7816  -0.7630  -0.7614
    -0.7540  -0.7537  -0.6930  -0.6906  -0.6747  -0.6713  -0.6689  -0.6651
    -0.6463  -0.6435  -0.6415  -0.6403  -0.6262  -0.6160  -0.6120  -0.6108
    -0.6025  -0.6001  -0.5995  -0.5986  -0.5715  -0.5710  -0.5098  -0.5079
    -0.5062  -0.5041  -0.4790  -0.4770  -0.4569  -0.4284  -0.3999  -0.3979
    -0.3945  -0.3937  -0.3690  -0.3573  -0.3517  -0.3507  -0.3487  -0.3449
    -0.3290  -0.3114  -0.3012  -0.2948  -0.2933  -0.2851  -0.2824  -0.2798
    -0.2792  -0.2730  -0.2674  -0.2652  -0.2644  -0.2577  -0.2413  -0.1418
    -0.1365  -0.1315  -0.1269  -0.1185  -0.1148  -0.1049  -0.1015  -0.0983
    -0.0977  -0.0970  -0.0930  -0.0911  -0.0787  -0.0660  -0.0586  -0.0563
    -0.0536  -0.0202  -0.0191  -0.0166  -0.0116  -0.0094  -0.0060   0.0070
     0.0106   0.0128   0.0144   0.0185   0.0189   0.0215   0.0265   0.0289
     0.0309   0.0593   0.0626   0.0715   0.0751   0.1008   0.1010   0.1046
     0.1068   0.1532   0.1559   0.1585   0.1589   0.1687   0.1694   0.1750
     0.1754   0.2152   0.2163   0.2277   0.2283   0.2416   0.2453   0.2565
     0.2670   0.2685   0.2705   0.2803   0.2820   0.2845   0.2870   0.2883
     0.2907   0.2950   0.2964   0.3040   0.3101   0.3288   0.3523   0.3630
     0.3645   0.3673   0.3737   0.3770   0.3821   0.3833   0.3850   0.3869
     0.3881   0.3901   0.3918   0.3950   0.3975   0.3988   0.4011   0.4040
     0.4076   0.4141   0.4180   0.4238   0.4300   0.4313   0.4328   0.4345
     0.4367   0.4390   0.4414   0.4484   0.4509   0.4569   0.4679   0.4695
     0.4743   0.4753   0.4935   0.4958   0.4989   0.5027   0.5029   0.5468
     0.5618   0.5759   0.5786   0.5849   0.5964   0.6051   0.6127   0.6155
     0.6266   0.6281   0.6323   0.6337   0.6382   0.6567   0.6588   0.6617
     0.6668   0.6704   0.6786   0.6898   0.6941   0.6971   0.6999   0.7024
     0.7068   0.7084   0.7126   0.7157   0.7184   0.7211   0.7239   0.7257
     0.7277   0.7772   0.7884   0.7927   0.8052   0.8056   0.8130   0.8157
     0.8215   0.8328   0.8364   0.8384   0.8400   0.8438   0.8468   0.8493
     0.8502   0.8551   0.8569   0.8586   0.8632   0.8642   0.8689   0.8721
     0.8741   0.8778   0.8786   0.8839   0.8849   0.8975   0.9026   0.9079
     0.9116   0.9188   0.9298   0.9345   0.9372   0.9437   0.9477   0.9502
     0.9522   0.9534   0.9563   0.9576   0.9623   0.9654   0.9674   0.9717
     0.9748   0.9760   0.9765   0.9819   0.9871   1.0026   1.0044   1.0241
     1.0313   1.0328   1.0378   1.0414   1.0443   1.0482   1.0532   1.0750
     1.0840   1.0905   1.0953   1.1009   1.1055   1.1115   1.1150   1.1223
     1.1301   1.1332   1.1337   1.1367   1.1375   1.1383   1.1437   1.1476
     1.1511   1.1547   1.1592   1.1688   1.1722   1.1733   1.1777   1.1836
     1.1842   1.1938   1.1949   1.1978   1.1981   1.2067   1.2111   1.2161
     1.2187   1.2190   1.2247   1.2266   1.2372   1.2408   1.2417   1.2465
     1.2533   1.3023   1.3138   1.3173   1.3187   1.3193   1.3224   1.3397
     1.3453   1.3497   1.3505   1.3634   1.3715   1.3724   1.3791   1.3798
     1.3865   1.3894   1.3995   1.4004   1.4124   1.4158   1.4169   1.4186
     1.4202   1.4212   1.4228   1.4244   1.4349   1.4367   1.4392   1.4414
     1.4428   1.4434   1.4445   1.4481   1.4567   1.4588   1.4609   1.4613
     1.4635   1.4668   1.4741   1.4766   1.4793   1.4892   1.5061   1.5131
     1.5147   1.5173   1.5185   1.5211   1.5291   1.5329   1.5353   1.5374
     1.5388   1.5404   1.5419   1.5465   1.5478   1.5487   1.5509   1.5540
     1.5596   1.5765   1.5954   1.5964   1.5980   1.5996   1.6017   1.6025
     1.6049   1.6056   1.6082   1.6128   1.6146   1.6172   1.6200   1.6232
     1.6326   1.6356   1.6370   1.6378   1.6379   1.6403   1.6428   1.6447
     1.6498   1.6503   1.6531   1.6584   1.6605   1.6620   1.6651   1.6695
     1.6711   1.6720   1.6756   1.6797   1.7050   1.7081   1.7083   1.7103
     1.7117   1.7127   1.7152   1.7182   1.7245   1.7368   1.7379   1.7393
     1.7406   1.7473   1.7491   1.7522   1.7535   1.7565   1.7664   1.7698
     1.7712   1.7778   1.7916   1.7942   1.7954   1.7965   1.7985   1.7993
     1.8037   1.8066   1.8087   1.8108   1.8150   1.8159   1.8220   1.8336
     1.8549   1.8601   1.8619   1.8734   1.8812   1.9069   1.9084   1.9140
     1.9140   1.9280   1.9356   2.2854   2.2867   2.2979   2.3031   2.4656
     2.4885   2.5230   2.5340   2.5908   2.5915   2.5948   2.5950   2.8012
     2.8109   2.8378   2.9217   3.1241   3.1277   3.1309   3.1353   3.4844
     3.4868   3.4918   3.4970   3.7498   3.7631   3.9505   3.9538   3.9677
     3.9781   4.1814   4.1961   4.1970   4.2166   4.2610   4.3142   4.3691
     4.3733   4.3802   4.3970   4.7969   4.8147   4.8320   4.9014   5.0347
     5.0421   5.1104   5.1211   5.1305   5.1428   5.2423   5.2571   5.2963
     5.3075   5.3150   5.3162   5.3304   5.3499   5.3514   5.3518   5.3632
     5.3901   5.6265   5.6694   5.6940   5.7120   5.7222   5.7636   5.7673
     5.8346   5.8656   5.8794   6.1322   6.1628   6.1867   6.2014   6.2402
     6.2615   6.2787   6.2914   6.3257   6.3618   6.4205   6.4332   6.4838
     6.6396   6.7014   6.8439   6.9924   7.0341   7.1080   7.2953   7.3056
     7.3106   7.3350   7.3489   7.3737   7.7074   7.7897   7.8009   7.8173
     7.8362   7.8550   7.8629   7.8711   7.9139   8.0633   8.0646   8.0885
     8.1345   8.1406   8.1501   8.1573   8.1679   8.1948   8.1991   8.2448
     8.2832   8.2940   8.3200   8.3479   8.4706   8.5673   8.5821   8.6113
     8.6699   8.7224   8.7695   9.0570   9.0605   9.0627   9.0654   9.2269
     9.2346   9.2379   9.2463   9.2501   9.2648   9.3086   9.3438   9.5578
     9.5684   9.5832   9.6414   9.6519   9.6694   9.7307   9.7396   9.7449
     9.7650   9.8077   9.8581   9.8779   9.8918

          k =-0.5000-0.2165 0.0000 (256328 PWs)   bands (ev):

   -21.4746 -15.1716 -15.1539 -15.1515 -15.1317 -14.4613 -14.4252 -14.4230
   -14.4135 -13.0420 -13.0256 -13.0038 -13.0020 -11.3578 -11.3499 -11.3352
   -11.3338 -11.0385 -11.0278 -11.0094 -10.9824 -10.7518 -10.7495 -10.7233
   -10.7202  -9.0810  -9.0735  -9.0652  -9.0632  -8.1900  -8.1634  -8.1405
    -8.1371  -7.4192  -7.4111  -7.4045  -7.3995  -5.8646  -5.3811  -5.3560
    -5.3498  -5.3301  -4.9183  -4.8577  -4.8518  -4.8499  -4.8397  -4.6900
    -4.6776  -4.6747  -4.6513  -4.3464  -4.3347  -4.3331  -4.3163  -3.9805
    -3.8772  -3.8740  -3.8712  -3.8689  -3.8143  -3.8083  -3.7706  -3.7655
    -3.5190  -3.5110  -3.5029  -3.4949  -3.2970  -3.2908  -3.2168  -3.1061
    -3.1022  -3.0844  -3.0787  -3.0483  -3.0241  -3.0072  -2.9650  -2.9426
    -2.9399  -2.9304  -2.9181  -2.8890  -2.5061  -2.3967  -2.3374  -2.2833
    -2.2729  -2.2623  -2.2619  -2.2612  -2.2601  -2.2279  -2.2258  -2.0929
    -1.7854  -1.7755  -1.7723  -1.7697  -1.7584  -1.7571  -1.7569  -1.7543
    -1.7479  -1.7406  -1.7353  -1.7101  -1.4996  -1.4877  -1.4871  -1.4803
    -1.4115  -1.4014  -1.3989  -1.3920  -1.2801  -1.2779  -1.2757  -1.2712
    -1.1945  -1.1890  -1.1850  -1.1835  -1.1823  -1.1801  -1.1649  -1.1545
    -1.1244  -1.1238  -1.1146  -1.1128  -1.0907  -1.0853  -1.0700  -1.0668
    -1.0643  -1.0611  -1.0588  -1.0571  -1.0458  -1.0421  -1.0411  -1.0382
    -1.0139  -0.9976  -0.9961  -0.9806  -0.9673  -0.9529  -0.9446  -0.9391
    -0.9214  -0.8942  -0.8908  -0.8751  -0.8689  -0.8583  -0.8494  -0.8417
    -0.8375  -0.8367  -0.8340  -0.8258  -0.8239  -0.8221  -0.8191  -0.8119
    -0.8073  -0.8046  -0.7988  -0.7973  -0.7875  -0.7642  -0.7620  -0.7512
    -0.7503  -0.7307  -0.7265  -0.7238  -0.7154  -0.7119  -0.7115  -0.7083
    -0.7070  -0.7054  -0.7006  -0.6076  -0.5591  -0.5577  -0.5531  -0.5465
    -0.5460  -0.5444  -0.5438  -0.5434  -0.5096  -0.4926  -0.4903  -0.4714
    -0.4664  -0.4636  -0.4603  -0.4588  -0.4536  -0.4450  -0.4407  -0.4382
    -0.4372  -0.4366  -0.4358  -0.4328  -0.3893  -0.3886  -0.3876  -0.3849
    -0.3836  -0.3726  -0.3672  -0.3602  -0.3577  -0.3529  -0.3108  -0.3071
    -0.2577  -0.2475  -0.2455  -0.2399  -0.2164  -0.2136  -0.2125  -0.2057
    -0.1872  -0.1852  -0.1791  -0.1778  -0.1388  -0.1377  -0.1336  -0.1330
    -0.1151  -0.1095  -0.1072  -0.1035  -0.0815  -0.0804  -0.0744  -0.0733
    -0.0699  -0.0596  -0.0583  -0.0478  -0.0007   0.0019   0.0090   0.0139
     0.0199   0.0209   0.0413   0.0451   0.0573   0.0578   0.0629   0.0670
     0.0675   0.0712   0.0746   0.0817   0.0989   0.1274   0.1293   0.1348
     0.1370   0.1397   0.1404   0.1462   0.1474   0.1639   0.1657   0.1686
     0.1707   0.1846   0.1852   0.1862   0.1870   0.2015   0.2027   0.2078
     0.2139   0.2211   0.2224   0.2310   0.2322   0.2635   0.2659   0.2831
     0.2890   0.2913   0.2928   0.3414   0.3443   0.3472   0.3555   0.3584
     0.3589   0.3593   0.3638   0.3740   0.3797   0.3841   0.3907   0.3932
     0.4017   0.4026   0.4075   0.4079   0.4108   0.4186   0.4198   0.4219
     0.4221   0.4239   0.4260   0.4294   0.4302   0.4327   0.4348   0.4359
     0.4365   0.4584   0.4604   0.4677   0.4792   0.4806   0.4839   0.4858
     0.4932   0.5002   0.5041   0.5095   0.5138   0.5235   0.5307   0.5378
     0.5444   0.5568   0.5599   0.5633   0.5699   0.5998   0.6040   0.6115
     0.6196   0.6239   0.6257   0.6585   0.6633   0.6694   0.6710   0.6825
     0.6910   0.7015   0.7018   0.7084   0.7108   0.7153   0.7177   0.7206
     0.7253   0.7471   0.7565   0.7629   0.7647   0.7681   0.7700   0.7729
     0.7745   0.7759   0.7762   0.7809   0.7813   0.7850   0.7860   0.7998
     0.8079   0.8097   0.8154   0.8184   0.8189   0.8208   0.8261   0.8429
     0.8453   0.8500   0.8602   0.8666   0.8694   0.8706   0.8751   0.8817
     0.8845   0.8854   0.8939   0.8950   0.9007   0.9091   0.9114   0.9251
     0.9265   0.9290   0.9323   0.9328   0.9369   0.9389   0.9411   0.9420
     0.9457   0.9497   0.9555   0.9772   0.9793   0.9853   0.9854   0.9875
     0.9937   0.9953   0.9990   1.0034   1.0043   1.0153   1.0228   1.0319
     1.0347   1.0371   1.0396   1.0418   1.0445   1.0453   1.0492   1.0508
     1.0574   1.0615   1.0705   1.0770   1.0861   1.0873   1.0899   1.0962
     1.1142   1.1185   1.1245   1.1305   1.1351   1.1468   1.1558   1.1568
     1.1635   1.1754   1.1774   1.1778   1.1790   1.1939   1.2084   1.2250
     1.2268   1.2341   1.2366   1.2404   1.2457   1.2611   1.2656   1.2714
     1.2747   1.2816   1.2820   1.2836   1.3013   1.3037   1.3042   1.3098
     1.3158   1.3185   1.3224   1.3255   1.3346   1.3369   1.3410   1.3420
     1.3443   1.3452   1.3462   1.3482   1.3510   1.3542   1.3571   1.3579
     1.3607   1.3633   1.3715   1.3734   1.3789   1.3805   1.3829   1.3865
     1.3897   1.3919   1.3941   1.3956   1.3989   1.4020   1.4089   1.4101
     1.4163   1.4221   1.4267   1.4287   1.4371   1.4403   1.4416   1.4431
     1.4462   1.4479   1.4510   1.4556   1.4966   1.4974   1.4994   1.4998
     1.5032   1.5082   1.5086   1.5123   1.5145   1.5163   1.5175   1.5250
[...]
     ewald contribution        =   40361.69614560 Ry
     Dispersion Correction     =      -2.79515951 Ry
     smearing contrib. (-TS)   =      -3.34929943 Ry

     convergence has been achieved in  15 iterations

     negative rho (up, down):  1.534E-03 0.000E+00

     Forces acting on atoms (Ry/au):

     atom    1 type  1   force =    -0.00006697    0.00012375    0.00090436
     atom    2 type  1   force =     0.00003679    0.00014365    0.00054582
     atom    3 type  1   force =     0.00004584   -0.00009241    0.00058052
     atom    4 type  1   force =     0.00002450   -0.00015102    0.00019261
     atom    5 type  1   force =     0.00013591   -0.00008977   -0.00009883
     atom    6 type  1   force =     0.00003241   -0.00007584   -0.00022753
     atom    7 type  1   force =    -0.00006713    0.00009313    0.00016795
     atom    8 type  1   force =     0.00004614   -0.00000020    0.00001947
     atom    9 type  1   force =     0.00009928   -0.00012560    0.00008107
     atom   10 type  1   force =     0.00015391   -0.00023730   -0.00000903
     atom   11 type  1   force =     0.00013140    0.00000411   -0.00024145
     atom   12 type  1   force =    -0.00014465   -0.00022480    0.00003640
     atom   13 type  1   force =     0.00004389   -0.00001504   -0.00009758
     atom   14 type  1   force =    -0.00014367   -0.00010681    0.00048673
     atom   15 type  1   force =    -0.00002395   -0.00044355    0.00048421
     atom   16 type  1   force =     0.00016667    0.00026815    0.00022299
     atom   17 type  1   force =    -0.00000090    0.00033556    0.00081116
     atom   18 type  1   force =    -0.00005792    0.00048728    0.00098265
     atom   19 type  1   force =    -0.00004321    0.00086298    0.00019664
     atom   20 type  1   force =    -0.00000976    0.00022325    0.00092681
     atom   21 type  1   force =     0.00008834   -0.00011393    0.00031880
     atom   22 type  1   force =     0.00004802    0.00003345    0.00055607
     atom   23 type  1   force =     0.00006979   -0.00025472    0.00015237
     atom   24 type  1   force =     0.00001914    0.00014671    0.00063538
     atom   25 type  1   force =     0.00032559    0.00004211    0.00026707
     atom   26 type  1   force =     0.00029889    0.00007976    0.00065118
     atom   27 type  1   force =     0.00001287    0.00010419    0.00065554
     atom   28 type  1   force =    -0.00013102   -0.00012841   -0.00016008
     atom   29 type  1   force =     0.00017668   -0.00040409    0.00002625
     atom   30 type  1   force =     0.00045923   -0.00027984    0.00054573
     atom   31 type  1   force =    -0.00000474   -0.00031360    0.00083821
     atom   32 type  1   force =     0.00020871   -0.00019179    0.00066685
     atom   33 type  1   force =     0.00009063    0.00055420    0.00016918
     atom   34 type  1   force =     0.00009449    0.00042295    0.00003638
     atom   35 type  1   force =    -0.00004025    0.00114628   -0.00085552
     atom   36 type  1   force =    -0.00010290    0.00051691   -0.00029630
     atom   37 type  1   force =    -0.00003559    0.00029917    0.00081014
     atom   38 type  1   force =    -0.00019213    0.00048460    0.00035136
     atom   39 type  1   force =     0.00003233    0.00039612    0.00084828
     atom   40 type  1   force =     0.00020452    0.00058003    0.00049630
     atom   41 type  1   force =     0.00013592    0.00002373    0.00055235
     atom   42 type  1   force =     0.00032266   -0.00051617   -0.00006123
     atom   43 type  1   force =     0.00017699    0.00047142    0.00073042
     atom   44 type  1   force =     0.00003785    0.00066658    0.00078184
     atom   45 type  1   force =    -0.00016485    0.00024423    0.00047291
     atom   46 type  1   force =     0.00086851   -0.00024163    0.00169457
     atom   47 type  1   force =     0.00055157    0.00229402    0.00310217
     atom   48 type  1   force =     0.00069144    0.00191527    0.00277740
     atom   49 type  1   force =    -0.00175491    0.00002818    0.00443405
     atom   50 type  1   force =     0.00151165    0.00090357    0.00166454
     atom   51 type  1   force =     0.00087364    0.00047616   -0.00138349
     atom   52 type  1   force =     0.00017926   -0.00068454    0.00256839
     atom   53 type  1   force =     0.00032851   -0.00024840    0.00089095
     atom   54 type  1   force =    -0.00022587   -0.00009113    0.00112341
     atom   55 type  1   force =    -0.00027887   -0.00384100    0.00492685
     atom   56 type  1   force =     0.00011685    0.00006532    0.00026773
     atom   57 type  1   force =     0.00004226    0.00078380   -0.00005560
     atom   58 type  1   force =     0.00025077    0.00007181    0.00049472
     atom   59 type  1   force =     0.00006936   -0.00006723    0.00053900
     atom   60 type  1   force =     0.00001112    0.00047048    0.00038471
     atom   61 type  1   force =     0.00004878   -0.00016157    0.00072672
     atom   62 type  1   force =     0.00053482    0.00036984    0.00033309
     atom   63 type  1   force =     0.00054520    0.00039554    0.00030384
     atom   64 type  1   force =     0.00018308    0.00041434    0.00040478
     atom   65 type  1   force =    -0.00093654    0.00217258   -0.00054913
     atom   66 type  1   force =     0.00170587   -0.00221883   -0.00316802
     atom   67 type  1   force =     0.00040375   -0.00329508   -0.00050819
     atom   68 type  1   force =    -0.00096411    0.00086047    0.00026388
     atom   69 type  1   force =    -0.00085932   -0.00263222   -0.00103310
     atom   70 type  1   force =    -0.00213819   -0.00008519   -0.00130385
     atom   71 type  1   force =     0.00054204    0.00364414   -0.00104671
     atom   72 type  1   force =     0.00154555    0.00023041   -0.00045402
     atom   73 type  1   force =     0.00017535    0.00004413    0.00076743
     atom   74 type  1   force =     0.00285526    0.00033037   -0.00168999
     atom   75 type  1   force =    -0.00021352   -0.00096283   -0.00035194
     atom   76 type  1   force =    -0.00107991   -0.00105553    0.00004759
     atom   77 type  1   force =     0.00029866    0.00005025    0.00033278
     atom   78 type  1   force =     0.00050853    0.00013339    0.00016504
     atom   79 type  1   force =     0.00010612    0.00035757    0.00020164
     atom   80 type  1   force =    -0.00051056    0.00005138    0.00031382
     atom   81 type  1   force =     0.00001416   -0.00014650    0.00054693
     atom   82 type  1   force =    -0.00014940    0.00019392    0.00077893
     atom   83 type  1   force =     0.00073805   -0.00022471    0.00031518
     atom   84 type  1   force =    -0.00040950   -0.00056356    0.00116844
     atom   85 type  1   force =    -0.00553069   -0.00424097    0.00064911
     atom   86 type  1   force =    -0.00102356   -0.00189709   -0.00837520
     atom   87 type  1   force =     0.00114909   -0.00064777    0.00064134
     atom   88 type  1   force =     0.00090924    0.00042969    0.00101232
     atom   89 type  1   force =     0.00129052    0.00059860   -0.00003944
     atom   90 type  1   force =    -0.00024490    0.00059671    0.00083900
     atom   91 type  1   force =    -0.00433032   -0.00292767    0.00828564
     atom   92 type  1   force =     0.00048397    0.00045077    0.00014984
     atom   93 type  1   force =     0.00003366   -0.00005523    0.00086276
     atom   94 type  1   force =     0.00037920    0.00102058    0.00035795
     atom   95 type  1   force =     0.00043704    0.00062554   -0.00018596
     atom   96 type  1   force =     0.00080254   -0.00084020    0.00024190
     atom   97 type  1   force =     0.00024468    0.00006282    0.00022048
     atom   98 type  1   force =     0.00041820    0.00030231    0.00022608
     atom   99 type  1   force =    -0.00000409    0.00056274    0.00009344
     atom  100 type  1   force =     0.00001807   -0.00007757    0.00003691
     atom  101 type  3   force =    -0.00083923    0.00034636   -0.00122992
     atom  102 type  3   force =    -0.00064043    0.00256429   -0.00250682
     atom  103 type  3   force =     0.00157827   -0.00058215   -0.00038761
     atom  104 type  3   force =     0.00054346    0.00149281   -0.00310461
     atom  105 type  3   force =    -0.00034552    0.00109662   -0.00123751
     atom  106 type  3   force =    -0.00142532   -0.00053804   -0.00205799
     atom  107 type  3   force =    -0.00225530   -0.00149793   -0.00207667
     atom  108 type  3   force =     0.00090581   -0.00038077    0.00314694
     atom  109 type  3   force =     0.00332610    0.00114996   -0.00537077
     atom  110 type  3   force =    -0.00110731    0.00011822   -0.00281930
     atom  111 type  3   force =    -0.00107060    0.00102389    0.00128543
     atom  112 type  3   force =     0.00085260    0.00097441   -0.00058416
     atom  113 type  3   force =    -0.00061443    0.00289012   -0.00047762
     atom  114 type  3   force =     0.00248346   -0.00107614    0.00153817
     atom  115 type  3   force =    -0.00025211    0.00025956   -0.00016232
     atom  116 type  3   force =    -0.00118236    0.00200356   -0.00118568
     atom  117 type  3   force =     0.00045842    0.00032950   -0.00120096
     atom  118 type  3   force =     0.00054979   -0.00094604   -0.00434449
     atom  119 type  3   force =    -0.00064221   -0.00205653    0.00582452
     atom  120 type  3   force =     0.00090721    0.00170028    0.00105986
     atom  121 type  3   force =    -0.00035225    0.00065623   -0.00245128
     atom  122 type  3   force =     0.00032934   -0.00076060   -0.00134930
     atom  123 type  3   force =     0.00040752    0.00055765   -0.00463628
     atom  124 type  3   force =    -0.00139329    0.00203389   -0.00277814
     atom  125 type  3   force =    -0.00055869    0.00217532    0.00191156
     atom  126 type  3   force =    -0.00007263   -0.00260410   -0.00302655
     atom  127 type  3   force =     0.00049888   -0.00295986    0.00162525
     atom  128 type  3   force =     0.00069447   -0.00037731   -0.00212389
     atom  129 type  3   force =     0.00018495    0.00143464   -0.00484509
     atom  130 type  3   force =    -0.00052033   -0.00167108    0.00054797
     atom  131 type  3   force =    -0.00089902   -0.00264006    0.00209624
     atom  132 type  3   force =     0.00021329    0.00133087    0.00726226
     atom  133 type  3   force =     0.00079088    0.00156043   -0.00214454
     atom  134 type  3   force =     0.00029499   -0.00038168   -0.00001795
     atom  135 type  3   force =    -0.00046897   -0.00229342   -0.00275369
     atom  136 type  3   force =    -0.00039233   -0.00064353   -0.00510110
     atom  137 type  3   force =    -0.00173316    0.00175689    0.00141750
     atom  138 type  3   force =     0.00251873   -0.00151302    0.00109149
     atom  139 type  3   force =     0.00141737   -0.00117582   -0.00181032
     atom  140 type  3   force =    -0.00351620    0.00133697    0.00039955
     atom  141 type  3   force =    -0.00014663   -0.00059916   -0.00445707
     atom  142 type  3   force =     0.00018042   -0.00141079    0.00039136
     atom  143 type  3   force =    -0.00099677    0.00025209   -0.00103622
     atom  144 type  3   force =     0.00299339    0.00100289    0.00176460
     atom  145 type  3   force =     0.00073701    0.00112821   -0.00366987
     atom  146 type  3   force =    -0.00351626   -0.00137831   -0.00114569
     atom  147 type  3   force =     0.00084444   -0.00147488   -0.00011637
     atom  148 type  3   force =     0.00100066    0.00140389    0.00283459
     atom  149 type  3   force =    -0.00366632   -0.00359282   -0.00501937
     atom  150 type  4   force =     0.00019432    0.00128482    0.00286669

     Total force =     0.032816     Total SCF correction =     0.000422

     number of scf cycles    =  24
     number of bfgs steps    =  21

     energy   old            =  -12741.9364222314 Ry
     energy   new            =  -12741.9375711478 Ry

     CASE: energy  _new < energy  _old

     new trust radius        =       0.0859030534 bohr
     new conv_thr            =       0.0000000100 Ry


ATOMIC_POSITIONS (angstrom)
Cu       0.005715123  -0.012736644   7.359142270
Cu       1.850227159   1.666070725   7.358345122
Cu       3.695500485  -0.016501099   7.353563478
Cu       5.539805089   1.670278728   7.363329569
Cu       0.006191564   3.368390018   7.367591336
Cu       1.851473444   5.089288353   7.377820778
Cu       3.695219032   3.370683551   7.371120198
Cu       5.538862959   5.088680549   7.377954259
Cu       0.004932508   6.818743516   7.379174006
Cu       1.850567684   8.548157728   7.373879538
Cu       3.695337858   6.817772646   7.382794882
Cu       5.539039728   8.547033932   7.375907768
Cu       0.005699009  10.267046897   7.364061106
Cu       1.850040937  11.971145381   7.352862450
Cu       3.695029727  10.267782518   7.363289300
Cu       5.539545958  11.972958460   7.352700108
Cu       0.007291690  13.662778059   7.348119676
Cu       1.849858068  15.349341139   7.354707955
Cu       3.693754665  13.663294583   7.348285337
Cu       5.540595038  15.343875746   7.346244811
Cu       0.007518125   1.666031698   9.218098133
Cu       1.848041214  -0.011556621   9.230850118
Cu       3.694638672   1.656101098   9.203512287
Cu       5.541822011  -0.024004154   9.215135798
Cu       0.008350473   5.078524315   9.180489278
Cu       1.849413209   3.357098139   9.191411804
Cu       3.696735093   5.083093511   9.190032318
Cu       5.543329214   3.358318579   9.195527463
Cu       0.006947608   8.556468802   9.181186440
Cu       1.853602443   6.818298031   9.181924475
Cu       3.694569530   8.554065664   9.186208501
Cu       5.539676186   6.817633032   9.185797905
Cu       0.005749410  11.984453801   9.195865103
Cu       1.847677710  10.278245967   9.186846390
Cu       3.695006013  11.991139173   9.186646719
Cu       5.542551114  10.282455478   9.182933528
Cu       0.008025348  15.344561036   9.216828859
Cu       1.849847445  13.670441758   9.204157923
Cu       3.692282188  15.345797772   9.214026416
Cu       5.539591008  13.672458887   9.204521078
Cu       0.012290763  -0.016958418  11.100456889
Cu       1.847449333   1.690759444  11.104323553
Cu       3.689122980  -0.016646066  11.094031687
Cu       5.546753766   1.659347921  11.067330860
Cu       0.016088320   3.374662480  11.051696257
Cu       1.855833699   5.073570241  11.004332983
Cu       3.695824486   3.348790297  11.019371162
Cu       5.554317794   5.073074203  10.998575930
Cu       0.024680022   6.812048794  10.985097547
Cu       1.847102941   8.557543273  11.000481340
Cu       3.697351328   6.818740399  11.000545176
Cu       5.547757718   8.568576695  10.987152369
Cu       0.008212806  10.286736948  11.022010203
Cu       1.847415595  11.993770510  11.049775022
Cu       3.693636200  10.309045999  10.994229553
Cu       5.542951136  11.993359822  11.050243631
Cu       0.004158854  13.670308442  11.085286748
Cu       1.849107167  15.340637701  11.100981075
Cu       3.695861402  13.671516032  11.083184084
Cu       5.539518306  15.346600573  11.099851206
Cu       0.028386961   1.699581186  12.944221830
Cu       1.852613633  -0.011885965  12.977986417
Cu       3.688441326   1.696172940  12.932967956
Cu       5.542298065   0.001841056  12.973476888
Cu       0.044340414   5.102005108  12.879600376
Cu       1.863954283   3.444442104  12.966189171
Cu       3.722033690   5.078318830  12.794061001
Cu       5.559274132   3.376153955  12.873707863
Cu       0.022728668   8.559401474  12.827853179
Cu       1.858078677   6.798937271  12.813086075
Cu       3.700796934   8.583936012  12.777074969
Cu       5.584730166   6.829668574  12.777690476
Cu       0.004636155  11.973866762  12.922189836
Cu       1.841048165  10.287465975  12.860574714
Cu       3.695628828  11.967178458  12.919497183
Cu       5.551267053  10.284622387  12.854821462
Cu       0.003291955  15.340698984  12.989387096
Cu       1.848881932  13.654661294  12.971204317
Cu       3.698281864  15.342315910  12.986234680
Cu       5.540853089  13.654692073  12.967747944
Cu       0.006113811   0.025058339  14.824714719
Cu       1.867895898   1.713044971  14.804625056
Cu       3.710888060   0.024205808  14.826648991
Cu       5.562944497   1.748493011  14.782306663
Cu       0.048156766   3.435649473  14.768706419
Cu       1.818595436   5.115776651  14.867964400
Cu       3.711707383   3.416444246  14.732890706
Cu       5.573838026   5.094211248  14.637410180
Cu      -0.034528233   6.849172201  14.663474812
Cu       1.835412881   8.551805288  14.588564383
Cu       3.800543098   6.856651697  14.431101363
Cu       5.570574033   8.577334068  14.632192629
Cu       0.020803650  10.243870370  14.729930919
Cu       1.860008106  11.923855281  14.788308457
Cu       3.689373094  10.219370824  14.702231093
Cu       5.528613509  11.920197279  14.785895813
Cu       0.004417470  13.617353312  14.834033534
Cu       1.850216702  15.341087289  14.846618115
Cu       3.695830576  13.626374364  14.824758052
Cu       5.543980593  15.340708652  14.842238123
C        0.000029958   0.741206246  18.228398178
C        0.000342507   2.148470408  18.502375648
C        1.230300873   0.029373467  18.117090496
C        1.229926413   2.855295279  18.646343595
C        2.459425094   0.743282071  18.223756398
C        2.460117672   2.154391650  18.483354401
C        3.689085808   0.029391520  18.121053505
C        3.688645357   2.864324664  18.616383735
C        4.918930954   0.742121608  18.234298676
C        4.917750436   2.154470297  18.485087289
C        6.147639628   0.028480415  18.121065520
C        6.147786840   2.854762934  18.645012779
C       -0.001427179   4.971116356  19.018973997
C       -0.001369178   6.398746008  19.142037315
C        1.230363131   4.262214637  18.922551990
C        1.229507853   7.116944226  19.188099468
C        2.457717673   4.973554431  19.073578861
C        2.456684639   6.397119169  19.254261311
C        3.687167149   4.267243695  18.922562078
C        3.688917754   7.122259499  19.273060119
C        4.917451298   4.974798072  19.050570981
C        4.916747162   6.399707100  19.211002604
C        6.146679371   4.262228452  18.918750336
C        6.147763396   7.117642132  19.163258959
C        0.000523993   9.250331970  18.901707935
C        0.000854162  10.658234387  18.631763496
C        1.230993566   8.543504354  19.043967711
C        1.230517094  11.362941636  18.489115784
C        2.460850509   9.256624254  18.958103131
C        2.460607329  10.656921669  18.643981031
C        3.689644635   8.549207790  19.112212837
C        3.689597529  11.357779339  18.473716178
C        4.917500179   9.256754904  18.952777877
C        4.917851770  10.656385741  18.643786172
C        6.149381873   8.544773342  19.041217771
C        6.148337354  11.363796311  18.493991707
C        0.000003252  13.485165866  18.105483535
C       -0.000011407  14.915848783  17.988346204
C        1.230647082  12.772348990  18.223722393
C        1.230373797  15.637694847  17.995888042
C        2.460320434  13.485107884  18.122906476
C        2.460432664  14.915496389  18.006335539
C        3.688920686  12.768558926  18.214015194
C        3.689122652  15.638048619  18.008628396
C        4.918440231  13.484357570  18.120496008
C        4.918122880  14.915407683  18.005036956
C        6.147360260  12.772039816  18.223465520
C        6.147691893  15.638032983  17.992314136
C        2.749351519   6.176676895  16.067526484
O        3.315018768   6.933069481  16.804019538



     Writing output data file gc.save
     Check: negative starting charge=   -0.001507
     NEW-OLD atomic charge density approx. for the potential
     Check: negative starting charge=   -0.001512

     negative rho (up, down):  1.566E-03 0.000E+00

     total cpu time spent up to now is   172226.2 secs

     Self-consistent Calculation

     iteration #  1     ecut=    80.00 Ry     beta=0.70
     Davidson diagonalization with overlap
     c_bands:  1 eigenvalues not converged
