
     Program PWSCF v.5.4.0 starts on 15Nov2016 at 10:59:49 

     This program is part of the open-source Quantum ESPRESSO suite
     for quantum simulation of materials; please cite
         "P. Giannozzi et al., J. Phys.:Condens. Matter 21 395502 (2009);
          URL http://www.quantum-espresso.org", 
     in publications or presentations arising from this work. More details at
     http://www.quantum-espresso.org/quote

     Parallel version (MPI & OpenMP), running on      64 processor cores
     Number of MPI processes:                64
     Threads/MPI process:                     1
     R & G space division:  proc/nbgrp/npool/nimage =      64
     Waiting for input...
     Reading input from standard input

     Current dimensions of program PWSCF are:
     Max number of different atomic species (ntypx) = 10
     Max number of k-points (npk) =  40000
     Max angular momentum in pseudopotentials (lmaxx) =  3

     -------------------------------------
     Parameters for Dispersion Correction:
     -------------------------------------
       atom      VdW radius       C_6     

        Cu         2.952        374.666
        C          2.744         60.710

     Subspace diagonalization in iterative solution of the eigenvalue problem:
     one sub-group per band group will be used
     scalapack distributed-memory algorithm (size of sub-group:  5*  5 procs)

 
     Parallelization info
     --------------------
     sticks:   dense  smooth     PW     G-vecs:    dense   smooth      PW
     Min         127     113     30                17167    14384    1964
     Max         128     114     31                17180    14406    1969
     Sum        8173    7269   1931              1099045   921191  125855
 


     bravais-lattice index     =            0
     lattice parameter (alat)  =      27.5793  a.u.
     unit-cell volume          =   26950.5233 (a.u.)^3
     number of atoms/cell      =          180
     number of atomic types    =            2
     number of electrons       =      1560.00
     number of Kohn-Sham states=          936
     kinetic-energy cutoff     =      40.0000  Ry
     charge density cutoff     =     180.0000  Ry
     convergence threshold     =      1.0E-08
     mixing beta               =       0.7000
     number of iterations used =            8  plain     mixing
     Exchange-correlation      =  SLA  PW   PBX  PBC ( 1  4  3  4 0 0)
     nstep                     =           50


     celldm(1)=  27.579319  celldm(2)=   0.000000  celldm(3)=   0.000000
     celldm(4)=   0.000000  celldm(5)=   0.000000  celldm(6)=   0.000000

     crystal axes: (cart. coord. in units of alat)
               a(1) = (   1.000000   0.000000   0.000000 )  
               a(2) = (   0.000000   0.750000   0.000000 )  
               a(3) = (   0.000000   0.000000   1.712992 )  

     reciprocal axes: (cart. coord. in units 2 pi/alat)
               b(1) = (  1.000000  0.000000  0.000000 )  
               b(2) = (  0.000000  1.333333  0.000000 )  
               b(3) = (  0.000000  0.000000  0.583774 )  


     PseudoPot. # 1 for Cu read from file:
     /home/549/hxw549/Short/pseudopotentials/Cu.pbe-n-van_ak.UPF
     MD5 check sum: 601f7c30f7467666bec936e0661ce3e1
     Pseudo is Ultrasoft + core correction, Zval = 11.0
     Generated by new atomic code, or converted to UPF format
     Using radial grid of  867 points,  6 beta functions with: 
                l(1) =   0
                l(2) =   0
                l(3) =   1
                l(4) =   1
                l(5) =   2
                l(6) =   2
     Q(r) pseudized with  8 coefficients,  rinner =    1.400   1.400   1.400
                                                       1.400   1.400

     PseudoPot. # 2 for C  read from file:
     /home/549/hxw549/Short/pseudopotentials/C.pbe-mt_gipaw.UPF
     MD5 check sum: 5ac2f21f2c440b14befe521540822c15
     Pseudo is Norm-conserving, Zval =  4.0
     Generated by new atomic code, or converted to UPF format
     Using radial grid of 1073 points,  1 beta functions with: 
                l(1) =   0

     atomic species   valence    mass     pseudopotential
        Cu            11.00    63.54600     Cu( 1.00)
        C              4.00    12.01070     C ( 1.00)

     No symmetry found



   Cartesian axes

     site n.     atom                  positions (alat units)
         1           Cu  tau(   1) = (   0.0000000   0.0000000   0.5238513  )
         2           Cu  tau(   2) = (   0.0000000   0.2500000   0.5238513  )
         3           Cu  tau(   3) = (   0.0000000   0.5000000   0.5238513  )
         4           Cu  tau(   4) = (   0.2500000   0.0000000   0.5238513  )
         5           Cu  tau(   5) = (   0.2500000   0.2500000   0.5238513  )
         6           Cu  tau(   6) = (   0.2500000   0.5000000   0.5238513  )
         7           Cu  tau(   7) = (   0.5000000   0.0000000   0.5238513  )
         8           Cu  tau(   8) = (   0.5000000   0.2500000   0.5238513  )
         9           Cu  tau(   9) = (   0.5000000   0.5000000   0.5238513  )
        10           Cu  tau(  10) = (   0.7500000   0.0000000   0.5238513  )
        11           Cu  tau(  11) = (   0.7500000   0.2500000   0.5238513  )
        12           Cu  tau(  12) = (   0.7500000   0.5000000   0.5238513  )
        13           Cu  tau(  13) = (   0.1250000   0.1250000   0.5238513  )
        14           Cu  tau(  14) = (   0.1250000   0.3750000   0.5238513  )
        15           Cu  tau(  15) = (   0.1250000   0.6250000   0.5238513  )
        16           Cu  tau(  16) = (   0.3750000   0.1250000   0.5238513  )
        17           Cu  tau(  17) = (   0.3750000   0.3750000   0.5238513  )
        18           Cu  tau(  18) = (   0.3750000   0.6250000   0.5238513  )
        19           Cu  tau(  19) = (   0.6250000   0.1250000   0.5238513  )
        20           Cu  tau(  20) = (   0.6250000   0.3750000   0.5238513  )
        21           Cu  tau(  21) = (   0.6250000   0.6250000   0.5238513  )
        22           Cu  tau(  22) = (   0.8750000   0.1250000   0.5238513  )
        23           Cu  tau(  23) = (   0.8750000   0.3750000   0.5238513  )
        24           Cu  tau(  24) = (   0.8750000   0.6250000   0.5238513  )
        25           Cu  tau(  25) = (   0.0000000   0.1250000   0.6455756  )
        26           Cu  tau(  26) = (   0.0000000   0.3750000   0.6455756  )
        27           Cu  tau(  27) = (   0.0000000   0.6250000   0.6455756  )
        28           Cu  tau(  28) = (   0.2500000   0.1250000   0.6455756  )
        29           Cu  tau(  29) = (   0.2500000   0.3750000   0.6455756  )
        30           Cu  tau(  30) = (   0.2500000   0.6250000   0.6455756  )
        31           Cu  tau(  31) = (   0.5000000   0.1250000   0.6455756  )
        32           Cu  tau(  32) = (   0.5000000   0.3750000   0.6455756  )
        33           Cu  tau(  33) = (   0.5000000   0.6250000   0.6455756  )
        34           Cu  tau(  34) = (   0.7500000   0.1250000   0.6455756  )
        35           Cu  tau(  35) = (   0.7500000   0.3750000   0.6455756  )
        36           Cu  tau(  36) = (   0.7500000   0.6250000   0.6455756  )
        37           Cu  tau(  37) = (   0.1250000   0.0000000   0.6455756  )
        38           Cu  tau(  38) = (   0.1250000   0.2500000   0.6455756  )
        39           Cu  tau(  39) = (   0.1250000   0.5000000   0.6455756  )
        40           Cu  tau(  40) = (   0.3750000   0.0000000   0.6455756  )
        41           Cu  tau(  41) = (   0.3750000   0.2500000   0.6455756  )
        42           Cu  tau(  42) = (   0.3750000   0.5000000   0.6455756  )
        43           Cu  tau(  43) = (   0.6250000   0.0000000   0.6455756  )
        44           Cu  tau(  44) = (   0.6250000   0.2500000   0.6455756  )
        45           Cu  tau(  45) = (   0.6250000   0.5000000   0.6455756  )
        46           Cu  tau(  46) = (   0.8750000   0.0000000   0.6455756  )
        47           Cu  tau(  47) = (   0.8750000   0.2500000   0.6455756  )
        48           Cu  tau(  48) = (   0.8750000   0.5000000   0.6455756  )
        49           Cu  tau(  49) = (   0.0000000   0.0000000   0.7708464  )
        50           Cu  tau(  50) = (   0.0000000   0.2500000   0.7708464  )
        51           Cu  tau(  51) = (   0.0000000   0.5000000   0.7708464  )
        52           Cu  tau(  52) = (   0.2500000   0.0000000   0.7708464  )
        53           Cu  tau(  53) = (   0.2500000   0.2500000   0.7708464  )
        54           Cu  tau(  54) = (   0.2500000   0.5000000   0.7708464  )
        55           Cu  tau(  55) = (   0.5000000   0.0000000   0.7708464  )
        56           Cu  tau(  56) = (   0.5000000   0.2500000   0.7708464  )
        57           Cu  tau(  57) = (   0.5000000   0.5000000   0.7708464  )
        58           Cu  tau(  58) = (   0.7500000   0.0000000   0.7708464  )
        59           Cu  tau(  59) = (   0.7500000   0.2500000   0.7708464  )
        60           Cu  tau(  60) = (   0.7500000   0.5000000   0.7708464  )
        61           Cu  tau(  61) = (   0.1250000   0.1250000   0.7708464  )
        62           Cu  tau(  62) = (   0.1250000   0.3750000   0.7708464  )
        63           Cu  tau(  63) = (   0.1250000   0.6250000   0.7708464  )
        64           Cu  tau(  64) = (   0.3750000   0.1250000   0.7708464  )
        65           Cu  tau(  65) = (   0.3750000   0.3750000   0.7708464  )
        66           Cu  tau(  66) = (   0.3750000   0.6250000   0.7708464  )
        67           Cu  tau(  67) = (   0.6250000   0.1250000   0.7708464  )
        68           Cu  tau(  68) = (   0.6250000   0.3750000   0.7708464  )
        69           Cu  tau(  69) = (   0.6250000   0.6250000   0.7708464  )
        70           Cu  tau(  70) = (   0.8750000   0.1250000   0.7708464  )
        71           Cu  tau(  71) = (   0.8750000   0.3750000   0.7708464  )
        72           Cu  tau(  72) = (   0.8750000   0.6250000   0.7708464  )
        73           Cu  tau(  73) = (   0.0000000   0.1250000   0.8961173  )
        74           Cu  tau(  74) = (   0.0000000   0.3750000   0.8961173  )
        75           Cu  tau(  75) = (   0.0000000   0.6250000   0.8961173  )
        76           Cu  tau(  76) = (   0.2500000   0.1250000   0.8961173  )
        77           Cu  tau(  77) = (   0.2500000   0.3750000   0.8961173  )
        78           Cu  tau(  78) = (   0.2500000   0.6250000   0.8961173  )
        79           Cu  tau(  79) = (   0.5000000   0.1250000   0.8961173  )
        80           Cu  tau(  80) = (   0.5000000   0.3750000   0.8961173  )
        81           Cu  tau(  81) = (   0.5000000   0.6250000   0.8961173  )
        82           Cu  tau(  82) = (   0.7500000   0.1250000   0.8961173  )
        83           Cu  tau(  83) = (   0.7500000   0.3750000   0.8961173  )
        84           Cu  tau(  84) = (   0.7500000   0.6250000   0.8961173  )
        85           Cu  tau(  85) = (   0.1250000   0.0000000   0.8961173  )
        86           Cu  tau(  86) = (   0.1250000   0.2500000   0.8961173  )
        87           Cu  tau(  87) = (   0.1250000   0.5000000   0.8961173  )
        88           Cu  tau(  88) = (   0.3750000   0.0000000   0.8961173  )
        89           Cu  tau(  89) = (   0.3750000   0.2500000   0.8961173  )
        90           Cu  tau(  90) = (   0.3750000   0.5000000   0.8961173  )
        91           Cu  tau(  91) = (   0.6250000   0.0000000   0.8961173  )
        92           Cu  tau(  92) = (   0.6250000   0.2500000   0.8961173  )
        93           Cu  tau(  93) = (   0.6250000   0.5000000   0.8961173  )
        94           Cu  tau(  94) = (   0.8750000   0.0000000   0.8961173  )
        95           Cu  tau(  95) = (   0.8750000   0.2500000   0.8961173  )
        96           Cu  tau(  96) = (   0.8750000   0.5000000   0.8961173  )
        97           Cu  tau(  97) = (   0.0000000   0.0000000   1.0178426  )
        98           Cu  tau(  98) = (   0.0000000   0.2500000   1.0178426  )
        99           Cu  tau(  99) = (   0.0000000   0.5000000   1.0178426  )
       100           Cu  tau( 100) = (   0.2500000   0.0000000   1.0178426  )
       101           Cu  tau( 101) = (   0.2500000   0.2500000   1.0178426  )
       102           Cu  tau( 102) = (   0.2500000   0.5000000   1.0178426  )
       103           Cu  tau( 103) = (   0.5000000   0.0000000   1.0178426  )
       104           Cu  tau( 104) = (   0.5000000   0.2500000   1.0178426  )
       105           Cu  tau( 105) = (   0.5000000   0.5000000   1.0178426  )
       106           Cu  tau( 106) = (   0.7500000   0.0000000   1.0178426  )
       107           Cu  tau( 107) = (   0.7500000   0.2500000   1.0178426  )
       108           Cu  tau( 108) = (   0.7500000   0.5000000   1.0178426  )
       109           Cu  tau( 109) = (   0.1250000   0.1250000   1.0178426  )
       110           Cu  tau( 110) = (   0.1250000   0.3750000   1.0178426  )
       111           Cu  tau( 111) = (   0.1250000   0.6250000   1.0178426  )
       112           Cu  tau( 112) = (   0.3750000   0.1250000   1.0178426  )
       113           Cu  tau( 113) = (   0.3750000   0.3750000   1.0178426  )
       114           Cu  tau( 114) = (   0.3750000   0.6250000   1.0178426  )
       115           Cu  tau( 115) = (   0.6250000   0.1250000   1.0178426  )
       116           Cu  tau( 116) = (   0.6250000   0.3750000   1.0178426  )
       117           Cu  tau( 117) = (   0.6250000   0.6250000   1.0178426  )
       118           Cu  tau( 118) = (   0.8750000   0.1250000   1.0178426  )
       119           Cu  tau( 119) = (   0.8750000   0.3750000   1.0178426  )
       120           Cu  tau( 120) = (   0.8750000   0.6250000   1.0178426  )
       121           C   tau( 121) = (   0.0821019   0.0497091   1.1891418  )
       122           C   tau( 122) = (  -0.0020438   0.1001609   1.1891418  )
       123           C   tau( 123) = (   0.2489497   0.0500961   1.1891418  )
       124           C   tau( 124) = (   0.1646442   0.1001714   1.1891418  )
       125           C   tau( 125) = (   0.4154744   0.0500057   1.1891418  )
       126           C   tau( 126) = (   0.3315771   0.1005489   1.1891418  )
       127           C   tau( 127) = (   0.5819811   0.0499930   1.1891418  )
       128           C   tau( 128) = (   0.4977107   0.1005453   1.1891418  )
       129           C   tau( 129) = (   0.7486920   0.0497094   1.1891418  )
       130           C   tau( 130) = (   0.6645396   0.1001789   1.1891418  )
       131           C   tau( 131) = (   0.9154441   0.0497294   1.1891418  )
       132           C   tau( 132) = (   0.8312481   0.1001401   1.1891418  )
       133           C   tau( 133) = (  -0.0044818   0.1998319   1.1891418  )
       134           C   tau( 134) = (  -0.0886789   0.2502315   1.1891418  )
       135           C   tau( 135) = (   0.1622213   0.1998158   1.1891418  )
       136           C   tau( 136) = (   0.0780444   0.2502693   1.1891418  )
       137           C   tau( 137) = (   0.3289776   0.2004726   1.1891418  )
       138           C   tau( 138) = (   0.2445853   0.2501626   1.1891418  )
       139           C   tau( 139) = (   0.4953124   0.2004869   1.1891418  )
       140           C   tau( 140) = (   0.4112730   0.2505078   1.1891418  )
       141           C   tau( 141) = (   0.6620728   0.1998172   1.1891418  )
       142           C   tau( 142) = (   0.5780910   0.2501993   1.1891418  )
       143           C   tau( 143) = (   0.8288016   0.1998161   1.1891418  )
       144           C   tau( 144) = (   0.7446116   0.2502847   1.1891418  )
       145           C   tau( 145) = (  -0.0911040   0.3498560   1.1891418  )
       146           C   tau( 146) = (  -0.1753929   0.4002576   1.1891418  )
       147           C   tau( 147) = (   0.0758589   0.3498520   1.1891418  )
       148           C   tau( 148) = (  -0.0084745   0.4002414   1.1891418  )
       149           C   tau( 149) = (   0.2428484   0.3496200   1.1891418  )
       150           C   tau( 150) = (   0.1584719   0.4003577   1.1891418  )
       151           C   tau( 151) = (   0.4088520   0.3497051   1.1891418  )
       152           C   tau( 152) = (   0.3249186   0.3999270   1.1891418  )
       153           C   tau( 153) = (   0.5749581   0.3496945   1.1891418  )
       154           C   tau( 154) = (   0.4911844   0.3999608   1.1891418  )
       155           C   tau( 155) = (   0.7419640   0.3498781   1.1891418  )
       156           C   tau( 156) = (   0.6576877   0.4004011   1.1891418  )
       157           C   tau( 157) = (  -0.1777136   0.4998699   1.1891418  )
       158           C   tau( 158) = (  -0.2618184   0.5502810   1.1891418  )
       159           C   tau( 159) = (  -0.0109464   0.4998593   1.1891418  )
       160           C   tau( 160) = (  -0.0951567   0.5502743   1.1891418  )
       161           C   tau( 161) = (   0.1557612   0.4997384   1.1891418  )
       162           C   tau( 162) = (   0.0715457   0.5502540   1.1891418  )
       163           C   tau( 163) = (   0.3227133   0.4992206   1.1891418  )
       164           C   tau( 164) = (   0.2382828   0.5497710   1.1891418  )
       165           C   tau( 165) = (   0.4885880   0.4991844   1.1891418  )
       166           C   tau( 166) = (   0.4048015   0.5501968   1.1891418  )
       167           C   tau( 167) = (   0.6555792   0.4997580   1.1891418  )
       168           C   tau( 168) = (   0.5713989   0.5496791   1.1891418  )
       169           C   tau( 169) = (  -0.2642406   0.6498684   1.1891418  )
       170           C   tau( 170) = (  -0.3485272   0.7000106   1.1891418  )
       171           C   tau( 171) = (  -0.0975673   0.6499289   1.1891418  )
       172           C   tau( 172) = (  -0.1816983   0.7003849   1.1891418  )
       173           C   tau( 173) = (   0.0690777   0.6498453   1.1891418  )
       174           C   tau( 174) = (  -0.0150442   0.7002937   1.1891418  )
       175           C   tau( 175) = (   0.2357740   0.6495788   1.1891418  )
       176           C   tau( 176) = (   0.1515517   0.7001983   1.1891418  )
       177           C   tau( 177) = (   0.4023204   0.6496102   1.1891418  )
       178           C   tau( 178) = (   0.3181483   0.7000822   1.1891418  )
       179           C   tau( 179) = (   0.5689502   0.6494501   1.1891418  )
       180           C   tau( 180) = (   0.4849129   0.7000266   1.1891418  )

     number of k points=     4  gaussian smearing, width (Ry)=  0.1000
                       cart. coord. in units 2pi/alat
        k(    1) = (   0.0000000   0.0000000   0.0000000), wk =   0.5000000
        k(    2) = (   0.0000000  -0.6666667   0.0000000), wk =   0.5000000
        k(    3) = (  -0.5000000   0.0000000   0.0000000), wk =   0.5000000
        k(    4) = (  -0.5000000  -0.6666667   0.0000000), wk =   0.5000000

     Dense  grid:  1099045 G-vectors     FFT dimensions: ( 120,  90, 216)

     Smooth grid:   921191 G-vectors     FFT dimensions: ( 120,  90, 192)

     Largest allocated arrays     est. size (Mb)     dimensions
        Kohn-Sham Wavefunctions        25.81 Mb     (    1807,  936)
        NL pseudopotentials            61.21 Mb     (    1807, 2220)
        Each V/rho on FFT grid          0.66 Mb     (   43200)
        Each G-vector array             0.13 Mb     (   17169)
        G-vector shells                 0.06 Mb     (    8399)
     Largest temporary arrays     est. size (Mb)     dimensions
        Auxiliary wavefunctions       103.23 Mb     (    1807, 3744)
        Each subspace H/S matrix        8.54 Mb     (     748,  748)
        Each <psi_i|beta_j> matrix     31.71 Mb     (    2220,  936)
        Arrays for rho mixing           5.27 Mb     (   43200,    8)

     Initial potential from superposition of free atoms
     Check: negative starting charge=   -0.007913

     starting charge 1528.58101, renormalised to 1560.00000

     negative rho (up, down):  8.076E-03 0.000E+00
     Starting wfc are 1560 randomized atomic wfcs

     total cpu time spent up to now is       73.4 secs

     Self-consistent Calculation

     iteration #  1     ecut=    40.00 Ry     beta=0.70
     Davidson diagonalization with overlap
     ethr =  1.00E-04,  avg # of iterations = 28.2

     negative rho (up, down):  4.610E-04 0.000E+00

     total cpu time spent up to now is     1733.1 secs

     total energy              =  137084.81772328 Ry
     Harris-Foulkes estimate   =  -20038.47504863 Ry
     estimated scf accuracy    <  173431.85937292 Ry

     iteration #  2     ecut=    40.00 Ry     beta=0.70
     Davidson diagonalization with overlap
     ethr =  1.00E-02,  avg # of iterations = 42.5

     negative rho (up, down):  8.147E-03 0.000E+00

     total cpu time spent up to now is     5424.3 secs

     total energy              =  -52229.72712056 Ry
     Harris-Foulkes estimate   = -207452.55495870 Ry
     estimated scf accuracy    <  308447.44533818 Ry

     iteration #  3     ecut=    40.00 Ry     beta=0.70
     Davidson diagonalization with overlap
     ethr =  1.00E-02,  avg # of iterations = 31.2

     negative rho (up, down):  8.112E-03 0.000E+00

     total cpu time spent up to now is     7908.2 secs

     total energy              =  -49796.20851405 Ry
     Harris-Foulkes estimate   =  -89590.04061210 Ry
     estimated scf accuracy    <  140091.67955144 Ry

     iteration #  4     ecut=    40.00 Ry     beta=0.70
     Davidson diagonalization with overlap
     ethr =  1.00E-02,  avg # of iterations = 39.5

     negative rho (up, down):  1.096E-02 0.000E+00

     total cpu time spent up to now is    10688.3 secs

     total energy              =  -44472.66212415 Ry
     Harris-Foulkes estimate   =  -56446.12906030 Ry
     estimated scf accuracy    <  119225.14754844 Ry

     iteration #  5     ecut=    40.00 Ry     beta=0.70
     Davidson diagonalization with overlap
     ethr =  1.00E-02,  avg # of iterations = 27.2

     negative rho (up, down):  5.732E-03 0.000E+00

     total cpu time spent up to now is    12237.7 secs

     total energy              =  -29710.30105774 Ry
     Harris-Foulkes estimate   =  -46399.88826115 Ry
     estimated scf accuracy    <   60690.44219523 Ry

     iteration #  6     ecut=    40.00 Ry     beta=0.70
     Davidson diagonalization with overlap
     ethr =  1.00E-02,  avg # of iterations = 14.5

     negative rho (up, down):  2.761E-03 0.000E+00

     total cpu time spent up to now is    13428.4 secs

     total energy              =  -28844.04950260 Ry
     Harris-Foulkes estimate   =  -30761.58767664 Ry
     estimated scf accuracy    <   26342.88624355 Ry

     iteration #  7     ecut=    40.00 Ry     beta=0.70
     Davidson diagonalization with overlap
     ethr =  1.00E-02,  avg # of iterations = 18.2

     negative rho (up, down):  2.557E-03 0.000E+00

     total cpu time spent up to now is    14426.7 secs

     total energy              =  -28698.67706117 Ry
     Harris-Foulkes estimate   =  -32017.35654415 Ry
     estimated scf accuracy    <   57113.14259938 Ry

     iteration #  8     ecut=    40.00 Ry     beta=0.70
     Davidson diagonalization with overlap
     ethr =  1.00E-02,  avg # of iterations =  9.5

     negative rho (up, down):  2.160E-03 0.000E+00

     total cpu time spent up to now is    15072.0 secs

     total energy              =  -22114.21211614 Ry
     Harris-Foulkes estimate   =  -28912.50506096 Ry
     estimated scf accuracy    <   48984.50046032 Ry

     iteration #  9     ecut=    40.00 Ry     beta=0.70
     Davidson diagonalization with overlap
     ethr =  1.00E-02,  avg # of iterations = 11.0

     negative rho (up, down):  1.402E-03 0.000E+00

     total cpu time spent up to now is    15804.8 secs

     total energy              =  -21052.90829433 Ry
     Harris-Foulkes estimate   =  -22904.45172745 Ry
     estimated scf accuracy    <   16149.53288592 Ry

     iteration # 10     ecut=    40.00 Ry     beta=0.70
     Davidson diagonalization with overlap
     ethr =  1.00E-02,  avg # of iterations =  4.5

     negative rho (up, down):  5.042E-01 0.000E+00

     total cpu time spent up to now is    16000.0 secs

     total energy              =   -6099.04101509 Ry
     Harris-Foulkes estimate   =  -21101.46719947 Ry
     estimated scf accuracy    <   15552.32997390 Ry

     iteration # 11     ecut=    40.00 Ry     beta=0.70
     Davidson diagonalization with overlap
     ethr =  1.00E-02,  avg # of iterations = 31.8

     negative rho (up, down):  1.404E-03 0.000E+00

     total cpu time spent up to now is    18732.4 secs

     total energy              =  -16545.70632431 Ry
     Harris-Foulkes estimate   = -106667.78744388 Ry
     estimated scf accuracy    <  321275.00734331 Ry

     iteration # 12     ecut=    40.00 Ry     beta=0.70
     Davidson diagonalization with overlap
     ethr =  1.00E-02,  avg # of iterations =  9.0

     negative rho (up, down):  5.175E-03 0.000E+00

     total cpu time spent up to now is    19512.3 secs

     total energy              =  -19579.83932627 Ry
     Harris-Foulkes estimate   =  -22714.00863095 Ry
     estimated scf accuracy    <  140967.11743172 Ry

     iteration # 13     ecut=    40.00 Ry     beta=0.70
     Davidson diagonalization with overlap
     ethr =  1.00E-02,  avg # of iterations =  6.2

     negative rho (up, down):  1.076E-02 0.000E+00

     total cpu time spent up to now is    19957.9 secs

     total energy              =  -18337.26206025 Ry
     Harris-Foulkes estimate   =  -19967.23315927 Ry
     estimated scf accuracy    <  114720.41153954 Ry

     iteration # 14     ecut=    40.00 Ry     beta=0.70
     Davidson diagonalization with overlap
     ethr =  1.00E-02,  avg # of iterations =  7.0

     negative rho (up, down):  1.359E-02 0.000E+00

     total cpu time spent up to now is    20502.8 secs

     total energy              =  -18071.89724487 Ry
     Harris-Foulkes estimate   =  -18755.79365917 Ry
     estimated scf accuracy    <   92215.46103749 Ry

     iteration # 15     ecut=    40.00 Ry     beta=0.70
     Davidson diagonalization with overlap
     ethr =  1.00E-02,  avg # of iterations =  8.0

     negative rho (up, down):  1.427E-02 0.000E+00

     total cpu time spent up to now is    20951.6 secs

     total energy              =  -18119.87881699 Ry
     Harris-Foulkes estimate   =  -18149.83867316 Ry
     estimated scf accuracy    <   74368.69161257 Ry

     iteration # 16     ecut=    40.00 Ry     beta=0.70
     Davidson diagonalization with overlap
     ethr =  1.00E-02,  avg # of iterations = 16.8

     negative rho (up, down):  1.448E-02 0.000E+00

     total cpu time spent up to now is    21677.2 secs

     total energy              =  -18759.83766240 Ry
     Harris-Foulkes estimate   =  -18896.54050346 Ry
     estimated scf accuracy    <   47025.92055932 Ry

     iteration # 17     ecut=    40.00 Ry     beta=0.70
     Davidson diagonalization with overlap
     ethr =  1.00E-02,  avg # of iterations =  7.0

     negative rho (up, down):  4.907E-01 0.000E+00

     total cpu time spent up to now is    22311.5 secs

     total energy              =  -18641.34809675 Ry
     Harris-Foulkes estimate   =  -19152.06583481 Ry
     estimated scf accuracy    <   54412.62518584 Ry

     iteration # 18     ecut=    40.00 Ry     beta=0.70
     Davidson diagonalization with overlap
     ethr =  1.00E-02,  avg # of iterations =  8.5

     negative rho (up, down):  3.307E-01 0.000E+00

     total cpu time spent up to now is    22969.4 secs

     total energy              =  -18520.72502925 Ry
     Harris-Foulkes estimate   =  -18959.86389513 Ry
     estimated scf accuracy    <   80617.15311084 Ry

     iteration # 19     ecut=    40.00 Ry     beta=0.70
     Davidson diagonalization with overlap
     ethr =  1.00E-02,  avg # of iterations =  7.0

     negative rho (up, down):  2.022E+02 0.000E+00

     total cpu time spent up to now is    23426.8 secs

     total energy              =  -12476.05416822 Ry
     Harris-Foulkes estimate   =  -18684.66367957 Ry
     estimated scf accuracy    <   75862.27448210 Ry

     iteration # 20     ecut=    40.00 Ry     beta=0.70
     Davidson diagonalization with overlap
     ethr =  1.00E-02,  avg # of iterations = 21.0

     negative rho (up, down):  1.044E+02 0.000E+00

     total cpu time spent up to now is    25373.9 secs

     total energy              =  -11899.72091462 Ry
     Harris-Foulkes estimate   =  -49183.63758345 Ry
     estimated scf accuracy    <  186285.30294778 Ry

     iteration # 21     ecut=    40.00 Ry     beta=0.70
     Davidson diagonalization with overlap
     ethr =  1.00E-02,  avg # of iterations = 15.2

     negative rho (up, down):  4.167E+00 0.000E+00

     total cpu time spent up to now is    26469.3 secs

     total energy              =  -12776.90753929 Ry
     Harris-Foulkes estimate   =  -24290.45887983 Ry
     estimated scf accuracy    <   47922.08119830 Ry

     iteration # 22     ecut=    40.00 Ry     beta=0.70
     Davidson diagonalization with overlap
     ethr =  1.00E-02,  avg # of iterations = 13.2

     negative rho (up, down):  8.452E+00 0.000E+00

     total cpu time spent up to now is    27517.9 secs

     total energy              =  -11506.08999821 Ry
     Harris-Foulkes estimate   =  -21519.95450129 Ry
     estimated scf accuracy    <   44217.76418942 Ry

     iteration # 23     ecut=    40.00 Ry     beta=0.70
     Davidson diagonalization with overlap
     ethr =  1.00E-02,  avg # of iterations = 15.2

     negative rho (up, down):  6.118E-01 0.000E+00

     total cpu time spent up to now is    28721.4 secs

     total energy              =  -11668.41118945 Ry
     Harris-Foulkes estimate   =  -20007.62611584 Ry
     estimated scf accuracy    <   46877.20952070 Ry

     iteration # 24     ecut=    40.00 Ry     beta=0.70
     Davidson diagonalization with overlap
     ethr =  1.00E-02,  avg # of iterations = 14.8

     negative rho (up, down):  6.728E-02 0.000E+00

     total cpu time spent up to now is    29920.3 secs

     total energy              =  -13455.67794367 Ry
     Harris-Foulkes estimate   =  -18085.82456080 Ry
     estimated scf accuracy    <   31262.19762063 Ry

     iteration # 25     ecut=    40.00 Ry     beta=0.70
     Davidson diagonalization with overlap
     ethr =  1.00E-02,  avg # of iterations = 13.2

     negative rho (up, down):  3.784E-03 0.000E+00

     total cpu time spent up to now is    30996.3 secs

     total energy              =  -13483.78625318 Ry
     Harris-Foulkes estimate   =  -18259.77188602 Ry
     estimated scf accuracy    <   42482.46699926 Ry

     iteration # 26     ecut=    40.00 Ry     beta=0.70
     Davidson diagonalization with overlap
     c_bands:  1 eigenvalues not converged
     ethr =  1.00E-02,  avg # of iterations = 16.5

     negative rho (up, down):  2.809E-03 0.000E+00

     total cpu time spent up to now is    31817.5 secs

     total energy              =  -14205.98139572 Ry
     Harris-Foulkes estimate   =  -16566.20773469 Ry
     estimated scf accuracy    <   14972.37004279 Ry

     iteration # 27     ecut=    40.00 Ry     beta=0.70
     Davidson diagonalization with overlap
     ethr =  1.00E-02,  avg # of iterations = 10.5

     negative rho (up, down):  5.392E-03 0.000E+00

     total cpu time spent up to now is    32770.8 secs

     total energy              =  -12086.42592918 Ry
     Harris-Foulkes estimate   =  -20170.98412585 Ry
     estimated scf accuracy    <  101962.65763423 Ry

     iteration # 28     ecut=    40.00 Ry     beta=0.70
     Davidson diagonalization with overlap
     ethr =  1.00E-02,  avg # of iterations = 11.8

     negative rho (up, down):  1.316E-03 0.000E+00

     total cpu time spent up to now is    33635.4 secs

     total energy              =  -14067.89397198 Ry
     Harris-Foulkes estimate   =  -15852.86114843 Ry
     estimated scf accuracy    <    4860.16948554 Ry

     iteration # 29     ecut=    40.00 Ry     beta=0.70
     Davidson diagonalization with overlap
     ethr =  1.00E-02,  avg # of iterations = 11.2

     negative rho (up, down):  4.003E-03 0.000E+00

     total cpu time spent up to now is    34660.9 secs

     total energy              =  -10850.84856347 Ry
     Harris-Foulkes estimate   =  -23091.75035286 Ry
     estimated scf accuracy    <  132436.32694631 Ry

     iteration # 30     ecut=    40.00 Ry     beta=0.70
     Davidson diagonalization with overlap
     ethr =  1.00E-02,  avg # of iterations =  9.2

     negative rho (up, down):  3.078E-03 0.000E+00

     total cpu time spent up to now is    35410.8 secs

     total energy              =  -13935.05267088 Ry
     Harris-Foulkes estimate   =  -16954.46148402 Ry
     estimated scf accuracy    <   31881.58340159 Ry

     iteration # 31     ecut=    40.00 Ry     beta=0.70
     Davidson diagonalization with overlap
     ethr =  1.00E-02,  avg # of iterations =  7.8

     negative rho (up, down):  8.869E-04 0.000E+00

     total cpu time spent up to now is    36010.1 secs

     total energy              =  -14924.05584372 Ry
     Harris-Foulkes estimate   =  -15679.18979490 Ry
     estimated scf accuracy    <    6336.18652668 Ry

     iteration # 32     ecut=    40.00 Ry     beta=0.70
     Davidson diagonalization with overlap
     ethr =  1.00E-02,  avg # of iterations =  5.0

     negative rho (up, down):  1.956E-03 0.000E+00

     total cpu time spent up to now is    36452.0 secs

     total energy              =  -14328.00091315 Ry
     Harris-Foulkes estimate   =  -15843.45940365 Ry
     estimated scf accuracy    <    9437.18815696 Ry

     iteration # 33     ecut=    40.00 Ry     beta=0.70
     Davidson diagonalization with overlap
     ethr =  1.00E-02,  avg # of iterations = 10.0

     total cpu time spent up to now is    37280.5 secs

     total energy              =  -11884.15196625 Ry
     Harris-Foulkes estimate   =  -18238.23667502 Ry
     estimated scf accuracy    <   83796.28356674 Ry

     iteration # 34     ecut=    40.00 Ry     beta=0.70
     Davidson diagonalization with overlap
     ethr =  1.00E-02,  avg # of iterations =  8.2

     total cpu time spent up to now is    38028.1 secs

     total energy              =  -14979.91393985 Ry
     Harris-Foulkes estimate   =  -15722.79066648 Ry
     estimated scf accuracy    <    6125.26492725 Ry

     iteration # 35     ecut=    40.00 Ry     beta=0.70
     Davidson diagonalization with overlap
     ethr =  1.00E-02,  avg # of iterations =  8.8

     total cpu time spent up to now is    38675.3 secs

     total energy              =  -14602.48638546 Ry
     Harris-Foulkes estimate   =  -15850.25614939 Ry
     estimated scf accuracy    <   13776.45268517 Ry

     iteration # 36     ecut=    40.00 Ry     beta=0.70
     Davidson diagonalization with overlap
     ethr =  1.00E-02,  avg # of iterations =  7.0

     total cpu time spent up to now is    39197.2 secs

     total energy              =  -14865.46607674 Ry
     Harris-Foulkes estimate   =  -15896.58524387 Ry
     estimated scf accuracy    <    7613.47901590 Ry

     iteration # 37     ecut=    40.00 Ry     beta=0.70
     Davidson diagonalization with overlap
     ethr =  1.00E-02,  avg # of iterations =  5.5

     total cpu time spent up to now is    39664.5 secs

     total energy              =  -14785.73836449 Ry
     Harris-Foulkes estimate   =  -15634.99123546 Ry
     estimated scf accuracy    <    6866.85262508 Ry

     iteration # 38     ecut=    40.00 Ry     beta=0.70
     Davidson diagonalization with overlap
     ethr =  1.00E-02,  avg # of iterations = 11.2

     total cpu time spent up to now is    40558.4 secs

     total energy              =  -14274.49048498 Ry
     Harris-Foulkes estimate   =  -16850.35666472 Ry
     estimated scf accuracy    <   31322.49408344 Ry

     iteration # 39     ecut=    40.00 Ry     beta=0.70
     Davidson diagonalization with overlap
     ethr =  1.00E-02,  avg # of iterations = 10.0

     total cpu time spent up to now is    41427.1 secs

     total energy              =  -14086.56899219 Ry
     Harris-Foulkes estimate   =  -16460.38141041 Ry
     estimated scf accuracy    <   42858.34315297 Ry

     iteration # 40     ecut=    40.00 Ry     beta=0.70
     Davidson diagonalization with overlap
     ethr =  1.00E-02,  avg # of iterations =  7.0

     total cpu time spent up to now is    41919.4 secs

     total energy              =  -15000.60805651 Ry
     Harris-Foulkes estimate   =  -15510.07028320 Ry
     estimated scf accuracy    <    3176.54040864 Ry

     iteration # 41     ecut=    40.00 Ry     beta=0.70
     Davidson diagonalization with overlap
     ethr =  1.00E-02,  avg # of iterations = 10.0

     total cpu time spent up to now is    42627.7 secs

     total energy              =  -14428.47250676 Ry
     Harris-Foulkes estimate   =  -16698.01040507 Ry
     estimated scf accuracy    <   24037.70776904 Ry

     iteration # 42     ecut=    40.00 Ry     beta=0.70
     Davidson diagonalization with overlap
