mpirun: INFO: switching to OpenMPI runtime version 1.10.2

     Program PWSCF v.5.4.0 starts on  4Sep2017 at 10:32:23 

     This program is part of the open-source Quantum ESPRESSO suite
     for quantum simulation of materials; please cite
         "P. Giannozzi et al., J. Phys.:Condens. Matter 21 395502 (2009);
          URL http://www.quantum-espresso.org", 
     in publications or presentations arising from this work. More details at
     http://www.quantum-espresso.org/quote

     Parallel version (MPI & OpenMP), running on      28 processor cores
     Number of MPI processes:                28
     Threads/MPI process:                     1
     R & G space division:  proc/nbgrp/npool/nimage =      28
     Waiting for input...
     Reading input from standard input

     Current dimensions of program PWSCF are:
     Max number of different atomic species (ntypx) = 10
     Max number of k-points (npk) =  40000
     Max angular momentum in pseudopotentials (lmaxx) =  3
     WARNING: atomic wfc #  2 for atom type 3 has zero norm
     WARNING: atomic wfc #  4 for atom type 3 has zero norm
     WARNING: atomic wfc #  5 for atom type 3 has zero norm

     -------------------------------------
     Parameters for Dispersion Correction:
     -------------------------------------
       atom      VdW radius       C_6     

        Cu         2.952        374.666
        C          2.744         60.710
        O          2.536         24.284
        H          1.892          4.857

     Subspace diagonalization in iterative solution of the eigenvalue problem:
     one sub-group per band group will be used
     scalapack distributed-memory algorithm (size of sub-group:  3*  3 procs)

 
     Parallelization info
     --------------------
     sticks:   dense  smooth     PW     G-vecs:    dense   smooth      PW
     Min         408     408    108                73226    73226    9928
     Max         410     410    109                73231    73231    9931
     Sum       11433   11433   3039              2050409  2050409  278033
 


     bravais-lattice index     =            0
     lattice parameter (alat)  =      13.9425  a.u.
     unit-cell volume          =   21209.0878 (a.u.)^3
     number of atoms/cell      =          150
     number of atomic types    =            4
     number of electrons       =      1302.00
     number of Kohn-Sham states=          781
     kinetic-energy cutoff     =      80.0000  Ry
     charge density cutoff     =     320.0000  Ry
     convergence threshold     =      1.0E-08
     mixing beta               =       0.7000
     number of iterations used =            8  local-TF  mixing
     Exchange-correlation      =  SLA  PW   PBE  PBE ( 1  4  3  4 0 0)
     nstep                     =           50


     celldm(1)=  13.942539  celldm(2)=   0.000000  celldm(3)=   0.000000
     celldm(4)=   0.000000  celldm(5)=   0.000000  celldm(6)=   0.000000

     crystal axes: (cart. coord. in units of alat)
               a(1) = (   1.000000   0.000000   0.000000 )  
               a(2) = (   0.000000   2.309401   0.000000 )  
               a(3) = (   0.000000   0.000000   3.388418 )  

     reciprocal axes: (cart. coord. in units 2 pi/alat)
               b(1) = (  1.000000  0.000000  0.000000 )  
               b(2) = (  0.000000  0.433013  0.000000 )  
               b(3) = (  0.000000  0.000000  0.295123 )  


     PseudoPot. # 1 for Cu read from file:
     /home/549/hxw549/Short/pseudopotentials/Cu.pbe-n-van_ak.UPF
     MD5 check sum: 601f7c30f7467666bec936e0661ce3e1
     Pseudo is Ultrasoft + core correction, Zval = 11.0
     Generated by new atomic code, or converted to UPF format
     Using radial grid of  867 points,  6 beta functions with: 
                l(1) =   0
                l(2) =   0
                l(3) =   1
                l(4) =   1
                l(5) =   2
                l(6) =   2
     Q(r) pseudized with  8 coefficients,  rinner =    1.400   1.400   1.400
                                                       1.400   1.400

     PseudoPot. # 2 for C  read from file:
     /home/549/hxw549/Short/pseudopotentials/C.pbe-mt_gipaw.UPF
     MD5 check sum: 5ac2f21f2c440b14befe521540822c15
     Pseudo is Norm-conserving, Zval =  4.0
     Generated by new atomic code, or converted to UPF format
     Using radial grid of 1073 points,  1 beta functions with: 
                l(1) =   0

     PseudoPot. # 3 for O  read from file:
     /home/549/hxw549/Short/pseudopotentials/O.pbe-van_gipaw.UPF
     MD5 check sum: 5ce2a047509d4f331db576c963e74b29
     Pseudo is Ultrasoft, Zval =  6.0
     Generated by new atomic code, or converted to UPF format
     Using radial grid of 1095 points,  4 beta functions with: 
                l(1) =   0
                l(2) =   0
                l(3) =   1
                l(4) =   1
     Q(r) pseudized with 0 coefficients 


     PseudoPot. # 4 for H  read from file:
     /home/549/hxw549/Short/pseudopotentials/H.pbe-van_ak.UPF
     MD5 check sum: 077eb6d537518a38cb46c6de387227b7
     Pseudo is Ultrasoft, Zval =  1.0
     Generated by new atomic code, or converted to UPF format
     Using radial grid of  615 points,  1 beta functions with: 
                l(1) =   0
     Q(r) pseudized with  8 coefficients,  rinner =    0.800

     atomic species   valence    mass     pseudopotential
        Cu            11.00    63.54600     Cu( 1.00)
        C              4.00    12.01070     C ( 1.00)
        O              6.00    15.99940     O ( 1.00)
        H              1.00     1.00783     H ( 1.00)

     No symmetry found



   Cartesian axes

     site n.     atom                  positions (alat units)
         1           Cu  tau(   1) = (   0.0000842  -0.0003681   0.9999582  )
         2           Cu  tau(   2) = (   0.2500548   0.2313457   0.9998843  )
         3           Cu  tau(   3) = (   0.5000576  -0.0002607   0.9999865  )
         4           Cu  tau(   4) = (   0.7500833   0.2313139   0.9998641  )
         5           Cu  tau(   5) = (   0.0000630   0.4624576   0.9996374  )
         6           Cu  tau(   6) = (   0.2500574   0.6931393   0.9991054  )
         7           Cu  tau(   7) = (   0.5000697   0.4624370   0.9995248  )
         8           Cu  tau(   8) = (   0.7500716   0.6931484   0.9991088  )
         9           Cu  tau(   9) = (   0.0000622   0.9236166   0.9988218  )
        10           Cu  tau(  10) = (   0.2500643   1.1539091   0.9989623  )
        11           Cu  tau(  11) = (   0.5000640   0.9235821   0.9987715  )
        12           Cu  tau(  12) = (   0.7500634   1.1539179   0.9989606  )
        13           Cu  tau(  13) = (   0.0000687   1.3841458   0.9994650  )
        14           Cu  tau(  14) = (   0.2500837   1.6145936   0.9999104  )
        15           Cu  tau(  15) = (   0.5000627   1.3841804   0.9994855  )
        16           Cu  tau(  16) = (   0.7500522   1.6145705   0.9999235  )
        17           Cu  tau(  17) = (   0.0000612   1.8455769   1.0000095  )
        18           Cu  tau(  18) = (   0.2500741   2.0771549   1.0000108  )
        19           Cu  tau(  19) = (   0.5000791   1.8455049   1.0000850  )
        20           Cu  tau(  20) = (   0.7500687   2.0771896   1.0000020  )
        21           Cu  tau(  21) = (   0.0000704   0.2315434   1.2478653  )
        22           Cu  tau(  22) = (   0.2500664  -0.0002381   1.2475273  )
        23           Cu  tau(  23) = (   0.5000670   0.2316783   1.2479035  )
        24           Cu  tau(  24) = (   0.7500740  -0.0002273   1.2475423  )
        25           Cu  tau(  25) = (   0.0000692   0.6936868   1.2480512  )
        26           Cu  tau(  26) = (   0.2500874   0.4630175   1.2481231  )
        27           Cu  tau(  27) = (   0.5000643   0.6936369   1.2480478  )
        28           Cu  tau(  28) = (   0.7500461   0.4629896   1.2480760  )
        29           Cu  tau(  29) = (   0.0000655   1.1534501   1.2482728  )
        30           Cu  tau(  30) = (   0.2500957   0.9236477   1.2480367  )
        31           Cu  tau(  31) = (   0.5000669   1.1533940   1.2482530  )
        32           Cu  tau(  32) = (   0.7500350   0.9236609   1.2480361  )
        33           Cu  tau(  33) = (   0.0000688   1.6141455   1.2484967  )
        34           Cu  tau(  34) = (   0.2500811   1.3834824   1.2485944  )
        35           Cu  tau(  35) = (   0.5000677   1.6141108   1.2487066  )
        36           Cu  tau(  36) = (   0.7500538   1.3834640   1.2486243  )
        37           Cu  tau(  37) = (   0.0000721   2.0771959   1.2475848  )
        38           Cu  tau(  38) = (   0.2500753   1.8454353   1.2480641  )
        39           Cu  tau(  39) = (   0.5000696   2.0772392   1.2474654  )
        40           Cu  tau(  40) = (   0.7500644   1.8454540   1.2480357  )
        41           Cu  tau(  41) = (   0.0000552  -0.0003437   1.4963069  )
        42           Cu  tau(  42) = (   0.2501594   0.2316922   1.4966729  )
        43           Cu  tau(  43) = (   0.5000801  -0.0003239   1.4961498  )
        44           Cu  tau(  44) = (   0.7499692   0.2317424   1.4967073  )
        45           Cu  tau(  45) = (   0.0000623   0.4634405   1.4974589  )
        46           Cu  tau(  46) = (   0.2501391   0.6941193   1.4986964  )
        47           Cu  tau(  47) = (   0.5000667   0.4635838   1.4978574  )
        48           Cu  tau(  48) = (   0.7499975   0.6940653   1.4985995  )
        49           Cu  tau(  49) = (   0.0000719   0.9236097   1.4991718  )
        50           Cu  tau(  50) = (   0.2500634   1.1527743   1.4992825  )
        51           Cu  tau(  51) = (   0.5000695   0.9235140   1.4993108  )
        52           Cu  tau(  52) = (   0.7500770   1.1527397   1.4993345  )
        53           Cu  tau(  53) = (   0.0000750   1.3828780   1.4988430  )
        54           Cu  tau(  54) = (   0.2500890   1.6138847   1.4980387  )
        55           Cu  tau(  55) = (   0.5000679   1.3824979   1.4990271  )
        56           Cu  tau(  56) = (   0.7500488   1.6139412   1.4979863  )
        57           Cu  tau(  57) = (   0.0000808   1.8455483   1.4970029  )
        58           Cu  tau(  58) = (   0.2499997   2.0773826   1.4963591  )
        59           Cu  tau(  59) = (   0.5000580   1.8459184   1.4969695  )
        60           Cu  tau(  60) = (   0.7501390   2.0773614   1.4963585  )
        61           Cu  tau(  61) = (   0.0000295   0.2315309   1.7444207  )
        62           Cu  tau(  62) = (   0.2502029  -0.0002994   1.7446931  )
        63           Cu  tau(  63) = (   0.5000678   0.2311869   1.7451939  )
        64           Cu  tau(  64) = (   0.7499079  -0.0002989   1.7446971  )
        65           Cu  tau(  65) = (   0.0000435   0.6936173   1.7489464  )
        66           Cu  tau(  66) = (   0.2505725   0.4629719   1.7465844  )
        67           Cu  tau(  67) = (   0.5000601   0.6943936   1.7503369  )
        68           Cu  tau(  68) = (   0.7495268   0.4630920   1.7467012  )
        69           Cu  tau(  69) = (   0.0000924   1.1527931   1.7508173  )
        70           Cu  tau(  70) = (   0.2502615   0.9234581   1.7512347  )
        71           Cu  tau(  71) = (   0.5000542   1.1517041   1.7514155  )
        72           Cu  tau(  72) = (   0.7499023   0.9232312   1.7511647  )
        73           Cu  tau(  73) = (   0.0000949   1.6141779   1.7468887  )
        74           Cu  tau(  74) = (   0.2500008   1.3824766   1.7488313  )
        75           Cu  tau(  75) = (   0.5000403   1.6144221   1.7459068  )
        76           Cu  tau(  76) = (   0.7501499   1.3826237   1.7486353  )
        77           Cu  tau(  77) = (   0.0000597   2.0774819   1.7453209  )
        78           Cu  tau(  78) = (   0.2497908   1.8462237   1.7455670  )
        79           Cu  tau(  79) = (   0.5000663   2.0778525   1.7452871  )
        80           Cu  tau(  80) = (   0.7503417   1.8461915   1.7455604  )
        81           Cu  tau(  81) = (   0.0000293   0.0005630   1.9893151  )
        82           Cu  tau(  82) = (   0.2503945   0.2305317   1.9904370  )
        83           Cu  tau(  83) = (   0.5000451  -0.0001654   1.9914204  )
        84           Cu  tau(  84) = (   0.7496550   0.2306286   1.9903824  )
        85           Cu  tau(  85) = (   0.0001352   0.4606957   1.9911783  )
        86           Cu  tau(  86) = (   0.2509809   0.6915100   1.9960722  )
        87           Cu  tau(  87) = (   0.4999039   0.4602277   1.9939597  )
        88           Cu  tau(  88) = (   0.7490330   0.6914184   1.9964879  )
        89           Cu  tau(  89) = (   0.0000790   0.9223187   1.9982276  )
        90           Cu  tau(  90) = (   0.2509422   1.1535728   1.9995783  )
        91           Cu  tau(  91) = (   0.5001296   0.9227220   2.0050881  )
        92           Cu  tau(  92) = (   0.7492111   1.1536228   1.9988463  )
        93           Cu  tau(  93) = (   0.0000122   1.3841067   1.9962199  )
        94           Cu  tau(  94) = (   0.2491204   1.6154633   1.9915726  )
        95           Cu  tau(  95) = (   0.5001393   1.3858631   1.9939386  )
        96           Cu  tau(  96) = (   0.7510023   1.6154462   1.9916054  )
        97           Cu  tau(  97) = (   0.0000452   1.8467905   1.9920833  )
        98           Cu  tau(  98) = (   0.2500174   2.0780821   1.9906638  )
        99           Cu  tau(  99) = (   0.5000701   1.8458323   1.9897529  )
       100           Cu  tau( 100) = (   0.7500815   2.0780660   1.9906233  )
       101           C   tau( 101) = (   0.0000064   0.0982753   2.3856156  )
       102           C   tau( 102) = (   0.0000439   0.2906318   2.3863779  )
       103           C   tau( 103) = (   0.1666622   0.0021375   2.3846841  )
       104           C   tau( 104) = (   0.1665525   0.3867349   2.3858861  )
       105           C   tau( 105) = (   0.3332165   0.0983228   2.3831609  )
       106           C   tau( 106) = (   0.3332256   0.2906221   2.3844894  )
       107           C   tau( 107) = (   0.5000598   0.0019732   2.3803645  )
       108           C   tau( 108) = (   0.5000831   0.3875023   2.3852626  )
       109           C   tau( 109) = (   0.6668708   0.0983910   2.3827119  )
       110           C   tau( 110) = (   0.6669726   0.2907066   2.3839420  )
       111           C   tau( 111) = (   0.8333707   0.0021311   2.3842294  )
       112           C   tau( 112) = (   0.8335622   0.3868739   2.3852090  )
       113           C   tau( 113) = (  -0.0000664   0.6753953   2.3854927  )
       114           C   tau( 114) = (  -0.0000530   0.8677380   2.3850831  )
       115           C   tau( 115) = (   0.1662822   0.5790995   2.3858133  )
       116           C   tau( 116) = (   0.1669701   0.9636455   2.3943290  )
       117           C   tau( 117) = (   0.3328676   0.6759619   2.3925700  )
       118           C   tau( 118) = (   0.3306870   0.8664276   2.4033686  )
       119           C   tau( 119) = (   0.5000557   0.5791262   2.3918876  )
       120           C   tau( 120) = (   0.5005703   0.9642771   2.3907869  )
       121           C   tau( 121) = (   0.6669877   0.6763032   2.3895459  )
       122           C   tau( 122) = (   0.6689183   0.8667870   2.4013501  )
       123           C   tau( 123) = (   0.8335215   0.5793055   2.3841319  )
       124           C   tau( 124) = (   0.8327639   0.9636664   2.3937551  )
       125           C   tau( 125) = (   0.0001775   1.2524267   2.3940154  )
       126           C   tau( 126) = (   0.0002058   1.4454123   2.3866222  )
       127           C   tau( 127) = (   0.1666178   1.1567825   2.3964067  )
       128           C   tau( 128) = (   0.1669769   1.5416877   2.3844312  )
       129           C   tau( 129) = (   0.3342788   1.2531476   2.3945734  )
       130           C   tau( 130) = (   0.3337672   1.4457448   2.3873535  )
       131           C   tau( 131) = (   0.5000705   1.1600103   2.4042867  )
       132           C   tau( 132) = (   0.5001390   1.5419263   2.3875286  )
       133           C   tau( 133) = (   0.6659113   1.2532485   2.3961466  )
       134           C   tau( 134) = (   0.6665638   1.4459311   2.3883803  )
       135           C   tau( 135) = (   0.8334444   1.1567853   2.3980193  )
       136           C   tau( 136) = (   0.8334256   1.5416843   2.3850458  )
       137           C   tau( 137) = (   0.0000818   1.8305645   2.3801465  )
       138           C   tau( 138) = (   0.0000178   2.0230047   2.3827294  )
       139           C   tau( 139) = (   0.1669767   1.7342100   2.3821412  )
       140           C   tau( 140) = (   0.1666234   2.1191650   2.3827717  )
       141           C   tau( 141) = (   0.3334727   1.8304533   2.3834572  )
       142           C   tau( 142) = (   0.3334464   2.0228704   2.3818320  )
       143           C   tau( 143) = (   0.5000638   1.7343864   2.3850919  )
       144           C   tau( 144) = (   0.5000445   2.1189962   2.3815734  )
       145           C   tau( 145) = (   0.6666800   1.8303624   2.3835727  )
       146           C   tau( 146) = (   0.6666154   2.0227865   2.3818160  )
       147           C   tau( 147) = (   0.8332512   1.7341954   2.3822333  )
       148           C   tau( 148) = (   0.8333765   2.1191374   2.3825846  )
       149           C   tau( 149) = (   0.4878592   0.9658295   2.6754889  )
       150           O   tau( 150) = (   0.3907150   1.0691884   2.7619711  )

     number of k points=     6  gaussian smearing, width (Ry)=  0.1000
                       cart. coord. in units 2pi/alat
        k(    1) = (   0.0000000   0.0000000   0.0000000), wk =   0.2500000
        k(    2) = (   0.0000000  -0.2165064   0.0000000), wk =   0.2500000
        k(    3) = (   0.2500000   0.0000000   0.0000000), wk =   0.5000000
        k(    4) = (   0.2500000  -0.2165064   0.0000000), wk =   0.5000000
        k(    5) = (  -0.5000000   0.0000000   0.0000000), wk =   0.2500000
        k(    6) = (  -0.5000000  -0.2165064   0.0000000), wk =   0.2500000

     Dense  grid:  2050409 G-vectors     FFT dimensions: (  80, 192, 270)

     Largest allocated arrays     est. size (Mb)     dimensions
        Kohn-Sham Wavefunctions       109.29 Mb     (    9171,  781)
        NL pseudopotentials           259.87 Mb     (    9171, 1857)
        Each V/rho on FFT grid          2.34 Mb     (  153600)
        Each G-vector array             0.56 Mb     (   73230)
        G-vector shells                 0.27 Mb     (   35784)
     Largest temporary arrays     est. size (Mb)     dimensions
        Auxiliary wavefunctions       437.17 Mb     (    9171, 3124)
        Each subspace H/S matrix       16.54 Mb     (    1041, 1041)
        Each <psi_i|beta_j> matrix     22.13 Mb     (    1857,  781)
        Arrays for rho mixing          18.75 Mb     (  153600,    8)

     Initial potential from superposition of free atoms
     Check: negative starting charge=   -0.001686

     starting charge 1276.31751, renormalised to 1302.00000

     negative rho (up, down):  1.720E-03 0.000E+00
     Starting wfc are 1296 randomized atomic wfcs

     total cpu time spent up to now is      203.6 secs

     Self-consistent Calculation

     iteration #  1     ecut=    80.00 Ry     beta=0.70
     Davidson diagonalization with overlap
     c_bands:  5 eigenvalues not converged
     c_bands:  3 eigenvalues not converged
     c_bands:  4 eigenvalues not converged
     c_bands:  5 eigenvalues not converged
     ethr =  1.00E-04,  avg # of iterations = 20.7

     negative rho (up, down):  2.658E+01 0.000E+00

     total cpu time spent up to now is     3672.2 secs

     total energy              =   -9641.93355867 Ry
     Harris-Foulkes estimate   =  -17252.45190414 Ry
     estimated scf accuracy    <  181222.13477226 Ry

     iteration #  2     ecut=    80.00 Ry     beta=0.70
     Davidson diagonalization with overlap
     ethr =  1.00E-02,  avg # of iterations = 12.7

     negative rho (up, down):  2.925E+01 0.000E+00

     total cpu time spent up to now is     5493.8 secs

     total energy              =  -12225.99857721 Ry
     Harris-Foulkes estimate   =  -13675.46485029 Ry
     estimated scf accuracy    <   21435.63158533 Ry

     iteration #  3     ecut=    80.00 Ry     beta=0.70
     Davidson diagonalization with overlap
     ethr =  1.00E-02,  avg # of iterations =  6.5

     negative rho (up, down):  3.042E+01 0.000E+00

     total cpu time spent up to now is     6644.9 secs

     total energy              =  -12472.41128798 Ry
     Harris-Foulkes estimate   =  -13411.22863965 Ry
     estimated scf accuracy    <    6178.25267833 Ry

     iteration #  4     ecut=    80.00 Ry     beta=0.70
     Davidson diagonalization with overlap
     ethr =  1.00E-02,  avg # of iterations =  5.0

     negative rho (up, down):  2.482E+01 0.000E+00

     total cpu time spent up to now is     7717.4 secs

     total energy              =  -12833.25892819 Ry
     Harris-Foulkes estimate   =  -13136.21429779 Ry
     estimated scf accuracy    <    4106.60854270 Ry

     iteration #  5     ecut=    80.00 Ry     beta=0.70
     Davidson diagonalization with overlap
     ethr =  1.00E-02,  avg # of iterations =  4.8

     negative rho (up, down):  1.594E+01 0.000E+00

     total cpu time spent up to now is     8349.7 secs

     total energy              =  -12875.47613446 Ry
     Harris-Foulkes estimate   =  -13028.67665581 Ry
     estimated scf accuracy    <    1022.21125335 Ry

     iteration #  6     ecut=    80.00 Ry     beta=0.70
     Davidson diagonalization with overlap
     ethr =  1.00E-02,  avg # of iterations =  2.0

     negative rho (up, down):  9.736E+00 0.000E+00

     total cpu time spent up to now is     8778.0 secs

     total energy              =  -12843.46524689 Ry
     Harris-Foulkes estimate   =  -12910.81942762 Ry
     estimated scf accuracy    <     451.92283563 Ry

     iteration #  7     ecut=    80.00 Ry     beta=0.70
     Davidson diagonalization with overlap
     ethr =  1.00E-02,  avg # of iterations =  2.0

     negative rho (up, down):  7.411E+00 0.000E+00

     total cpu time spent up to now is     9126.1 secs

     total energy              =  -12831.85722229 Ry
     Harris-Foulkes estimate   =  -12862.55262625 Ry
     estimated scf accuracy    <     803.47021774 Ry

     iteration #  8     ecut=    80.00 Ry     beta=0.70
     Davidson diagonalization with overlap
     ethr =  1.00E-02,  avg # of iterations =  1.5

     negative rho (up, down):  7.038E+00 0.000E+00

     total cpu time spent up to now is     9458.9 secs

     total energy              =  -12832.71393856 Ry
     Harris-Foulkes estimate   =  -12840.89852844 Ry
     estimated scf accuracy    <     471.12322737 Ry

     iteration #  9     ecut=    80.00 Ry     beta=0.70
     Davidson diagonalization with overlap
     ethr =  1.00E-02,  avg # of iterations =  1.0

     negative rho (up, down):  6.537E+00 0.000E+00

     total cpu time spent up to now is     9781.0 secs

     total energy              =  -12828.08338872 Ry
     Harris-Foulkes estimate   =  -12835.09215194 Ry
     estimated scf accuracy    <     251.94507248 Ry

     iteration # 10     ecut=    80.00 Ry     beta=0.70
     Davidson diagonalization with overlap
     ethr =  1.00E-02,  avg # of iterations =  1.0

     negative rho (up, down):  1.416E+00 0.000E+00

     total cpu time spent up to now is    10103.9 secs

     total energy              =  -12779.58713307 Ry
     Harris-Foulkes estimate   =  -12829.70720396 Ry
     estimated scf accuracy    <     258.63945427 Ry

     iteration # 11     ecut=    80.00 Ry     beta=0.70
     Davidson diagonalization with overlap
     ethr =  1.00E-02,  avg # of iterations =  2.8

     negative rho (up, down):  8.775E-01 0.000E+00

     total cpu time spent up to now is    10493.9 secs

     total energy              =  -12771.64719513 Ry
     Harris-Foulkes estimate   =  -12794.11517737 Ry
     estimated scf accuracy    <     341.62187062 Ry

     iteration # 12     ecut=    80.00 Ry     beta=0.70
     Davidson diagonalization with overlap
     ethr =  1.00E-02,  avg # of iterations =  2.2

     negative rho (up, down):  1.645E+00 0.000E+00

     total cpu time spent up to now is    10843.5 secs

     total energy              =  -12761.69634309 Ry
     Harris-Foulkes estimate   =  -12782.32749969 Ry
     estimated scf accuracy    <     187.93172101 Ry

     iteration # 13     ecut=    80.00 Ry     beta=0.70
     Davidson diagonalization with overlap
     ethr =  1.00E-02,  avg # of iterations =  1.7

     negative rho (up, down):  3.170E+00 0.000E+00

     total cpu time spent up to now is    11178.3 secs

     total energy              =  -12753.14291202 Ry
     Harris-Foulkes estimate   =  -12771.04421653 Ry
     estimated scf accuracy    <     237.25990325 Ry

     iteration # 14     ecut=    80.00 Ry     beta=0.70
     Davidson diagonalization with overlap
     ethr =  1.00E-02,  avg # of iterations =  1.0

     negative rho (up, down):  3.876E+00 0.000E+00

     total cpu time spent up to now is    11499.3 secs

     total energy              =  -12755.51320502 Ry
     Harris-Foulkes estimate   =  -12763.17113641 Ry
     estimated scf accuracy    <     137.88151745 Ry

     iteration # 15     ecut=    80.00 Ry     beta=0.70
     Davidson diagonalization with overlap
     ethr =  1.00E-02,  avg # of iterations =  2.0

     negative rho (up, down):  4.864E+00 0.000E+00

     total cpu time spent up to now is    11842.5 secs

     total energy              =  -12753.54711425 Ry
     Harris-Foulkes estimate   =  -12759.33977573 Ry
     estimated scf accuracy    <      96.27881777 Ry

     iteration # 16     ecut=    80.00 Ry     beta=0.70
     Davidson diagonalization with overlap
     ethr =  7.39E-03,  avg # of iterations =  1.7

     negative rho (up, down):  4.398E+00 0.000E+00

     total cpu time spent up to now is    12178.8 secs

     total energy              =  -12751.46256284 Ry
     Harris-Foulkes estimate   =  -12755.17802494 Ry
     estimated scf accuracy    <      67.11159714 Ry

     iteration # 17     ecut=    80.00 Ry     beta=0.70
     Davidson diagonalization with overlap
     ethr =  5.15E-03,  avg # of iterations =  2.0

     negative rho (up, down):  1.984E+00 0.000E+00

     total cpu time spent up to now is    12523.6 secs

     total energy              =  -12748.29933336 Ry
     Harris-Foulkes estimate   =  -12754.07491670 Ry
     estimated scf accuracy    <      54.66708941 Ry

     iteration # 18     ecut=    80.00 Ry     beta=0.70
     Davidson diagonalization with overlap
     ethr =  4.20E-03,  avg # of iterations =  1.8

     negative rho (up, down):  3.388E+00 0.000E+00

     total cpu time spent up to now is    12864.2 secs

     total energy              =  -12746.89431285 Ry
     Harris-Foulkes estimate   =  -12749.78761143 Ry
     estimated scf accuracy    <      30.00223592 Ry

     iteration # 19     ecut=    80.00 Ry     beta=0.70
     Davidson diagonalization with overlap
     ethr =  2.30E-03,  avg # of iterations =  5.5

     negative rho (up, down):  3.276E+00 0.000E+00

     total cpu time spent up to now is    13300.3 secs

     total energy              =  -12746.84823882 Ry
     Harris-Foulkes estimate   =  -12747.94274186 Ry
     estimated scf accuracy    <      12.59289037 Ry

     iteration # 20     ecut=    80.00 Ry     beta=0.70
     Davidson diagonalization with overlap
     ethr =  9.67E-04,  avg # of iterations =  2.0

     negative rho (up, down):  3.015E+00 0.000E+00

     total cpu time spent up to now is    13645.6 secs

     total energy              =  -12745.72393339 Ry
     Harris-Foulkes estimate   =  -12747.18944872 Ry
     estimated scf accuracy    <       8.66109383 Ry

     iteration # 21     ecut=    80.00 Ry     beta=0.70
     Davidson diagonalization with overlap
     ethr =  6.65E-04,  avg # of iterations =  4.8

     negative rho (up, down):  2.386E+00 0.000E+00

     total cpu time spent up to now is    14053.6 secs

     total energy              =  -12745.43681908 Ry
     Harris-Foulkes estimate   =  -12746.10009450 Ry
     estimated scf accuracy    <       5.98091272 Ry

     iteration # 22     ecut=    80.00 Ry     beta=0.70
     Davidson diagonalization with overlap
     ethr =  4.59E-04,  avg # of iterations =  1.8

     negative rho (up, down):  1.849E+00 0.000E+00

     total cpu time spent up to now is    14394.0 secs

     total energy              =  -12744.43644575 Ry
     Harris-Foulkes estimate   =  -12745.59703427 Ry
     estimated scf accuracy    <       4.85230550 Ry

     iteration # 23     ecut=    80.00 Ry     beta=0.70
     Davidson diagonalization with overlap
     ethr =  3.73E-04,  avg # of iterations =  4.7

     negative rho (up, down):  1.657E+00 0.000E+00

     total cpu time spent up to now is    14795.2 secs

     total energy              =  -12744.17087332 Ry
     Harris-Foulkes estimate   =  -12744.64206599 Ry
     estimated scf accuracy    <       8.21409745 Ry

     iteration # 24     ecut=    80.00 Ry     beta=0.70
     Davidson diagonalization with overlap
     ethr =  3.73E-04,  avg # of iterations =  1.0

     negative rho (up, down):  7.837E-01 0.000E+00

     total cpu time spent up to now is    15122.4 secs

     total energy              =  -12742.88295484 Ry
     Harris-Foulkes estimate   =  -12744.20543167 Ry
     estimated scf accuracy    <       5.34296887 Ry

     iteration # 25     ecut=    80.00 Ry     beta=0.70
     Davidson diagonalization with overlap
     ethr =  3.73E-04,  avg # of iterations =  6.8

     negative rho (up, down):  6.285E-01 0.000E+00

     total cpu time spent up to now is    15571.5 secs

     total energy              =  -12742.09057673 Ry
     Harris-Foulkes estimate   =  -12743.00701460 Ry
     estimated scf accuracy    <       6.80119103 Ry

     iteration # 26     ecut=    80.00 Ry     beta=0.70
     Davidson diagonalization with overlap
     ethr =  3.73E-04,  avg # of iterations =  5.2

     negative rho (up, down):  9.338E-01 0.000E+00

     total cpu time spent up to now is    15985.3 secs

     total energy              =  -12742.05711845 Ry
     Harris-Foulkes estimate   =  -12742.35095675 Ry
     estimated scf accuracy    <       1.11145949 Ry

     iteration # 27     ecut=    80.00 Ry     beta=0.70
     Davidson diagonalization with overlap
     ethr =  8.54E-05,  avg # of iterations =  8.2

     negative rho (up, down):  9.063E-01 0.000E+00

     total cpu time spent up to now is    16537.2 secs

     total energy              =  -12742.04612926 Ry
     Harris-Foulkes estimate   =  -12742.13808231 Ry
     estimated scf accuracy    <       0.65271995 Ry

     iteration # 28     ecut=    80.00 Ry     beta=0.70
     Davidson diagonalization with overlap
     ethr =  5.01E-05,  avg # of iterations =  7.0

     negative rho (up, down):  7.104E-01 0.000E+00

     total cpu time spent up to now is    17015.8 secs

     total energy              =  -12742.03955296 Ry
     Harris-Foulkes estimate   =  -12742.07862289 Ry
     estimated scf accuracy    <       0.24880875 Ry

     iteration # 29     ecut=    80.00 Ry     beta=0.70
     Davidson diagonalization with overlap
     ethr =  1.91E-05,  avg # of iterations =  6.2

     negative rho (up, down):  4.774E-01 0.000E+00

     total cpu time spent up to now is    17457.8 secs

     total energy              =  -12742.00884775 Ry
     Harris-Foulkes estimate   =  -12742.04591413 Ry
     estimated scf accuracy    <       0.15935148 Ry

     iteration # 30     ecut=    80.00 Ry     beta=0.70
     Davidson diagonalization with overlap
     ethr =  1.22E-05,  avg # of iterations =  9.3

     negative rho (up, down):  2.699E-01 0.000E+00

     total cpu time spent up to now is    17999.9 secs

     total energy              =  -12741.99018955 Ry
     Harris-Foulkes estimate   =  -12742.01725580 Ry
     estimated scf accuracy    <       0.14445739 Ry

     iteration # 31     ecut=    80.00 Ry     beta=0.70
     Davidson diagonalization with overlap
     ethr =  1.11E-05,  avg # of iterations =  7.0

     negative rho (up, down):  1.780E-01 0.000E+00

     total cpu time spent up to now is    18495.9 secs

     total energy              =  -12741.98563593 Ry
     Harris-Foulkes estimate   =  -12741.99658892 Ry
     estimated scf accuracy    <       0.05671246 Ry

     iteration # 32     ecut=    80.00 Ry     beta=0.70
     Davidson diagonalization with overlap
     ethr =  4.36E-06,  avg # of iterations = 14.7

     negative rho (up, down):  8.623E-02 0.000E+00

     total cpu time spent up to now is    19174.4 secs

     total energy              =  -12741.98092682 Ry
     Harris-Foulkes estimate   =  -12741.98788691 Ry
     estimated scf accuracy    <       0.01374838 Ry

     iteration # 33     ecut=    80.00 Ry     beta=0.70
     Davidson diagonalization with overlap
     c_bands:  1 eigenvalues not converged
     ethr =  1.06E-06,  avg # of iterations = 17.7

     negative rho (up, down):  6.787E-02 0.000E+00

     total cpu time spent up to now is    19945.4 secs

     total energy              =  -12741.98109623 Ry
     Harris-Foulkes estimate   =  -12741.98188340 Ry
     estimated scf accuracy    <       0.00416744 Ry

     iteration # 34     ecut=    80.00 Ry     beta=0.70
     Davidson diagonalization with overlap
     c_bands:  1 eigenvalues not converged
     ethr =  3.20E-07,  avg # of iterations = 11.8

     negative rho (up, down):  2.562E-02 0.000E+00

     total cpu time spent up to now is    20523.9 secs

     total energy              =  -12741.98026785 Ry
     Harris-Foulkes estimate   =  -12741.98140785 Ry
     estimated scf accuracy    <       0.00191652 Ry

     iteration # 35     ecut=    80.00 Ry     beta=0.70
     Davidson diagonalization with overlap
     c_bands:  2 eigenvalues not converged
     ethr =  1.47E-07,  avg # of iterations = 11.2

     negative rho (up, down):  6.208E-03 0.000E+00

     total cpu time spent up to now is    21114.2 secs

     total energy              =  -12741.97997572 Ry
     Harris-Foulkes estimate   =  -12741.98039125 Ry
     estimated scf accuracy    <       0.00056794 Ry

     iteration # 36     ecut=    80.00 Ry     beta=0.70
     Davidson diagonalization with overlap
     ethr =  4.36E-08,  avg # of iterations =  9.8

     negative rho (up, down):  6.973E-04 0.000E+00

     total cpu time spent up to now is    21670.9 secs

     total energy              =  -12741.98004990 Ry
     Harris-Foulkes estimate   =  -12741.98001987 Ry
     estimated scf accuracy    <       0.00009985 Ry

     iteration # 37     ecut=    80.00 Ry     beta=0.70
     Davidson diagonalization with overlap
     ethr =  7.67E-09,  avg # of iterations =  9.2

     negative rho (up, down):  2.406E-03 0.000E+00

     total cpu time spent up to now is    22240.2 secs

     total energy              =  -12741.98017269 Ry
     Harris-Foulkes estimate   =  -12741.98006234 Ry
     estimated scf accuracy    <       0.00005312 Ry

     iteration # 38     ecut=    80.00 Ry     beta=0.70
     Davidson diagonalization with overlap
     ethr =  4.08E-09,  avg # of iterations = 11.8

     negative rho (up, down):  2.702E-03 0.000E+00

     total cpu time spent up to now is    22851.0 secs

     total energy              =  -12741.98018988 Ry
     Harris-Foulkes estimate   =  -12741.98017795 Ry
     estimated scf accuracy    <       0.00001458 Ry

     iteration # 39     ecut=    80.00 Ry     beta=0.70
     Davidson diagonalization with overlap
     ethr =  1.12E-09,  avg # of iterations =  4.0

     negative rho (up, down):  2.269E-03 0.000E+00

     total cpu time spent up to now is    23252.7 secs

     total energy              =  -12741.98018775 Ry
     Harris-Foulkes estimate   =  -12741.98019080 Ry
     estimated scf accuracy    <       0.00000350 Ry

     iteration # 40     ecut=    80.00 Ry     beta=0.70
     Davidson diagonalization with overlap
     ethr =  2.69E-10,  avg # of iterations =  3.0

     negative rho (up, down):  2.195E-03 0.000E+00

     total cpu time spent up to now is    23634.9 secs

     total energy              =  -12741.98018798 Ry
     Harris-Foulkes estimate   =  -12741.98018808 Ry
     estimated scf accuracy    <       0.00000155 Ry

     iteration # 41     ecut=    80.00 Ry     beta=0.70
     Davidson diagonalization with overlap
     ethr =  1.19E-10,  avg # of iterations =  3.0

     negative rho (up, down):  1.964E-03 0.000E+00

     total cpu time spent up to now is    24032.4 secs

     total energy              =  -12741.98018737 Ry
     Harris-Foulkes estimate   =  -12741.98018813 Ry
     estimated scf accuracy    <       0.00000076 Ry

     iteration # 42     ecut=    80.00 Ry     beta=0.70
     Davidson diagonalization with overlap
     ethr =  5.81E-11,  avg # of iterations =  3.5

     negative rho (up, down):  1.811E-03 0.000E+00

     total cpu time spent up to now is    24453.8 secs

     total energy              =  -12741.98018735 Ry
     Harris-Foulkes estimate   =  -12741.98018748 Ry
     estimated scf accuracy    <       0.00000043 Ry

     iteration # 43     ecut=    80.00 Ry     beta=0.70
     Davidson diagonalization with overlap
     ethr =  3.33E-11,  avg # of iterations =  3.0

     negative rho (up, down):  1.803E-03 0.000E+00

     total cpu time spent up to now is    24838.9 secs

     total energy              =  -12741.98018760 Ry
     Harris-Foulkes estimate   =  -12741.98018739 Ry
     estimated scf accuracy    <       0.00000015 Ry

     iteration # 44     ecut=    80.00 Ry     beta=0.70
     Davidson diagonalization with overlap
     ethr =  1.17E-11,  avg # of iterations =  3.7

     negative rho (up, down):  1.794E-03 0.000E+00

     total cpu time spent up to now is    25234.1 secs

     total energy              =  -12741.98018765 Ry
     Harris-Foulkes estimate   =  -12741.98018761 Ry
     estimated scf accuracy    <       0.00000002 Ry

     iteration # 45     ecut=    80.00 Ry     beta=0.70
     Davidson diagonalization with overlap
     ethr =  1.50E-12,  avg # of iterations =  3.0

     negative rho (up, down):  1.797E-03 0.000E+00

     total cpu time spent up to now is    25719.1 secs

     total energy              =  -12741.98018767 Ry
     Harris-Foulkes estimate   =  -12741.98018766 Ry
     estimated scf accuracy    <       0.00000001 Ry

     iteration # 46     ecut=    80.00 Ry     beta=0.70
     Davidson diagonalization with overlap
     ethr =  8.91E-13,  avg # of iterations =  3.0

     negative rho (up, down):  1.784E-03 0.000E+00

     total cpu time spent up to now is    26084.4 secs

     End of self-consistent calculation

          k = 0.0000 0.0000 0.0000 (256287 PWs)   bands (ev):

   -18.9624 -16.1162 -15.7534 -15.7353 -14.6457 -14.6326 -14.1553 -14.1510
   -13.8045 -13.8019 -13.7840 -13.7718 -12.8510 -12.8295 -12.7332 -12.7262
   -12.7188 -12.7042 -11.0390 -11.0365 -11.0212 -11.0148 -10.8220  -9.8216
    -9.1520  -9.1441  -9.1375  -9.1342  -8.2789  -8.2606  -8.2540  -8.2518
    -7.2913  -7.2694  -7.2066  -7.2055  -7.1823  -7.1789  -7.1725  -7.1713
    -5.7335  -5.6831  -5.6568  -5.6360  -5.6125  -5.5062  -5.4839  -5.4638
    -5.4631  -5.3293  -5.1958  -5.1841  -4.7838  -4.3638  -4.3352  -4.3263
    -4.3168  -4.2876  -4.0056  -3.9818  -3.8891  -3.8466  -3.6985  -3.6980
    -3.2042  -3.1847  -3.1740  -3.1704  -3.1290  -3.1173  -3.0906  -3.0324
    -3.0213  -3.0156  -2.9843  -2.8955  -2.7283  -2.7180  -2.7172  -2.7167
    -2.6885  -2.6713  -2.6627  -2.5852  -2.4811  -2.4730  -2.4511  -2.4394
    -2.3813  -2.3741  -2.3527  -2.3406  -2.2501  -2.2421  -2.1004  -2.0865
    -2.0672  -2.0642  -1.9842  -1.9288  -1.9008  -1.8997  -1.8608  -1.8606
    -1.8589  -1.8585  -1.8374  -1.7780  -1.7341  -1.7302  -1.7295  -1.7260
    -1.7259  -1.6698  -1.6619  -1.6540  -1.5496  -1.5333  -1.4830  -1.4497
    -1.4454  -1.4446  -1.4431  -1.4054  -1.3945  -1.3792  -1.3653  -1.3600
    -1.3140  -1.3087  -1.2906  -1.2738  -1.2709  -1.2693  -1.2533  -1.2395
    -1.2383  -1.2298  -1.2216  -1.2197  -1.1617  -1.1457  -1.1280  -1.1220
    -1.0842  -1.0827  -1.0735  -1.0582  -1.0321  -1.0043  -1.0014  -0.9704
    -0.9692  -0.9558  -0.9483  -0.9172  -0.9163  -0.8974  -0.8942  -0.8729
    -0.8688  -0.8349  -0.8220  -0.8126  -0.8068  -0.7923  -0.7552  -0.7501
    -0.7428  -0.7354  -0.7329  -0.7291  -0.7289  -0.7269  -0.7267  -0.7233
    -0.7209  -0.7039  -0.6957  -0.6710  -0.6576  -0.6438  -0.6348  -0.6320
    -0.6246  -0.6241  -0.6221  -0.5864  -0.5658  -0.5643  -0.5635  -0.5632
    -0.5619  -0.5616  -0.5606  -0.5561  -0.5549  -0.5534  -0.5532  -0.5521
    -0.5514  -0.5472  -0.5470  -0.5371  -0.5359  -0.5279  -0.5099  -0.4930
    -0.4879  -0.3955  -0.3952  -0.3884  -0.3878  -0.3669  -0.3659  -0.3502
    -0.3468  -0.3451  -0.3267  -0.3255  -0.3143  -0.3132  -0.3070  -0.3060
    -0.2971  -0.2941  -0.2706  -0.2703  -0.2663  -0.2654  -0.2598  -0.2591
    -0.2486  -0.2478  -0.1981  -0.1973  -0.1444  -0.1441  -0.1340  -0.1335
    -0.1318  -0.1288  -0.1169  -0.1169  -0.1115  -0.1114  -0.1096  -0.1089
    -0.1056  -0.1054  -0.0920  -0.0904  -0.0901  -0.0866  -0.0857  -0.0749
    -0.0560  -0.0551  -0.0071  -0.0061  -0.0009   0.0025   0.0028   0.0263
     0.0265   0.0330   0.0332   0.0423   0.0462   0.0469   0.0521   0.0523
     0.0672   0.0704   0.0711   0.0755   0.0780   0.0789   0.0827   0.0827
     0.0841   0.0856   0.0976   0.1024   0.1038   0.1066   0.1068   0.1256
     0.1681   0.1736   0.1755   0.1763   0.1769   0.2120   0.2210   0.2259
     0.2271   0.2293   0.2328   0.2330   0.2336   0.2353   0.2376   0.2479
     0.2778   0.2843   0.2853   0.2877   0.2946   0.3059   0.3100   0.3134
     0.3173   0.3197   0.3244   0.3282   0.3401   0.3409   0.3413   0.3418
     0.3456   0.3513   0.3543   0.3574   0.3576   0.3582   0.3660   0.3671
     0.3725   0.3752   0.3793   0.3840   0.3971   0.3989   0.4303   0.4303
     0.4551   0.4579   0.4594   0.4788   0.4883   0.5157   0.5238   0.5253
     0.5310   0.5380   0.5429   0.5453   0.5650   0.5661   0.5672   0.5685
     0.5687   0.5761   0.5795   0.5803   0.6253   0.6335   0.6344   0.6420
     0.6430   0.6442   0.6451   0.6725   0.6745   0.6765   0.6779   0.6786
     0.6986   0.7097   0.7146   0.7151   0.7180   0.7220   0.7312   0.7330
     0.7357   0.7457   0.7722   0.7772   0.7845   0.7880   0.7890   0.7977
     0.7980   0.8022   0.8191   0.8201   0.8226   0.8287   0.8290   0.8307
     0.8322   0.8341   0.8401   0.8420   0.8422   0.8489   0.8496   0.8512
     0.8543   0.8582   0.8597   0.8938   0.8983   0.8983   0.9037   0.9147
     0.9414   0.9420   0.9436   0.9437   0.9472   0.9473   0.9481   0.9491
     0.9578   0.9606   0.9646   0.9728   0.9733   0.9751   0.9763   0.9813
     0.9815   0.9877   0.9920   1.0051   1.0136   1.0140   1.0154   1.0177
     1.0255   1.0281   1.0368   1.0402   1.0403   1.0415   1.0463   1.0471
     1.0491   1.0538   1.0617   1.0702   1.0826   1.0858   1.0996   1.0999
     1.1107   1.1138   1.1153   1.1157   1.1214   1.1219   1.1498   1.1509
     1.1631   1.1648   1.1706   1.1710   1.1847   1.1849   1.1899   1.1932
     1.1935   1.1942   1.2060   1.2149   1.2274   1.2316   1.2336   1.2350
     1.2366   1.2372   1.2512   1.2557   1.2610   1.2730   1.2804   1.2808
     1.2935   1.2997   1.3035   1.3041   1.3060   1.3078   1.3081   1.3091
     1.3171   1.3180   1.3206   1.3225   1.3231   1.3235   1.3236   1.3352
     1.3358   1.3454   1.3573   1.3584   1.3602   1.3621   1.3671   1.3826
     1.3975   1.3988   1.4024   1.4036   1.4045   1.4054   1.4080   1.4095
     1.4106   1.4113   1.4122   1.4152   1.4161   1.4224   1.4290   1.4303
     1.4576   1.4734   1.4759   1.4898   1.4913   1.4958   1.4982   1.4988
     1.5005   1.5033   1.5102   1.5201   1.5297   1.5312   1.5335   1.5336
     1.5355   1.5368   1.5381   1.5389   1.5409   1.5498   1.5521   1.5663
     1.5681   1.5690   1.5712   1.5723   1.5724   1.5742   1.5744   1.5883
     1.5887   1.5901   1.5976   1.6040   1.6045   1.6056   1.6057   1.6079
     1.6153   1.6183   1.6227   1.6361   1.6485   1.6487   1.6498   1.6499
     1.6505   1.6549   1.6559   1.6678   1.6775   1.6815   1.6828   1.6866
     1.6948   1.6952   1.7059   1.7081   1.7186   1.7192   1.7245   1.7251
     1.7279   1.7285   1.7291   1.7296   1.7298   1.7311   1.7333   1.7384
     1.7397   1.7450   1.7555   1.7598   1.7613   1.7624   1.7630   1.7666
     1.7740   1.7781   1.8040   1.8073   1.8077   1.8141   1.8479   1.8507
     1.8515   1.8549   1.8644   1.8735   1.8758   1.8819   1.8856   1.9020
     1.9099   1.9229   1.9252   1.9262   1.9273   1.9368   1.9376   1.9398
     1.9517   2.1944   2.2492   2.3995   2.4041   2.4435   2.4472   2.4976
     2.5009   2.5012   2.5022   2.5171   2.5182   2.5192   2.5230   2.6909
     2.6956   2.7563   2.7582   2.7602   2.7616   2.7723   2.7758   3.0110
     3.0116   3.0122   3.0128   3.3027   3.3172   3.3601   3.3674   3.4507
     3.8061   3.8129   4.1038   4.1097   4.1407   4.1411   4.1415   4.1437
     4.1921   4.2518   4.2559   4.2651   4.2918   4.2965   4.2987   4.3004
     4.3024   4.3032   4.5308   4.5359   4.5380   4.5416   4.6897   4.7705
     5.0488   5.0795   5.1491   5.2276   5.2537   5.5904   5.6589   5.6877
     5.6943   5.9566   5.9692   6.0100   6.0145   6.0894   6.2235   6.2356
     6.4413   6.6115   6.6362   6.6995   6.7025   6.7521   6.7588   6.7632
     6.7752   6.8957   6.9050   6.9374   6.9824   7.0659   7.0702   7.0815
     7.1148   7.2191   7.3133   7.3426   7.3755   7.3789   7.3848   7.4231
     7.5225   7.5740   7.6474   7.6501   7.8137   7.8353   7.9785   7.9794
     7.9879   7.9994   8.0209   8.0306   8.2154   8.4245   8.4777   8.4919
     8.5624   8.5689   8.5749   8.5996   8.6269   8.6282   8.6532   8.6670
     8.6856   8.7235   8.8172   8.8416   8.8800   8.8926   8.9155   8.9259
     8.9348   8.9377   8.9483   8.9911   9.1223   9.1265   9.1290   9.1440
     9.3700   9.3790   9.3797   9.3843   9.3895   9.4011   9.4112   9.4282
     9.5471   9.6284   9.6339   9.6483   9.7483   9.7926   9.8693   9.8694
    10.1214  10.1347  10.1456  10.1872  10.2009

          k = 0.0000-0.2165 0.0000 (256176 PWs)   bands (ev):

   -18.9624 -16.0263 -16.0200 -15.2891 -15.2746 -14.0710 -14.0688 -14.0600
   -14.0513 -13.8296 -13.8115 -13.3589 -13.3512 -13.3361 -13.3185 -11.9557
   -11.9521 -11.9356 -11.9281 -11.7283 -11.7131 -10.0430 -10.0389 -10.0295
   -10.0256  -8.8055  -8.7759  -8.6390  -8.6267  -8.6217  -8.6199  -7.8155
    -7.7963  -7.7909  -7.7896  -6.6267  -6.6226  -6.6093  -6.6080  -6.4889
    -6.4785  -6.4558  -6.4389  -5.6788  -5.6385  -5.5991  -5.5959  -5.3674
    -4.8249  -4.8195  -4.7992  -4.7827  -4.7004  -4.6342  -4.5484  -4.5449
    -4.2595  -4.2434  -4.2397  -4.2341  -4.2069  -4.1935  -3.7928  -3.7513
    -3.3506  -3.2919  -3.0151  -3.0146  -3.0132  -3.0115  -2.9473  -2.9345
    -2.8233  -2.7720  -2.7424  -2.7413  -2.7131  -2.7023  -2.6833  -2.6728
    -2.6112  -2.5240  -2.5138  -2.4950  -2.4855  -2.4544  -2.4130  -2.3859
    -2.3281  -2.3221  -2.2893  -2.2890  -2.2875  -2.2862  -2.2376  -2.2327
    -2.2017  -2.1818  -2.0832  -2.0250  -1.9805  -1.9736  -1.9588  -1.9553
    -1.9062  -1.8615  -1.8569  -1.8525  -1.8473  -1.7941  -1.7340  -1.6932
    -1.6931  -1.6676  -1.6675  -1.6366  -1.5809  -1.5702  -1.5395  -1.4825
    -1.4759  -1.4736  -1.4580  -1.4572  -1.4547  -1.4483  -1.4482  -1.4309
    -1.4252  -1.4157  -1.3540  -1.3480  -1.3161  -1.2642  -1.2458  -1.2150
    -1.1789  -1.1701  -1.1678  -1.1663  -1.0874  -1.0833  -1.0781  -1.0759
    -1.0222  -1.0218  -1.0082  -0.9879  -0.9851  -0.9815  -0.9805  -0.9802
    -0.9735  -0.9667  -0.9591  -0.9526  -0.9401  -0.9320  -0.9305  -0.9268
    -0.9227  -0.9190  -0.8733  -0.8518  -0.8507  -0.8435  -0.8409  -0.8405
    -0.7940  -0.7938  -0.7561  -0.7556  -0.7528  -0.7524  -0.7161  -0.7056
    -0.6925  -0.6920  -0.6864  -0.6852  -0.6848  -0.6820  -0.6345  -0.6314
    -0.6259  -0.6256  -0.6169  -0.6164  -0.6135  -0.6090  -0.5989  -0.5988
    -0.5395  -0.5361  -0.5312  -0.5248  -0.5243  -0.5232  -0.5220  -0.5143
    -0.5026  -0.5024  -0.4918  -0.4817  -0.4602  -0.4600  -0.4584  -0.4567
    -0.3656  -0.3654  -0.3534  -0.3525  -0.3384  -0.3381  -0.3190  -0.3131
    -0.3111  -0.3101  -0.3066  -0.3065  -0.2841  -0.2804  -0.2794  -0.2491
    -0.2485  -0.2473  -0.2437  -0.2435  -0.2417  -0.2410  -0.2385  -0.2098
    -0.2090  -0.1901  -0.1901  -0.1900  -0.1834  -0.1557  -0.1547  -0.1531
    -0.1513  -0.1490  -0.1467  -0.1432  -0.1339  -0.1327  -0.1238  -0.0715
    -0.0709  -0.0548  -0.0543  -0.0338  -0.0309  -0.0269  -0.0094  -0.0091
    -0.0043  -0.0018  -0.0014  -0.0005   0.0046   0.0181   0.0191   0.0306
     0.0314   0.0317   0.0329   0.0423   0.0483   0.0492   0.0498   0.0507
     0.0515   0.0555   0.0571   0.0621   0.0636   0.0876   0.0879   0.0906
     0.0908   0.1252   0.1498   0.1515   0.1534   0.1535   0.1565   0.1604
     0.1620   0.1657   0.1661   0.1748   0.1761   0.1943   0.1961   0.2014
     0.2067   0.2069   0.2135   0.2146   0.2163   0.2176   0.2188   0.2203
     0.2228   0.2314   0.2622   0.2768   0.2769   0.2777   0.2785   0.2981
     0.2986   0.2994   0.3004   0.3022   0.3053   0.3122   0.3207   0.3215
     0.3295   0.3305   0.3416   0.3439   0.3529   0.3543   0.3689   0.3691
     0.3703   0.3711   0.3885   0.3908   0.4058   0.4059   0.4140   0.4165
     0.4257   0.4283   0.4286   0.4295   0.4714   0.4719   0.4791   0.4797
     0.4828   0.4964   0.4968   0.4974   0.5214   0.5227   0.5546   0.5599
     0.5605   0.5616   0.5830   0.6102   0.6248   0.6415   0.6648   0.6767
     0.6773   0.6837   0.6848   0.7046   0.7059   0.7068   0.7096   0.7217
     0.7365   0.7439   0.7452   0.7468   0.7476   0.7481   0.7493   0.7546
     0.7569   0.7588   0.7681   0.7699   0.7701   0.7714   0.7749   0.7774
     0.7789   0.7830   0.8056   0.8092   0.8112   0.8189   0.8191   0.8205
     0.8225   0.8282   0.8282   0.8503   0.8509   0.8513   0.8518   0.8520
     0.8532   0.8532   0.8544   0.8582   0.8684   0.8740   0.8757   0.8758
     0.8775   0.8810   0.8826   0.8864   0.8888   0.9046   0.9374   0.9395
     0.9508   0.9511   0.9543   0.9597   0.9622   0.9626   0.9636   0.9665
     0.9714   0.9743   0.9743   0.9746   0.9763   0.9771   1.0064   1.0185
     1.0195   1.0196   1.0210   1.0353   1.0362   1.0372   1.0375   1.0383
     1.0418   1.0551   1.0663   1.0690   1.0709   1.0743   1.0754   1.0765
     1.1260   1.1286   1.1531   1.1794   1.1842   1.1857   1.1881   1.1895
     1.1911   1.1989   1.2020   1.2038   1.2047   1.2100   1.2116   1.2189
     1.2198   1.2211   1.2212   1.2335   1.2337   1.2342   1.2345   1.2351
     1.2409   1.2497   1.2534   1.2582   1.2583   1.2584   1.2614   1.2618
     1.2673   1.2675   1.2688   1.2801   1.2809   1.2816   1.2842   1.2847
     1.2866   1.2869   1.3003   1.3060   1.3073   1.3166   1.3205   1.3210
     1.3248   1.3251   1.3318   1.3325   1.3334   1.3338   1.3339   1.3361
     1.3530   1.3852   1.3891   1.4132   1.4159   1.4217   1.4224   1.4360
     1.4426   1.4470   1.4480   1.4494   1.4527   1.4645   1.4658   1.4745
     1.4822   1.4859   1.4871   1.4890   1.4899   1.4929   1.4936   1.4940
     1.4947   1.4952   1.4964   1.4975   1.5045   1.5047   1.5051   1.5171
     1.5209   1.5230   1.5238   1.5245   1.5330   1.5349   1.5356   1.5628
     1.5630   1.5638   1.5664   1.5689   1.5707   1.5725   1.5751   1.5889
     1.5904   1.5923   1.5928   1.6042   1.6060   1.6070   1.6086   1.6095
     1.6185   1.6229   1.6265   1.6270   1.6276   1.6451   1.6453   1.6469
     1.6485   1.6655   1.6678   1.6733   1.6740   1.6745   1.6753   1.6861
     1.6872   1.6897   1.6904   1.7040   1.7053   1.7197   1.7205   1.7213
     1.7256   1.7390   1.7406   1.7412   1.7430   1.7446   1.7448   1.7458
     1.7463   1.7724   1.7737   1.7810   1.7811   1.7848   1.7984   1.8009
     1.8081   1.8117   1.8132   1.8142   1.8169   1.8201   1.8297   1.8313
     1.8431   1.8780   1.8817   1.8826   1.8832   1.9814   1.9839   2.0024
     2.0096   2.0256   2.0292   2.0308   2.0415   2.0796   2.0833   2.0837
     2.0912   2.1054   2.1067   2.1081   2.1129   2.1433   2.1497   2.3981
     2.4091   2.4370   2.5116   2.6993   2.7116   2.7171   2.7178   2.7885
     2.7918   2.8542   2.8557   2.8566   2.8574   2.8713   2.8720   3.0001
     3.0030   3.0441   3.0543   3.0725   3.0735   3.2155   3.2169   3.4543
     3.4543   3.4828   3.4849   3.6680   3.6867   3.9555   3.9652   4.1912
     4.2199   4.2606   4.2844   4.3859   4.3970   4.4043   4.4276   4.6075
     4.6093   4.6178   4.6196   4.7786   4.7859   4.9561   4.9872   5.0356
     5.0414   5.2564   5.3441   5.3901   5.3942   5.5863   5.6451   5.6478
     5.6490   5.6517   5.7071   5.7983   5.9239   5.9449   6.0544   6.0835
     6.1315   6.4899   6.6003   6.6675   6.6762   6.6966   6.7231   6.7270
     6.8201   6.8383   6.9496   6.9608   6.9728   7.0796   7.0977   7.3067
     7.3312   7.3484   7.3513   7.3664   7.3965   7.4012   7.4137   7.4148
     7.4279   7.5767   7.6206   7.6390   7.6816   7.6912   7.7014   7.7633
     7.8326   8.0292   8.0597   8.1033   8.1568   8.1682   8.2243   8.4277
     8.4280   8.6429   8.6475   8.6478   8.6715   8.6897   8.7136   8.7155
     8.7647   8.8241   8.8817   8.9898   8.9916   8.9994   9.0000   9.0080
     9.0366   9.0600   9.0983   9.1799   9.2001   9.2381   9.2939   9.3073
     9.3229   9.4243   9.4353   9.4417   9.5003   9.5303   9.5512   9.6539
     9.6548   9.6955   9.6965   9.7487   9.7556   9.7664   9.7968   9.9419
     9.9565  10.0131  10.0260  10.0785  10.2573

          k = 0.2500 0.0000 0.0000 (256240 PWs)   bands (ev):

   -18.9623 -15.9922 -15.6300 -15.6118 -15.0055 -14.6485 -14.6297 -14.5237
   -14.5089 -13.5585 -13.5457 -13.0762 -12.7368 -12.7322 -12.7107 -12.7073
   -11.8100 -11.7920 -11.6958 -11.6874 -10.7176 -10.4065 -10.3932 -10.3867
    -9.8756  -9.7168  -9.4238  -9.4100  -9.0166  -8.7692  -8.7562  -8.2090
    -7.2256  -7.2058  -7.1867  -7.1761  -7.0899  -7.0669  -6.6107  -6.3402
    -5.7869  -5.6015  -5.5796  -5.5645  -5.5559  -5.5501  -5.3388  -5.0227
    -5.0159  -4.8369  -4.8198  -4.6330  -4.3247  -4.1951  -4.1792  -4.1758
    -4.1645  -4.0350  -4.0244  -3.9844  -3.9708  -3.7569  -3.7111  -3.7083
    -3.6988  -3.5525  -3.5513  -3.5507  -3.4478  -3.2796  -3.2563  -3.2056
    -3.1799  -3.1741  -3.1663  -3.1286  -3.0792  -3.0638  -2.9917  -2.9686
    -2.8888  -2.8561  -2.7967  -2.7460  -2.6639  -2.6039  -2.5091  -2.5082
    -2.5002  -2.4725  -2.3382  -2.3325  -2.1524  -2.1310  -2.1125  -2.0976
    -2.0585  -2.0372  -1.9345  -1.8079  -1.8073  -1.7907  -1.7896  -1.7587
    -1.7183  -1.7068  -1.6717  -1.6536  -1.6084  -1.6033  -1.5762  -1.5455
    -1.5081  -1.5081  -1.5007  -1.5004  -1.4801  -1.4668  -1.4529  -1.4339
    -1.4236  -1.4183  -1.3835  -1.3557  -1.3532  -1.3320  -1.3104  -1.3008
    -1.2899  -1.2860  -1.2857  -1.2854  -1.2841  -1.2714  -1.2343  -1.2322
    -1.2103  -1.2079  -1.1983  -1.1970  -1.0830  -1.0763  -1.0429  -1.0426
    -1.0185  -0.9838  -0.9763  -0.9623  -0.9507  -0.9492  -0.9435  -0.9355
    -0.9282  -0.9193  -0.9137  -0.8916  -0.8883  -0.8873  -0.8826  -0.8703
    -0.8443  -0.8416  -0.8393  -0.8386  -0.8367  -0.8191  -0.8167  -0.8128
    -0.7919  -0.7839  -0.7584  -0.7576  -0.7555  -0.7531  -0.7498  -0.7262
    -0.7196  -0.7191  -0.7123  -0.7079  -0.7018  -0.6966  -0.6900  -0.6893
    -0.6867  -0.6856  -0.6826  -0.6811  -0.6761  -0.6705  -0.6588  -0.6520
    -0.6472  -0.6397  -0.6351  -0.6091  -0.6088  -0.6067  -0.6014  -0.5693
    -0.5597  -0.5574  -0.5214  -0.5213  -0.5032  -0.5020  -0.4938  -0.4767
    -0.4763  -0.4625  -0.4606  -0.4592  -0.4543  -0.4493  -0.4437  -0.4288
    -0.3108  -0.3093  -0.3056  -0.3048  -0.2742  -0.2735  -0.2728  -0.2565
    -0.2564  -0.2555  -0.2544  -0.2468  -0.2355  -0.2330  -0.2326  -0.2236
    -0.2222  -0.2042  -0.1918  -0.1911  -0.1903  -0.1885  -0.1876  -0.1667
    -0.1666  -0.1629  -0.1204  -0.1081  -0.1055  -0.1050  -0.1045  -0.0984
    -0.0966  -0.0934  -0.0861  -0.0795  -0.0629  -0.0623  -0.0529  -0.0400
    -0.0400  -0.0351  -0.0235  -0.0017  -0.0011   0.0030   0.0034   0.0115
     0.0136   0.0226   0.0271   0.0294   0.0367   0.0431   0.0564   0.0636
     0.0677   0.0909   0.0934   0.0953   0.0977   0.1000   0.1058   0.1120
     0.1126   0.1141   0.1183   0.1362   0.1413   0.1415   0.1539   0.1570
     0.1762   0.1794   0.1819   0.1829   0.1855   0.2209   0.2284   0.2310
     0.2317   0.2339   0.2430   0.2562   0.2736   0.2745   0.2806   0.2821
     0.2854   0.2868   0.2881   0.2939   0.3000   0.3005   0.3012   0.3028
     0.3039   0.3073   0.3247   0.3269   0.3271   0.3296   0.3337   0.3362
     0.3519   0.3525   0.3686   0.3727   0.3877   0.3903   0.4078   0.4084
     0.4107   0.4116   0.4144   0.4255   0.4321   0.4338   0.4353   0.4354
     0.4363   0.4682   0.4712   0.4946   0.5024   0.5457   0.5463   0.5483
     0.5567   0.5621   0.5638   0.5651   0.5656   0.5693   0.5768   0.5787
     0.5792   0.5832   0.5864   0.5906   0.5917   0.5991   0.5998   0.6015
     0.6031   0.6125   0.6154   0.6222   0.6266   0.6288   0.6331   0.6391
     0.6506   0.6592   0.6612   0.6914   0.6963   0.6997   0.7063   0.7179
     0.7186   0.7354   0.7362   0.7364   0.7407   0.7468   0.7559   0.7679
     0.7709   0.7723   0.7809   0.7812   0.7830   0.7853   0.7904   0.7908
     0.8073   0.8121   0.8194   0.8253   0.8333   0.8411   0.8417   0.8441
     0.8450   0.8460   0.8492   0.8504   0.8640   0.8745   0.8747   0.8779
     0.8855   0.8867   0.8902   0.8931   0.8967   0.9027   0.9034   0.9117
     0.9139   0.9176   0.9316   0.9329   0.9505   0.9514   0.9548   0.9575
     0.9630   0.9641   0.9680   0.9844   0.9956   0.9994   1.0170   1.0215
     1.0346   1.0348   1.0392   1.0409   1.0419   1.0582   1.0606   1.0658
     1.0687   1.0725   1.0733   1.0834   1.0858   1.0961   1.0968   1.1082
     1.1115   1.1176   1.1191   1.1204   1.1306   1.1467   1.1494   1.1503
     1.1521   1.1717   1.1747   1.1829   1.1850   1.1866   1.1876   1.1885
     1.1960   1.1974   1.2014   1.2036   1.2232   1.2373   1.2427   1.2436
     1.2467   1.2486   1.2494   1.2599   1.2623   1.2716   1.2815   1.2837
     1.2858   1.2883   1.2942   1.2954   1.3000   1.3099   1.3119   1.3128
     1.3135   1.3156   1.3171   1.3191   1.3217   1.3252   1.3255   1.3277
     1.3319   1.3352   1.3391   1.3516   1.3533   1.3561   1.3608   1.3614
     1.3618   1.3690   1.3705   1.3742   1.3846   1.3877   1.3973   1.4010
     1.4014   1.4028   1.4046   1.4147   1.4275   1.4292   1.4299   1.4402
     1.4424   1.4497   1.4503   1.4513   1.4528   1.4581   1.4698   1.4764
     1.4820   1.4859   1.4870   1.5082   1.5209   1.5294   1.5327   1.5377
     1.5381   1.5428   1.5471   1.5472   1.5485   1.5512   1.5562   1.5638
     1.5689   1.5725   1.5733   1.5764   1.5809   1.5910   1.5930   1.5942
     1.5954   1.5991   1.6048   1.6069   1.6080   1.6098   1.6108   1.6177
     1.6182   1.6204   1.6237   1.6279   1.6365   1.6429   1.6460   1.6483
     1.6493   1.6501   1.6531   1.6549   1.6725   1.6733   1.6749   1.6753
     1.6940   1.6970   1.6984   1.7068   1.7111   1.7144   1.7165   1.7179
     1.7185   1.7219   1.7221   1.7272   1.7287   1.7307   1.7341   1.7355
     1.7478   1.7568   1.7571   1.7590   1.7601   1.7624   1.7634   1.7713
     1.7765   1.7767   1.7857   1.7884   1.7993   1.8003   1.8063   1.8096
     1.8116   1.8123   1.8241   1.8397   1.8481   1.8700   1.8752   1.8897
     1.9169   1.9189   1.9219   1.9461   1.9642   1.9998   2.0443   2.0525
     2.0551   2.0596   2.0762   2.0910   2.1300   2.1615   2.3055   2.3233
     2.3589   2.3644   2.3770   2.3824   2.4579   2.4876   2.5417   2.5578
     2.8531   2.8544   2.8573   2.8587   3.2675   3.2677   3.2965   3.4839
     3.4847   3.5095   3.5096   3.5539   3.5676   3.7367   3.7521   3.8622
     3.8675   3.9178   3.9194   3.9851   3.9886   4.0044   4.0065   4.0350
     4.1554   4.1602   4.2339   4.2556   4.2601   4.4529   4.4615   4.4728
     4.5617   4.5759   4.6635   4.6821   4.8616   5.0436   5.1132   5.1232
     5.4147   5.4514   5.5054   5.5100   5.5193   5.5690   5.6326   5.7436
     5.7535   5.7914   5.8143   5.8552   5.8648   5.9293   5.9510   5.9696
     6.0041   6.0220   6.0800   6.0930   6.1282   6.2739   6.2970   6.3029
     6.3364   6.3893   6.6958   6.9609   6.9767   6.9979   7.0109   7.0476
     7.0871   7.1043   7.1256   7.2244   7.3032   7.3192   7.3213   7.3263
     7.3554   7.3730   7.5320   7.5637   7.5989   7.6583   7.7145   7.7702
     7.8041   7.8386   7.8579   7.9301   8.0274   8.0519   8.1039   8.1835
     8.2043   8.2886   8.2969   8.3455   8.3513   8.3725   8.5030   8.5450
     8.5654   8.5963   8.5980   8.6061   8.6851   8.7260   8.7398   8.7471
     8.7732   8.9282   8.9309   9.0184   9.0954   9.2193   9.2528   9.4299
     9.4508   9.4775   9.4895   9.4938   9.4991   9.5096   9.5282   9.5484
     9.5517   9.5564   9.5869   9.6312   9.6717   9.6856   9.6978   9.7731
     9.8080   9.9363  10.0058  10.0066  10.1372

          k = 0.2500-0.2165 0.0000 (256316 PWs)   bands (ev):

   -18.9623 -15.9023 -15.8961 -15.1664 -15.1524 -14.9160 -14.9099 -14.1901
   -14.1760 -13.7098 -13.6927 -12.9914 -12.9851 -12.7591 -12.7443 -12.2914
   -12.2783 -11.6180 -11.6015 -10.9934 -10.9815 -10.7377 -10.7222 -10.3481
   -10.3416  -9.3011  -9.2902  -8.7870  -8.7655  -8.7038  -8.6778  -8.1479
    -8.1177  -8.0507  -8.0316  -6.3437  -6.3133  -6.2887  -6.2742  -6.1725
    -6.1603  -5.9560  -5.9282  -5.6378  -5.5986  -5.4337  -5.4179  -5.3258
    -4.8240  -4.7926  -4.5398  -4.4981  -4.4858  -4.4756  -4.3849  -4.3839
    -4.0740  -4.0596  -4.0541  -4.0400  -3.8611  -3.8320  -3.8006  -3.7866
    -3.6651  -3.6047  -3.4643  -3.4512  -3.3867  -3.3028  -3.2337  -3.2070
    -3.1929  -3.1686  -3.1669  -3.1576  -2.9349  -2.8725  -2.8643  -2.8481
    -2.7328  -2.7252  -2.6630  -2.6293  -2.6193  -2.6192  -2.5813  -2.5504
    -2.5325  -2.5131  -2.3164  -2.2780  -2.2586  -2.2288  -2.1371  -2.0344
    -2.0247  -2.0184  -1.9360  -1.9005  -1.8850  -1.8766  -1.8765  -1.8303
    -1.7190  -1.7171  -1.7104  -1.6743  -1.6665  -1.6213  -1.5861  -1.5485
    -1.5281  -1.5207  -1.5201  -1.4958  -1.4659  -1.4587  -1.4330  -1.4301
    -1.4261  -1.4179  -1.4141  -1.4085  -1.4051  -1.3877  -1.3841  -1.3836
    -1.3831  -1.3778  -1.3746  -1.3734  -1.2915  -1.2839  -1.1777  -1.1757
    -1.1468  -1.0727  -1.0707  -1.0585  -1.0370  -1.0354  -1.0107  -0.9973
    -0.9841  -0.9821  -0.9690  -0.9686  -0.9564  -0.9555  -0.9477  -0.9441
    -0.9339  -0.9326  -0.9226  -0.9190  -0.9136  -0.9088  -0.9047  -0.9026
    -0.8984  -0.8864  -0.8696  -0.8400  -0.8394  -0.8345  -0.8305  -0.8264
    -0.8193  -0.8191  -0.7987  -0.7924  -0.7864  -0.7832  -0.7462  -0.7460
    -0.7423  -0.7357  -0.7343  -0.7298  -0.7021  -0.7017  -0.6851  -0.6760
    -0.6678  -0.6672  -0.6624  -0.6616  -0.6581  -0.6553  -0.6320  -0.6279
    -0.6178  -0.6099  -0.5802  -0.5764  -0.5680  -0.5676  -0.5668  -0.4967
    -0.4903  -0.4863  -0.4857  -0.4816  -0.4749  -0.4734  -0.4715  -0.4526
    -0.4304  -0.4265  -0.4190  -0.4186  -0.4118  -0.4110  -0.4024  -0.3989
    -0.3759  -0.3654  -0.3587  -0.3582  -0.3213  -0.3195  -0.2851  -0.2758
    -0.2707  -0.2691  -0.2684  -0.2621  -0.2413  -0.2386  -0.2341  -0.2194
    -0.2082  -0.2068  -0.1949  -0.1941  -0.1809  -0.1635  -0.1612  -0.1590
    -0.1540  -0.1419  -0.1212  -0.1149  -0.1146  -0.1012  -0.0999  -0.0972
    -0.0890  -0.0871  -0.0767  -0.0751  -0.0739  -0.0699  -0.0690  -0.0639
    -0.0631  -0.0585  -0.0579  -0.0461  -0.0439  -0.0352  -0.0235  -0.0233
     0.0000   0.0017   0.0161   0.0203   0.0296   0.0367   0.0537   0.0543
     0.0579   0.0652   0.0745   0.0758   0.0772   0.0856   0.0975   0.1144
     0.1376   0.1382   0.1485   0.1746   0.1763   0.1860   0.1864   0.1888
     0.1898   0.2034   0.2059   0.2061   0.2234   0.2239   0.2315   0.2363
     0.2374   0.2429   0.2518   0.2536   0.2574   0.2577   0.2700   0.2757
     0.2848   0.2891   0.2898   0.2913   0.2925   0.2941   0.2957   0.2966
     0.3006   0.3013   0.3110   0.3245   0.3248   0.3252   0.3257   0.3585
     0.3596   0.3668   0.3685   0.3734   0.3741   0.3935   0.3944   0.3956
     0.4169   0.4240   0.4252   0.4272   0.4317   0.4395   0.4438   0.4439
     0.4447   0.4541   0.4606   0.4662   0.4707   0.4721   0.4957   0.5012
     0.5586   0.5617   0.5684   0.5689   0.5744   0.5756   0.5779   0.5803
     0.5837   0.5876   0.5917   0.5926   0.6021   0.6027   0.6101   0.6158
     0.6206   0.6216   0.6224   0.6251   0.6334   0.6349   0.6477   0.6605
     0.6662   0.6742   0.6758   0.6851   0.6876   0.6970   0.7003   0.7348
     0.7375   0.7404   0.7479   0.7483   0.7491   0.7511   0.7656   0.7657
     0.7672   0.7700   0.7740   0.7754   0.7790   0.7804   0.7976   0.8056
     0.8076   0.8129   0.8176   0.8256   0.8271   0.8613   0.8624   0.8629
     0.8635   0.8740   0.8898   0.8959   0.8980   0.8984   0.9004   0.9038
     0.9063   0.9072   0.9161   0.9189   0.9201   0.9234   0.9288   0.9317
     0.9362   0.9483   0.9494   0.9529   0.9596   0.9605   0.9616   0.9621
     0.9669   0.9737   0.9770   0.9796   0.9817   0.9842   0.9940   1.0017
     1.0027   1.0040   1.0094   1.0107   1.0116   1.0136   1.0146   1.0158
     1.0471   1.0508   1.0572   1.0607   1.0694   1.0853   1.0930   1.1004
     1.1100   1.1167   1.1179   1.1196   1.1212   1.1241   1.1246   1.1457
     1.1458   1.1475   1.1482   1.1497   1.1502   1.1573   1.1646   1.1724
     1.1770   1.1786   1.1876   1.1894   1.1944   1.1981   1.2083   1.2195
     1.2197   1.2425   1.2461   1.2483   1.2518   1.2547   1.2571   1.2600
     1.2606   1.2625   1.2731   1.2851   1.2943   1.2947   1.3049   1.3118
     1.3147   1.3199   1.3240   1.3299   1.3339   1.3535   1.3554   1.3582
     1.3676   1.3734   1.3748   1.3802   1.3812   1.3826   1.3834   1.3842
     1.3853   1.3868   1.3889   1.3989   1.3996   1.4098   1.4106   1.4122
     1.4199   1.4308   1.4334   1.4571   1.4581   1.4637   1.4660   1.4677
     1.4688   1.4695   1.4733   1.4778   1.4794   1.4821   1.4851   1.4858
     1.4880   1.4929   1.4940   1.4966   1.4969   1.5029   1.5033   1.5117
     1.5149   1.5169   1.5174   1.5187   1.5226   1.5310   1.5379   1.5389
     1.5403   1.5631   1.5639   1.5706   1.5722   1.5854   1.5858   1.5902
     1.5905   1.6034   1.6036   1.6086   1.6125   1.6145   1.6227   1.6233
     1.6270   1.6272   1.6301   1.6399   1.6411   1.6419   1.6451   1.6530
     1.6531   1.6650   1.6666   1.6752   1.6755   1.6762   1.6771   1.6791
     1.6821   1.6858   1.6861   1.6981   1.6987   1.7028   1.7033   1.7135
     1.7152   1.7181   1.7220   1.7286   1.7299   1.7309   1.7320   1.7332
     1.7375   1.7379   1.7402   1.7437   1.7470   1.7473   1.7595   1.7713
     1.7715   1.7767   1.7855   1.7945   1.7951   1.8141   1.8153   1.8184
     1.8225   1.8426   1.8438   1.8488   1.8519   1.8755   1.8765   1.9136
     1.9305   1.9381   1.9502   1.9555   1.9940   2.0415   2.0433   2.0573
     2.0612   2.0752   2.0771   2.0804   2.0826   2.0952   2.1090   2.1369
     2.2281   2.4183   2.4203   2.4493   2.4499   2.5741   2.5826   2.8757
     2.8761   3.0698   3.0761   3.0796   3.0806   3.0893   3.0915   3.1187
     3.1243   3.2726   3.2736   3.3485   3.3759   3.8108   3.8347   3.8880
     3.8892   3.9270   3.9481   4.1207   4.1299   4.1321   4.1341   4.2770
     4.2810   4.3450   4.3477   4.4502   4.4524   4.5528   4.6282   4.6618
     4.6658   4.8074   4.8283   4.8512   4.9077   4.9577   4.9681   5.0080
     5.0416   5.1909   5.1985   5.2764   5.3133   5.3430   5.4055   5.5261
     5.5586   5.6667   5.7013   5.7317   5.7427   5.7472   5.7637   6.0024
     6.0473   6.0773   6.1507   6.1704   6.2119   6.2575   6.2888   6.5094
     6.7614   6.8652   6.8879   6.8908   6.9144   7.0186   7.0349   7.1268
     7.1488   7.2816   7.3232   7.3517   7.3649   7.3711   7.3916   7.4639
     7.4880   7.5118   7.5390   7.5969   7.6221   7.6372   7.6413   7.6655
     7.7116   7.7144   7.7458   7.7945   7.9386   7.9793   7.9911   8.0723
     8.0937   8.2644   8.2854   8.3325   8.3932   8.4775   8.4793   8.5089
     8.5529   8.7241   8.7521   8.8379   8.8700   8.8783   8.8941   8.9087
     8.9246   8.9838   8.9866   9.0767   9.1537   9.1747   9.1938   9.2046
     9.2284   9.2426   9.3385   9.4007   9.4067   9.4106   9.4535   9.4570
     9.4816   9.5093   9.5173   9.5503   9.5607   9.5842   9.6194   9.6431
     9.6529   9.7279   9.7375   9.7474   9.8149

          k =-0.5000 0.0000 0.0000 (256496 PWs)   bands (ev):

   -18.9623 -15.6292 -15.6129 -15.2722 -15.2535 -15.2462 -15.2311 -14.1697
   -14.1550 -14.1507 -14.1377 -12.3984 -12.3724 -12.3688 -12.3575 -11.8020
   -11.7966 -11.4804 -11.4771 -11.4618 -11.4562 -10.8220 -10.8195 -10.4099
   -10.3921  -9.8303  -9.8131  -9.4260  -9.4060  -8.5994  -8.5861  -8.5675
    -8.5636  -7.0961  -7.0806  -7.0379  -7.0088  -6.9989  -6.9952  -5.5705
    -5.5614  -5.3586  -5.0202  -5.0147  -4.8337  -4.8239  -4.5149  -4.5140
    -4.5126  -4.5095  -4.4261  -4.4100  -4.4098  -4.4058  -4.3409  -4.3309
    -4.3230  -4.3132  -4.1860  -4.1692  -4.0510  -4.0327  -4.0194  -4.0141
    -3.8491  -3.7315  -3.7209  -3.7064  -3.7037  -3.6947  -3.3579  -3.2805
    -3.2714  -3.2607  -3.1298  -3.1297  -3.1292  -3.1289  -3.0511  -3.0280
    -3.0219  -3.0205  -3.0090  -3.0018  -2.6185  -2.5396  -2.4928  -2.4762
    -2.4517  -2.4399  -2.4299  -2.3960  -2.3370  -2.3216  -2.2767  -2.2653
    -2.1736  -2.1359  -2.0202  -2.0185  -2.0130  -2.0101  -1.9329  -1.7095
    -1.5872  -1.5871  -1.5865  -1.5861  -1.5842  -1.5827  -1.4778  -1.4604
    -1.4596  -1.4480  -1.3585  -1.3581  -1.3579  -1.3576  -1.3203  -1.3098
    -1.3090  -1.3079  -1.3072  -1.2992  -1.2196  -1.2126  -1.1963  -1.1961
    -1.1471  -1.1356  -1.1340  -1.1326  -1.1306  -1.1137  -1.1126  -1.1103
    -1.0981  -1.0822  -1.0647  -1.0641  -1.0597  -1.0594  -1.0576  -1.0500
    -1.0490  -1.0476  -1.0469  -1.0430  -1.0006  -0.9991  -0.9990  -0.9973
    -0.9750  -0.9745  -0.9742  -0.9741  -0.9109  -0.9104  -0.9101  -0.8904
    -0.8888  -0.8876  -0.8871  -0.8619  -0.8605  -0.8593  -0.8574  -0.8567
    -0.8563  -0.8541  -0.8151  -0.8142  -0.8130  -0.8127  -0.7911  -0.7900
    -0.7618  -0.7613  -0.7292  -0.7167  -0.7158  -0.6880  -0.6868  -0.6849
    -0.6836  -0.6694  -0.6617  -0.6581  -0.6558  -0.6556  -0.6535  -0.6516
    -0.6435  -0.6387  -0.6386  -0.6355  -0.6353  -0.6325  -0.6099  -0.6089
    -0.5757  -0.5477  -0.5467  -0.5444  -0.5443  -0.5008  -0.5002  -0.4183
    -0.4176  -0.4170  -0.4165  -0.3899  -0.3812  -0.3800  -0.3788  -0.3779
    -0.3777  -0.3770  -0.3683  -0.3585  -0.3403  -0.3393  -0.3358  -0.3338
    -0.3281  -0.3232  -0.3219  -0.3065  -0.3047  -0.3039  -0.2787  -0.2158
    -0.2150  -0.2052  -0.1774  -0.1755  -0.1711  -0.1705  -0.1627  -0.1625
    -0.1391  -0.1172  -0.1152  -0.1140  -0.1132  -0.1119  -0.1108  -0.1089
    -0.0893  -0.0814  -0.0763  -0.0759  -0.0752  -0.0746  -0.0368  -0.0363
    -0.0359  -0.0350  -0.0249  -0.0021  -0.0020  -0.0015  -0.0014   0.0104
     0.0110   0.0431   0.0431   0.0455   0.0461   0.0540   0.0571   0.0584
     0.0727   0.0848   0.0939   0.0959   0.1559   0.1567   0.1581   0.1583
     0.1629   0.1634   0.1654   0.1654   0.1916   0.2040   0.2045   0.2078
     0.2208   0.2407   0.2410   0.2671   0.2680   0.2687   0.2700   0.2703
     0.2708   0.2716   0.2720   0.2734   0.2741   0.2744   0.2760   0.3060
     0.3296   0.3489   0.3542   0.3553   0.3595   0.3605   0.3629   0.3651
     0.3659   0.3664   0.3697   0.3714   0.3740   0.3742   0.3765   0.3792
     0.3819   0.3845   0.3924   0.3924   0.3945   0.4078   0.4078   0.4110
     0.4115   0.4117   0.4119   0.4213   0.4216   0.4218   0.4220   0.4340
     0.4349   0.4463   0.4467   0.4474   0.4476   0.4504   0.4569   0.4769
     0.4789   0.5306   0.5523   0.5646   0.5779   0.5785   0.5817   0.5817
     0.6122   0.6123   0.6132   0.6136   0.6204   0.6259   0.6281   0.6321
     0.6352   0.6357   0.6388   0.6395   0.6413   0.6423   0.6465   0.6486
     0.6513   0.6523   0.6574   0.6674   0.6685   0.6698   0.6734   0.6793
     0.6818   0.6825   0.6898   0.6902   0.6966   0.6968   0.7213   0.7363
     0.7787   0.7827   0.7869   0.7881   0.7979   0.7993   0.8129   0.8134
     0.8177   0.8183   0.8197   0.8233   0.8246   0.8252   0.8261   0.8267
     0.8272   0.8294   0.8329   0.8335   0.8375   0.8383   0.8404   0.8423
     0.8583   0.8611   0.8769   0.8776   0.8912   0.8936   0.9016   0.9074
     0.9101   0.9111   0.9142   0.9149   0.9238   0.9242   0.9256   0.9278
     0.9284   0.9304   0.9390   0.9423   0.9451   0.9454   0.9577   0.9607
     0.9612   0.9637   0.9929   0.9974   1.0001   1.0010   1.0036   1.0091
     1.0144   1.0199   1.0330   1.0520   1.0568   1.0585   1.0591   1.0596
     1.0602   1.0634   1.0647   1.1045   1.1275   1.1279   1.1290   1.1320
     1.1322   1.1327   1.1385   1.1392   1.1444   1.1458   1.1468   1.1476
     1.1574   1.1598   1.1767   1.1796   1.1810   1.1823   1.1923   1.1935
     1.1974   1.1990   1.1997   1.2000   1.2015   1.2023   1.2139   1.2373
     1.2376   1.2384   1.2563   1.2890   1.3029   1.3062   1.3065   1.3069
     1.3144   1.3399   1.3399   1.3404   1.3407   1.3460   1.3545   1.3594
     1.3636   1.3696   1.3718   1.3832   1.3839   1.3854   1.4016   1.4028
     1.4032   1.4085   1.4095   1.4098   1.4144   1.4162   1.4178   1.4199
     1.4210   1.4266   1.4268   1.4290   1.4294   1.4306   1.4324   1.4330
     1.4419   1.4654   1.4686   1.4689   1.4693   1.4949   1.4986   1.5029
     1.5037   1.5059   1.5067   1.5069   1.5133   1.5238   1.5258   1.5336
     1.5338   1.5351   1.5354   1.5439   1.5454   1.5457   1.5467   1.5507
     1.5573   1.5622   1.5664   1.5727   1.5869   1.5921   1.5956   1.6071
     1.6077   1.6078   1.6079   1.6089   1.6095   1.6096   1.6175   1.6224
     1.6232   1.6237   1.6246   1.6250   1.6255   1.6261   1.6308   1.6320
     1.6341   1.6342   1.6349   1.6351   1.6409   1.6426   1.6459   1.6576
     1.6588   1.6751   1.6754   1.6785   1.6831   1.6849   1.6862   1.6869
     1.6927   1.7040   1.7054   1.7085   1.7089   1.7225   1.7233   1.7296
     1.7308   1.7406   1.7408   1.7409   1.7426   1.7604   1.7611   1.7618
     1.7627   1.7691   1.7716   1.7723   1.7727   1.7732   1.7781   1.7863
     1.7921   1.7945   1.8015   1.8058   1.8062   1.8065   1.8067   1.8179
     1.8219   1.8231   1.8533   1.8706   1.8715   1.8990   1.9000   1.9033
     1.9049   1.9295   2.0692   2.3196   2.3209   2.3218   2.3344   2.5257
     2.5259   2.5388   2.5493   2.5759   2.5777   2.5833   2.5839   2.8972
     2.9031   2.9066   2.9110   3.1194   3.1218   3.1239   3.1255   3.4749
     3.4753   3.4771   3.4786   3.7571   3.7599   4.0294   4.0366   4.0405
     4.0427   4.2068   4.2075   4.2086   4.2139   4.3544   4.3575   4.3592
     4.3649   4.4423   4.4484   4.5507   4.7053   4.7632   4.8353   5.0026
     5.0128   5.0165   5.0245   5.1130   5.1146   5.1349   5.1533   5.2641
     5.3064   5.3095   5.3278   5.3326   5.3359   5.3405   5.3559   5.3593
     5.3695   5.3862   5.4146   5.4419   5.4559   5.7620   5.8062   5.8271
     5.8333   5.9365   5.9447   6.0380   6.0542   6.1940   6.2705   6.2742
     6.2933   6.3011   6.3120   6.3167   6.3217   6.3501   6.5854   6.6951
     6.7050   6.7288   6.7366   6.7718   6.7920   6.9802   7.2477   7.3701
     7.3723   7.3946   7.4032   7.4056   7.4868   7.8684   7.8707   7.8764
     7.8774   7.8782   7.8813   7.9306   7.9583   8.1064   8.1093   8.1579
     8.1641   8.1667   8.1694   8.1792   8.2280   8.3409   8.3471   8.3477
     8.3595   8.4032   8.4133   8.4210   8.4659   8.6521   8.6821   8.7091
     8.7258   8.7604   8.9726   9.1021   9.1063   9.1082   9.1120   9.2624
     9.2687   9.2730   9.3142   9.3374   9.3409   9.3462   9.3465   9.5470
     9.5488   9.5623   9.6065   9.6884   9.7366   9.7571   9.7729   9.7914
     9.8012   9.8085   9.8173   9.8274   9.8355

          k =-0.5000-0.2165 0.0000 (256328 PWs)   bands (ev):

   -18.9623 -15.5447 -15.5292 -15.5284 -15.5108 -14.8076 -14.7930 -14.7904
   -14.7735 -13.3647 -13.3409 -13.3408 -13.3280 -11.7237 -11.7181 -11.7142
   -11.7086 -11.2960 -11.2748 -11.2720 -11.2615 -11.1017 -11.1007 -11.0902
   -11.0860  -9.4137  -9.4004  -9.3887  -9.3772  -8.4625  -8.4265  -8.4152
    -8.4113  -7.6801  -7.6725  -7.6570  -7.6520  -5.6546  -5.5870  -5.5820
    -5.5731  -5.3350  -4.9785  -4.9593  -4.9475  -4.9385  -4.8936  -4.8931
    -4.8895  -4.8803  -4.7343  -4.7304  -4.7233  -4.7109  -4.1047  -4.0652
    -4.0623  -4.0552  -3.9102  -3.9093  -3.9082  -3.9078  -3.8711  -3.8566
    -3.8561  -3.8520  -3.6947  -3.5908  -3.5852  -3.5822  -3.3381  -3.3266
    -3.3221  -3.3152  -3.3085  -3.3037  -3.2921  -3.2818  -3.2607  -3.1921
    -3.1786  -3.1590  -2.8660  -2.8004  -2.7783  -2.7602  -2.2916  -2.2896
    -2.2883  -2.2882  -2.2688  -2.2502  -2.2301  -2.2279  -2.1465  -2.0091
    -1.9969  -1.9858  -1.9650  -1.9328  -1.8153  -1.8051  -1.8017  -1.7896
    -1.7377  -1.7269  -1.7235  -1.7112  -1.7004  -1.6891  -1.6751  -1.6348
    -1.5558  -1.5120  -1.5110  -1.5086  -1.5061  -1.4316  -1.4133  -1.3650
    -1.2648  -1.2050  -1.2008  -1.2003  -1.1999  -1.1996  -1.1944  -1.1691
    -1.1642  -1.1622  -1.1614  -1.1535  -1.1417  -1.1403  -1.1388  -1.1386
    -1.0934  -1.0924  -1.0919  -1.0917  -1.0896  -1.0890  -1.0831  -1.0799
    -1.0654  -1.0653  -1.0650  -1.0646  -1.0174  -1.0157  -1.0136  -1.0133
    -0.9474  -0.9396  -0.9387  -0.9378  -0.8982  -0.8981  -0.8952  -0.8950
    -0.8787  -0.8781  -0.8777  -0.8763  -0.8340  -0.8282  -0.8278  -0.8275
    -0.8243  -0.8228  -0.8228  -0.8227  -0.8142  -0.7974  -0.7946  -0.7923
    -0.7682  -0.7680  -0.7570  -0.7554  -0.7508  -0.7507  -0.7453  -0.7440
    -0.7422  -0.7418  -0.7404  -0.7391  -0.7263  -0.6893  -0.6736  -0.6303
    -0.5915  -0.5908  -0.5871  -0.5860  -0.5590  -0.5588  -0.5586  -0.5583
    -0.5008  -0.4792  -0.4782  -0.4756  -0.4730  -0.4708  -0.4697  -0.4688
    -0.4680  -0.4678  -0.4673  -0.4651  -0.4069  -0.4062  -0.4058  -0.4052
    -0.3969  -0.3964  -0.3954  -0.3946  -0.3794  -0.3793  -0.3674  -0.3647
    -0.2964  -0.2858  -0.2855  -0.2798  -0.2732  -0.2725  -0.2724  -0.2700
    -0.2085  -0.2061  -0.2041  -0.2028  -0.1968  -0.1556  -0.1552  -0.1548
    -0.1509  -0.1356  -0.1355  -0.1324  -0.1322  -0.1104  -0.1101  -0.1063
    -0.0963  -0.0952  -0.0948  -0.0941  -0.0918  -0.0565  -0.0543  -0.0536
    -0.0496   0.0174   0.0176   0.0236   0.0243   0.0369   0.0372   0.0379
     0.0385   0.0524   0.0527   0.0531   0.0538   0.1330   0.1346   0.1351
     0.1374   0.1386   0.1398   0.1419   0.1421   0.1430   0.1434   0.1439
     0.1465   0.1804   0.1806   0.1807   0.1814   0.1929   0.1937   0.1940
     0.1942   0.1974   0.1986   0.1986   0.1996   0.2657   0.2664   0.2670
     0.2686   0.2865   0.2890   0.2977   0.2991   0.3306   0.3319   0.3353
     0.3477   0.3498   0.3518   0.3527   0.3711   0.3727   0.3734   0.3736
     0.3761   0.3788   0.3808   0.3813   0.3833   0.3851   0.3862   0.3881
     0.3933   0.3937   0.3943   0.3945   0.3981   0.3985   0.4012   0.4018
     0.4122   0.4166   0.4166   0.4173   0.4224   0.4434   0.4435   0.4442
     0.4444   0.4547   0.4549   0.4555   0.4586   0.5038   0.5039   0.5050
     0.5053   0.5362   0.5378   0.5386   0.5399   0.5934   0.5951   0.5998
     0.6183   0.6188   0.6211   0.6221   0.6228   0.6302   0.6312   0.6361
     0.6386   0.6387   0.6399   0.6451   0.6504   0.6511   0.6560   0.6563
     0.6601   0.6606   0.6649   0.6688   0.6694   0.6718   0.6726   0.6743
     0.6779   0.6796   0.6868   0.6928   0.7409   0.7438   0.7453   0.7463
     0.7512   0.7516   0.7518   0.7550   0.7580   0.7586   0.7602   0.7610
     0.7912   0.7939   0.8016   0.8031   0.8039   0.8045   0.8126   0.8141
     0.8426   0.8447   0.8484   0.8510   0.8554   0.8579   0.8598   0.8604
     0.8616   0.8628   0.8636   0.8643   0.8684   0.8688   0.8703   0.8725
     0.8841   0.8853   0.8864   0.8869   0.8903   0.8977   0.9030   0.9052
     0.9553   0.9676   0.9704   0.9741   0.9751   0.9776   0.9781   0.9794
     0.9797   0.9818   0.9838   0.9848   0.9943   0.9980   1.0002   1.0019
     1.0195   1.0207   1.0214   1.0226   1.0230   1.0241   1.0245   1.0281
     1.0648   1.0754   1.0762   1.0775   1.1043   1.1045   1.1071   1.1079
     1.1173   1.1198   1.1219   1.1243   1.1376   1.1377   1.1413   1.1429
     1.1541   1.1657   1.1666   1.1678   1.2173   1.2188   1.2196   1.2203
[...]
     atom   16 type  1   force =    -0.00000027    0.00007607   -0.00015936
     atom   17 type  1   force =     0.00000074    0.00004133   -0.00021367
     atom   18 type  1   force =    -0.00000248    0.00002725   -0.00027102
     atom   19 type  1   force =    -0.00000026    0.00005152   -0.00021110
     atom   20 type  1   force =     0.00000286    0.00003213   -0.00026897
     atom   21 type  1   force =     0.00000223   -0.00010687   -0.00010576
     atom   22 type  1   force =     0.00000614   -0.00005018   -0.00014391
     atom   23 type  1   force =    -0.00000019   -0.00014754   -0.00015418
     atom   24 type  1   force =    -0.00000244   -0.00005199   -0.00014621
     atom   25 type  1   force =    -0.00000130   -0.00018956   -0.00011217
     atom   26 type  1   force =    -0.00002139   -0.00019094   -0.00010903
     atom   27 type  1   force =     0.00000154   -0.00016984   -0.00008864
     atom   28 type  1   force =     0.00002262   -0.00018923   -0.00010232
     atom   29 type  1   force =     0.00000024    0.00004693   -0.00016854
     atom   30 type  1   force =     0.00001360   -0.00008814   -0.00013241
     atom   31 type  1   force =    -0.00000180    0.00002565   -0.00013281
     atom   32 type  1   force =    -0.00001569   -0.00008779   -0.00013326
     atom   33 type  1   force =     0.00000111    0.00005755   -0.00011737
     atom   34 type  1   force =    -0.00000814    0.00008492   -0.00015140
     atom   35 type  1   force =    -0.00000338    0.00007977   -0.00014818
     atom   36 type  1   force =     0.00000444    0.00008607   -0.00015390
     atom   37 type  1   force =     0.00000153   -0.00003482   -0.00011771
     atom   38 type  1   force =     0.00000242   -0.00002031   -0.00009173
     atom   39 type  1   force =     0.00000103   -0.00003944   -0.00013573
     atom   40 type  1   force =    -0.00000132   -0.00001434   -0.00010100
     atom   41 type  1   force =     0.00000171   -0.00005908   -0.00005528
     atom   42 type  1   force =    -0.00003359   -0.00016413   -0.00004031
     atom   43 type  1   force =     0.00000333   -0.00008820   -0.00001925
     atom   44 type  1   force =     0.00003468   -0.00016884   -0.00005272
     atom   45 type  1   force =     0.00000234   -0.00020814   -0.00000325
     atom   46 type  1   force =     0.00001930   -0.00010421   -0.00013596
     atom   47 type  1   force =    -0.00000066   -0.00016634   -0.00000676
     atom   48 type  1   force =    -0.00001900   -0.00010700   -0.00013871
     atom   49 type  1   force =    -0.00000025    0.00003219   -0.00016346
     atom   50 type  1   force =     0.00004811   -0.00002327   -0.00010394
     atom   51 type  1   force =     0.00000082   -0.00000549   -0.00017389
     atom   52 type  1   force =    -0.00004745   -0.00002143   -0.00009852
     atom   53 type  1   force =    -0.00000082    0.00004393   -0.00009906
     atom   54 type  1   force =    -0.00002766   -0.00001913    0.00000225
     atom   55 type  1   force =    -0.00000072   -0.00002479   -0.00003987
     atom   56 type  1   force =     0.00002059   -0.00000788   -0.00000623
     atom   57 type  1   force =     0.00000353   -0.00010633    0.00003854
     atom   58 type  1   force =    -0.00000399   -0.00006254   -0.00005268
     atom   59 type  1   force =    -0.00000602   -0.00006227    0.00002013
     atom   60 type  1   force =     0.00001007   -0.00006891   -0.00004913
     atom   61 type  1   force =     0.00000561   -0.00021224    0.00004980
     atom   62 type  1   force =    -0.00001286   -0.00013210    0.00010113
     atom   63 type  1   force =    -0.00000184   -0.00012503    0.00008505
     atom   64 type  1   force =     0.00001208   -0.00013135    0.00010322
     atom   65 type  1   force =     0.00000091    0.00018936   -0.00019205
     atom   66 type  1   force =     0.00002138    0.00000164   -0.00013100
     atom   67 type  1   force =     0.00000012    0.00022917    0.00021745
     atom   68 type  1   force =    -0.00001798   -0.00000196   -0.00013405
     atom   69 type  1   force =    -0.00000470   -0.00025150   -0.00002798
     atom   70 type  1   force =     0.00019688   -0.00000368    0.00011117
     atom   71 type  1   force =     0.00000970   -0.00027074    0.00040638
     atom   72 type  1   force =    -0.00018912   -0.00000710    0.00010015
     atom   73 type  1   force =     0.00000559   -0.00018546    0.00010450
     atom   74 type  1   force =     0.00007210   -0.00016251   -0.00005149
     atom   75 type  1   force =    -0.00000634   -0.00012934    0.00004211
     atom   76 type  1   force =    -0.00006030   -0.00016824   -0.00004967
     atom   77 type  1   force =     0.00000057   -0.00004942   -0.00001002
     atom   78 type  1   force =    -0.00005832   -0.00007588    0.00004361
     atom   79 type  1   force =     0.00000141   -0.00003207    0.00004450
     atom   80 type  1   force =     0.00005149   -0.00008389    0.00004240
     atom   81 type  1   force =     0.00000104   -0.00004893    0.00017501
     atom   82 type  1   force =     0.00001984    0.00003100   -0.00001715
     atom   83 type  1   force =    -0.00000786    0.00001741    0.00023757
     atom   84 type  1   force =    -0.00001820    0.00004557   -0.00003757
     atom   85 type  1   force =     0.00000730   -0.00006685   -0.00006369
     atom   86 type  1   force =    -0.00009549    0.00005767   -0.00008708
     atom   87 type  1   force =    -0.00000972    0.00014310   -0.00017302
     atom   88 type  1   force =     0.00009109    0.00005866   -0.00008368
     atom   89 type  1   force =     0.00000078   -0.00003304   -0.00002261
     atom   90 type  1   force =     0.00000627   -0.00016009   -0.00007805
     atom   91 type  1   force =     0.00000364   -0.00012067   -0.00003770
     atom   92 type  1   force =    -0.00000153   -0.00016712   -0.00009015
     atom   93 type  1   force =     0.00000680   -0.00024701    0.00016149
     atom   94 type  1   force =    -0.00013156   -0.00006688    0.00000579
     atom   95 type  1   force =     0.00000592   -0.00024536   -0.00006869
     atom   96 type  1   force =     0.00013924   -0.00007011   -0.00000770
     atom   97 type  1   force =    -0.00000664   -0.00008365    0.00018199
     atom   98 type  1   force =     0.00009443   -0.00010762   -0.00003071
     atom   99 type  1   force =     0.00000429   -0.00020651    0.00001117
     atom  100 type  1   force =    -0.00009661   -0.00010500   -0.00002252
     atom  101 type  2   force =    -0.00000729    0.00033328    0.00059769
     atom  102 type  2   force =    -0.00005682   -0.00043543    0.00151280
     atom  103 type  2   force =    -0.00012449   -0.00025006   -0.00032618
     atom  104 type  2   force =     0.00047695    0.00004700   -0.00066733
     atom  105 type  2   force =     0.00040194    0.00023738    0.00038801
     atom  106 type  2   force =    -0.00047945    0.00022177    0.00003152
     atom  107 type  2   force =    -0.00011743   -0.00014741    0.00144141
     atom  108 type  2   force =     0.00017887   -0.00011237    0.00020323
     atom  109 type  2   force =    -0.00016591    0.00027459    0.00017306
     atom  110 type  2   force =    -0.00001180    0.00022257   -0.00021007
     atom  111 type  2   force =     0.00009788   -0.00020080   -0.00021033
     atom  112 type  2   force =    -0.00033731    0.00029145   -0.00084982
     atom  113 type  2   force =     0.00030705    0.00014532   -0.00048465
     atom  114 type  2   force =    -0.00001348    0.00034196    0.00089497
     atom  115 type  2   force =    -0.00043083    0.00005917    0.00046518
     atom  116 type  2   force =     0.00011882   -0.00002046    0.00029236
     atom  117 type  2   force =     0.00034465    0.00006903    0.00002516
     atom  118 type  2   force =     0.00007334    0.00031717    0.00061507
     atom  119 type  2   force =    -0.00014836    0.00058690   -0.00119827
     atom  120 type  2   force =    -0.00015335    0.00039967   -0.00039600
     atom  121 type  2   force =    -0.00012380    0.00020254    0.00017384
     atom  122 type  2   force =     0.00033118    0.00008006    0.00024055
     atom  123 type  2   force =     0.00001000   -0.00019046    0.00037870
     atom  124 type  2   force =     0.00019004    0.00005542    0.00028011
     atom  125 type  2   force =     0.00022223   -0.00059084   -0.00052103
     atom  126 type  2   force =    -0.00017623    0.00064665    0.00113832
     atom  127 type  2   force =    -0.00013355    0.00053545    0.00089095
     atom  128 type  2   force =     0.00029131   -0.00032904   -0.00053183
     atom  129 type  2   force =     0.00003233    0.00011203    0.00001372
     atom  130 type  2   force =    -0.00039602    0.00038023   -0.00065951
     atom  131 type  2   force =     0.00013804   -0.00000545   -0.00014357
     atom  132 type  2   force =     0.00018011   -0.00002901   -0.00025033
     atom  133 type  2   force =    -0.00004545    0.00002385    0.00029054
     atom  134 type  2   force =    -0.00004065    0.00051044   -0.00081919
     atom  135 type  2   force =    -0.00012734    0.00039391    0.00073031
     atom  136 type  2   force =    -0.00016985   -0.00031887   -0.00089834
     atom  137 type  2   force =     0.00001320   -0.00039547    0.00071078
     atom  138 type  2   force =     0.00000762    0.00033148   -0.00177685
     atom  139 type  2   force =    -0.00046350    0.00030412    0.00076523
     atom  140 type  2   force =     0.00046212    0.00009699   -0.00006645
     atom  141 type  2   force =     0.00059793   -0.00031737   -0.00017005
     atom  142 type  2   force =    -0.00024190    0.00045551    0.00042159
     atom  143 type  2   force =    -0.00020428    0.00073277   -0.00006518
     atom  144 type  2   force =     0.00022362    0.00017800    0.00127454
     atom  145 type  2   force =    -0.00027959   -0.00026873   -0.00008035
     atom  146 type  2   force =     0.00011281    0.00050717    0.00035525
     atom  147 type  2   force =     0.00035246    0.00043887    0.00089735
     atom  148 type  2   force =    -0.00009989    0.00008292    0.00000055
     atom  149 type  2   force =     0.00046294   -0.00117810   -0.00089701
     atom  150 type  3   force =    -0.00112397    0.00140013    0.00145356

     Total force =     0.006433     Total SCF correction =     0.000352

     number of scf cycles    =  27
     number of bfgs steps    =  25

     energy   old            =  -12742.0792574779 Ry
     energy   new            =  -12742.0793229178 Ry

     CASE: energy  _new < energy  _old

     new trust radius        =       0.0206913562 bohr
     new conv_thr            =       0.0000000065 Ry


ATOMIC_POSITIONS (angstrom)
Cu       0.000587398  -0.007520875   7.375647276
Cu       1.845002120   1.698820142   7.376650258
Cu       3.689613621  -0.007283005   7.375931383
Cu       5.534237643   1.698768645   7.376641980
Cu       0.000579213   3.403410149   7.376059206
Cu       1.844991448   5.106141509   7.373499748
Cu       3.689637783   3.403444808   7.375494457
Cu       5.534282576   5.106184034   7.373545053
Cu       0.000612848   6.807376053   7.372364305
Cu       1.845316712   8.507377799   7.373978020
Cu       3.689644123   6.807005797   7.372468013
Cu       5.533989434   8.507387588   7.373958985
Cu       0.000617489  10.208007531   7.376103534
Cu       1.844979136  11.911425686   7.376633910
Cu       3.689658202  10.208560296   7.376396135
Cu       5.534317216  11.911398776   7.376627992
Cu       0.000587771  13.617229668   7.375552880
Cu       1.845253700  15.324273689   7.374853573
Cu       3.689647926  13.616853631   7.375306242
Cu       5.533998788  15.324277547   7.374897954
Cu       0.000562123   1.697606329   9.206375154
Cu       1.845071423  -0.008232834   9.204297760
Cu       3.689607980   1.698439942   9.205911884
Cu       5.534128091  -0.008171829   9.204364889
Cu       0.000583405   5.107111071   9.208041758
Cu       1.845041084   3.403873762   9.207316457
Cu       3.689613033   5.106465497   9.207818653
Cu       5.534177229   3.403845396   9.207261792
Cu       0.000584669   8.505933449   9.209644087
Cu       1.845084713   6.806421228   9.208895693
Cu       3.689635188   8.505787991   9.209555810
Cu       5.534165363   6.806429208   9.208934379
Cu       0.000587064  11.913109095   9.206708797
Cu       1.845093692  10.208244241   9.208962592
Cu       3.689646453  11.913694945   9.207029764
Cu       5.534179019  10.208216166   9.209022600
Cu       0.000555212  15.325458510   9.202962293
Cu       1.845106461  13.619568995   9.204002769
Cu       3.689618512  15.324939359   9.202947683
Cu       5.534135385  13.619541300   9.204040168
Cu       0.000543335  -0.010444999  11.043503671
Cu       1.845295997   1.695520306  11.042818751
Cu       3.689592215  -0.009644307  11.041414669
Cu       5.533880291   1.695625027  11.042982019
Cu       0.000527628   3.402010422  11.044757776
Cu       1.845173983   5.105106291  11.050454310
Cu       3.689603408   3.401438886  11.045940826
Cu       5.533980643   5.105049145  11.050435353
Cu       0.000538647   6.805895624  11.053684311
Cu       1.844435254   8.506656349  11.051130849
Cu       3.689560290   6.804969270  11.052762878
Cu       5.534695530   8.506619572  11.051240637
Cu       0.000568178  10.210944612  11.047620638
Cu       1.844909692  11.917813515  11.043279999
Cu       3.689546175  10.211224427  11.046241675
Cu       5.534281132  11.917814122  11.043284895
Cu       0.000540603  13.623368921  11.041068821
Cu       1.845139908  15.326071494  11.042272546
Cu       3.689621111  13.623705109  11.042554498
Cu       5.534030383  15.326111820  11.042270443
Cu       0.000470359   1.695297576  12.875835420
Cu       1.845773290  -0.010599523  12.880446713
Cu       3.689659930   1.690662005  12.879688504
Cu       5.533425426  -0.010642144  12.880516144
Cu       0.000444191   5.099007969  12.887945247
Cu       1.847632612   3.396324320  12.880875658
Cu       3.689573478   5.101583546  12.891384976
Cu       5.531491010   3.396521354  12.881280056
Cu       0.000530794   8.511165585  12.892940108
Cu       1.844571556   6.805672565  12.894081042
Cu       3.689398303   8.511118609  12.886320329
Cu       5.534406513   6.805434970  12.894063220
Cu       0.000470719  11.923507365  12.878447660
Cu       1.842548414  10.216549082  12.881136467
Cu       3.689502366  11.920360811  12.875767144
Cu       5.536404567  10.216691312  12.880962247
Cu       0.000568268  15.323851797  12.884053743
Cu       1.844480801  13.624775051  12.880235763
Cu       3.689569031  15.328669759  12.883363668
Cu       5.534641090  13.624817080  12.880239840
Cu       0.000540294  -0.003566289  14.689663766
Cu       1.845860304   1.693203119  14.691632402
Cu       3.689672592  -0.009977012  14.705199783
Cu       5.533345229   1.693047529  14.692054010
Cu       0.000420681   3.394256196  14.692026698
Cu       1.855220494   5.092276290  14.699196298
Cu       3.689674063   3.384813321  14.703610292
Cu       5.523714219   5.092545686  14.700290985
Cu       0.000318640   6.792992402  14.703384363
Cu       1.835422562   8.519770659  14.699353128
Cu       3.689497655   6.817814113  14.706452969
Cu       5.543457988   8.519703052  14.698676708
Cu       0.000222787  10.231059586  14.701590480
Cu       1.847396334  11.920927993  14.691850484
Cu       3.689569730  10.219239591  14.689658444
Cu       5.531450995  11.921106139  14.691953894
Cu       0.000549479  13.618436358  14.705457666
Cu       1.841641928  15.326000881  14.698397006
Cu       3.689438115  13.621884439  14.690277677
Cu       5.537520404  15.325873983  14.698433424
C        0.002592640   0.735008259  17.615874748
C        0.002730709   2.154434416  17.626365002
C        1.231851776   0.024655006  17.609032654
C        1.231240098   2.864043495  17.617785011
C        2.460299691   0.734372769  17.590037055
C        2.460310162   2.154379724  17.594055415
C        3.691570206   0.023764952  17.571583178
C        3.691875989   2.864497944  17.586303372
C        4.922885885   0.734355134  17.591525054
C        4.923110983   2.154247430  17.595711930
C        6.151349791   0.024656683  17.609902108
C        6.152378801   2.864055563  17.619462072
C        0.002770562   4.993605535  17.612950392
C        0.002733701   6.413127510  17.581771917
C        1.230819605   4.283856593  17.610107560
C        1.233214247   7.123388547  17.580473014
C        2.461348022   4.993922986  17.589700786
C        2.461223039   6.413766469  17.581138849
C        3.691910729   4.284252332  17.591671015
C        3.692055562   7.124204395  17.574040620
C        4.922294977   4.993852575  17.590417914
C        4.922387939   6.413626111  17.583716242
C        6.152591856   4.283773515  17.611054125
C        6.150379469   7.123311890  17.582812064
C        0.003084901   9.253208361  17.579093401
C        0.002945729  10.673500590  17.578556829
C        1.233310809   8.543483325  17.575698369
C        1.234453100  11.383434595  17.596816145
C        2.463996459   9.253613324  17.598972377
C        2.463530815  10.673245407  17.619057915
C        3.692001329   8.544013344  17.596660295
C        3.692004076  11.383186190  17.636983451
C        4.920019832   9.253669243  17.601478759
C        4.920412571  10.673398284  17.620704620
C        6.150710293   8.543358725  17.578234250
C        6.149629826  11.383482411  17.598909248
C        0.002666865  13.514055455  17.585833766
C        0.002459322  14.934225023  17.607548218
C        1.233935286  12.803374571  17.600698540
C        1.231613514  15.643765266  17.604347155
C        2.462686995  13.512747188  17.616883390
C        2.462413507  14.932967945  17.599420899
C        3.691707793  12.802774152  17.629676472
C        3.691454987  15.642620029  17.590261838
C        4.920722378  13.512739019  17.617390702
C        4.920563905  14.933010444  17.599712719
C        6.149511414  12.803511534  17.601683078
C        6.151322418  15.643778330  17.604603455
C        3.554406602   7.045132642  20.750164092
O        2.806664418   7.925669507  20.736687188



     Writing output data file gc.save
     Check: negative starting charge=   -0.001595
     NEW-OLD atomic charge density approx. for the potential
     Check: negative starting charge=   -0.001595

     negative rho (up, down):  1.650E-03 0.000E+00

     total cpu time spent up to now is   170711.6 secs

     Self-consistent Calculation

     iteration #  1     ecut=    80.00 Ry     beta=0.70
     Davidson diagonalization with overlap
     ethr =  1.00E-06,  avg # of iterations =  3.8

     Threshold (ethr) on eigenvalues was too large:
     Diagonalizing with lowered threshold

     Davidson diagonalization with overlap
     ethr =  7.29E-08,  avg # of iterations =  2.7

     negative rho (up, down):  1.721E-03 0.000E+00

     total cpu time spent up to now is   171736.6 secs

     total energy              =  -12742.07934275 Ry
     Harris-Foulkes estimate   =  -12742.07948280 Ry
     estimated scf accuracy    <       0.00094337 Ry

     iteration #  2     ecut=    80.00 Ry     beta=0.70
     Davidson diagonalization with overlap
     ethr =  7.25E-08,  avg # of iterations =  2.0

     negative rho (up, down):  1.764E-03 0.000E+00

     total cpu time spent up to now is   172106.0 secs

     total energy              =  -12742.07935187 Ry
     Harris-Foulkes estimate   =  -12742.07940771 Ry
     estimated scf accuracy    <       0.00027308 Ry

     iteration #  3     ecut=    80.00 Ry     beta=0.70
     Davidson diagonalization with overlap
     ethr =  2.10E-08,  avg # of iterations =  2.0

     negative rho (up, down):  1.833E-03 0.000E+00

     total cpu time spent up to now is   172521.7 secs

     total energy              =  -12742.07936557 Ry
     Harris-Foulkes estimate   =  -12742.07939491 Ry
     estimated scf accuracy    <       0.00027404 Ry

     iteration #  4     ecut=    80.00 Ry     beta=0.70
     Davidson diagonalization with overlap
     ethr =  2.10E-08,  avg # of iterations =  2.0
