mpirun: INFO: switching to OpenMPI runtime version 1.10.2

     Program PWSCF v.5.4.0 starts on 14Sep2017 at 19: 6:58 

     This program is part of the open-source Quantum ESPRESSO suite
     for quantum simulation of materials; please cite
         "P. Giannozzi et al., J. Phys.:Condens. Matter 21 395502 (2009);
          URL http://www.quantum-espresso.org", 
     in publications or presentations arising from this work. More details at
     http://www.quantum-espresso.org/quote

     Parallel version (MPI & OpenMP), running on      28 processor cores
     Number of MPI processes:                28
     Threads/MPI process:                     1
     R & G space division:  proc/nbgrp/npool/nimage =      28
     Waiting for input...
     Reading input from standard input
Warning: card &IONS ignored
Warning: card / ignored

     Current dimensions of program PWSCF are:
     Max number of different atomic species (ntypx) = 10
     Max number of k-points (npk) =  40000
     Max angular momentum in pseudopotentials (lmaxx) =  3
     WARNING: atomic wfc #  2 for atom type 4 has zero norm
     WARNING: atomic wfc #  4 for atom type 4 has zero norm
     WARNING: atomic wfc #  5 for atom type 4 has zero norm

     -------------------------------------
     Parameters for Dispersion Correction:
     -------------------------------------
       atom      VdW radius       C_6     

        Cu         2.952        374.666
        C_h        2.744         60.710
        C          2.744         60.710
        O          2.536         24.284
        H          1.892          4.857

     Subspace diagonalization in iterative solution of the eigenvalue problem:
     one sub-group per band group will be used
     scalapack distributed-memory algorithm (size of sub-group:  3*  3 procs)

 
     Parallelization info
     --------------------
     sticks:   dense  smooth     PW     G-vecs:    dense   smooth      PW
     Min         408     408    108                73226    73226    9928
     Max         410     410    109                73231    73231    9931
     Sum       11433   11433   3039              2050409  2050409  278033
 


     bravais-lattice index     =            0
     lattice parameter (alat)  =      13.9425  a.u.
     unit-cell volume          =   21209.0878 (a.u.)^3
     number of atoms/cell      =          151
     number of atomic types    =            5
     number of electrons       =      1308.00
     number of Kohn-Sham states=          785
     kinetic-energy cutoff     =      80.0000  Ry
     charge density cutoff     =     320.0000  Ry
     convergence threshold     =      1.0E-08
     mixing beta               =       0.7000
     number of iterations used =            8  local-TF  mixing
     Exchange-correlation      =  SLA  PW   PBE  PBE ( 1  4  3  4 0 0)

     celldm(1)=  13.942539  celldm(2)=   0.000000  celldm(3)=   0.000000
     celldm(4)=   0.000000  celldm(5)=   0.000000  celldm(6)=   0.000000

     crystal axes: (cart. coord. in units of alat)
               a(1) = (   1.000000   0.000000   0.000000 )  
               a(2) = (   0.000000   2.309401   0.000000 )  
               a(3) = (   0.000000   0.000000   3.388418 )  

     reciprocal axes: (cart. coord. in units 2 pi/alat)
               b(1) = (  1.000000  0.000000  0.000000 )  
               b(2) = (  0.000000  0.433013  0.000000 )  
               b(3) = (  0.000000  0.000000  0.295123 )  


     PseudoPot. # 1 for Cu read from file:
     /home/549/hxw549/Short/pseudopotentials/Cu.pbe-n-van_ak.UPF
     MD5 check sum: 601f7c30f7467666bec936e0661ce3e1
     Pseudo is Ultrasoft + core correction, Zval = 11.0
     Generated by new atomic code, or converted to UPF format
     Using radial grid of  867 points,  6 beta functions with: 
                l(1) =   0
                l(2) =   0
                l(3) =   1
                l(4) =   1
                l(5) =   2
                l(6) =   2
     Q(r) pseudized with  8 coefficients,  rinner =    1.400   1.400   1.400
                                                       1.400   1.400

     PseudoPot. # 2 for C  read from file:
     /home/549/hxw549/Short/pseudopotentials/C.star1s-pbe-mt_gipaw.UPF
     MD5 check sum: ef0cb3dee31bd9e4ba2a832a2c716264
     Pseudo is Norm-conserving, Zval =  5.0
     Generated by new atomic code, or converted to UPF format
     Using radial grid of 1073 points,  1 beta functions with: 
                l(1) =   0

     PseudoPot. # 3 for C  read from file:
     /home/549/hxw549/Short/pseudopotentials/C.pbe-mt_gipaw.UPF
     MD5 check sum: 5ac2f21f2c440b14befe521540822c15
     Pseudo is Norm-conserving, Zval =  4.0
     Generated by new atomic code, or converted to UPF format
     Using radial grid of 1073 points,  1 beta functions with: 
                l(1) =   0

     PseudoPot. # 4 for O  read from file:
     /home/549/hxw549/Short/pseudopotentials/O.pbe-van_gipaw.UPF
     MD5 check sum: 5ce2a047509d4f331db576c963e74b29
     Pseudo is Ultrasoft, Zval =  6.0
     Generated by new atomic code, or converted to UPF format
     Using radial grid of 1095 points,  4 beta functions with: 
                l(1) =   0
                l(2) =   0
                l(3) =   1
                l(4) =   1
     Q(r) pseudized with 0 coefficients 


     PseudoPot. # 5 for H  read from file:
     /home/549/hxw549/Short/pseudopotentials/H.pbe-van_ak.UPF
     MD5 check sum: 077eb6d537518a38cb46c6de387227b7
     Pseudo is Ultrasoft, Zval =  1.0
     Generated by new atomic code, or converted to UPF format
     Using radial grid of  615 points,  1 beta functions with: 
                l(1) =   0
     Q(r) pseudized with  8 coefficients,  rinner =    0.800

     atomic species   valence    mass     pseudopotential
        Cu            11.00    63.54600     Cu( 1.00)
        C_h            5.00    12.01070     C ( 1.00)
        C              4.00    12.01070     C ( 1.00)
        O              6.00    15.99940     O ( 1.00)
        H              1.00     1.00783     H ( 1.00)

     No symmetry found



   Cartesian axes

     site n.     atom                  positions (alat units)
         1           Cu  tau(   1) = (   0.0000828  -0.0019274   0.9979025  )
         2           Cu  tau(   2) = (   0.2500781   0.2289897   0.9982687  )
         3           Cu  tau(   3) = (   0.5000682  -0.0019353   0.9979147  )
         4           Cu  tau(   4) = (   0.7500726   0.2289671   0.9982487  )
         5           Cu  tau(   5) = (   0.0000745   0.4597415   0.9986208  )
         6           Cu  tau(   6) = (   0.2500564   0.6906151   0.9987210  )
         7           Cu  tau(   7) = (   0.5000735   0.4597912   0.9985815  )
         8           Cu  tau(   8) = (   0.7500881   0.6906173   0.9987207  )
         9           Cu  tau(   9) = (   0.0000709   0.9216754   0.9986533  )
        10           Cu  tau(  10) = (   0.2500897   1.1527592   0.9985937  )
        11           Cu  tau(  11) = (   0.5000704   0.9216278   0.9986465  )
        12           Cu  tau(  12) = (   0.7500496   1.1527685   0.9985919  )
        13           Cu  tau(  13) = (   0.0000690   1.3837754   0.9985110  )
        14           Cu  tau(  14) = (   0.2500777   1.6146562   0.9983520  )
        15           Cu  tau(  15) = (   0.5000695   1.3837808   0.9985989  )
        16           Cu  tau(  16) = (   0.7500633   1.6146375   0.9983691  )
        17           Cu  tau(  17) = (   0.0000685   1.8454873   0.9980042  )
        18           Cu  tau(  18) = (   0.2500760   2.0764498   0.9977993  )
        19           Cu  tau(  19) = (   0.5000758   1.8455084   0.9980245  )
        20           Cu  tau(  20) = (   0.7500720   2.0764768   0.9977886  )
        21           Cu  tau(  21) = (   0.0000738   0.2285534   1.2467489  )
        22           Cu  tau(  22) = (   0.2500671  -0.0022340   1.2463929  )
        23           Cu  tau(  23) = (   0.5000700   0.2285866   1.2466810  )
        24           Cu  tau(  24) = (   0.7500765  -0.0022282   1.2464015  )
        25           Cu  tau(  25) = (   0.0000761   0.6907184   1.2469375  )
        26           Cu  tau(  26) = (   0.2500681   0.4595989   1.2469722  )
        27           Cu  tau(  27) = (   0.5000688   0.6906737   1.2469481  )
        28           Cu  tau(  28) = (   0.7500757   0.4595797   1.2469379  )
        29           Cu  tau(  29) = (   0.0000734   1.1527566   1.2467851  )
        30           Cu  tau(  30) = (   0.2500637   0.9217202   1.2468203  )
        31           Cu  tau(  31) = (   0.5000719   1.1527096   1.2468145  )
        32           Cu  tau(  32) = (   0.7500809   0.9217264   1.2468082  )
        33           Cu  tau(  33) = (   0.0000721   1.6148370   1.2467556  )
        34           Cu  tau(  34) = (   0.2500731   1.3838112   1.2468268  )
        35           Cu  tau(  35) = (   0.5000710   1.6148963   1.2468044  )
        36           Cu  tau(  36) = (   0.7500707   1.3837924   1.2468503  )
        37           Cu  tau(  37) = (   0.0000734   2.0765072   1.2462746  )
        38           Cu  tau(  38) = (   0.2500633   1.8457549   1.2465399  )
        39           Cu  tau(  39) = (   0.5000691   2.0764918   1.2462790  )
        40           Cu  tau(  40) = (   0.7500793   1.8457810   1.2465066  )
        41           Cu  tau(  41) = (   0.0000564  -0.0025714   1.4963399  )
        42           Cu  tau(  42) = (   0.2500847   0.2283300   1.4961868  )
        43           Cu  tau(  43) = (   0.5000704  -0.0024996   1.4962480  )
        44           Cu  tau(  44) = (   0.7500375   0.2283570   1.4961858  )
        45           Cu  tau(  45) = (   0.0000657   0.4596578   1.4961555  )
        46           Cu  tau(  46) = (   0.2500941   0.6908920   1.4964046  )
        47           Cu  tau(  47) = (   0.5000606   0.4596636   1.4962581  )
        48           Cu  tau(  48) = (   0.7500438   0.6908603   1.4963475  )
        49           Cu  tau(  49) = (   0.0000765   0.9218163   1.4964784  )
        50           Cu  tau(  50) = (   0.2500394   1.1525801   1.4963243  )
        51           Cu  tau(  51) = (   0.5000729   0.9217131   1.4963912  )
        52           Cu  tau(  52) = (   0.7501214   1.1525480   1.4963411  )
        53           Cu  tau(  53) = (   0.0000810   1.3837111   1.4962439  )
        54           Cu  tau(  54) = (   0.2500327   1.6149441   1.4962309  )
        55           Cu  tau(  55) = (   0.5000772   1.3836210   1.4961482  )
        56           Cu  tau(  56) = (   0.7501146   1.6149978   1.4961677  )
        57           Cu  tau(  57) = (   0.0000854   1.8459444   1.4961889  )
        58           Cu  tau(  58) = (   0.2500520   2.0764731   1.4963265  )
        59           Cu  tau(  59) = (   0.5000544   1.8460216   1.4962978  )
        60           Cu  tau(  60) = (   0.7500828   2.0764571   1.4963282  )
        61           Cu  tau(  61) = (   0.0000327   0.2286675   1.7449308  )
        62           Cu  tau(  62) = (   0.2501856  -0.0024048   1.7460061  )
        63           Cu  tau(  63) = (   0.5000420   0.2284048   1.7454312  )
        64           Cu  tau(  64) = (   0.7499075  -0.0024084   1.7460053  )
        65           Cu  tau(  65) = (   0.0000551   0.6907510   1.7454740  )
        66           Cu  tau(  66) = (   0.2503477   0.4596884   1.7449961  )
        67           Cu  tau(  67) = (   0.5000397   0.6909384   1.7459965  )
        68           Cu  tau(  68) = (   0.7497316   0.4597402   1.7450323  )
        69           Cu  tau(  69) = (   0.0000827   1.1525419   1.7460605  )
        70           Cu  tau(  70) = (   0.2501051   0.9218073   1.7461884  )
        71           Cu  tau(  71) = (   0.5000993   1.1525816   1.7456198  )
        72           Cu  tau(  72) = (   0.7500396   0.9216880   1.7461634  )
        73           Cu  tau(  73) = (   0.0001087   1.6149841   1.7453696  )
        74           Cu  tau(  74) = (   0.2498386   1.3835488   1.7451236  )
        75           Cu  tau(  75) = (   0.5000496   1.6146726   1.7448206  )
        76           Cu  tau(  76) = (   0.7503409   1.3836442   1.7449936  )
        77           Cu  tau(  77) = (   0.0000574   2.0762182   1.7464933  )
        78           Cu  tau(  78) = (   0.2499285   1.8458273   1.7459143  )
        79           Cu  tau(  79) = (   0.5000596   2.0765674   1.7464908  )
        80           Cu  tau(  80) = (   0.7502074   1.8458061   1.7458870  )
        81           Cu  tau(  81) = (   0.0000130  -0.0011975   1.9916018  )
        82           Cu  tau(  82) = (   0.2502323   0.2291545   1.9912736  )
        83           Cu  tau(  83) = (   0.5000352  -0.0017197   1.9933322  )
        84           Cu  tau(  84) = (   0.7497778   0.2292502   1.9912024  )
        85           Cu  tau(  85) = (   0.0001139   0.4595760   1.9906628  )
        86           Cu  tau(  86) = (   0.2508258   0.6900820   1.9914899  )
        87           Cu  tau(  87) = (   0.4998900   0.4590567   1.9920159  )
        88           Cu  tau(  88) = (   0.7491801   0.6900255   1.9915826  )
        89           Cu  tau(  89) = (   0.0001003   0.9205839   1.9922013  )
        90           Cu  tau(  90) = (   0.2492906   1.1533023   1.9918576  )
        91           Cu  tau(  91) = (   0.5000354   0.9227614   1.9921889  )
        92           Cu  tau(  92) = (   0.7509059   1.1533324   1.9914825  )
        93           Cu  tau(  93) = (   0.0000970   1.3843545   1.9922248  )
        94           Cu  tau(  94) = (   0.2498122   1.6141996   1.9911039  )
        95           Cu  tau(  95) = (   0.5000946   1.3838300   1.9905497  )
        96           Cu  tau(  96) = (   0.7503549   1.6142035   1.9910208  )
        97           Cu  tau(  97) = (   0.0000764   1.8451373   1.9933510  )
        98           Cu  tau(  98) = (   0.2500787   2.0764017   1.9926276  )
        99           Cu  tau(  99) = (   0.5000584   1.8444878   1.9914203  )
       100           Cu  tau( 100) = (   0.7500137   2.0763587   1.9926042  )
       101           C   tau( 101) = (   0.0005819   0.1012998   2.3904043  )
       102           C   tau( 102) = (   0.0005741   0.2937156   2.3903390  )
       103           C   tau( 103) = (   0.1672040   0.0050807   2.3895960  )
       104           C   tau( 104) = (   0.1670703   0.3899063   2.3888619  )
       105           C   tau( 105) = (   0.3337248   0.1012568   2.3872161  )
       106           C   tau( 106) = (   0.3337224   0.2937225   2.3863974  )
       107           C   tau( 107) = (   0.5005868   0.0049483   2.3857238  )
       108           C   tau( 108) = (   0.5005906   0.3900076   2.3840849  )
       109           C   tau( 109) = (   0.6674546   0.1012489   2.3865961  )
       110           C   tau( 110) = (   0.6674510   0.2937242   2.3853634  )
       111           C   tau( 111) = (   0.8339733   0.0050728   2.3892325  )
       112           C   tau( 112) = (   0.8340930   0.3899332   2.3880236  )
       113           C   tau( 113) = (   0.0006204   0.6785782   2.3887582  )
       114           C   tau( 114) = (   0.0006769   0.8710033   2.3866220  )
       115           C   tau( 115) = (   0.1670755   0.5823559   2.3880138  )
       116           C   tau( 116) = (   0.1673962   0.9673020   2.3868415  )
       117           C   tau( 117) = (   0.3338702   0.6786172   2.3851660  )
       118           C   tau( 118) = (   0.3338400   0.8711005   2.3855460  )
       119           C   tau( 119) = (   0.5006593   0.5824545   2.3838744  )
       120           C   tau( 120) = (   0.5007124   0.9674155   2.3833498  )
       121           C   tau( 121) = (   0.6674395   0.6786521   2.3836125  )
       122           C   tau( 122) = (   0.6675228   0.8710775   2.3835887  )
       123           C   tau( 123) = (   0.8341510   0.5823962   2.3871255  )
       124           C   tau( 124) = (   0.8339084   0.9672573   2.3856381  )
       125           C   tau( 125) = (   0.0006550   1.2559231   2.3856585  )
       126           C   tau( 126) = (   0.0006094   1.4483424   2.3842060  )
       127           C   tau( 127) = (   0.1674037   1.1597321   2.3858893  )
       128           C   tau( 128) = (   0.1674686   1.5446246   2.3856706  )
       129           C   tau( 129) = (   0.3341358   1.2560248   2.3872725  )
       130           C   tau( 130) = (   0.3340828   1.4484048   2.3886295  )
       131           C   tau( 131) = (   0.5006210   1.1598970   2.3867181  )
       132           C   tau( 132) = (   0.5005784   1.5446460   2.3900326  )
       133           C   tau( 133) = (   0.6670968   1.2560354   2.3869037  )
       134           C   tau( 134) = (   0.6670754   1.4484646   2.3880658  )
       135           C   tau( 135) = (   0.8339059   1.1597231   2.3855699  )
       136           C   tau( 136) = (   0.8337142   1.5446462   2.3852464  )
       137           C   tau( 137) = (   0.0006078   1.8334050   2.3846746  )
       138           C   tau( 138) = (   0.0006196   2.0258385   2.3878528  )
       139           C   tau( 139) = (   0.1674732   1.7370744   2.3858592  )
       140           C   tau( 140) = (   0.1672100   2.1220313   2.3881529  )
       141           C   tau( 141) = (   0.3340050   1.8332630   2.3883297  )
       142           C   tau( 142) = (   0.3340274   2.0257115   2.3879053  )
       143           C   tau( 143) = (   0.5005899   1.7370225   2.3894614  )
       144           C   tau( 144) = (   0.5006184   2.1219085   2.3882968  )
       145           C   tau( 145) = (   0.6671992   1.8332548   2.3882872  )
       146           C   tau( 146) = (   0.6671889   2.0257026   2.3877783  )
       147           C   tau( 147) = (   0.8337337   1.7370904   2.3857631  )
       148           C   tau( 148) = (   0.8340135   2.1220210   2.3880016  )
       149           C_h tau( 149) = (   0.3729471   1.0771384   2.9742109  )
       150           O   tau( 150) = (   0.3729471   1.0771384   2.8132802  )
       151           O   tau( 151) = (   0.3729471   1.0771384   3.1351538  )

     number of k points=     6  gaussian smearing, width (Ry)=  0.1000
                       cart. coord. in units 2pi/alat
        k(    1) = (   0.0000000   0.0000000   0.0000000), wk =   0.2500000
        k(    2) = (   0.0000000  -0.2165064   0.0000000), wk =   0.2500000
        k(    3) = (   0.2500000   0.0000000   0.0000000), wk =   0.5000000
        k(    4) = (   0.2500000  -0.2165064   0.0000000), wk =   0.5000000
        k(    5) = (  -0.5000000   0.0000000   0.0000000), wk =   0.2500000
        k(    6) = (  -0.5000000  -0.2165064   0.0000000), wk =   0.2500000

     Dense  grid:  2050409 G-vectors     FFT dimensions: (  80, 192, 270)

     Largest allocated arrays     est. size (Mb)     dimensions
        Kohn-Sham Wavefunctions       109.85 Mb     (    9171,  785)
        NL pseudopotentials           260.99 Mb     (    9171, 1865)
        Each V/rho on FFT grid          2.34 Mb     (  153600)
        Each G-vector array             0.56 Mb     (   73230)
        G-vector shells                 0.27 Mb     (   35784)
     Largest temporary arrays     est. size (Mb)     dimensions
        Auxiliary wavefunctions       439.41 Mb     (    9171, 3140)
        Each subspace H/S matrix       16.69 Mb     (    1046, 1046)
        Each <psi_i|beta_j> matrix     22.34 Mb     (    1865,  785)
        Arrays for rho mixing          18.75 Mb     (  153600,    8)

     Initial potential from superposition of free atoms
     Check: negative starting charge=   -0.001391

     starting charge 1282.31751, renormalised to 1308.00000

     negative rho (up, down):  1.419E-03 0.000E+00
     Starting wfc are 1300 randomized atomic wfcs

     total cpu time spent up to now is      208.6 secs

     Self-consistent Calculation

     iteration #  1     ecut=    80.00 Ry     beta=0.70
     Davidson diagonalization with overlap
     ethr =  1.00E-04,  avg # of iterations = 21.7

     negative rho (up, down):  2.898E+01 0.000E+00

     total cpu time spent up to now is     3989.3 secs

     total energy              =   -9576.55598331 Ry
     Harris-Foulkes estimate   =  -17431.56587432 Ry
     estimated scf accuracy    <  184677.39822183 Ry

     iteration #  2     ecut=    80.00 Ry     beta=0.70
     Davidson diagonalization with overlap
     ethr =  1.00E-02,  avg # of iterations = 16.3

     negative rho (up, down):  3.344E+01 0.000E+00

     total cpu time spent up to now is     5970.2 secs

     total energy              =  -12139.65954507 Ry
     Harris-Foulkes estimate   =  -13808.49763812 Ry
     estimated scf accuracy    <   26634.84325004 Ry

     iteration #  3     ecut=    80.00 Ry     beta=0.70
     Davidson diagonalization with overlap
     ethr =  1.00E-02,  avg # of iterations =  7.5

     negative rho (up, down):  3.419E+01 0.000E+00

     total cpu time spent up to now is     7101.4 secs

     total energy              =  -12498.32553941 Ry
     Harris-Foulkes estimate   =  -13542.54844646 Ry
     estimated scf accuracy    <    6378.87133931 Ry

     iteration #  4     ecut=    80.00 Ry     beta=0.70
     Davidson diagonalization with overlap
     ethr =  1.00E-02,  avg # of iterations =  5.5

     negative rho (up, down):  2.402E+01 0.000E+00

     total cpu time spent up to now is     8173.0 secs

     total energy              =  -12924.24365480 Ry
     Harris-Foulkes estimate   =  -13176.52288322 Ry
     estimated scf accuracy    <    1544.27922450 Ry

     iteration #  5     ecut=    80.00 Ry     beta=0.70
     Davidson diagonalization with overlap
     ethr =  1.00E-02,  avg # of iterations =  3.3

     negative rho (up, down):  1.925E+01 0.000E+00

     total cpu time spent up to now is     8723.9 secs

     total energy              =  -12916.88630665 Ry
     Harris-Foulkes estimate   =  -13026.31970349 Ry
     estimated scf accuracy    <    1456.69773150 Ry

     iteration #  6     ecut=    80.00 Ry     beta=0.70
     Davidson diagonalization with overlap
     ethr =  1.00E-02,  avg # of iterations =  2.2

     negative rho (up, down):  1.284E+01 0.000E+00

     total cpu time spent up to now is     9099.1 secs

     total energy              =  -12899.81122280 Ry
     Harris-Foulkes estimate   =  -12978.57295661 Ry
     estimated scf accuracy    <     584.49582975 Ry

     iteration #  7     ecut=    80.00 Ry     beta=0.70
     Davidson diagonalization with overlap
     ethr =  1.00E-02,  avg # of iterations =  2.0

     negative rho (up, down):  8.821E+00 0.000E+00

     total cpu time spent up to now is     9469.5 secs

     total energy              =  -12868.10752293 Ry
     Harris-Foulkes estimate   =  -12917.05014674 Ry
     estimated scf accuracy    <     418.72546259 Ry

     iteration #  8     ecut=    80.00 Ry     beta=0.70
     Davidson diagonalization with overlap
     ethr =  1.00E-02,  avg # of iterations =  2.0

     negative rho (up, down):  7.375E+00 0.000E+00

     total cpu time spent up to now is     9825.0 secs

     total energy              =  -12856.39308412 Ry
     Harris-Foulkes estimate   =  -12884.61180110 Ry
     estimated scf accuracy    <     458.98917905 Ry

     iteration #  9     ecut=    80.00 Ry     beta=0.70
     Davidson diagonalization with overlap
     ethr =  1.00E-02,  avg # of iterations =  2.2

     negative rho (up, down):  6.328E+00 0.000E+00

     total cpu time spent up to now is    10182.8 secs

     total energy              =  -12855.15274871 Ry
     Harris-Foulkes estimate   =  -12868.00874656 Ry
     estimated scf accuracy    <     188.38516141 Ry

     iteration # 10     ecut=    80.00 Ry     beta=0.70
     Davidson diagonalization with overlap
     ethr =  1.00E-02,  avg # of iterations =  1.0

     negative rho (up, down):  1.603E+00 0.000E+00

     total cpu time spent up to now is    10517.6 secs

     total energy              =  -12809.65010842 Ry
     Harris-Foulkes estimate   =  -12856.46172868 Ry
     estimated scf accuracy    <     164.54076977 Ry

     iteration # 11     ecut=    80.00 Ry     beta=0.70
     Davidson diagonalization with overlap
     ethr =  1.00E-02,  avg # of iterations =  1.2

     negative rho (up, down):  9.392E-01 0.000E+00

     total cpu time spent up to now is    10855.7 secs

     total energy              =  -12792.74782496 Ry
     Harris-Foulkes estimate   =  -12819.91824886 Ry
     estimated scf accuracy    <     372.59428006 Ry

     iteration # 12     ecut=    80.00 Ry     beta=0.70
     Davidson diagonalization with overlap
     ethr =  1.00E-02,  avg # of iterations =  2.2

     negative rho (up, down):  1.920E+00 0.000E+00

     total cpu time spent up to now is    11215.6 secs

     total energy              =  -12791.78712105 Ry
     Harris-Foulkes estimate   =  -12813.31300690 Ry
     estimated scf accuracy    <     351.49400618 Ry

     iteration # 13     ecut=    80.00 Ry     beta=0.70
     Davidson diagonalization with overlap
     ethr =  1.00E-02,  avg # of iterations =  2.2

     negative rho (up, down):  3.712E+00 0.000E+00

     total cpu time spent up to now is    11573.3 secs

     total energy              =  -12789.00503893 Ry
     Harris-Foulkes estimate   =  -12800.20019867 Ry
     estimated scf accuracy    <      72.64786241 Ry

     iteration # 14     ecut=    80.00 Ry     beta=0.70
     Davidson diagonalization with overlap
     ethr =  5.55E-03,  avg # of iterations =  2.8

     negative rho (up, down):  3.837E+00 0.000E+00

     total cpu time spent up to now is    11948.4 secs

     total energy              =  -12788.75902473 Ry
     Harris-Foulkes estimate   =  -12793.74652903 Ry
     estimated scf accuracy    <      37.03287339 Ry

     iteration # 15     ecut=    80.00 Ry     beta=0.70
     Davidson diagonalization with overlap
     ethr =  2.83E-03,  avg # of iterations =  4.7

     negative rho (up, down):  4.211E+00 0.000E+00

     total cpu time spent up to now is    12367.3 secs

     total energy              =  -12788.24839818 Ry
     Harris-Foulkes estimate   =  -12791.42898629 Ry
     estimated scf accuracy    <      27.86725145 Ry

     iteration # 16     ecut=    80.00 Ry     beta=0.70
     Davidson diagonalization with overlap
     ethr =  2.13E-03,  avg # of iterations =  3.5

     negative rho (up, down):  4.495E+00 0.000E+00

     total cpu time spent up to now is    12757.9 secs

     total energy              =  -12787.52043062 Ry
     Harris-Foulkes estimate   =  -12789.30824962 Ry
     estimated scf accuracy    <      15.95366447 Ry

     iteration # 17     ecut=    80.00 Ry     beta=0.70
     Davidson diagonalization with overlap
     ethr =  1.22E-03,  avg # of iterations =  6.0

     negative rho (up, down):  3.537E+00 0.000E+00

     total cpu time spent up to now is    13206.6 secs

     total energy              =  -12786.51740380 Ry
     Harris-Foulkes estimate   =  -12787.89681566 Ry
     estimated scf accuracy    <      10.45626025 Ry

     iteration # 18     ecut=    80.00 Ry     beta=0.70
     Davidson diagonalization with overlap
     ethr =  7.99E-04,  avg # of iterations =  6.7

     negative rho (up, down):  3.230E+00 0.000E+00

     total cpu time spent up to now is    13662.9 secs

     total energy              =  -12785.65171406 Ry
     Harris-Foulkes estimate   =  -12786.81536775 Ry
     estimated scf accuracy    <      10.53033405 Ry

     iteration # 19     ecut=    80.00 Ry     beta=0.70
     Davidson diagonalization with overlap
     ethr =  7.99E-04,  avg # of iterations =  4.8

     negative rho (up, down):  3.057E+00 0.000E+00

     total cpu time spent up to now is    14080.2 secs

     total energy              =  -12785.37011577 Ry
     Harris-Foulkes estimate   =  -12785.98896284 Ry
     estimated scf accuracy    <       6.74347075 Ry

     iteration # 20     ecut=    80.00 Ry     beta=0.70
     Davidson diagonalization with overlap
     ethr =  5.16E-04,  avg # of iterations =  5.8

     negative rho (up, down):  2.157E+00 0.000E+00

     total cpu time spent up to now is    14521.0 secs

     total energy              =  -12784.76687285 Ry
     Harris-Foulkes estimate   =  -12785.46133630 Ry
     estimated scf accuracy    <       6.55268509 Ry

     iteration # 21     ecut=    80.00 Ry     beta=0.70
     Davidson diagonalization with overlap
     ethr =  5.01E-04,  avg # of iterations =  3.5

     negative rho (up, down):  1.479E+00 0.000E+00

     total cpu time spent up to now is    14908.9 secs

     total energy              =  -12784.10539950 Ry
     Harris-Foulkes estimate   =  -12784.85438548 Ry
     estimated scf accuracy    <       6.39115022 Ry

     iteration # 22     ecut=    80.00 Ry     beta=0.70
     Davidson diagonalization with overlap
     ethr =  4.89E-04,  avg # of iterations =  5.3

     negative rho (up, down):  1.517E+00 0.000E+00

     total cpu time spent up to now is    15337.3 secs

     total energy              =  -12784.01912450 Ry
     Harris-Foulkes estimate   =  -12784.54685648 Ry
     estimated scf accuracy    <       6.04491721 Ry

     iteration # 23     ecut=    80.00 Ry     beta=0.70
     Davidson diagonalization with overlap
     ethr =  4.62E-04,  avg # of iterations =  2.0

     negative rho (up, down):  3.602E-01 0.000E+00

     total cpu time spent up to now is    15692.2 secs

     total energy              =  -12782.67200849 Ry
     Harris-Foulkes estimate   =  -12784.32173873 Ry
     estimated scf accuracy    <       5.02646905 Ry

     iteration # 24     ecut=    80.00 Ry     beta=0.70
     Davidson diagonalization with overlap
     ethr =  3.84E-04,  avg # of iterations =  6.3

     negative rho (up, down):  2.263E-01 0.000E+00

     total cpu time spent up to now is    16151.7 secs

     total energy              =  -12782.75865809 Ry
     Harris-Foulkes estimate   =  -12783.04926546 Ry
     estimated scf accuracy    <       9.98129562 Ry

     iteration # 25     ecut=    80.00 Ry     beta=0.70
     Davidson diagonalization with overlap
     ethr =  3.84E-04,  avg # of iterations =  3.3

     negative rho (up, down):  1.025E-01 0.000E+00

     total cpu time spent up to now is    16535.6 secs

     total energy              =  -12782.63064025 Ry
     Harris-Foulkes estimate   =  -12782.85011001 Ry
     estimated scf accuracy    <       4.08783855 Ry

     iteration # 26     ecut=    80.00 Ry     beta=0.70
     Davidson diagonalization with overlap
     ethr =  3.13E-04,  avg # of iterations =  6.0

     negative rho (up, down):  8.791E-02 0.000E+00

     total cpu time spent up to now is    16975.5 secs

     total energy              =  -12782.17864946 Ry
     Harris-Foulkes estimate   =  -12782.76526338 Ry
     estimated scf accuracy    <       3.98011263 Ry

     iteration # 27     ecut=    80.00 Ry     beta=0.70
     Davidson diagonalization with overlap
     ethr =  3.04E-04,  avg # of iterations =  3.3

     negative rho (up, down):  2.372E-01 0.000E+00

     total cpu time spent up to now is    17363.6 secs

     total energy              =  -12782.17376866 Ry
     Harris-Foulkes estimate   =  -12782.34133778 Ry
     estimated scf accuracy    <       1.62773841 Ry

     iteration # 28     ecut=    80.00 Ry     beta=0.70
     Davidson diagonalization with overlap
     ethr =  1.24E-04,  avg # of iterations =  8.0

     negative rho (up, down):  5.625E-01 0.000E+00

     total cpu time spent up to now is    17849.8 secs

     total energy              =  -12782.08205142 Ry
     Harris-Foulkes estimate   =  -12782.22885537 Ry
     estimated scf accuracy    <       1.19586920 Ry

     iteration # 29     ecut=    80.00 Ry     beta=0.70
     Davidson diagonalization with overlap
     ethr =  9.14E-05,  avg # of iterations =  7.3

     negative rho (up, down):  2.975E-01 0.000E+00

     total cpu time spent up to now is    18338.2 secs

     total energy              =  -12782.01018903 Ry
     Harris-Foulkes estimate   =  -12782.10424829 Ry
     estimated scf accuracy    <       0.68795059 Ry

     iteration # 30     ecut=    80.00 Ry     beta=0.70
     Davidson diagonalization with overlap
     ethr =  5.26E-05,  avg # of iterations =  9.3

     negative rho (up, down):  4.350E-01 0.000E+00

     total cpu time spent up to now is    18869.0 secs

     total energy              =  -12782.01577848 Ry
     Harris-Foulkes estimate   =  -12782.03462295 Ry
     estimated scf accuracy    <       0.47966363 Ry

     iteration # 31     ecut=    80.00 Ry     beta=0.70
     Davidson diagonalization with overlap
     ethr =  3.67E-05,  avg # of iterations =  8.5

     negative rho (up, down):  2.133E-01 0.000E+00

     total cpu time spent up to now is    19389.3 secs

     total energy              =  -12782.00315784 Ry
     Harris-Foulkes estimate   =  -12782.02632969 Ry
     estimated scf accuracy    <       0.24026870 Ry

     iteration # 32     ecut=    80.00 Ry     beta=0.70
     Davidson diagonalization with overlap
     ethr =  1.84E-05,  avg # of iterations =  7.8

     negative rho (up, down):  1.487E-01 0.000E+00

     total cpu time spent up to now is    19898.4 secs

     total energy              =  -12782.00633449 Ry
     Harris-Foulkes estimate   =  -12782.01739138 Ry
     estimated scf accuracy    <       0.05174877 Ry

     iteration # 33     ecut=    80.00 Ry     beta=0.70
     Davidson diagonalization with overlap
     ethr =  3.96E-06,  avg # of iterations = 11.8

     negative rho (up, down):  1.265E-01 0.000E+00

     total cpu time spent up to now is    20502.1 secs

     total energy              =  -12782.00789304 Ry
     Harris-Foulkes estimate   =  -12782.01015508 Ry
     estimated scf accuracy    <       0.01823894 Ry

     iteration # 34     ecut=    80.00 Ry     beta=0.70
     Davidson diagonalization with overlap
     c_bands:  1 eigenvalues not converged
     ethr =  1.39E-06,  avg # of iterations = 12.8

     negative rho (up, down):  1.141E-01 0.000E+00

     total cpu time spent up to now is    21181.3 secs

     total energy              =  -12782.00690753 Ry
     Harris-Foulkes estimate   =  -12782.00933725 Ry
     estimated scf accuracy    <       0.01325407 Ry

     iteration # 35     ecut=    80.00 Ry     beta=0.70
     Davidson diagonalization with overlap
     ethr =  1.01E-06,  avg # of iterations =  9.2

     negative rho (up, down):  1.060E-01 0.000E+00

     total cpu time spent up to now is    21724.4 secs

     total energy              =  -12782.00709090 Ry
     Harris-Foulkes estimate   =  -12782.00767297 Ry
     estimated scf accuracy    <       0.00706500 Ry

     iteration # 36     ecut=    80.00 Ry     beta=0.70
     Davidson diagonalization with overlap
     ethr =  5.40E-07,  avg # of iterations =  8.2

     negative rho (up, down):  7.798E-02 0.000E+00

     total cpu time spent up to now is    22235.8 secs

     total energy              =  -12782.00583735 Ry
     Harris-Foulkes estimate   =  -12782.00752846 Ry
     estimated scf accuracy    <       0.00350807 Ry

     iteration # 37     ecut=    80.00 Ry     beta=0.70
     Davidson diagonalization with overlap
     ethr =  2.68E-07,  avg # of iterations =  8.7

     negative rho (up, down):  4.683E-02 0.000E+00

     total cpu time spent up to now is    22765.0 secs

     total energy              =  -12782.00501683 Ry
     Harris-Foulkes estimate   =  -12782.00615334 Ry
     estimated scf accuracy    <       0.00191566 Ry

     iteration # 38     ecut=    80.00 Ry     beta=0.70
     Davidson diagonalization with overlap
     c_bands:  2 eigenvalues not converged
     ethr =  1.46E-07,  avg # of iterations = 13.2

     negative rho (up, down):  1.369E-02 0.000E+00

     total cpu time spent up to now is    23450.7 secs

     total energy              =  -12782.00444416 Ry
     Harris-Foulkes estimate   =  -12782.00521077 Ry
     estimated scf accuracy    <       0.00125895 Ry

     iteration # 39     ecut=    80.00 Ry     beta=0.70
     Davidson diagonalization with overlap
     c_bands:  3 eigenvalues not converged
     ethr =  9.62E-08,  avg # of iterations = 12.7

     negative rho (up, down):  2.921E-03 0.000E+00

     total cpu time spent up to now is    24083.1 secs

     total energy              =  -12782.00426693 Ry
     Harris-Foulkes estimate   =  -12782.00453241 Ry
     estimated scf accuracy    <       0.00029365 Ry

     iteration # 40     ecut=    80.00 Ry     beta=0.70
     Davidson diagonalization with overlap
     c_bands:  1 eigenvalues not converged
     c_bands:  1 eigenvalues not converged
     ethr =  2.24E-08,  avg # of iterations = 12.3

     negative rho (up, down):  2.476E-03 0.000E+00

     total cpu time spent up to now is    24706.8 secs

     total energy              =  -12782.00430295 Ry
     Harris-Foulkes estimate   =  -12782.00429168 Ry
     estimated scf accuracy    <       0.00003255 Ry

     iteration # 41     ecut=    80.00 Ry     beta=0.70
     Davidson diagonalization with overlap
     ethr =  2.49E-09,  avg # of iterations =  6.2

     negative rho (up, down):  1.357E-03 0.000E+00

     total cpu time spent up to now is    25191.2 secs

     total energy              =  -12782.00429947 Ry
     Harris-Foulkes estimate   =  -12782.00430648 Ry
     estimated scf accuracy    <       0.00001446 Ry

     iteration # 42     ecut=    80.00 Ry     beta=0.70
     Davidson diagonalization with overlap
     ethr =  1.11E-09,  avg # of iterations =  4.8

     negative rho (up, down):  1.396E-03 0.000E+00

     total cpu time spent up to now is    25627.6 secs

     total energy              =  -12782.00430285 Ry
     Harris-Foulkes estimate   =  -12782.00430068 Ry
     estimated scf accuracy    <       0.00000577 Ry

     iteration # 43     ecut=    80.00 Ry     beta=0.70
     Davidson diagonalization with overlap
     ethr =  4.41E-10,  avg # of iterations =  3.3

     negative rho (up, down):  1.560E-03 0.000E+00

     total cpu time spent up to now is    26037.9 secs

     total energy              =  -12782.00430384 Ry
     Harris-Foulkes estimate   =  -12782.00430341 Ry
     estimated scf accuracy    <       0.00000254 Ry

     iteration # 44     ecut=    80.00 Ry     beta=0.70
     Davidson diagonalization with overlap
     ethr =  1.94E-10,  avg # of iterations =  3.0

     negative rho (up, down):  1.532E-03 0.000E+00

     total cpu time spent up to now is    26435.9 secs

     total energy              =  -12782.00430418 Ry
     Harris-Foulkes estimate   =  -12782.00430403 Ry
     estimated scf accuracy    <       0.00000029 Ry

     iteration # 45     ecut=    80.00 Ry     beta=0.70
     Davidson diagonalization with overlap
     ethr =  2.24E-11,  avg # of iterations =  3.0

     negative rho (up, down):  1.568E-03 0.000E+00

     total cpu time spent up to now is    26863.5 secs

     total energy              =  -12782.00430419 Ry
     Harris-Foulkes estimate   =  -12782.00430422 Ry
     estimated scf accuracy    <       0.00000013 Ry

     iteration # 46     ecut=    80.00 Ry     beta=0.70
     Davidson diagonalization with overlap
     ethr =  1.03E-11,  avg # of iterations =  2.2

     negative rho (up, down):  1.610E-03 0.000E+00

     total cpu time spent up to now is    27234.7 secs

     total energy              =  -12782.00430418 Ry
     Harris-Foulkes estimate   =  -12782.00430420 Ry
     estimated scf accuracy    <       0.00000006 Ry

     iteration # 47     ecut=    80.00 Ry     beta=0.70
     Davidson diagonalization with overlap
     ethr =  4.80E-12,  avg # of iterations =  2.8

     negative rho (up, down):  1.601E-03 0.000E+00

     total cpu time spent up to now is    27625.4 secs

     total energy              =  -12782.00430419 Ry
     Harris-Foulkes estimate   =  -12782.00430419 Ry
     estimated scf accuracy    <       0.00000002 Ry

     iteration # 48     ecut=    80.00 Ry     beta=0.70
     Davidson diagonalization with overlap
     ethr =  1.37E-12,  avg # of iterations =  2.8

     negative rho (up, down):  1.606E-03 0.000E+00

     total cpu time spent up to now is    28048.0 secs

     total energy              =  -12782.00430420 Ry
     Harris-Foulkes estimate   =  -12782.00430420 Ry
     estimated scf accuracy    <       0.00000001 Ry

     iteration # 49     ecut=    80.00 Ry     beta=0.70
     Davidson diagonalization with overlap
     ethr =  8.16E-13,  avg # of iterations =  2.0

     negative rho (up, down):  1.597E-03 0.000E+00

     total cpu time spent up to now is    28402.4 secs

     End of self-consistent calculation

          k = 0.0000 0.0000 0.0000 (256287 PWs)   bands (ev):

   -23.4323 -22.2016 -16.1746 -15.8029 -15.8015 -14.6963 -14.6957 -14.2119
   -14.2098 -13.8499 -13.8482 -13.8477 -13.8463 -12.8964 -12.8952 -12.7805
   -12.7797 -12.7785 -12.7774 -11.0863 -11.0855 -11.0847 -11.0831 -10.8766
    -9.8824  -9.2000  -9.1990  -9.1978  -9.1966  -8.3222  -8.3206  -8.3191
    -8.3179  -7.6435  -7.3315  -7.3287  -7.2560  -7.2556  -7.2538  -7.2522
    -7.2402  -7.2395  -6.7279  -6.7256  -6.4065  -5.8317  -5.6998  -5.6985
    -5.6958  -5.6946  -5.5371  -5.5356  -5.5347  -5.5341  -5.2984  -5.2963
    -4.8965  -4.4141  -4.4076  -4.3886  -4.3855  -4.3834  -4.0580  -4.0572
    -3.9283  -3.9240  -3.8008  -3.8007  -3.2462  -3.2453  -3.2443  -3.2441
    -3.2202  -3.2195  -3.0969  -3.0838  -3.0825  -3.0380  -3.0358  -2.9921
    -2.8215  -2.8207  -2.8196  -2.8189  -2.7335  -2.7318  -2.6320  -2.6298
    -2.5522  -2.5492  -2.4826  -2.4797  -2.4288  -2.4273  -2.4261  -2.4255
    -2.1798  -2.1777  -2.1772  -2.1754  -2.1282  -2.1226  -2.0060  -2.0056
    -1.9920  -1.9894  -1.9660  -1.9658  -1.9657  -1.9656  -1.8529  -1.8505
    -1.8481  -1.8420  -1.8349  -1.8348  -1.8344  -1.8343  -1.7708  -1.7217
    -1.7204  -1.6540  -1.5907  -1.5511  -1.5510  -1.5510  -1.5507  -1.5010
    -1.5010  -1.4850  -1.4721  -1.4702  -1.4129  -1.4066  -1.3775  -1.3773
    -1.3764  -1.3747  -1.3435  -1.3432  -1.3426  -1.3424  -1.3290  -1.3275
    -1.2512  -1.2507  -1.2292  -1.1832  -1.1819  -1.1815  -1.1804  -1.1662
    -1.1123  -1.0774  -1.0753  -1.0714  -1.0701  -1.0641  -1.0249  -1.0246
    -1.0051  -1.0030  -0.9804  -0.9774  -0.9343  -0.9304  -0.9079  -0.9068
    -0.9056  -0.9050  -0.8603  -0.8574  -0.8460  -0.8369  -0.8367  -0.8362
    -0.8362  -0.8352  -0.8340  -0.8284  -0.8284  -0.8112  -0.7770  -0.7751
    -0.7650  -0.7413  -0.7406  -0.7364  -0.7317  -0.7310  -0.7304  -0.6715
    -0.6697  -0.6692  -0.6689  -0.6680  -0.6669  -0.6661  -0.6659  -0.6654
    -0.6615  -0.6615  -0.6610  -0.6588  -0.6555  -0.6555  -0.6417  -0.6417
    -0.5987  -0.5961  -0.5947  -0.5933  -0.5931  -0.5030  -0.5029  -0.4969
    -0.4965  -0.4721  -0.4712  -0.4548  -0.4547  -0.4323  -0.4322  -0.4167
    -0.4164  -0.4156  -0.4150  -0.4078  -0.4072  -0.3999  -0.3772  -0.3768
    -0.3746  -0.3742  -0.3666  -0.3659  -0.3546  -0.3544  -0.3055  -0.3053
    -0.2515  -0.2513  -0.2404  -0.2388  -0.2386  -0.2375  -0.2226  -0.2226
    -0.2173  -0.2173  -0.2169  -0.2169  -0.2133  -0.2132  -0.1980  -0.1979
    -0.1862  -0.1861  -0.1846  -0.1844  -0.1647  -0.1641  -0.1123  -0.1107
    -0.1095  -0.1040  -0.1038  -0.0773  -0.0772  -0.0762  -0.0762  -0.0587
    -0.0587  -0.0580  -0.0555  -0.0555  -0.0333  -0.0327  -0.0316  -0.0312
    -0.0265  -0.0264  -0.0255  -0.0253  -0.0235  -0.0205  -0.0026  -0.0019
    -0.0006  -0.0003   0.0002   0.0194   0.0678   0.0678   0.0697   0.0699
     0.0734   0.1192   0.1196   0.1200   0.1204   0.1250   0.1252   0.1253
     0.1256   0.1257   0.1415   0.1425   0.1782   0.1792   0.1806   0.1811
     0.1877   0.2096   0.2099   0.2102   0.2104   0.2141   0.2179   0.2333
     0.2339   0.2347   0.2354   0.2366   0.2368   0.2510   0.2511   0.2514
     0.2516   0.2650   0.2655   0.2661   0.2671   0.2888   0.2898   0.2962
     0.2989   0.3229   0.3234   0.3537   0.3544   0.3548   0.3549   0.3782
     0.3820   0.4244   0.4250   0.4271   0.4272   0.4277   0.4309   0.4595
     0.4608   0.4617   0.4627   0.4628   0.4639   0.4730   0.4732   0.5135
     0.5290   0.5290   0.5369   0.5371   0.5387   0.5388   0.5399   0.5644
     0.5717   0.5727   0.5727   0.5730   0.6043   0.6113   0.6114   0.6119
     0.6123   0.6261   0.6272   0.6279   0.6287   0.6676   0.6680   0.6833
     0.6835   0.6837   0.6856   0.6858   0.6984   0.7158   0.7189   0.7210
     0.7217   0.7224   0.7237   0.7239   0.7259   0.7290   0.7345   0.7348
     0.7421   0.7430   0.7433   0.7444   0.7527   0.7528   0.7830   0.7937
     0.7938   0.8050   0.8053   0.8377   0.8380   0.8383   0.8385   0.8412
     0.8413   0.8415   0.8416   0.8541   0.8546   0.8632   0.8673   0.8675
     0.8686   0.8708   0.8758   0.8759   0.8866   0.8871   0.8938   0.9089
     0.9093   0.9093   0.9098   0.9202   0.9206   0.9310   0.9349   0.9363
     0.9364   0.9414   0.9425   0.9437   0.9462   0.9568   0.9853   0.9904
     0.9905   0.9943   0.9944   0.9990   1.0061   1.0073   1.0125   1.0128
     1.0137   1.0147   1.0443   1.0449   1.0599   1.0607   1.0645   1.0645
     1.0793   1.0794   1.0885   1.0893   1.0895   1.0902   1.0970   1.1112
     1.1256   1.1272   1.1278   1.1301   1.1307   1.1317   1.1500   1.1557
     1.1656   1.1742   1.1742   1.1847   1.1995   1.1998   1.2013   1.2021
     1.2021   1.2059   1.2065   1.2128   1.2136   1.2172   1.2173   1.2177
     1.2185   1.2189   1.2250   1.2322   1.2324   1.2532   1.2534   1.2540
     1.2542   1.2618   1.2635   1.2934   1.2945   1.2988   1.2997   1.3003
     1.3006   1.3015   1.3025   1.3076   1.3077   1.3079   1.3081   1.3110
     1.3121   1.3243   1.3244   1.3591   1.3676   1.3725   1.3736   1.3909
     1.3920   1.3922   1.3937   1.3950   1.3956   1.4072   1.4172   1.4176
     1.4271   1.4285   1.4290   1.4296   1.4316   1.4321   1.4347   1.4353
     1.4354   1.4429   1.4627   1.4639   1.4651   1.4658   1.4661   1.4665
     1.4674   1.4676   1.4829   1.4837   1.4847   1.4919   1.4991   1.4992
     1.5001   1.5003   1.5036   1.5102   1.5139   1.5150   1.5326   1.5430
     1.5443   1.5452   1.5469   1.5474   1.5521   1.5526   1.5588   1.5711
     1.5719   1.5748   1.5775   1.5819   1.5915   1.6048   1.6050   1.6117
     1.6118   1.6231   1.6233   1.6234   1.6238   1.6240   1.6247   1.6249
     1.6256   1.6269   1.6269   1.6362   1.6364   1.6387   1.6560   1.6561
     1.6571   1.6571   1.6607   1.6695   1.6697   1.7025   1.7029   1.7043
     1.7064   1.7088   1.7462   1.7468   1.7510   1.7512   1.7675   1.7704
     1.7705   1.7769   1.7795   1.7937   1.8182   1.8214   1.8221   1.8232
     1.8237   1.8311   1.8321   1.8326   2.0886   2.1438   2.2996   2.2997
     2.3449   2.3464   2.3947   2.3953   2.3954   2.3958   2.4158   2.4159
     2.4161   2.4167   2.5935   2.5937   2.6575   2.6577   2.6586   2.6589
     2.6713   2.6716   2.9133   2.9137   2.9141   2.9141   3.2775   3.3007
     3.3014   3.3041   3.3645   3.7165   3.7168   4.0097   4.0103   4.0429
     4.0436   4.0447   4.0453   4.0950   4.1556   4.1760   4.1844   4.1962
     4.1967   4.1974   4.1977   4.2057   4.2081   4.2725   4.2753   4.4431
     4.4433   4.4456   4.4476   4.5995   4.7889   4.9523   5.1645   5.1664
     5.1929   5.1977   5.4949   5.5986   5.6035   5.6095   5.9074   5.9079
     5.9176   5.9212   6.1193   6.1219   6.4490   6.5431   6.5449   6.5842
     6.5995   6.6714   6.6716   6.6733   6.6753   6.8352   6.8362   6.8423
     6.8438   7.0018   7.0038   7.0056   7.0061   7.0817   7.1026   7.2428
     7.2720   7.2736   7.2777   7.2817   7.2864   7.5467   7.5493   7.7412
     7.7429   7.8277   7.8860   7.8862   7.8992   7.9003   7.9582   8.3160
     8.3229   8.3920   8.4073   8.4802   8.5008   8.5239   8.5241   8.5710
     8.5729   8.5963   8.6212   8.6315   8.7404   8.8007   8.8018   8.8074
     8.8132   8.8354   8.8619   8.8641   8.8650   8.8656   8.8692   9.0312
     9.0323   9.0329   9.0335   9.1053   9.2995   9.3011   9.3044   9.3048
     9.3139   9.3175   9.3383   9.5315   9.5358   9.5384   9.5726   9.5935
     9.7080   9.7127   9.7679   9.7682   9.8452  10.0191  10.2318  10.2322
    10.3350

          k = 0.0000-0.2165 0.0000 (256176 PWs)   bands (ev):

   -23.4323 -22.2016 -16.0871 -16.0755 -15.3398 -15.3389 -14.1269 -14.1241
   -14.1148 -14.1134 -13.8783 -13.8778 -13.4042 -13.4028 -13.3958 -13.3932
   -12.0085 -12.0065 -11.9933 -11.9916 -11.7797 -11.7759 -10.0926 -10.0913
   -10.0907 -10.0891  -8.8484  -8.8443  -8.6899  -8.6880  -8.6837  -8.6824
    -7.8589  -7.8583  -7.8561  -7.8550  -7.6422  -6.7280  -6.7258  -6.6836
    -6.6829  -6.6761  -6.6756  -6.5272  -6.5243  -6.5224  -6.5184  -6.4052
    -5.7089  -5.7080  -5.6970  -5.6966  -4.8724  -4.8681  -4.8661  -4.8619
    -4.7756  -4.7699  -4.6513  -4.6511  -4.3123  -4.3115  -4.3058  -4.3044
    -4.2741  -4.2702  -3.8189  -3.8169  -3.3665  -3.3638  -3.1164  -3.1159
    -3.1157  -3.1151  -3.0096  -2.9995  -2.8799  -2.8774  -2.8442  -2.8438
    -2.7561  -2.7551  -2.7504  -2.7484  -2.5698  -2.5685  -2.5661  -2.5646
    -2.4668  -2.4659  -2.4028  -2.3978  -2.3937  -2.3927  -2.3923  -2.3922
    -2.3907  -2.3902  -2.2961  -2.2947  -2.1396  -2.1353  -2.0746  -2.0576
    -2.0565  -2.0546  -2.0509  -2.0501  -1.9886  -1.9761  -1.9561  -1.9560
    -1.9553  -1.9542  -1.8025  -1.8004  -1.8003  -1.7995  -1.7745  -1.7745
    -1.6771  -1.6759  -1.5810  -1.5805  -1.5717  -1.5704  -1.5691  -1.5682
    -1.5634  -1.5632  -1.5544  -1.5544  -1.5366  -1.5360  -1.4590  -1.4587
    -1.3528  -1.3514  -1.3510  -1.3507  -1.2757  -1.2752  -1.2746  -1.2742
    -1.1888  -1.1881  -1.1840  -1.1838  -1.1301  -1.1298  -1.0921  -1.0915
    -1.0882  -1.0880  -1.0860  -1.0852  -1.0627  -1.0614  -1.0581  -1.0573
    -1.0430  -1.0414  -1.0361  -1.0359  -1.0235  -1.0233  -0.9556  -0.9552
    -0.9539  -0.9538  -0.9451  -0.9449  -0.9019  -0.9019  -0.8640  -0.8639
    -0.8607  -0.8606  -0.8172  -0.8157  -0.7973  -0.7967  -0.7963  -0.7955
    -0.7913  -0.7908  -0.7406  -0.7401  -0.7326  -0.7321  -0.7238  -0.7236
    -0.7105  -0.7101  -0.7089  -0.7087  -0.6412  -0.6404  -0.6318  -0.6316
    -0.6276  -0.6271  -0.6240  -0.6238  -0.6087  -0.6083  -0.5946  -0.5936
    -0.5680  -0.5678  -0.5624  -0.5621  -0.4687  -0.4683  -0.4673  -0.4668
    -0.4467  -0.4465  -0.4200  -0.4196  -0.4184  -0.4178  -0.4144  -0.4144
    -0.3878  -0.3872  -0.3550  -0.3544  -0.3538  -0.3532  -0.3522  -0.3511
    -0.3477  -0.3464  -0.3167  -0.3166  -0.2966  -0.2966  -0.2932  -0.2913
    -0.2605  -0.2600  -0.2593  -0.2588  -0.2499  -0.2494  -0.2477  -0.2472
    -0.2385  -0.2371  -0.1714  -0.1711  -0.1692  -0.1689  -0.1399  -0.1381
    -0.1157  -0.1157  -0.1091  -0.1084  -0.1068  -0.1064  -0.0834  -0.0825
    -0.0810  -0.0806  -0.0783  -0.0693  -0.0626  -0.0622  -0.0609  -0.0599
    -0.0592  -0.0587  -0.0585  -0.0573  -0.0559  -0.0558  -0.0452  -0.0444
    -0.0191  -0.0191  -0.0172  -0.0171   0.0466   0.0468   0.0469   0.0472
     0.0514   0.0556   0.0563   0.0597   0.0602   0.0605   0.0831   0.0845
     0.0952   0.0993   0.1015   0.1026   0.1028   0.1029   0.1045   0.1061
     0.1105   0.1106   0.1139   0.1139   0.1148   0.1152   0.1708   0.1714
     0.1741   0.1748   0.1924   0.1927   0.1943   0.1944   0.1974   0.1985
     0.2146   0.2153   0.2168   0.2169   0.2181   0.2195   0.2424   0.2462
     0.2471   0.2530   0.2631   0.2633   0.2634   0.2638   0.2813   0.2844
     0.2982   0.2984   0.3105   0.3106   0.3234   0.3241   0.3242   0.3248
     0.3667   0.3676   0.3710   0.3715   0.3833   0.3851   0.3885   0.3888
     0.4168   0.4171   0.4513   0.4518   0.4542   0.4559   0.4856   0.4891
     0.5412   0.5418   0.5735   0.5738   0.5746   0.5750   0.6013   0.6017
     0.6020   0.6024   0.6187   0.6209   0.6422   0.6422   0.6432   0.6432
     0.6450   0.6452   0.6455   0.6456   0.6507   0.6551   0.6660   0.6665
     0.6674   0.6677   0.6700   0.6709   0.6725   0.6739   0.7039   0.7041
     0.7156   0.7159   0.7163   0.7164   0.7239   0.7239   0.7435   0.7448
     0.7463   0.7465   0.7466   0.7473   0.7473   0.7476   0.7576   0.7619
     0.7678   0.7698   0.7706   0.7712   0.7712   0.7722   0.7737   0.7739
     0.7884   0.7910   0.8332   0.8336   0.8450   0.8452   0.8571   0.8573
     0.8576   0.8580   0.8635   0.8656   0.8657   0.8664   0.8709   0.8709
     0.8712   0.8712   0.9123   0.9125   0.9130   0.9137   0.9297   0.9298
     0.9319   0.9328   0.9334   0.9345   0.9466   0.9478   0.9627   0.9633
     0.9695   0.9699   0.9710   0.9712   1.0226   1.0233   1.0744   1.0745
     1.0810   1.0820   1.0825   1.0855   1.0922   1.0923   1.0987   1.0990
     1.1054   1.1059   1.1143   1.1145   1.1150   1.1151   1.1282   1.1284
     1.1298   1.1301   1.1303   1.1313   1.1440   1.1442   1.1543   1.1543
     1.1556   1.1570   1.1585   1.1587   1.1642   1.1649   1.1650   1.1666
     1.1770   1.1770   1.1810   1.1813   1.1814   1.1816   1.1995   1.1998
     1.2132   1.2139   1.2158   1.2166   1.2181   1.2186   1.2270   1.2270
     1.2280   1.2280   1.2281   1.2285   1.2771   1.2783   1.3077   1.3122
     1.3153   1.3154   1.3329   1.3332   1.3447   1.3460   1.3470   1.3485
     1.3584   1.3585   1.3744   1.3751   1.3816   1.3818   1.3867   1.3869
     1.3870   1.3876   1.3886   1.3888   1.3906   1.3912   1.3913   1.3918
     1.3983   1.3985   1.4128   1.4147   1.4192   1.4198   1.4203   1.4206
     1.4288   1.4299   1.4585   1.4585   1.4586   1.4589   1.4649   1.4654
     1.4675   1.4691   1.4853   1.4855   1.4865   1.4869   1.4994   1.4995
     1.5025   1.5035   1.5038   1.5039   1.5210   1.5211   1.5222   1.5224
     1.5406   1.5408   1.5433   1.5442   1.5606   1.5611   1.5677   1.5682
     1.5688   1.5692   1.5837   1.5838   1.5838   1.5839   1.6007   1.6013
     1.6148   1.6149   1.6161   1.6169   1.6349   1.6353   1.6378   1.6382
     1.6387   1.6387   1.6395   1.6400   1.6677   1.6678   1.6755   1.6758
     1.6836   1.6852   1.6959   1.6967   1.7084   1.7086   1.7089   1.7090
     1.7157   1.7176   1.7277   1.7297   1.7762   1.7768   1.7769   1.7774
     1.8793   1.8795   1.9045   1.9065   1.9264   1.9264   1.9268   1.9276
     1.9771   1.9771   1.9809   1.9826   2.0023   2.0028   2.0033   2.0038
     2.0407   2.0417   2.3553   2.3565   2.3609   2.3636   2.6072   2.6075
     2.6101   2.6102   2.6862   2.6867   2.7543   2.7546   2.7572   2.7577
     2.7695   2.7699   2.8980   2.8998   2.9534   2.9540   2.9716   2.9718
     3.1114   3.1123   3.3568   3.3568   3.3821   3.3827   3.6001   3.6048
     3.8601   3.8611   4.1937   4.2006   4.2031   4.2090   4.2663   4.2809
     4.3197   4.3270   4.3360   4.3440   4.5195   4.5197   4.5201   4.5213
     4.6931   4.6951   4.8781   4.8856   4.9636   4.9645   5.2810   5.2903
     5.2909   5.2915   5.5465   5.5476   5.5482   5.5491   5.6270   5.6316
     5.8668   5.8754   6.0222   6.0369   6.0819   6.0958   6.4299   6.5840
     6.6035   6.6255   6.6320   6.6342   6.6364   6.7485   6.7499   6.8557
     6.8568   7.0072   7.0090   7.2103   7.2277   7.2306   7.2463   7.2684
     7.2743   7.3122   7.3132   7.3242   7.3244   7.5347   7.5360   7.5976
     7.6020   7.6392   7.6418   7.7153   7.9710   7.9756   8.0134   8.0226
     8.1765   8.3369   8.3373   8.4084   8.5058   8.5317   8.5466   8.5468
     8.6274   8.6297   8.6317   8.6339   8.7718   8.7750   8.9041   8.9050
     8.9103   8.9118   8.9330   8.9514   8.9546   9.1135   9.1152   9.1948
     9.2158   9.2205   9.2719   9.3408   9.3427   9.4325   9.4400   9.4447
     9.4674   9.5090   9.5123   9.5699   9.5709   9.5735   9.5797   9.6776
     9.6794   9.6826   9.6940   9.8637   9.8646   9.8837   9.9749   9.9756
    10.0162

          k = 0.2500 0.0000 0.0000 (256240 PWs)   bands (ev):

   -23.4323 -22.2016 -16.0504 -15.6792 -15.6778 -15.0632 -14.6967 -14.6953
   -14.5746 -14.5740 -13.6094 -13.6087 -13.1341 -12.7804 -12.7793 -12.7784
   -12.7779 -11.8586 -11.8575 -11.7498 -11.7491 -10.7711 -10.4583 -10.4565
   -10.4428  -9.9297  -9.7775  -9.4771  -9.4767  -9.0772  -8.8220  -8.8213
    -8.2642  -7.6429  -7.2567  -7.2551  -7.2542  -7.2536  -7.1401  -7.1376
    -6.7281  -6.7256  -6.6756  -6.4113  -6.3974  -5.8354  -5.6519  -5.6366
    -5.6355  -5.6234  -5.6223  -5.1253  -5.1231  -4.8957  -4.8935  -4.7316
    -4.3919  -4.2792  -4.2519  -4.2490  -4.2324  -4.0794  -4.0785  -4.0566
    -4.0557  -3.8139  -3.8120  -3.7802  -3.7765  -3.6536  -3.6535  -3.6160
    -3.4741  -3.3292  -3.3285  -3.2464  -3.2453  -3.2449  -3.2432  -3.1404
    -3.1402  -3.0637  -3.0616  -3.0400  -2.9086  -2.9065  -2.8565  -2.8422
    -2.6793  -2.6773  -2.6125  -2.6125  -2.5254  -2.5228  -2.4331  -2.4303
    -2.2139  -2.1908  -2.1896  -2.1471  -2.1469  -1.9913  -1.9888  -1.9129
    -1.9128  -1.8964  -1.8949  -1.8163  -1.8131  -1.7494  -1.7487  -1.7230
    -1.7209  -1.7064  -1.7049  -1.6486  -1.6153  -1.6153  -1.6075  -1.6075
    -1.5875  -1.5589  -1.5396  -1.5279  -1.5278  -1.5072  -1.5065  -1.4599
    -1.4594  -1.4167  -1.3967  -1.3950  -1.3923  -1.3921  -1.3917  -1.3914
    -1.3685  -1.3674  -1.3385  -1.3328  -1.3175  -1.3157  -1.3039  -1.3023
    -1.1858  -1.1473  -1.1465  -1.1263  -1.1020  -1.0820  -1.0819  -1.0576
    -1.0564  -1.0513  -1.0406  -1.0404  -1.0265  -1.0262  -1.0214  -0.9985
    -0.9969  -0.9912  -0.9808  -0.9492  -0.9471  -0.9445  -0.9431  -0.9424
    -0.9411  -0.9263  -0.9242  -0.8974  -0.8884  -0.8608  -0.8604  -0.8596
    -0.8591  -0.8572  -0.8541  -0.8313  -0.8261  -0.8246  -0.8151  -0.8083
    -0.8082  -0.7943  -0.7941  -0.7937  -0.7936  -0.7895  -0.7890  -0.7774
    -0.7595  -0.7578  -0.7573  -0.7250  -0.7228  -0.7204  -0.7184  -0.7155
    -0.7138  -0.7090  -0.6997  -0.6972  -0.6660  -0.6655  -0.6296  -0.6296
    -0.6103  -0.6090  -0.5977  -0.5838  -0.5835  -0.5709  -0.5674  -0.5654
    -0.5631  -0.5557  -0.5545  -0.5354  -0.4142  -0.4132  -0.4112  -0.4097
    -0.3816  -0.3792  -0.3791  -0.3628  -0.3628  -0.3620  -0.3615  -0.3408
    -0.3406  -0.3400  -0.3399  -0.3258  -0.3256  -0.2987  -0.2979  -0.2974
    -0.2972  -0.2950  -0.2949  -0.2735  -0.2735  -0.2713  -0.2126  -0.2123
    -0.2123  -0.2093  -0.2046  -0.2025  -0.1934  -0.1863  -0.1861  -0.1815
    -0.1695  -0.1694  -0.1485  -0.1452  -0.1451  -0.1398  -0.1075  -0.1074
    -0.1048  -0.1047  -0.0935  -0.0934  -0.0832  -0.0781  -0.0780  -0.0675
    -0.0675  -0.0479  -0.0472  -0.0418  -0.0150  -0.0111  -0.0097  -0.0095
    -0.0084   0.0060   0.0071   0.0073   0.0078   0.0281   0.0358   0.0359
     0.0365   0.0372   0.0485   0.0507   0.0731   0.0771   0.0771   0.0902
     0.0908   0.1216   0.1238   0.1254   0.1323   0.1342   0.1427   0.1696
     0.1697   0.1759   0.1764   0.1804   0.1835   0.1836   0.1889   0.1916
     0.1919   0.1932   0.1957   0.1962   0.2006   0.2193   0.2195   0.2214
     0.2221   0.2290   0.2290   0.2473   0.2473   0.2622   0.2634   0.2789
     0.3005   0.3021   0.3031   0.3045   0.3046   0.3058   0.3071   0.3239
     0.3277   0.3292   0.3298   0.3299   0.3303   0.3667   0.3668   0.4073
     0.4079   0.4420   0.4422   0.4426   0.4580   0.4594   0.4626   0.4630
     0.4653   0.4699   0.4700   0.4712   0.4749   0.4760   0.4840   0.4856
     0.4858   0.4945   0.4945   0.4983   0.4984   0.5097   0.5098   0.5142
     0.5169   0.5210   0.5237   0.5463   0.5486   0.5495   0.5884   0.5885
     0.5932   0.6044   0.6097   0.6134   0.6136   0.6312   0.6312   0.6324
     0.6355   0.6472   0.6500   0.6658   0.6682   0.6685   0.6725   0.6728
     0.6802   0.6805   0.6833   0.6835   0.7058   0.7130   0.7131   0.7311
     0.7315   0.7349   0.7353   0.7399   0.7405   0.7406   0.7437   0.7443
     0.7640   0.7675   0.7676   0.7802   0.7813   0.7816   0.7823   0.7847
     0.7985   0.7986   0.8024   0.8056   0.8058   0.8250   0.8255   0.8454
     0.8457   0.8524   0.8525   0.8580   0.8580   0.8610   0.8788   0.8900
     0.8934   0.9123   0.9172   0.9241   0.9287   0.9287   0.9324   0.9327
     0.9394   0.9536   0.9592   0.9624   0.9669   0.9673   0.9787   0.9798
     0.9916   0.9921   0.9927   1.0033   1.0121   1.0121   1.0142   1.0203
     1.0412   1.0427   1.0443   1.0447   1.0493   1.0675   1.0705   1.0795
     1.0808   1.0813   1.0818   1.0889   1.0910   1.0914   1.0931   1.1000
     1.1359   1.1382   1.1393   1.1433   1.1434   1.1457   1.1505   1.1568
     1.1586   1.1778   1.1798   1.1799   1.1805   1.1884   1.1893   1.1912
     1.2053   1.2055   1.2066   1.2066   1.2101   1.2102   1.2151   1.2168
     1.2175   1.2196   1.2209   1.2231   1.2299   1.2357   1.2480   1.2483
     1.2508   1.2569   1.2569   1.2605   1.2644   1.2649   1.2673   1.2788
     1.2789   1.2940   1.2961   1.2970   1.2978   1.2997   1.3103   1.3217
     1.3250   1.3253   1.3355   1.3356   1.3447   1.3452   1.3470   1.3479
     1.3576   1.3675   1.3723   1.3776   1.3805   1.3810   1.3989   1.4179
     1.4205   1.4277   1.4325   1.4331   1.4335   1.4415   1.4417   1.4431
     1.4434   1.4506   1.4611   1.4654   1.4655   1.4679   1.4679   1.4833
     1.4858   1.4870   1.4890   1.4896   1.4949   1.5005   1.5024   1.5029
     1.5051   1.5058   1.5125   1.5129   1.5146   1.5150   1.5208   1.5282
     1.5376   1.5395   1.5419   1.5449   1.5450   1.5476   1.5490   1.5681
     1.5684   1.5700   1.5769   1.5781   1.5931   1.5932   1.6007   1.6064
     1.6081   1.6112   1.6117   1.6148   1.6158   1.6160   1.6213   1.6230
     1.6237   1.6295   1.6301   1.6392   1.6522   1.6523   1.6538   1.6554
     1.6554   1.6587   1.6589   1.6712   1.6716   1.6813   1.6836   1.6944
     1.6948   1.7010   1.7010   1.7021   1.7078   1.7158   1.7350   1.7404
     1.7701   1.7705   1.7757   1.8121   1.8138   1.8175   1.8473   1.8667
     1.8749   1.9398   1.9458   1.9512   1.9513   1.9705   1.9866   2.0247
     2.0629   2.1952   2.2188   2.2607   2.2609   2.2766   2.2767   2.3575
     2.3807   2.4435   2.4453   2.7505   2.7535   2.7538   2.7571   3.1631
     3.1632   3.2035   3.3817   3.3818   3.4057   3.4057   3.4648   3.4724
     3.6552   3.6628   3.7736   3.7739   3.8195   3.8198   3.8907   3.8912
     3.9065   3.9084   3.9405   4.0605   4.0612   4.1615   4.1618   4.2294
     4.2695   4.2788   4.3819   4.3856   4.3884   4.4676   4.5766   4.6374
     4.6493   4.8415   4.9568   5.0224   5.0236   5.3519   5.4075   5.4075
     5.4184   5.5366   5.5378   5.5534   5.6584   5.6600   5.6957   5.7626
     5.7784   5.7941   5.8717   5.8788   5.9279   5.9302   6.0183   6.0190
     6.0767   6.0855   6.1967   6.1995   6.2495   6.2509   6.5466   6.8238
     6.8882   6.8893   6.9121   6.9428   7.0016   7.0074   7.0279   7.0654
     7.1785   7.2064   7.2271   7.2382   7.2386   7.2627   7.4451   7.4463
     7.5049   7.5064   7.6959   7.7048   7.7434   7.7574   7.8584   7.9368
     7.9557   7.9809   7.9930   8.1225   8.1914   8.2011   8.2538   8.2539
     8.4246   8.4322   8.4506   8.4936   8.5041   8.5051   8.5196   8.5243
     8.5986   8.6075   8.6394   8.8368   8.8371   8.9768   9.0342   9.0803
     9.1248   9.1458   9.2811   9.3305   9.3644   9.3815   9.3849   9.4040
     9.4272   9.4323   9.4528   9.4685   9.4925   9.5018   9.6040   9.6048
     9.6518   9.6554   9.7530   9.7550   9.8647   9.9116   9.9116  10.1148
    10.1971

          k = 0.2500-0.2165 0.0000 (256316 PWs)   bands (ev):

   -23.4323 -22.2016 -15.9630 -15.9514 -15.2169 -15.2160 -14.9768 -14.9654
   -14.2408 -14.2399 -13.7585 -13.7581 -13.0506 -13.0392 -12.8101 -12.8096
   -12.3432 -12.3422 -11.6678 -11.6641 -11.0447 -11.0441 -10.7886 -10.7849
   -10.4079 -10.3973  -9.3548  -9.3540  -8.8347  -8.8293  -8.7539  -8.7498
    -8.1928  -8.1883  -8.1009  -8.1005  -7.6423  -6.7281  -6.7257  -6.4080
    -6.3754  -6.3689  -6.3487  -6.3473  -6.2346  -6.2251  -6.0061  -6.0002
    -5.6687  -5.6678  -5.5189  -5.5184  -4.8721  -4.8713  -4.6131  -4.6068
    -4.5458  -4.5449  -4.4879  -4.4877  -4.1605  -4.1599  -4.1207  -4.1167
    -3.9108  -3.9046  -3.8613  -3.8605  -3.6726  -3.6705  -3.5274  -3.5172
    -3.3733  -3.3644  -3.2826  -3.2764  -3.2718  -3.2716  -3.2312  -3.2291
    -2.9495  -2.9445  -2.9252  -2.9246  -2.7946  -2.7932  -2.7367  -2.7342
    -2.7226  -2.7223  -2.6057  -2.6051  -2.5950  -2.5941  -2.3067  -2.3056
    -2.2679  -2.2663  -2.1281  -2.1278  -2.0579  -2.0531  -1.9946  -1.9916
    -1.9866  -1.9827  -1.9826  -1.9806  -1.8234  -1.8232  -1.7822  -1.7804
    -1.7253  -1.7238  -1.6639  -1.6578  -1.6299  -1.6296  -1.6267  -1.6266
    -1.5649  -1.5638  -1.5364  -1.5363  -1.5236  -1.5233  -1.5069  -1.5059
    -1.4910  -1.4905  -1.4899  -1.4898  -1.4817  -1.4814  -1.4713  -1.4703
    -1.3961  -1.3954  -1.2823  -1.2821  -1.1772  -1.1767  -1.1663  -1.1655
    -1.1434  -1.1432  -1.0910  -1.0905  -1.0784  -1.0764  -1.0762  -1.0717
    -1.0622  -1.0622  -1.0521  -1.0518  -1.0367  -1.0366  -1.0268  -1.0259
    -1.0143  -1.0140  -1.0099  -1.0098  -1.0015  -1.0000  -0.9444  -0.9441
    -0.9404  -0.9392  -0.9274  -0.9274  -0.9263  -0.9217  -0.8948  -0.8939
    -0.8874  -0.8870  -0.8527  -0.8526  -0.8397  -0.8395  -0.8369  -0.8367
    -0.8098  -0.8098  -0.7867  -0.7856  -0.7748  -0.7747  -0.7693  -0.7689
    -0.7624  -0.7623  -0.7376  -0.7370  -0.7164  -0.7163  -0.6823  -0.6808
    -0.6759  -0.6754  -0.5919  -0.5912  -0.5909  -0.5904  -0.5880  -0.5862
    -0.5744  -0.5731  -0.5347  -0.5346  -0.5293  -0.5281  -0.5257  -0.5257
    -0.5191  -0.5189  -0.5076  -0.5069  -0.4652  -0.4650  -0.4634  -0.4629
    -0.4278  -0.4273  -0.3802  -0.3793  -0.3782  -0.3778  -0.3614  -0.3611
    -0.3461  -0.3458  -0.3345  -0.3325  -0.3146  -0.3136  -0.3011  -0.3008
    -0.2685  -0.2683  -0.2612  -0.2600  -0.2572  -0.2558  -0.2209  -0.2208
    -0.2081  -0.2080  -0.1920  -0.1917  -0.1818  -0.1813  -0.1804  -0.1803
    -0.1752  -0.1746  -0.1692  -0.1689  -0.1644  -0.1643  -0.1489  -0.1473
    -0.1460  -0.1445  -0.1302  -0.1301  -0.1020  -0.1013  -0.0854  -0.0851
    -0.0696  -0.0694  -0.0528  -0.0527  -0.0402  -0.0401  -0.0299  -0.0296
    -0.0260  -0.0244   0.0090   0.0093   0.0336   0.0337   0.0701   0.0703
     0.0790   0.0790   0.0826   0.0836   0.1004   0.1005   0.1067   0.1096
     0.1178   0.1179   0.1328   0.1330   0.1378   0.1409   0.1451   0.1467
     0.1484   0.1488   0.1724   0.1740   0.1821   0.1831   0.1843   0.1850
     0.1867   0.1869   0.1892   0.1895   0.1955   0.1964   0.2193   0.2195
     0.2195   0.2195   0.2536   0.2538   0.2616   0.2617   0.2671   0.2675
     0.2870   0.2875   0.3032   0.3054   0.3200   0.3201   0.3277   0.3285
     0.3316   0.3359   0.3404   0.3407   0.3427   0.3441   0.3562   0.3568
     0.3646   0.3647   0.3923   0.3931   0.4576   0.4577   0.4682   0.4683
     0.4705   0.4709   0.4747   0.4750   0.4769   0.4773   0.4805   0.4814
     0.5029   0.5056   0.5074   0.5078   0.5199   0.5201   0.5209   0.5210
     0.5220   0.5223   0.5542   0.5562   0.5692   0.5699   0.5821   0.5829
     0.5912   0.5916   0.6325   0.6329   0.6381   0.6395   0.6446   0.6446
     0.6488   0.6496   0.6563   0.6564   0.6677   0.6681   0.6686   0.6689
     0.6693   0.6699   0.7004   0.7015   0.7061   0.7063   0.7226   0.7228
     0.7541   0.7542   0.7549   0.7562   0.7875   0.7886   0.7929   0.7937
     0.7961   0.7964   0.7989   0.8014   0.8023   0.8026   0.8133   0.8148
     0.8184   0.8194   0.8250   0.8251   0.8354   0.8373   0.8490   0.8491
     0.8554   0.8556   0.8583   0.8584   0.8683   0.8693   0.8760   0.8764
     0.8769   0.8773   0.8940   0.8946   0.8985   0.8987   0.9044   0.9045
     0.9075   0.9078   0.9098   0.9103   0.9445   0.9448   0.9555   0.9557
     0.9779   0.9833   0.9953   0.9955   1.0109   1.0109   1.0127   1.0127
     1.0182   1.0187   1.0413   1.0414   1.0419   1.0419   1.0438   1.0438
     1.0543   1.0546   1.0712   1.0712   1.0719   1.0724   1.0830   1.0832
     1.0930   1.0936   1.1159   1.1160   1.1404   1.1408   1.1461   1.1476
     1.1483   1.1493   1.1523   1.1531   1.1578   1.1595   1.1832   1.1834
     1.1908   1.1913   1.2063   1.2063   1.2183   1.2187   1.2258   1.2261
     1.2526   1.2538   1.2573   1.2576   1.2684   1.2684   1.2751   1.2752
     1.2773   1.2774   1.2786   1.2789   1.2832   1.2835   1.2933   1.2938
     1.3058   1.3061   1.3065   1.3068   1.3262   1.3263   1.3537   1.3538
     1.3590   1.3595   1.3631   1.3635   1.3650   1.3657   1.3728   1.3731
     1.3787   1.3795   1.3837   1.3839   1.3892   1.3894   1.3908   1.3914
     1.3994   1.4000   1.4088   1.4091   1.4116   1.4117   1.4133   1.4134
     1.4263   1.4265   1.4334   1.4335   1.4581   1.4583   1.4663   1.4665
     1.4819   1.4821   1.4848   1.4853   1.4985   1.4986   1.5081   1.5091
     1.5102   1.5104   1.5190   1.5193   1.5236   1.5252   1.5353   1.5354
     1.5363   1.5366   1.5485   1.5487   1.5616   1.5618   1.5696   1.5697
     1.5698   1.5698   1.5750   1.5754   1.5804   1.5806   1.5938   1.5940
     1.5985   1.5986   1.6086   1.6109   1.6148   1.6155   1.6222   1.6232
     1.6251   1.6253   1.6308   1.6316   1.6326   1.6326   1.6398   1.6414
     1.6418   1.6420   1.6665   1.6665   1.6732   1.6745   1.6895   1.6896
     1.7089   1.7094   1.7154   1.7159   1.7384   1.7385   1.7452   1.7456
     1.7707   1.7708   1.8288   1.8322   1.8385   1.8393   1.8531   1.8534
     1.9388   1.9391   1.9545   1.9558   1.9725   1.9745   1.9761   1.9763
     2.0156   2.0213   2.0309   2.0339   2.3137   2.3141   2.3467   2.3468
     2.4744   2.4759   2.7712   2.7712   2.9748   2.9749   2.9756   2.9759
     2.9910   2.9914   3.0240   3.0247   3.1711   3.1712   3.2668   3.2712
     3.7236   3.7270   3.7982   3.7988   3.8600   3.8646   4.0249   4.0258
     4.0346   4.0347   4.1805   4.1817   4.2467   4.2485   4.2697   4.2713
     4.3489   4.3495   4.5617   4.5621   4.5828   4.5918   4.7389   4.7409
     4.8517   4.8548   4.9205   4.9258   4.9936   4.9957   5.1201   5.1208
     5.2059   5.2129   5.3417   5.3525   5.4654   5.4702   5.6283   5.6321
     5.6448   5.6458   5.6730   5.6744   5.9485   5.9488   6.0778   6.0786
     6.1396   6.1497   6.2388   6.2404   6.5338   6.7806   6.7819   6.8089
     6.8215   6.9361   6.9377   7.0471   7.0496   7.2294   7.2357   7.2744
     7.2787   7.2806   7.2814   7.3663   7.3674   7.4027   7.4060   7.5156
     7.5190   7.5270   7.5283   7.5986   7.6109   7.6246   7.6251   7.8582
     7.8651   7.8813   7.9840   7.9846   8.1509   8.1760   8.2192   8.3800
     8.3803   8.4356   8.4432   8.5773   8.6761   8.6785   8.6831   8.6977
     8.7477   8.7768   8.7777   8.8322   8.8332   8.8938   8.8985   9.1060
     9.1072   9.1384   9.1391   9.1697   9.2000   9.3272   9.3277   9.3662
     9.3664   9.3992   9.4043   9.4353   9.4582   9.4594   9.5311   9.5412
     9.5436   9.5477   9.6081   9.6514   9.6689   9.6789   9.7361   9.9404
    10.0191

          k =-0.5000 0.0000 0.0000 (256496 PWs)   bands (ev):

   -23.4323 -22.2016 -15.6796 -15.6779 -15.3104 -15.3086 -15.3079 -15.3071
   -14.2118 -14.2112 -14.2101 -14.2094 -12.4323 -12.4310 -12.4304 -12.4294
   -11.8580 -11.8576 -11.5278 -11.5271 -11.5264 -11.5253 -10.8775 -10.8769
   -10.4558 -10.4542  -9.8814  -9.8812  -9.4786  -9.4773  -8.6385  -8.6381
    -8.6369  -8.6368  -7.6425  -7.1380  -7.1379  -7.0732  -7.0720  -7.0703
    -7.0687  -6.7281  -6.7256  -6.4062  -5.6244  -5.6242  -5.1225  -5.1221
    -4.8951  -4.8939  -4.6170  -4.6167  -4.6151  -4.6146  -4.4771  -4.4754
    -4.4751  -4.4742  -4.3898  -4.3891  -4.3883  -4.3877  -4.2502  -4.2461
    -4.0968  -4.0960  -4.0952  -4.0940  -3.7957  -3.7941  -3.7911  -3.7866
    -3.7707  -3.7691  -3.3492  -3.3484  -3.3480  -3.3429  -3.2328  -3.2326
    -3.2325  -3.2323  -3.0967  -3.0961  -3.0832  -3.0828  -3.0816  -3.0809
    -2.5595  -2.5589  -2.5580  -2.5560  -2.4926  -2.4917  -2.4915  -2.4911
    -2.4182  -2.4176  -2.2230  -2.2198  -2.2184  -2.2146  -2.1140  -2.1136
    -2.1116  -2.1109  -1.9872  -1.9820  -1.6931  -1.6930  -1.6924  -1.6924
    -1.6904  -1.6902  -1.5651  -1.5648  -1.5646  -1.5642  -1.4642  -1.4640
    -1.4640  -1.4638  -1.4163  -1.4161  -1.4151  -1.4148  -1.3705  -1.3690
    -1.3173  -1.3170  -1.3012  -1.3011  -1.2393  -1.2392  -1.2388  -1.2386
    -1.2203  -1.2201  -1.1767  -1.1760  -1.1755  -1.1745  -1.1712  -1.1711
    -1.1680  -1.1680  -1.1550  -1.1548  -1.1532  -1.1529  -1.1491  -1.1487
    -1.1053  -1.1052  -1.1037  -1.1036  -1.0818  -1.0817  -1.0810  -1.0809
    -1.0179  -1.0178  -0.9967  -0.9966  -0.9957  -0.9955  -0.9660  -0.9656
    -0.9654  -0.9650  -0.9630  -0.9629  -0.9625  -0.9623  -0.9212  -0.9212
    -0.9201  -0.9201  -0.8997  -0.8995  -0.8693  -0.8691  -0.8228  -0.8226
    -0.7949  -0.7947  -0.7932  -0.7931  -0.7657  -0.7654  -0.7652  -0.7650
    -0.7559  -0.7552  -0.7551  -0.7548  -0.7450  -0.7447  -0.7425  -0.7422
    -0.7220  -0.7210  -0.7156  -0.7151  -0.6538  -0.6536  -0.6517  -0.6515
    -0.6081  -0.6077  -0.5252  -0.5252  -0.5247  -0.5247  -0.4890  -0.4883
    -0.4862  -0.4862  -0.4854  -0.4854  -0.4753  -0.4736  -0.4682  -0.4675
    -0.4444  -0.4442  -0.4422  -0.4422  -0.4281  -0.4279  -0.4109  -0.4107
    -0.4093  -0.4090  -0.3128  -0.3125  -0.3115  -0.3108  -0.2780  -0.2773
    -0.2765  -0.2762  -0.2693  -0.2691  -0.2191  -0.2188  -0.2187  -0.2186
    -0.2183  -0.2182  -0.2167  -0.2163  -0.1853  -0.1850  -0.1812  -0.1811
    -0.1803  -0.1802  -0.1421  -0.1420  -0.1414  -0.1411  -0.1084  -0.1084
    -0.1083  -0.1083  -0.0972  -0.0972  -0.0641  -0.0640  -0.0627  -0.0626
    -0.0476  -0.0475  -0.0467  -0.0464  -0.0186  -0.0183  -0.0079  -0.0078
     0.0517   0.0519   0.0529   0.0530   0.0586   0.0587   0.0596   0.0597
     0.0991   0.0993   0.1014   0.1016   0.1350   0.1353   0.1624   0.1625
     0.1645   0.1645   0.1661   0.1663   0.1668   0.1669   0.1679   0.1679
     0.1680   0.1681   0.2253   0.2254   0.2490   0.2495   0.2548   0.2551
     0.2561   0.2563   0.2592   0.2593   0.2594   0.2597   0.2657   0.2657
     0.2678   0.2679   0.2728   0.2732   0.2780   0.2785   0.2903   0.2903
     0.3042   0.3043   0.3047   0.3049   0.3049   0.3050   0.3153   0.3154
     0.3157   0.3157   0.3289   0.3290   0.3411   0.3412   0.3415   0.3415
     0.3474   0.3475   0.3706   0.3707   0.4647   0.4657   0.4737   0.4738
     0.4762   0.4763   0.4786   0.4794   0.5076   0.5077   0.5088   0.5089
     0.5217   0.5221   0.5277   0.5278   0.5317   0.5319   0.5347   0.5349
     0.5391   0.5394   0.5399   0.5400   0.5419   0.5420   0.5544   0.5545
     0.5738   0.5743   0.5768   0.5769   0.5776   0.5779   0.5828   0.5828
     0.5914   0.5915   0.6472   0.6475   0.6791   0.6792   0.6812   0.6813
     0.6920   0.6921   0.7116   0.7118   0.7147   0.7149   0.7177   0.7179
     0.7182   0.7185   0.7207   0.7211   0.7228   0.7232   0.7248   0.7249
     0.7333   0.7334   0.7339   0.7340   0.7568   0.7571   0.7718   0.7718
     0.7938   0.7943   0.8065   0.8068   0.8091   0.8093   0.8108   0.8111
     0.8180   0.8182   0.8188   0.8191   0.8218   0.8219   0.8375   0.8375
     0.8405   0.8407   0.8570   0.8571   0.8575   0.8579   0.8938   0.8939
     0.8940   0.8942   0.8955   0.8960   0.9139   0.9140   0.9502   0.9503
     0.9551   0.9552   0.9554   0.9555   0.9565   0.9566   1.0030   1.0032
     1.0237   1.0238   1.0275   1.0275   1.0284   1.0284   1.0354   1.0354
     1.0404   1.0407   1.0425   1.0427   1.0535   1.0538   1.0727   1.0729
     1.0747   1.0747   1.0932   1.0933   1.0935   1.0936   1.0942   1.0945
     1.0964   1.0967   1.1341   1.1341   1.1347   1.1349   1.1974   1.1986
     1.2005   1.2005   1.2014   1.2014   1.2350   1.2351   1.2354   1.2355
     1.2444   1.2445   1.2557   1.2558   1.2647   1.2648   1.2793   1.2795
     1.2872   1.2874   1.3012   1.3015   1.3043   1.3044   1.3051   1.3052
     1.3124   1.3125   1.3137   1.3139   1.3227   1.3227   1.3247   1.3249
     1.3256   1.3260   1.3280   1.3282   1.3632   1.3634   1.3634   1.3635
     1.3939   1.3942   1.4005   1.4009   1.4010   1.4010   1.4029   1.4031
     1.4191   1.4193   1.4289   1.4289   1.4294   1.4294   1.4401   1.4401
     1.4406   1.4408   1.4484   1.4487   1.4657   1.4661   1.4702   1.4703
     1.4870   1.4871   1.5026   1.5026   1.5030   1.5031   1.5032   1.5033
     1.5058   1.5059   1.5169   1.5170   1.5179   1.5179   1.5195   1.5195
     1.5198   1.5199   1.5282   1.5284   1.5299   1.5300   1.5306   1.5307
     1.5379   1.5381   1.5522   1.5523   1.5723   1.5728   1.5738   1.5745
     1.5802   1.5804   1.5818   1.5818   1.5980   1.5981   1.6013   1.6014
     1.6171   1.6172   1.6241   1.6241   1.6362   1.6362   1.6365   1.6366
     1.6562   1.6562   1.6587   1.6590   1.6674   1.6675   1.6675   1.6677
     1.6680   1.6681   1.6821   1.6822   1.6873   1.6874   1.7008   1.7008
     1.7012   1.7012   1.7142   1.7147   1.7225   1.7227   1.7660   1.7661
     1.7948   1.7948   1.7989   1.7992   1.8300   1.8309   2.2194   2.2199
     2.2203   2.2206   2.4227   2.4229   2.4421   2.4432   2.4717   2.4718
     2.4789   2.4791   2.8055   2.8073   2.8086   2.8097   3.0177   3.0177
     3.0229   3.0231   3.3710   3.3712   3.3742   3.3743   3.6583   3.6588
     3.9461   3.9463   3.9478   3.9482   4.1082   4.1090   4.1124   4.1129
     4.2561   4.2572   4.2582   4.2617   4.2709   4.2732   4.3757   4.3785
     4.6471   4.6488   4.7708   4.7720   4.9355   4.9395   4.9427   4.9438
     5.0116   5.0117   5.0588   5.0590   5.2067   5.2071   5.2326   5.2331
     5.2378   5.2380   5.2625   5.2628   5.2841   5.2848   5.3791   5.3804
     5.3877   5.3898   5.7312   5.7331   5.7385   5.7404   5.8569   5.8605
     6.1050   6.1059   6.1796   6.1801   6.1917   6.1924   6.2277   6.2296
     6.2379   6.2391   6.5773   6.6242   6.6294   6.6496   6.7068   6.7112
     6.7168   6.7184   6.7454   7.2856   7.2862   7.3004   7.3022   7.3187
     7.3197   7.7784   7.7793   7.7859   7.7863   7.7867   7.7873   7.8248
     7.8259   8.0016   8.0034   8.0036   8.0752   8.0760   8.0778   8.0786
     8.2476   8.2480   8.2510   8.2531   8.3180   8.3189   8.3237   8.3265
     8.4727   8.5644   8.6422   8.6560   8.9955   9.0143   9.0155   9.0197
     9.0206   9.0209   9.2574   9.2598   9.2645   9.2654   9.3677   9.4479
     9.4484   9.4807   9.4988   9.5397   9.5558   9.6150   9.6922   9.6966
     9.7007   9.7032   9.7139   9.7141   9.7184   9.7235   9.7309   9.7338
     9.7461

          k =-0.5000-0.2165 0.0000 (256328 PWs)   bands (ev):

   -23.4323 -22.2016 -15.5934 -15.5905 -15.5808 -15.5790 -14.8502 -14.8492
   -14.8486 -14.8473 -13.4017 -13.4012 -13.4001 -13.3996 -11.7793 -11.7786
   -11.7679 -11.7678 -11.3354 -11.3335 -11.3311 -11.3300 -11.1565 -11.1552
   -11.1495 -11.1491  -9.4573  -9.4570  -9.4507  -9.4504  -8.4938  -8.4920
    -8.4842  -8.4824  -7.7259  -7.7258  -7.7211  -7.7199  -7.6411  -6.7281
    -6.7256  -6.4063  -5.6483  -5.6473  -5.6471  -5.6461  -5.0262  -5.0257
    -5.0202  -5.0201  -4.9940  -4.9934  -4.9932  -4.9930  -4.7997  -4.7974
    -4.7847  -4.7820  -4.1414  -4.1363  -4.1244  -4.1224  -4.0114  -4.0112
    -4.0110  -4.0108  -3.9238  -3.9226  -3.9225  -3.9213  -3.6719  -3.6665
    -3.6619  -3.6607  -3.3786  -3.3776  -3.3730  -3.3726  -3.3723  -3.3717
    -3.3681  -3.3679  -3.2478  -3.2465  -3.2446  -3.2426  -2.8500  -2.8493
    -2.8486  -2.8447  -2.3928  -2.3927  -2.3926  -2.3923  -2.3363  -2.3359
    -2.3344  -2.3333  -2.0489  -2.0484  -2.0476  -2.0471  -1.9909  -1.9900
    -1.9074  -1.9070  -1.9066  -1.9061  -1.8275  -1.8269  -1.8266  -1.8264
    -1.7459  -1.7445  -1.7391  -1.7382  -1.6170  -1.6168  -1.6158  -1.6155
    -1.5169  -1.5158  -1.5138  -1.5131  -1.3073  -1.3072  -1.3071  -1.3071
    -1.2959  -1.2954  -1.2938  -1.2938  -1.2669  -1.2666  -1.2660  -1.2658
    -1.2466  -1.2465  -1.2463  -1.2461  -1.1980  -1.1979  -1.1978  -1.1977
    -1.1961  -1.1959  -1.1950  -1.1949  -1.1718  -1.1718  -1.1717  -1.1716
    -1.1214  -1.1212  -1.1208  -1.1205  -1.0450  -1.0446  -1.0443  -1.0440
    -1.0044  -1.0044  -1.0038  -1.0036  -0.9849  -0.9846  -0.9845  -0.9845
    -0.9345  -0.9344  -0.9343  -0.9343  -0.9287  -0.9286  -0.9286  -0.9286
    -0.8989  -0.8987  -0.8986  -0.8982  -0.8714  -0.8712  -0.8699  -0.8697
    -0.8543  -0.8541  -0.8530  -0.8529  -0.8504  -0.8503  -0.8500  -0.8497
    -0.7638  -0.7613  -0.7477  -0.7453  -0.6960  -0.6955  -0.6949  -0.6946
    -0.6664  -0.6664  -0.6661  -0.6661  -0.5835  -0.5831  -0.5826  -0.5824
    -0.5789  -0.5785  -0.5784  -0.5779  -0.5744  -0.5743  -0.5741  -0.5741
    -0.5133  -0.5132  -0.5131  -0.5128  -0.5019  -0.5016  -0.5011  -0.5006
    -0.4814  -0.4809  -0.4794  -0.4792  -0.3856  -0.3853  -0.3832  -0.3831
    -0.3795  -0.3794  -0.3787  -0.3787  -0.3115  -0.3113  -0.3111  -0.3108
    -0.2615  -0.2615  -0.2612  -0.2611  -0.2411  -0.2408  -0.2403  -0.2401
    -0.2136  -0.2134  -0.2120  -0.2119  -0.2019  -0.2017  -0.2012  -0.2009
    -0.1600  -0.1594  -0.1592  -0.1587  -0.0871  -0.0870  -0.0859  -0.0858
    -0.0704  -0.0703  -0.0699  -0.0699  -0.0534  -0.0533  -0.0529  -0.0527
     0.0295   0.0297   0.0298   0.0299   0.0341   0.0343   0.0344   0.0345
     0.0376   0.0378   0.0378   0.0379   0.0753   0.0754   0.0755   0.0755
     0.0879   0.0881   0.0885   0.0887   0.0917   0.0917   0.0918   0.0919
     0.1611   0.1613   0.1623   0.1624   0.1862   0.1865   0.1882   0.1883
     0.2372   0.2375   0.2419   0.2422   0.2554   0.2558   0.2615   0.2616
     0.2690   0.2690   0.2698   0.2699   0.2757   0.2759   0.2776   0.2778
     0.2798   0.2803   0.2816   0.2820   0.2887   0.2888   0.2896   0.2897
     0.2942   0.2944   0.2945   0.2947   0.3111   0.3111   0.3113   0.3113
     0.3393   0.3394   0.3394   0.3395   0.3491   0.3493   0.3494   0.3496
     0.3981   0.3981   0.3986   0.3987   0.4311   0.4311   0.4312   0.4314
     0.5009   0.5019   0.5071   0.5075   0.5155   0.5161   0.5166   0.5167
     0.5319   0.5321   0.5328   0.5329   0.5471   0.5473   0.5488   0.5491
     0.5497   0.5503   0.5514   0.5517   0.5562   0.5564   0.5591   0.5593
     0.5669   0.5674   0.5689   0.5702   0.5900   0.5921   0.5951   0.5969
     0.6415   0.6415   0.6423   0.6425   0.6461   0.6461   0.6473   0.6473
     0.6569   0.6570   0.6574   0.6574   0.6958   0.6959   0.6974   0.6976
     0.6981   0.6985   0.6986   0.6987   0.7420   0.7421   0.7432   0.7433
     0.7548   0.7550   0.7555   0.7557   0.7596   0.7600   0.7612   0.7615
     0.7635   0.7638   0.7642   0.7644   0.7794   0.7796   0.7804   0.7805
     0.7963   0.7966   0.7969   0.7972   0.8654   0.8659   0.8673   0.8677
     0.8703   0.8703   0.8708   0.8709   0.8795   0.8798   0.8805   0.8807
     0.8985   0.8988   0.9023   0.9029   0.9162   0.9164   0.9170   0.9171
     0.9195   0.9197   0.9203   0.9204   0.9705   0.9705   0.9724   0.9725
     0.9996   0.9996   1.0000   1.0000   1.0226   1.0232   1.0248   1.0253
     1.0351   1.0352   1.0357   1.0358   1.0595   1.0595   1.0618   1.0619
     1.1130   1.1131   1.1135   1.1137   1.1464   1.1465   1.1478   1.1479
     1.2004   1.2005   1.2010   1.2010   1.2143   1.2147   1.2162   1.2165
     1.2276   1.2276   1.2278   1.2280   1.2322   1.2322   1.2324   1.2325
     1.2355   1.2356   1.2370   1.2370   1.2625   1.2632   1.2646   1.2648
     1.2671   1.2673   1.2690   1.2695   1.2695   1.2703   1.2720   1.2720
     1.2865   1.2867   1.2873   1.2876   1.3103   1.3104   1.3109   1.3110
     1.3217   1.3220   1.3222   1.3223   1.3310   1.3313   1.3314   1.3315
     1.3815   1.3818   1.3824   1.3824   1.3833   1.3835   1.3887   1.3887
     1.4099   1.4099   1.4100   1.4100   1.4254   1.4256   1.4290   1.4294
     1.4459   1.4461   1.4468   1.4470   1.4584   1.4585   1.4589   1.4590
     1.4672   1.4672   1.4686   1.4687   1.4747   1.4748   1.4748   1.4749
     1.5407   1.5409   1.5415   1.5416   1.5425   1.5425   1.5429   1.5429
     1.5519   1.5520   1.5532   1.5536   1.5610   1.5611   1.5615   1.5615
     1.5693   1.5693   1.5702   1.5703   1.5755   1.5755   1.5764   1.5766
     1.5823   1.5823   1.5829   1.5831   1.5937   1.5939   1.5948   1.5949
     1.6038   1.6039   1.6044   1.6045   1.6363   1.6364   1.6364   1.6365
     1.6509   1.6511   1.6521   1.6523   1.6671   1.6673   1.6687   1.6689
     1.6889   1.6891   1.6893   1.6893   1.7423   1.7427   1.7444   1.7445
     1.7610   1.7611   1.7617   1.7617   1.7913   1.7915   1.7928   1.7930
     1.7988   1.7991   1.7993   1.7996   1.8042   1.8043   1.8048   1.8050
     2.0228   2.0229   2.0235   2.0235   2.5291   2.5295   2.5334   2.5351
     2.7452   2.7453   2.7476   2.7478   2.9835   2.9838   2.9844   2.9845
     3.2803   3.2809   3.2817   3.2825   3.6397   3.6399   3.6401   3.6401
     3.8282   3.8282   3.8309   3.8313   4.1154   4.1155   4.1162   4.1163
     4.2669   4.2697   4.4135   4.4137   4.4155   4.4157   4.5192   4.5200
     4.5273   4.5304   4.7480   4.7499   4.7509   4.7525   4.7875   4.7880
     4.7945   4.7949   5.0847   5.0874   5.0920   5.0931   5.2576   5.2586
     5.2840   5.2856   5.3631   5.3634   5.3684   5.3690   5.4966   5.4983
     5.5165   5.5210   5.5404   5.5436   5.5440   5.5449   5.9272   5.9287
     5.9317   5.9328   5.9378   5.9392   5.9446   5.9460   6.0733   6.0763
     6.0792   6.0826   6.6727   6.9664   6.9665   6.9757   6.9761   7.3100
     7.3105   7.3162   7.3165   7.3445   7.3448   7.3450   7.3456   7.4619
     7.4632   7.4649   7.4752   7.5528   7.5529   7.5530   7.5534   7.8067
     7.8070   7.8092   7.8129   8.0265   8.1635   8.1648   8.1658   8.1690
     8.2433   8.2452   8.2475   8.2492   8.3549   8.3996   8.4317   8.4330
     8.4399   8.4404   8.8170   9.0540   9.0762   9.0830   9.0834   9.0839
     9.0843   9.0851   9.0867   9.1093   9.1335   9.1562   9.1564   9.1570
     9.1573   9.1926   9.1972   9.2060   9.2720   9.2782   9.6206   9.6641
     9.7215   9.7235   9.7422   9.7585   9.7602   9.7638   9.7642   9.8934
     9.9550

     the Fermi energy is     3.5093 ev

!    total energy              =  -12782.00430421 Ry
     Harris-Foulkes estimate   =  -12782.00430420 Ry
     estimated scf accuracy    <          2.7E-09 Ry

     The total energy is the sum of the following terms:

     one-electron contribution = -106549.98380480 Ry
     hartree contribution      =   54652.46739818 Ry
     xc contribution           =   -4465.01858537 Ry
     ewald contribution        =   43586.93770455 Ry
     Dispersion Correction     =      -2.99686314 Ry
     smearing contrib. (-TS)   =      -3.41015363 Ry

     convergence has been achieved in  49 iterations

     Writing output data file gc.save
 
     init_run     :    194.79s CPU    208.47s WALL (       1 calls)
     electrons    :  26465.51s CPU  28194.16s WALL (       1 calls)

     Called by init_run:
     wfcinit      :    191.76s CPU    204.76s WALL (       1 calls)
     potinit      :      0.95s CPU      1.02s WALL (       1 calls)

     Called by electrons:
     c_bands      :  24020.52s CPU  25562.21s WALL (      49 calls)
     sum_band     :   1970.52s CPU   2083.57s WALL (      49 calls)
     v_of_rho     :      6.27s CPU      7.91s WALL (      50 calls)
     newd         :     16.81s CPU     32.39s WALL (      50 calls)
     mix_rho      :    451.32s CPU    505.74s WALL (      49 calls)

     Called by c_bands:
     init_us_2    :     91.46s CPU     92.90s WALL (     594 calls)
     cegterg      :  23647.95s CPU  25170.46s WALL (     302 calls)

     Called by sum_band:
     sum_band:bec :      5.50s CPU      6.20s WALL (     294 calls)
     addusdens    :     25.72s CPU     38.93s WALL (      49 calls)

     Called by *egterg:
     h_psi        :   8791.92s CPU   9478.47s WALL (    2068 calls)
     s_psi        :   2156.58s CPU   2170.53s WALL (    2068 calls)
     g_psi        :     22.35s CPU     22.39s WALL (    1760 calls)
     cdiaghg      :   6669.36s CPU   7006.59s WALL (    2056 calls)

     Called by h_psi:
     add_vuspsi   :   2162.80s CPU   2177.74s WALL (    2068 calls)

     General routines
     calbec       :   2982.49s CPU   3005.18s WALL (    2362 calls)
     fft          :      5.42s CPU      6.65s WALL (     649 calls)
     ffts         :    195.70s CPU    235.34s WALL (   28044 calls)
     fftw         :   4398.64s CPU   5079.55s WALL ( 1419034 calls)
     davcio       :      0.10s CPU      7.07s WALL (       6 calls)
 
     Parallel routines
     fft_scatter  :   2347.39s CPU   2673.48s WALL ( 1447727 calls)
 
     PWSCF        :     7h24m CPU        7h53m WALL

 
   This run was terminated on:   3: 0:35  15Sep2017            

=------------------------------------------------------------------------------=
   JOB DONE.
=------------------------------------------------------------------------------=
