mpirun: INFO: switching to OpenMPI runtime version 1.10.2

     Program PWSCF v.5.4.0 starts on 14Sep2017 at 19: 6:56 

     This program is part of the open-source Quantum ESPRESSO suite
     for quantum simulation of materials; please cite
         "P. Giannozzi et al., J. Phys.:Condens. Matter 21 395502 (2009);
          URL http://www.quantum-espresso.org", 
     in publications or presentations arising from this work. More details at
     http://www.quantum-espresso.org/quote

     Parallel version (MPI & OpenMP), running on      28 processor cores
     Number of MPI processes:                28
     Threads/MPI process:                     1
     R & G space division:  proc/nbgrp/npool/nimage =      28
     Waiting for input...
     Reading input from standard input
Warning: card &IONS ignored
Warning: card / ignored

     Current dimensions of program PWSCF are:
     Max number of different atomic species (ntypx) = 10
     Max number of k-points (npk) =  40000
     Max angular momentum in pseudopotentials (lmaxx) =  3
     WARNING: atomic wfc #  2 for atom type 4 has zero norm
     WARNING: atomic wfc #  4 for atom type 4 has zero norm
     WARNING: atomic wfc #  5 for atom type 4 has zero norm

     -------------------------------------
     Parameters for Dispersion Correction:
     -------------------------------------
       atom      VdW radius       C_6     

        Cu         2.952        374.666
        C_h        2.744         60.710
        C          2.744         60.710
        O          2.536         24.284
        H          1.892          4.857

     Subspace diagonalization in iterative solution of the eigenvalue problem:
     one sub-group per band group will be used
     scalapack distributed-memory algorithm (size of sub-group:  3*  3 procs)

 
     Parallelization info
     --------------------
     sticks:   dense  smooth     PW     G-vecs:    dense   smooth      PW
     Min         408     408    108                73226    73226    9928
     Max         410     410    109                73231    73231    9931
     Sum       11433   11433   3039              2050409  2050409  278033
 


     bravais-lattice index     =            0
     lattice parameter (alat)  =      13.9425  a.u.
     unit-cell volume          =   21209.0878 (a.u.)^3
     number of atoms/cell      =          151
     number of atomic types    =            5
     number of electrons       =      1308.00
     number of Kohn-Sham states=          785
     kinetic-energy cutoff     =      80.0000  Ry
     charge density cutoff     =     320.0000  Ry
     convergence threshold     =      1.0E-08
     mixing beta               =       0.7000
     number of iterations used =            8  local-TF  mixing
     Exchange-correlation      =  SLA  PW   PBE  PBE ( 1  4  3  4 0 0)

     celldm(1)=  13.942539  celldm(2)=   0.000000  celldm(3)=   0.000000
     celldm(4)=   0.000000  celldm(5)=   0.000000  celldm(6)=   0.000000

     crystal axes: (cart. coord. in units of alat)
               a(1) = (   1.000000   0.000000   0.000000 )  
               a(2) = (   0.000000   2.309401   0.000000 )  
               a(3) = (   0.000000   0.000000   3.388418 )  

     reciprocal axes: (cart. coord. in units 2 pi/alat)
               b(1) = (  1.000000  0.000000  0.000000 )  
               b(2) = (  0.000000  0.433013  0.000000 )  
               b(3) = (  0.000000  0.000000  0.295123 )  


     PseudoPot. # 1 for Cu read from file:
     /home/549/hxw549/Short/pseudopotentials/Cu.pbe-n-van_ak.UPF
     MD5 check sum: 601f7c30f7467666bec936e0661ce3e1
     Pseudo is Ultrasoft + core correction, Zval = 11.0
     Generated by new atomic code, or converted to UPF format
     Using radial grid of  867 points,  6 beta functions with: 
                l(1) =   0
                l(2) =   0
                l(3) =   1
                l(4) =   1
                l(5) =   2
                l(6) =   2
     Q(r) pseudized with  8 coefficients,  rinner =    1.400   1.400   1.400
                                                       1.400   1.400

     PseudoPot. # 2 for C  read from file:
     /home/549/hxw549/Short/pseudopotentials/C.star1s-pbe-mt_gipaw.UPF
     MD5 check sum: ef0cb3dee31bd9e4ba2a832a2c716264
     Pseudo is Norm-conserving, Zval =  5.0
     Generated by new atomic code, or converted to UPF format
     Using radial grid of 1073 points,  1 beta functions with: 
                l(1) =   0

     PseudoPot. # 3 for C  read from file:
     /home/549/hxw549/Short/pseudopotentials/C.pbe-mt_gipaw.UPF
     MD5 check sum: 5ac2f21f2c440b14befe521540822c15
     Pseudo is Norm-conserving, Zval =  4.0
     Generated by new atomic code, or converted to UPF format
     Using radial grid of 1073 points,  1 beta functions with: 
                l(1) =   0

     PseudoPot. # 4 for O  read from file:
     /home/549/hxw549/Short/pseudopotentials/O.pbe-van_gipaw.UPF
     MD5 check sum: 5ce2a047509d4f331db576c963e74b29
     Pseudo is Ultrasoft, Zval =  6.0
     Generated by new atomic code, or converted to UPF format
     Using radial grid of 1095 points,  4 beta functions with: 
                l(1) =   0
                l(2) =   0
                l(3) =   1
                l(4) =   1
     Q(r) pseudized with 0 coefficients 


     PseudoPot. # 5 for H  read from file:
     /home/549/hxw549/Short/pseudopotentials/H.pbe-van_ak.UPF
     MD5 check sum: 077eb6d537518a38cb46c6de387227b7
     Pseudo is Ultrasoft, Zval =  1.0
     Generated by new atomic code, or converted to UPF format
     Using radial grid of  615 points,  1 beta functions with: 
                l(1) =   0
     Q(r) pseudized with  8 coefficients,  rinner =    0.800

     atomic species   valence    mass     pseudopotential
        Cu            11.00    63.54600     Cu( 1.00)
        C_h            5.00    12.01070     C ( 1.00)
        C              4.00    12.01070     C ( 1.00)
        O              6.00    15.99940     O ( 1.00)
        H              1.00     1.00783     H ( 1.00)

     No symmetry found



   Cartesian axes

     site n.     atom                  positions (alat units)
         1           Cu  tau(   1) = (   0.0000828  -0.0019274   0.9979025  )
         2           Cu  tau(   2) = (   0.2500781   0.2289897   0.9982687  )
         3           Cu  tau(   3) = (   0.5000682  -0.0019353   0.9979147  )
         4           Cu  tau(   4) = (   0.7500726   0.2289671   0.9982487  )
         5           Cu  tau(   5) = (   0.0000745   0.4597415   0.9986208  )
         6           Cu  tau(   6) = (   0.2500564   0.6906151   0.9987210  )
         7           Cu  tau(   7) = (   0.5000735   0.4597912   0.9985815  )
         8           Cu  tau(   8) = (   0.7500881   0.6906173   0.9987207  )
         9           Cu  tau(   9) = (   0.0000709   0.9216754   0.9986533  )
        10           Cu  tau(  10) = (   0.2500897   1.1527592   0.9985937  )
        11           Cu  tau(  11) = (   0.5000704   0.9216278   0.9986465  )
        12           Cu  tau(  12) = (   0.7500496   1.1527685   0.9985919  )
        13           Cu  tau(  13) = (   0.0000690   1.3837754   0.9985110  )
        14           Cu  tau(  14) = (   0.2500777   1.6146562   0.9983520  )
        15           Cu  tau(  15) = (   0.5000695   1.3837808   0.9985989  )
        16           Cu  tau(  16) = (   0.7500633   1.6146375   0.9983691  )
        17           Cu  tau(  17) = (   0.0000685   1.8454873   0.9980042  )
        18           Cu  tau(  18) = (   0.2500760   2.0764498   0.9977993  )
        19           Cu  tau(  19) = (   0.5000758   1.8455084   0.9980245  )
        20           Cu  tau(  20) = (   0.7500720   2.0764768   0.9977886  )
        21           Cu  tau(  21) = (   0.0000738   0.2285534   1.2467489  )
        22           Cu  tau(  22) = (   0.2500671  -0.0022340   1.2463929  )
        23           Cu  tau(  23) = (   0.5000700   0.2285866   1.2466810  )
        24           Cu  tau(  24) = (   0.7500765  -0.0022282   1.2464015  )
        25           Cu  tau(  25) = (   0.0000761   0.6907184   1.2469375  )
        26           Cu  tau(  26) = (   0.2500681   0.4595989   1.2469722  )
        27           Cu  tau(  27) = (   0.5000688   0.6906737   1.2469481  )
        28           Cu  tau(  28) = (   0.7500757   0.4595797   1.2469379  )
        29           Cu  tau(  29) = (   0.0000734   1.1527566   1.2467851  )
        30           Cu  tau(  30) = (   0.2500637   0.9217202   1.2468203  )
        31           Cu  tau(  31) = (   0.5000719   1.1527096   1.2468145  )
        32           Cu  tau(  32) = (   0.7500809   0.9217264   1.2468082  )
        33           Cu  tau(  33) = (   0.0000721   1.6148370   1.2467556  )
        34           Cu  tau(  34) = (   0.2500731   1.3838112   1.2468268  )
        35           Cu  tau(  35) = (   0.5000710   1.6148963   1.2468044  )
        36           Cu  tau(  36) = (   0.7500707   1.3837924   1.2468503  )
        37           Cu  tau(  37) = (   0.0000734   2.0765072   1.2462746  )
        38           Cu  tau(  38) = (   0.2500633   1.8457549   1.2465399  )
        39           Cu  tau(  39) = (   0.5000691   2.0764918   1.2462790  )
        40           Cu  tau(  40) = (   0.7500793   1.8457810   1.2465066  )
        41           Cu  tau(  41) = (   0.0000564  -0.0025714   1.4963399  )
        42           Cu  tau(  42) = (   0.2500847   0.2283300   1.4961868  )
        43           Cu  tau(  43) = (   0.5000704  -0.0024996   1.4962480  )
        44           Cu  tau(  44) = (   0.7500375   0.2283570   1.4961858  )
        45           Cu  tau(  45) = (   0.0000657   0.4596578   1.4961555  )
        46           Cu  tau(  46) = (   0.2500941   0.6908920   1.4964046  )
        47           Cu  tau(  47) = (   0.5000606   0.4596636   1.4962581  )
        48           Cu  tau(  48) = (   0.7500438   0.6908603   1.4963475  )
        49           Cu  tau(  49) = (   0.0000765   0.9218163   1.4964784  )
        50           Cu  tau(  50) = (   0.2500394   1.1525801   1.4963243  )
        51           Cu  tau(  51) = (   0.5000729   0.9217131   1.4963912  )
        52           Cu  tau(  52) = (   0.7501214   1.1525480   1.4963411  )
        53           Cu  tau(  53) = (   0.0000810   1.3837111   1.4962439  )
        54           Cu  tau(  54) = (   0.2500327   1.6149441   1.4962309  )
        55           Cu  tau(  55) = (   0.5000772   1.3836210   1.4961482  )
        56           Cu  tau(  56) = (   0.7501146   1.6149978   1.4961677  )
        57           Cu  tau(  57) = (   0.0000854   1.8459444   1.4961889  )
        58           Cu  tau(  58) = (   0.2500520   2.0764731   1.4963265  )
        59           Cu  tau(  59) = (   0.5000544   1.8460216   1.4962978  )
        60           Cu  tau(  60) = (   0.7500828   2.0764571   1.4963282  )
        61           Cu  tau(  61) = (   0.0000327   0.2286675   1.7449308  )
        62           Cu  tau(  62) = (   0.2501856  -0.0024048   1.7460061  )
        63           Cu  tau(  63) = (   0.5000420   0.2284048   1.7454312  )
        64           Cu  tau(  64) = (   0.7499075  -0.0024084   1.7460053  )
        65           Cu  tau(  65) = (   0.0000551   0.6907510   1.7454740  )
        66           Cu  tau(  66) = (   0.2503477   0.4596884   1.7449961  )
        67           Cu  tau(  67) = (   0.5000397   0.6909384   1.7459965  )
        68           Cu  tau(  68) = (   0.7497316   0.4597402   1.7450323  )
        69           Cu  tau(  69) = (   0.0000827   1.1525419   1.7460605  )
        70           Cu  tau(  70) = (   0.2501051   0.9218073   1.7461884  )
        71           Cu  tau(  71) = (   0.5000993   1.1525816   1.7456198  )
        72           Cu  tau(  72) = (   0.7500396   0.9216880   1.7461634  )
        73           Cu  tau(  73) = (   0.0001087   1.6149841   1.7453696  )
        74           Cu  tau(  74) = (   0.2498386   1.3835488   1.7451236  )
        75           Cu  tau(  75) = (   0.5000496   1.6146726   1.7448206  )
        76           Cu  tau(  76) = (   0.7503409   1.3836442   1.7449936  )
        77           Cu  tau(  77) = (   0.0000574   2.0762182   1.7464933  )
        78           Cu  tau(  78) = (   0.2499285   1.8458273   1.7459143  )
        79           Cu  tau(  79) = (   0.5000596   2.0765674   1.7464908  )
        80           Cu  tau(  80) = (   0.7502074   1.8458061   1.7458870  )
        81           Cu  tau(  81) = (   0.0000130  -0.0011975   1.9916018  )
        82           Cu  tau(  82) = (   0.2502323   0.2291545   1.9912736  )
        83           Cu  tau(  83) = (   0.5000352  -0.0017197   1.9933322  )
        84           Cu  tau(  84) = (   0.7497778   0.2292502   1.9912024  )
        85           Cu  tau(  85) = (   0.0001139   0.4595760   1.9906628  )
        86           Cu  tau(  86) = (   0.2508258   0.6900820   1.9914899  )
        87           Cu  tau(  87) = (   0.4998900   0.4590567   1.9920159  )
        88           Cu  tau(  88) = (   0.7491801   0.6900255   1.9915826  )
        89           Cu  tau(  89) = (   0.0001003   0.9205839   1.9922013  )
        90           Cu  tau(  90) = (   0.2492906   1.1533023   1.9918576  )
        91           Cu  tau(  91) = (   0.5000354   0.9227614   1.9921889  )
        92           Cu  tau(  92) = (   0.7509059   1.1533324   1.9914825  )
        93           Cu  tau(  93) = (   0.0000970   1.3843545   1.9922248  )
        94           Cu  tau(  94) = (   0.2498122   1.6141996   1.9911039  )
        95           Cu  tau(  95) = (   0.5000946   1.3838300   1.9905497  )
        96           Cu  tau(  96) = (   0.7503549   1.6142035   1.9910208  )
        97           Cu  tau(  97) = (   0.0000764   1.8451373   1.9933510  )
        98           Cu  tau(  98) = (   0.2500787   2.0764017   1.9926276  )
        99           Cu  tau(  99) = (   0.5000584   1.8444878   1.9914203  )
       100           Cu  tau( 100) = (   0.7500137   2.0763587   1.9926042  )
       101           C   tau( 101) = (   0.0005819   0.1012998   2.3904043  )
       102           C   tau( 102) = (   0.0005741   0.2937156   2.3903390  )
       103           C   tau( 103) = (   0.1672040   0.0050807   2.3895960  )
       104           C   tau( 104) = (   0.1670703   0.3899063   2.3888619  )
       105           C   tau( 105) = (   0.3337248   0.1012568   2.3872161  )
       106           C   tau( 106) = (   0.3337224   0.2937225   2.3863974  )
       107           C   tau( 107) = (   0.5005868   0.0049483   2.3857238  )
       108           C   tau( 108) = (   0.5005906   0.3900076   2.3840849  )
       109           C   tau( 109) = (   0.6674546   0.1012489   2.3865961  )
       110           C   tau( 110) = (   0.6674510   0.2937242   2.3853634  )
       111           C   tau( 111) = (   0.8339733   0.0050728   2.3892325  )
       112           C   tau( 112) = (   0.8340930   0.3899332   2.3880236  )
       113           C   tau( 113) = (   0.0006204   0.6785782   2.3887582  )
       114           C   tau( 114) = (   0.0006769   0.8710033   2.3866220  )
       115           C   tau( 115) = (   0.1670755   0.5823559   2.3880138  )
       116           C   tau( 116) = (   0.1673962   0.9673020   2.3868415  )
       117           C   tau( 117) = (   0.3338702   0.6786172   2.3851660  )
       118           C   tau( 118) = (   0.3338400   0.8711005   2.3855460  )
       119           C   tau( 119) = (   0.5006593   0.5824545   2.3838744  )
       120           C   tau( 120) = (   0.5007124   0.9674155   2.3833498  )
       121           C   tau( 121) = (   0.6674395   0.6786521   2.3836125  )
       122           C   tau( 122) = (   0.6675228   0.8710775   2.3835887  )
       123           C   tau( 123) = (   0.8341510   0.5823962   2.3871255  )
       124           C   tau( 124) = (   0.8339084   0.9672573   2.3856381  )
       125           C   tau( 125) = (   0.0006550   1.2559231   2.3856585  )
       126           C   tau( 126) = (   0.0006094   1.4483424   2.3842060  )
       127           C   tau( 127) = (   0.1674037   1.1597321   2.3858893  )
       128           C   tau( 128) = (   0.1674686   1.5446246   2.3856706  )
       129           C   tau( 129) = (   0.3341358   1.2560248   2.3872725  )
       130           C   tau( 130) = (   0.3340828   1.4484048   2.3886295  )
       131           C   tau( 131) = (   0.5006210   1.1598970   2.3867181  )
       132           C   tau( 132) = (   0.5005784   1.5446460   2.3900326  )
       133           C   tau( 133) = (   0.6670968   1.2560354   2.3869037  )
       134           C   tau( 134) = (   0.6670754   1.4484646   2.3880658  )
       135           C   tau( 135) = (   0.8339059   1.1597231   2.3855699  )
       136           C   tau( 136) = (   0.8337142   1.5446462   2.3852464  )
       137           C   tau( 137) = (   0.0006078   1.8334050   2.3846746  )
       138           C   tau( 138) = (   0.0006196   2.0258385   2.3878528  )
       139           C   tau( 139) = (   0.1674732   1.7370744   2.3858592  )
       140           C   tau( 140) = (   0.1672100   2.1220313   2.3881529  )
       141           C   tau( 141) = (   0.3340050   1.8332630   2.3883297  )
       142           C   tau( 142) = (   0.3340274   2.0257115   2.3879053  )
       143           C   tau( 143) = (   0.5005899   1.7370225   2.3894614  )
       144           C   tau( 144) = (   0.5006184   2.1219085   2.3882968  )
       145           C   tau( 145) = (   0.6671992   1.8332548   2.3882872  )
       146           C   tau( 146) = (   0.6671889   2.0257026   2.3877783  )
       147           C   tau( 147) = (   0.8337337   1.7370904   2.3857631  )
       148           C   tau( 148) = (   0.8340135   2.1220210   2.3880016  )
       149           C_h tau( 149) = (   0.4782255   0.9554208   2.8126654  )
       150           O   tau( 150) = (   0.3729471   1.0771384   2.8132802  )
       151           O   tau( 151) = (   0.5837764   0.8339236   2.8138956  )

     number of k points=     6  gaussian smearing, width (Ry)=  0.1000
                       cart. coord. in units 2pi/alat
        k(    1) = (   0.0000000   0.0000000   0.0000000), wk =   0.2500000
        k(    2) = (   0.0000000  -0.2165064   0.0000000), wk =   0.2500000
        k(    3) = (   0.2500000   0.0000000   0.0000000), wk =   0.5000000
        k(    4) = (   0.2500000  -0.2165064   0.0000000), wk =   0.5000000
        k(    5) = (  -0.5000000   0.0000000   0.0000000), wk =   0.2500000
        k(    6) = (  -0.5000000  -0.2165064   0.0000000), wk =   0.2500000

     Dense  grid:  2050409 G-vectors     FFT dimensions: (  80, 192, 270)

     Largest allocated arrays     est. size (Mb)     dimensions
        Kohn-Sham Wavefunctions       109.85 Mb     (    9171,  785)
        NL pseudopotentials           260.99 Mb     (    9171, 1865)
        Each V/rho on FFT grid          2.34 Mb     (  153600)
        Each G-vector array             0.56 Mb     (   73230)
        G-vector shells                 0.27 Mb     (   35784)
     Largest temporary arrays     est. size (Mb)     dimensions
        Auxiliary wavefunctions       439.41 Mb     (    9171, 3140)
        Each subspace H/S matrix       16.69 Mb     (    1046, 1046)
        Each <psi_i|beta_j> matrix     22.34 Mb     (    1865,  785)
        Arrays for rho mixing          18.75 Mb     (  153600,    8)

     Initial potential from superposition of free atoms
     Check: negative starting charge=   -0.001570

     starting charge 1282.31751, renormalised to 1308.00000

     negative rho (up, down):  1.601E-03 0.000E+00
     Starting wfc are 1300 randomized atomic wfcs

     total cpu time spent up to now is      209.3 secs

     Self-consistent Calculation

     iteration #  1     ecut=    80.00 Ry     beta=0.70
     Davidson diagonalization with overlap
     ethr =  1.00E-04,  avg # of iterations = 21.0

     negative rho (up, down):  2.556E+01 0.000E+00

     total cpu time spent up to now is     4013.2 secs

     total energy              =   -9802.20931394 Ry
     Harris-Foulkes estimate   =  -17474.49246285 Ry
     estimated scf accuracy    <  185522.85060537 Ry

     iteration #  2     ecut=    80.00 Ry     beta=0.70
     Davidson diagonalization with overlap
     ethr =  1.00E-02,  avg # of iterations = 13.3

     negative rho (up, down):  2.929E+01 0.000E+00

     total cpu time spent up to now is     5924.3 secs

     total energy              =  -12073.15082334 Ry
     Harris-Foulkes estimate   =  -13784.53509986 Ry
     estimated scf accuracy    <   28180.99890258 Ry

     iteration #  3     ecut=    80.00 Ry     beta=0.70
     Davidson diagonalization with overlap
     ethr =  1.00E-02,  avg # of iterations =  7.3

     negative rho (up, down):  2.966E+01 0.000E+00

     total cpu time spent up to now is     7058.4 secs

     total energy              =  -12454.33377291 Ry
     Harris-Foulkes estimate   =  -13520.62607273 Ry
     estimated scf accuracy    <    6365.52613186 Ry

     iteration #  4     ecut=    80.00 Ry     beta=0.70
     Davidson diagonalization with overlap
     ethr =  1.00E-02,  avg # of iterations =  5.2

     negative rho (up, down):  1.874E+01 0.000E+00

     total cpu time spent up to now is     8205.7 secs

     total energy              =  -12903.75407860 Ry
     Harris-Foulkes estimate   =  -13133.39701631 Ry
     estimated scf accuracy    <    1008.34968125 Ry

     iteration #  5     ecut=    80.00 Ry     beta=0.70
     Davidson diagonalization with overlap
     ethr =  1.00E-02,  avg # of iterations =  2.2

     negative rho (up, down):  1.644E+01 0.000E+00

     total cpu time spent up to now is     8685.2 secs

     total energy              =  -12909.12360668 Ry
     Harris-Foulkes estimate   =  -12972.41947855 Ry
     estimated scf accuracy    <    1540.78149028 Ry

     iteration #  6     ecut=    80.00 Ry     beta=0.70
     Davidson diagonalization with overlap
     ethr =  1.00E-02,  avg # of iterations =  1.3

     negative rho (up, down):  1.040E+01 0.000E+00

     total cpu time spent up to now is     9024.5 secs

     total energy              =  -12873.91727285 Ry
     Harris-Foulkes estimate   =  -12941.96670393 Ry
     estimated scf accuracy    <     539.41690523 Ry

     iteration #  7     ecut=    80.00 Ry     beta=0.70
     Davidson diagonalization with overlap
     ethr =  1.00E-02,  avg # of iterations =  2.2

     negative rho (up, down):  8.209E+00 0.000E+00

     total cpu time spent up to now is     9393.8 secs

     total energy              =  -12865.75082886 Ry
     Harris-Foulkes estimate   =  -12896.09450783 Ry
     estimated scf accuracy    <     499.84278197 Ry

     iteration #  8     ecut=    80.00 Ry     beta=0.70
     Davidson diagonalization with overlap
     ethr =  1.00E-02,  avg # of iterations =  2.0

     negative rho (up, down):  6.419E+00 0.000E+00

     total cpu time spent up to now is     9752.1 secs

     total energy              =  -12854.79001608 Ry
     Harris-Foulkes estimate   =  -12878.83223373 Ry
     estimated scf accuracy    <     269.86594201 Ry

     iteration #  9     ecut=    80.00 Ry     beta=0.70
     Davidson diagonalization with overlap
     ethr =  1.00E-02,  avg # of iterations =  1.2

     negative rho (up, down):  3.328E+00 0.000E+00

     total cpu time spent up to now is    10087.9 secs

     total energy              =  -12826.23094797 Ry
     Harris-Foulkes estimate   =  -12858.47619666 Ry
     estimated scf accuracy    <     215.34546217 Ry

     iteration # 10     ecut=    80.00 Ry     beta=0.70
     Davidson diagonalization with overlap
     ethr =  1.00E-02,  avg # of iterations =  2.3

     negative rho (up, down):  1.117E+00 0.000E+00

     total cpu time spent up to now is    10451.0 secs

     total energy              =  -12803.66478152 Ry
     Harris-Foulkes estimate   =  -12832.41393886 Ry
     estimated scf accuracy    <     246.31748161 Ry

     iteration # 11     ecut=    80.00 Ry     beta=0.70
     Davidson diagonalization with overlap
     ethr =  1.00E-02,  avg # of iterations =  2.8

     negative rho (up, down):  9.023E-01 0.000E+00

     total cpu time spent up to now is    10827.1 secs

     total energy              =  -12795.59670745 Ry
     Harris-Foulkes estimate   =  -12820.06342079 Ry
     estimated scf accuracy    <     300.91420833 Ry

     iteration # 12     ecut=    80.00 Ry     beta=0.70
     Davidson diagonalization with overlap
     ethr =  1.00E-02,  avg # of iterations =  1.5

     negative rho (up, down):  1.038E+00 0.000E+00

     total cpu time spent up to now is    11170.5 secs

     total energy              =  -12795.43456242 Ry
     Harris-Foulkes estimate   =  -12802.41911261 Ry
     estimated scf accuracy    <      53.61295976 Ry

     iteration # 13     ecut=    80.00 Ry     beta=0.70
     Davidson diagonalization with overlap
     ethr =  4.10E-03,  avg # of iterations =  2.2

     negative rho (up, down):  2.749E+00 0.000E+00

     total cpu time spent up to now is    11528.6 secs

     total energy              =  -12790.88822100 Ry
     Harris-Foulkes estimate   =  -12797.73865499 Ry
     estimated scf accuracy    <      31.77600330 Ry

     iteration # 14     ecut=    80.00 Ry     beta=0.70
     Davidson diagonalization with overlap
     ethr =  2.43E-03,  avg # of iterations =  5.8

     negative rho (up, down):  4.068E+00 0.000E+00

     total cpu time spent up to now is    11975.5 secs

     total energy              =  -12787.54803294 Ry
     Harris-Foulkes estimate   =  -12792.08270164 Ry
     estimated scf accuracy    <      21.81830016 Ry

     iteration # 15     ecut=    80.00 Ry     beta=0.70
     Davidson diagonalization with overlap
     ethr =  1.67E-03,  avg # of iterations =  6.0

     negative rho (up, down):  4.979E+00 0.000E+00

     total cpu time spent up to now is    12425.9 secs

     total energy              =  -12787.64438889 Ry
     Harris-Foulkes estimate   =  -12788.90242740 Ry
     estimated scf accuracy    <      18.97186338 Ry

     iteration # 16     ecut=    80.00 Ry     beta=0.70
     Davidson diagonalization with overlap
     ethr =  1.45E-03,  avg # of iterations =  4.0

     negative rho (up, down):  4.040E+00 0.000E+00

     total cpu time spent up to now is    12822.4 secs

     total energy              =  -12786.76004565 Ry
     Harris-Foulkes estimate   =  -12788.12915988 Ry
     estimated scf accuracy    <      10.52507703 Ry

     iteration # 17     ecut=    80.00 Ry     beta=0.70
     Davidson diagonalization with overlap
     ethr =  8.05E-04,  avg # of iterations =  6.7

     negative rho (up, down):  3.177E+00 0.000E+00

     total cpu time spent up to now is    13280.6 secs

     total energy              =  -12785.74390243 Ry
     Harris-Foulkes estimate   =  -12786.95880967 Ry
     estimated scf accuracy    <       9.03880588 Ry

     iteration # 18     ecut=    80.00 Ry     beta=0.70
     Davidson diagonalization with overlap
     ethr =  6.91E-04,  avg # of iterations =  7.3

     negative rho (up, down):  2.554E+00 0.000E+00

     total cpu time spent up to now is    13754.5 secs

     total energy              =  -12784.88715956 Ry
     Harris-Foulkes estimate   =  -12785.95741560 Ry
     estimated scf accuracy    <       7.54789639 Ry

     iteration # 19     ecut=    80.00 Ry     beta=0.70
     Davidson diagonalization with overlap
     ethr =  5.77E-04,  avg # of iterations =  3.0

     negative rho (up, down):  1.705E+00 0.000E+00

     total cpu time spent up to now is    14131.6 secs

     total energy              =  -12784.31172704 Ry
     Harris-Foulkes estimate   =  -12785.21456255 Ry
     estimated scf accuracy    <       7.27324123 Ry

     iteration # 20     ecut=    80.00 Ry     beta=0.70
     Davidson diagonalization with overlap
     ethr =  5.56E-04,  avg # of iterations =  3.5

     negative rho (up, down):  7.380E-01 0.000E+00

     total cpu time spent up to now is    14519.8 secs

     total energy              =  -12783.62861079 Ry
     Harris-Foulkes estimate   =  -12784.48882643 Ry
     estimated scf accuracy    <       4.16084137 Ry

     iteration # 21     ecut=    80.00 Ry     beta=0.70
     Davidson diagonalization with overlap
     ethr =  3.18E-04,  avg # of iterations =  9.7

     negative rho (up, down):  5.966E-01 0.000E+00

     total cpu time spent up to now is    15045.1 secs

     total energy              =  -12782.69334694 Ry
     Harris-Foulkes estimate   =  -12783.81121158 Ry
     estimated scf accuracy    <       4.55340129 Ry

     iteration # 22     ecut=    80.00 Ry     beta=0.70
     Davidson diagonalization with overlap
     ethr =  3.18E-04,  avg # of iterations =  4.2

     negative rho (up, down):  3.875E-01 0.000E+00

     total cpu time spent up to now is    15452.9 secs

     total energy              =  -12782.48915127 Ry
     Harris-Foulkes estimate   =  -12782.89288708 Ry
     estimated scf accuracy    <       3.47630503 Ry

     iteration # 23     ecut=    80.00 Ry     beta=0.70
     Davidson diagonalization with overlap
     ethr =  2.66E-04,  avg # of iterations =  2.3

     negative rho (up, down):  5.165E-01 0.000E+00

     total cpu time spent up to now is    15817.3 secs

     total energy              =  -12782.31291136 Ry
     Harris-Foulkes estimate   =  -12782.54906709 Ry
     estimated scf accuracy    <       1.70762271 Ry

     iteration # 24     ecut=    80.00 Ry     beta=0.70
     Davidson diagonalization with overlap
     ethr =  1.31E-04,  avg # of iterations =  7.7

     negative rho (up, down):  6.066E-01 0.000E+00

     total cpu time spent up to now is    16304.5 secs

     total energy              =  -12782.08138289 Ry
     Harris-Foulkes estimate   =  -12782.34403109 Ry
     estimated scf accuracy    <       1.34993546 Ry

     iteration # 25     ecut=    80.00 Ry     beta=0.70
     Davidson diagonalization with overlap
     ethr =  1.03E-04,  avg # of iterations =  9.0

     negative rho (up, down):  6.097E-01 0.000E+00

     total cpu time spent up to now is    16846.3 secs

     total energy              =  -12781.99172896 Ry
     Harris-Foulkes estimate   =  -12782.13244080 Ry
     estimated scf accuracy    <       0.99443456 Ry

     iteration # 26     ecut=    80.00 Ry     beta=0.70
     Davidson diagonalization with overlap
     ethr =  7.60E-05,  avg # of iterations =  7.3

     negative rho (up, down):  5.062E-01 0.000E+00

     total cpu time spent up to now is    17332.6 secs

     total energy              =  -12782.00497559 Ry
     Harris-Foulkes estimate   =  -12782.04694794 Ry
     estimated scf accuracy    <       0.35746499 Ry

     iteration # 27     ecut=    80.00 Ry     beta=0.70
     Davidson diagonalization with overlap
     ethr =  2.73E-05,  avg # of iterations =  9.7

     negative rho (up, down):  3.403E-01 0.000E+00

     total cpu time spent up to now is    17874.2 secs

     total energy              =  -12782.00856343 Ry
     Harris-Foulkes estimate   =  -12782.02014547 Ry
     estimated scf accuracy    <       0.10477118 Ry

     iteration # 28     ecut=    80.00 Ry     beta=0.70
     Davidson diagonalization with overlap
     ethr =  8.01E-06,  avg # of iterations = 10.5

     negative rho (up, down):  1.796E-01 0.000E+00

     total cpu time spent up to now is    18470.6 secs

     total energy              =  -12782.00964783 Ry
     Harris-Foulkes estimate   =  -12782.01465859 Ry
     estimated scf accuracy    <       0.03666406 Ry

     iteration # 29     ecut=    80.00 Ry     beta=0.70
     Davidson diagonalization with overlap
     c_bands:  1 eigenvalues not converged
     ethr =  2.80E-06,  avg # of iterations = 13.8

     negative rho (up, down):  1.160E-01 0.000E+00

     total cpu time spent up to now is    19142.8 secs

     total energy              =  -12782.00972234 Ry
     Harris-Foulkes estimate   =  -12782.01195024 Ry
     estimated scf accuracy    <       0.01646715 Ry

     iteration # 30     ecut=    80.00 Ry     beta=0.70
     Davidson diagonalization with overlap
     ethr =  1.26E-06,  avg # of iterations = 10.0

     negative rho (up, down):  1.050E-01 0.000E+00

     total cpu time spent up to now is    19713.6 secs

     total energy              =  -12782.01079185 Ry
     Harris-Foulkes estimate   =  -12782.01131333 Ry
     estimated scf accuracy    <       0.00928130 Ry

     iteration # 31     ecut=    80.00 Ry     beta=0.70
     Davidson diagonalization with overlap
     ethr =  7.10E-07,  avg # of iterations =  7.2

     negative rho (up, down):  7.100E-02 0.000E+00

     total cpu time spent up to now is    20210.2 secs

     total energy              =  -12782.01039443 Ry
     Harris-Foulkes estimate   =  -12782.01144678 Ry
     estimated scf accuracy    <       0.00313579 Ry

     iteration # 32     ecut=    80.00 Ry     beta=0.70
     Davidson diagonalization with overlap
     c_bands:  1 eigenvalues not converged
     c_bands:  1 eigenvalues not converged
     ethr =  2.40E-07,  avg # of iterations = 13.8

     negative rho (up, down):  5.258E-02 0.000E+00

     total cpu time spent up to now is    20863.0 secs

     total energy              =  -12782.00986057 Ry
     Harris-Foulkes estimate   =  -12782.01049710 Ry
     estimated scf accuracy    <       0.00138253 Ry

     iteration # 33     ecut=    80.00 Ry     beta=0.70
     Davidson diagonalization with overlap
     c_bands:  1 eigenvalues not converged
     ethr =  1.06E-07,  avg # of iterations =  8.8

     negative rho (up, down):  3.756E-02 0.000E+00

     total cpu time spent up to now is    21388.4 secs

     total energy              =  -12782.00964415 Ry
     Harris-Foulkes estimate   =  -12782.00999302 Ry
     estimated scf accuracy    <       0.00108945 Ry

     iteration # 34     ecut=    80.00 Ry     beta=0.70
     Davidson diagonalization with overlap
     ethr =  8.33E-08,  avg # of iterations =  8.3

     negative rho (up, down):  9.854E-03 0.000E+00

     total cpu time spent up to now is    21911.0 secs

     total energy              =  -12782.00910353 Ry
     Harris-Foulkes estimate   =  -12782.00970976 Ry
     estimated scf accuracy    <       0.00035927 Ry

     iteration # 35     ecut=    80.00 Ry     beta=0.70
     Davidson diagonalization with overlap
     c_bands:  2 eigenvalues not converged
     c_bands:  1 eigenvalues not converged
     ethr =  2.75E-08,  avg # of iterations = 12.5

     negative rho (up, down):  3.896E-03 0.000E+00

     total cpu time spent up to now is    22555.6 secs

     total energy              =  -12782.00902206 Ry
     Harris-Foulkes estimate   =  -12782.00912669 Ry
     estimated scf accuracy    <       0.00009097 Ry

     iteration # 36     ecut=    80.00 Ry     beta=0.70
     Davidson diagonalization with overlap
     ethr =  6.96E-09,  avg # of iterations =  8.0

     negative rho (up, down):  2.109E-03 0.000E+00

     total cpu time spent up to now is    23061.5 secs

     total energy              =  -12782.00900715 Ry
     Harris-Foulkes estimate   =  -12782.00902659 Ry
     estimated scf accuracy    <       0.00001583 Ry

     iteration # 37     ecut=    80.00 Ry     beta=0.70
     Davidson diagonalization with overlap
     c_bands:  1 eigenvalues not converged
     ethr =  1.21E-09,  avg # of iterations =  7.3

     negative rho (up, down):  1.620E-03 0.000E+00

     total cpu time spent up to now is    23562.5 secs

     total energy              =  -12782.00900882 Ry
     Harris-Foulkes estimate   =  -12782.00900856 Ry
     estimated scf accuracy    <       0.00000723 Ry

     iteration # 38     ecut=    80.00 Ry     beta=0.70
     Davidson diagonalization with overlap
     ethr =  5.53E-10,  avg # of iterations =  2.8

     negative rho (up, down):  1.592E-03 0.000E+00

     total cpu time spent up to now is    23960.7 secs

     total energy              =  -12782.00901113 Ry
     Harris-Foulkes estimate   =  -12782.00900960 Ry
     estimated scf accuracy    <       0.00000314 Ry

     iteration # 39     ecut=    80.00 Ry     beta=0.70
     Davidson diagonalization with overlap
     ethr =  2.40E-10,  avg # of iterations =  2.8

     negative rho (up, down):  1.731E-03 0.000E+00

     total cpu time spent up to now is    24353.8 secs

     total energy              =  -12782.00901169 Ry
     Harris-Foulkes estimate   =  -12782.00901148 Ry
     estimated scf accuracy    <       0.00000123 Ry

     iteration # 40     ecut=    80.00 Ry     beta=0.70
     Davidson diagonalization with overlap
     ethr =  9.42E-11,  avg # of iterations =  3.3

     negative rho (up, down):  1.818E-03 0.000E+00

     total cpu time spent up to now is    24770.9 secs

     total energy              =  -12782.00901201 Ry
     Harris-Foulkes estimate   =  -12782.00901183 Ry
     estimated scf accuracy    <       0.00000039 Ry

     iteration # 41     ecut=    80.00 Ry     beta=0.70
     Davidson diagonalization with overlap
     ethr =  2.98E-11,  avg # of iterations =  3.0

     negative rho (up, down):  1.834E-03 0.000E+00

     total cpu time spent up to now is    25164.4 secs

     total energy              =  -12782.00901213 Ry
     Harris-Foulkes estimate   =  -12782.00901205 Ry
     estimated scf accuracy    <       0.00000010 Ry

     iteration # 42     ecut=    80.00 Ry     beta=0.70
     Davidson diagonalization with overlap
     ethr =  7.95E-12,  avg # of iterations =  3.3

     negative rho (up, down):  1.801E-03 0.000E+00

     total cpu time spent up to now is    25584.4 secs

     total energy              =  -12782.00901216 Ry
     Harris-Foulkes estimate   =  -12782.00901214 Ry
     estimated scf accuracy    <       0.00000004 Ry

     iteration # 43     ecut=    80.00 Ry     beta=0.70
     Davidson diagonalization with overlap
     ethr =  2.90E-12,  avg # of iterations =  3.0

     negative rho (up, down):  1.794E-03 0.000E+00

     total cpu time spent up to now is    25989.6 secs

     total energy              =  -12782.00901214 Ry
     Harris-Foulkes estimate   =  -12782.00901216 Ry
     estimated scf accuracy    <       0.00000002 Ry

     iteration # 44     ecut=    80.00 Ry     beta=0.70
     Davidson diagonalization with overlap
     ethr =  1.60E-12,  avg # of iterations =  3.0

     negative rho (up, down):  1.815E-03 0.000E+00

     total cpu time spent up to now is    26372.6 secs

     End of self-consistent calculation

          k = 0.0000 0.0000 0.0000 (256287 PWs)   bands (ev):

   -23.4697 -22.2387 -16.2273 -15.8581 -15.8497 -14.7486 -14.7471 -14.2638
   -14.2630 -13.9039 -13.9034 -13.8964 -13.8950 -12.9494 -12.9460 -12.8322
   -12.8314 -12.8303 -12.8291 -11.1386 -11.1379 -11.1355 -11.1348 -10.9283
    -9.9341  -9.2524  -9.2503  -9.2493  -9.2488  -8.3758  -8.3733  -8.3707
    -8.3669  -7.6711  -7.3823  -7.3811  -7.3091  -7.3067  -7.3064  -7.3042
    -7.2913  -7.2905  -6.7959  -6.7693  -6.4402  -5.8799  -5.7524  -5.7491
    -5.7485  -5.7449  -5.5885  -5.5875  -5.5865  -5.5852  -5.3466  -5.3446
    -4.9449  -4.4655  -4.4560  -4.4385  -4.4371  -4.4317  -4.1096  -4.1086
    -3.9761  -3.9751  -3.8491  -3.8490  -3.2989  -3.2985  -3.2944  -3.2942
    -3.2686  -3.2678  -3.1488  -3.1355  -3.1339  -3.0896  -3.0871  -3.0402
    -2.8697  -2.8690  -2.8680  -2.8673  -2.7866  -2.7812  -2.6854  -2.6810
    -2.6004  -2.5977  -2.5374  -2.5318  -2.4797  -2.4782  -2.4778  -2.4766
    -2.2477  -2.2296  -2.2250  -2.2248  -2.1871  -2.1763  -2.0554  -2.0541
    -2.0437  -2.0287  -2.0142  -2.0141  -2.0140  -2.0138  -1.9009  -1.8993
    -1.8981  -1.8832  -1.8831  -1.8826  -1.8826  -1.8533  -1.8190  -1.7725
    -1.7721  -1.7023  -1.6389  -1.5993  -1.5993  -1.5991  -1.5990  -1.5493
    -1.5485  -1.5333  -1.5203  -1.5185  -1.4608  -1.4549  -1.4260  -1.4252
    -1.4245  -1.4229  -1.3917  -1.3915  -1.3913  -1.3898  -1.3773  -1.3757
    -1.2992  -1.2990  -1.2775  -1.2323  -1.2308  -1.2295  -1.2283  -1.2144
    -1.1605  -1.1257  -1.1246  -1.1235  -1.1195  -1.1124  -1.0731  -1.0729
    -1.0534  -1.0513  -1.0287  -1.0256  -0.9854  -0.9761  -0.9569  -0.9553
    -0.9544  -0.9528  -0.9087  -0.9056  -0.8943  -0.8853  -0.8849  -0.8844
    -0.8843  -0.8834  -0.8823  -0.8767  -0.8766  -0.8595  -0.8250  -0.8238
    -0.8132  -0.7897  -0.7889  -0.7846  -0.7799  -0.7792  -0.7786  -0.7197
    -0.7179  -0.7175  -0.7171  -0.7163  -0.7152  -0.7143  -0.7141  -0.7136
    -0.7098  -0.7098  -0.7092  -0.7070  -0.7038  -0.7038  -0.6900  -0.6898
    -0.6477  -0.6470  -0.6463  -0.6426  -0.6396  -0.5512  -0.5512  -0.5452
    -0.5448  -0.5203  -0.5193  -0.5030  -0.5030  -0.4806  -0.4805  -0.4651
    -0.4646  -0.4637  -0.4633  -0.4619  -0.4558  -0.4481  -0.4255  -0.4251
    -0.4228  -0.4224  -0.4149  -0.4141  -0.4029  -0.4026  -0.3537  -0.3535
    -0.2998  -0.2995  -0.2886  -0.2870  -0.2869  -0.2857  -0.2708  -0.2708
    -0.2655  -0.2655  -0.2652  -0.2651  -0.2616  -0.2614  -0.2462  -0.2462
    -0.2348  -0.2345  -0.2328  -0.2325  -0.2129  -0.2123  -0.1605  -0.1589
    -0.1577  -0.1522  -0.1520  -0.1256  -0.1255  -0.1245  -0.1244  -0.1070
    -0.1069  -0.1062  -0.1037  -0.1037  -0.0816  -0.0809  -0.0798  -0.0795
    -0.0748  -0.0747  -0.0737  -0.0735  -0.0717  -0.0687  -0.0508  -0.0501
    -0.0488  -0.0486  -0.0481  -0.0288   0.0195   0.0196   0.0215   0.0217
     0.0252   0.0710   0.0714   0.0717   0.0721   0.0768   0.0770   0.0771
     0.0773   0.0775   0.0932   0.0944   0.1300   0.1310   0.1324   0.1328
     0.1394   0.1614   0.1617   0.1620   0.1622   0.1659   0.1697   0.1851
     0.1856   0.1865   0.1872   0.1884   0.1886   0.2027   0.2029   0.2031
     0.2034   0.2166   0.2172   0.2180   0.2189   0.2406   0.2416   0.2451
     0.2479   0.2747   0.2751   0.3055   0.3060   0.3062   0.3066   0.3300
     0.3339   0.3762   0.3767   0.3789   0.3790   0.3794   0.3826   0.4114
     0.4124   0.4135   0.4145   0.4146   0.4158   0.4248   0.4249   0.4653
     0.4808   0.4808   0.4876   0.4887   0.4905   0.4906   0.4917   0.5162
     0.5235   0.5245   0.5245   0.5248   0.5562   0.5625   0.5629   0.5639
     0.5643   0.5779   0.5790   0.5797   0.5806   0.6196   0.6199   0.6351
     0.6353   0.6355   0.6374   0.6375   0.6503   0.6675   0.6707   0.6727
     0.6736   0.6741   0.6755   0.6756   0.6777   0.6808   0.6863   0.6866
     0.6939   0.6948   0.6951   0.6962   0.7045   0.7046   0.7348   0.7456
     0.7457   0.7568   0.7571   0.7895   0.7898   0.7900   0.7903   0.7929
     0.7931   0.7934   0.7935   0.8058   0.8063   0.8151   0.8190   0.8193
     0.8202   0.8226   0.8276   0.8277   0.8385   0.8389   0.8438   0.8607
     0.8611   0.8612   0.8617   0.8721   0.8724   0.8828   0.8866   0.8883
     0.8883   0.8932   0.8944   0.8955   0.8980   0.9086   0.9346   0.9402
     0.9418   0.9461   0.9462   0.9501   0.9578   0.9592   0.9641   0.9644
     0.9655   0.9665   0.9961   0.9966   1.0116   1.0124   1.0162   1.0162
     1.0311   1.0312   1.0403   1.0412   1.0413   1.0421   1.0488   1.0630
     1.0774   1.0790   1.0796   1.0819   1.0825   1.0835   1.1018   1.1073
     1.1174   1.1259   1.1260   1.1365   1.1515   1.1516   1.1530   1.1539
     1.1540   1.1564   1.1584   1.1645   1.1652   1.1690   1.1691   1.1695
     1.1702   1.1707   1.1757   1.1842   1.1843   1.2051   1.2051   1.2058
     1.2059   1.2136   1.2152   1.2452   1.2463   1.2506   1.2513   1.2521
     1.2522   1.2532   1.2544   1.2596   1.2597   1.2599   1.2601   1.2626
     1.2640   1.2762   1.2763   1.3114   1.3191   1.3245   1.3255   1.3427
     1.3438   1.3441   1.3455   1.3469   1.3475   1.3583   1.3682   1.3695
     1.3789   1.3803   1.3807   1.3814   1.3828   1.3837   1.3865   1.3871
     1.3872   1.3947   1.4145   1.4156   1.4169   1.4176   1.4179   1.4183
     1.4192   1.4194   1.4346   1.4355   1.4365   1.4437   1.4509   1.4510
     1.4519   1.4521   1.4553   1.4620   1.4658   1.4668   1.4845   1.4948
     1.4961   1.4970   1.4987   1.4991   1.5035   1.5041   1.5100   1.5225
     1.5237   1.5266   1.5293   1.5337   1.5434   1.5566   1.5568   1.5635
     1.5636   1.5746   1.5750   1.5751   1.5756   1.5757   1.5764   1.5765
     1.5774   1.5783   1.5787   1.5881   1.5883   1.5905   1.6079   1.6079
     1.6089   1.6089   1.6124   1.6214   1.6216   1.6536   1.6547   1.6551
     1.6582   1.6607   1.6979   1.6986   1.7028   1.7030   1.7192   1.7223
     1.7224   1.7287   1.7313   1.7455   1.7700   1.7733   1.7740   1.7749
     1.7755   1.7829   1.7839   1.7845   2.0403   2.0958   2.2516   2.2517
     2.2969   2.2991   2.3465   2.3469   2.3471   2.3474   2.3674   2.3677
     2.3680   2.3682   2.5454   2.5457   2.6095   2.6098   2.6104   2.6108
     2.6232   2.6234   2.8649   2.8657   2.8658   2.8662   3.2241   3.2428
     3.2487   3.2518   3.3186   3.6690   3.6693   3.9619   3.9623   3.9947
     3.9954   3.9964   3.9974   4.0458   4.1073   4.1315   4.1356   4.1478
     4.1485   4.1492   4.1496   4.1593   4.1616   4.2266   4.2345   4.3960
     4.3961   4.3979   4.3988   4.5529   4.7415   4.9042   5.1118   5.1159
     5.1412   5.1452   5.4467   5.5482   5.5577   5.5611   5.8600   5.8622
     5.8701   5.8730   6.0711   6.0735   6.4896   6.4967   6.5351   6.5513
     6.5654   6.6245   6.6251   6.6265   6.6355   6.7854   6.7865   6.7941
     6.7952   6.9529   6.9560   6.9563   6.9587   7.0335   7.0495   7.1948
     7.2216   7.2256   7.2289   7.2317   7.2382   7.4986   7.5011   7.6993
     7.7029   7.8386   7.8388   7.8506   7.8520   7.8769   8.0496   8.2751
     8.3452   8.3542   8.3614   8.4496   8.4602   8.4756   8.4759   8.5237
     8.5268   8.5725   8.5750   8.6912   8.7364   8.7499   8.7522   8.7566
     8.8020   8.8172   8.8174   8.8186   8.8384   8.8859   8.9717   8.9835
     8.9848   8.9859   9.0242   9.0512   9.2580   9.2601   9.2637   9.2665
     9.2764   9.2906   9.4744   9.4879   9.4903   9.5779   9.6513   9.6592
     9.6614   9.6817   9.7197   9.7200   9.9709  10.1547  10.1837  10.1840
    10.3871

          k = 0.0000-0.2165 0.0000 (256176 PWs)   bands (ev):

   -23.4697 -22.2387 -16.1464 -16.1205 -15.3929 -15.3895 -14.1848 -14.1845
   -14.1598 -14.1584 -13.9305 -13.9292 -13.4568 -13.4532 -13.4474 -13.4455
   -12.0596 -12.0592 -12.0451 -12.0433 -11.8340 -11.8252 -10.1453 -10.1447
   -10.1406 -10.1403  -8.9023  -8.8939  -8.7452  -8.7434  -8.7325  -8.7303
    -7.9120  -7.9090  -7.9084  -7.9058  -7.6700  -6.7993  -6.7726  -6.7383
    -6.7357  -6.7234  -6.7226  -6.5786  -6.5746  -6.5732  -6.5702  -6.4400
    -5.7602  -5.7598  -5.7453  -5.7447  -4.9275  -4.9236  -4.9137  -4.9097
    -4.8263  -4.8163  -4.6996  -4.6994  -4.3637  -4.3634  -4.3566  -4.3564
    -4.3267  -4.3156  -3.8679  -3.8676  -3.4159  -3.4150  -3.1650  -3.1641
    -3.1641  -3.1633  -3.0673  -3.0449  -2.9278  -2.9261  -2.8926  -2.8921
    -2.8122  -2.8099  -2.7982  -2.7970  -2.6205  -2.6204  -2.6167  -2.6152
    -2.5188  -2.5167  -2.4665  -2.4542  -2.4417  -2.4408  -2.4404  -2.4403
    -2.4374  -2.4373  -2.3476  -2.3460  -2.2137  -2.1892  -2.1522  -2.1234
    -2.1050  -2.1045  -2.0962  -2.0959  -2.0182  -2.0109  -2.0044  -2.0042
    -2.0041  -1.9864  -1.8491  -1.8486  -1.8486  -1.8265  -1.8228  -1.8228
    -1.7251  -1.7242  -1.6292  -1.6288  -1.6212  -1.6199  -1.6179  -1.6116
    -1.6115  -1.6106  -1.6027  -1.6026  -1.5849  -1.5842  -1.5072  -1.5069
    -1.4037  -1.4019  -1.4004  -1.3925  -1.3237  -1.3233  -1.3228  -1.3224
    -1.2371  -1.2364  -1.2323  -1.2321  -1.1784  -1.1781  -1.1403  -1.1397
    -1.1365  -1.1362  -1.1343  -1.1334  -1.1141  -1.1128  -1.1060  -1.1056
    -1.0912  -1.0896  -1.0844  -1.0841  -1.0717  -1.0714  -1.0042  -1.0033
    -1.0024  -1.0021  -0.9933  -0.9931  -0.9502  -0.9501  -0.9122  -0.9122
    -0.9090  -0.9089  -0.8655  -0.8639  -0.8455  -0.8449  -0.8446  -0.8437
    -0.8396  -0.8390  -0.7889  -0.7883  -0.7808  -0.7803  -0.7720  -0.7719
    -0.7586  -0.7583  -0.7572  -0.7570  -0.6894  -0.6886  -0.6800  -0.6798
    -0.6759  -0.6752  -0.6725  -0.6721  -0.6569  -0.6566  -0.6428  -0.6418
    -0.6162  -0.6161  -0.6106  -0.6104  -0.5169  -0.5166  -0.5155  -0.5150
    -0.4950  -0.4948  -0.4682  -0.4679  -0.4666  -0.4661  -0.4627  -0.4626
    -0.4360  -0.4355  -0.4032  -0.4026  -0.4021  -0.4015  -0.4005  -0.3993
    -0.3959  -0.3946  -0.3650  -0.3648  -0.3448  -0.3448  -0.3418  -0.3394
    -0.3087  -0.3082  -0.3076  -0.3070  -0.2981  -0.2976  -0.2960  -0.2955
    -0.2873  -0.2858  -0.2197  -0.2193  -0.2175  -0.2171  -0.1882  -0.1863
    -0.1639  -0.1639  -0.1573  -0.1565  -0.1552  -0.1547  -0.1355  -0.1309
    -0.1307  -0.1293  -0.1288  -0.1153  -0.1119  -0.1107  -0.1103  -0.1081
    -0.1074  -0.1070  -0.1067  -0.1049  -0.1041  -0.1041  -0.0934  -0.0926
    -0.0673  -0.0673  -0.0654  -0.0653  -0.0017  -0.0016  -0.0014  -0.0010
     0.0004   0.0074   0.0081   0.0101   0.0118   0.0119   0.0344   0.0363
     0.0394   0.0511   0.0532   0.0540   0.0544   0.0546   0.0549   0.0597
     0.0622   0.0623   0.0657   0.0657   0.0662   0.0669   0.1226   0.1231
     0.1259   0.1267   0.1442   0.1444   0.1461   0.1462   0.1492   0.1503
     0.1639   0.1672   0.1685   0.1695   0.1699   0.1702   0.1938   0.1980
     0.1989   0.2041   0.2150   0.2151   0.2152   0.2156   0.2331   0.2361
     0.2500   0.2501   0.2622   0.2624   0.2752   0.2759   0.2760   0.2766
     0.3184   0.3194   0.3228   0.3233   0.3352   0.3368   0.3402   0.3406
     0.3686   0.3689   0.4031   0.4035   0.4060   0.4079   0.4374   0.4409
     0.4922   0.4932   0.5253   0.5256   0.5264   0.5267   0.5531   0.5535
     0.5537   0.5541   0.5689   0.5734   0.5937   0.5940   0.5949   0.5950
     0.5967   0.5969   0.5971   0.5974   0.6024   0.6068   0.6177   0.6184
     0.6192   0.6194   0.6218   0.6227   0.6243   0.6257   0.6556   0.6559
     0.6675   0.6677   0.6682   0.6682   0.6758   0.6758   0.6952   0.6966
     0.6982   0.6984   0.6985   0.6990   0.6991   0.6994   0.7089   0.7129
     0.7196   0.7216   0.7223   0.7230   0.7230   0.7240   0.7256   0.7258
     0.7402   0.7428   0.7850   0.7854   0.7968   0.7970   0.8087   0.8091
     0.8094   0.8098   0.8154   0.8174   0.8175   0.8182   0.8227   0.8228
     0.8231   0.8232   0.8641   0.8643   0.8647   0.8655   0.8815   0.8815
     0.8837   0.8846   0.8850   0.8862   0.8987   0.8996   0.9145   0.9151
     0.9213   0.9217   0.9229   0.9231   0.9744   0.9751   1.0263   1.0264
     1.0327   1.0338   1.0343   1.0372   1.0439   1.0441   1.0505   1.0508
     1.0572   1.0577   1.0661   1.0662   1.0667   1.0668   1.0800   1.0801
     1.0816   1.0820   1.0821   1.0831   1.0956   1.0960   1.1062   1.1063
     1.1074   1.1088   1.1103   1.1106   1.1159   1.1162   1.1171   1.1184
     1.1289   1.1289   1.1329   1.1331   1.1333   1.1335   1.1512   1.1515
     1.1649   1.1655   1.1676   1.1684   1.1698   1.1703   1.1787   1.1787
     1.1797   1.1798   1.1798   1.1803   1.2287   1.2301   1.2593   1.2638
     1.2670   1.2671   1.2850   1.2851   1.2965   1.2975   1.2988   1.3001
     1.3102   1.3103   1.3262   1.3268   1.3335   1.3336   1.3385   1.3388
     1.3389   1.3394   1.3404   1.3406   1.3425   1.3430   1.3431   1.3436
     1.3501   1.3502   1.3647   1.3664   1.3712   1.3716   1.3722   1.3725
     1.3806   1.3817   1.4103   1.4104   1.4104   1.4106   1.4167   1.4172
     1.4193   1.4210   1.4371   1.4373   1.4383   1.4388   1.4513   1.4513
     1.4543   1.4553   1.4556   1.4557   1.4728   1.4729   1.4740   1.4742
     1.4924   1.4926   1.4950   1.4960   1.5127   1.5129   1.5195   1.5200
     1.5205   1.5210   1.5355   1.5357   1.5357   1.5358   1.5525   1.5530
     1.5666   1.5667   1.5678   1.5687   1.5867   1.5872   1.5896   1.5900
     1.5906   1.5906   1.5913   1.5918   1.6195   1.6196   1.6274   1.6277
     1.6353   1.6370   1.6476   1.6484   1.6602   1.6604   1.6607   1.6608
     1.6674   1.6694   1.6795   1.6815   1.7282   1.7287   1.7288   1.7292
     1.8314   1.8314   1.8569   1.8584   1.8777   1.8780   1.8784   1.8793
     1.9290   1.9290   1.9326   1.9344   1.9540   1.9546   1.9551   1.9556
     1.9926   1.9936   2.3019   2.3050   2.3066   2.3119   2.5593   2.5596
     2.5618   2.5621   2.6381   2.6384   2.7063   2.7066   2.7089   2.7096
     2.7213   2.7217   2.8498   2.8516   2.9061   2.9061   2.9235   2.9239
     3.0632   3.0641   3.3090   3.3090   3.3335   3.3341   3.5551   3.5574
     3.8120   3.8127   4.1250   4.1412   4.1520   4.1644   4.2255   4.2261
     4.2757   4.2804   4.2862   4.3174   4.4716   4.4720   4.4728   4.4735
     4.6455   4.6471   4.8331   4.8360   4.9168   4.9179   5.2304   5.2421
     5.2425   5.2442   5.4985   5.4994   5.5000   5.5011   5.5762   5.5849
     5.8166   5.8281   5.9688   5.9844   6.0318   6.0432   6.4658   6.5403
     6.5779   6.5798   6.5858   6.5875   6.6459   6.7014   6.7039   6.8076
     6.8085   6.9611   6.9632   7.1626   7.1795   7.1823   7.1984   7.2203
     7.2261   7.2648   7.2656   7.2770   7.2771   7.4872   7.4882   7.5493
     7.5540   7.5920   7.5943   7.7613   7.9228   7.9252   7.9604   7.9712
     8.2888   8.2892   8.3186   8.4796   8.4984   8.4986   8.5142   8.5835
     8.5879   8.5881   8.5906   8.6564   8.7202   8.7248   8.8566   8.8575
     8.8636   8.8641   8.9032   8.9064   9.0545   9.0751   9.0765   9.1673
     9.1684   9.2717   9.2947   9.2978   9.3469   9.3753   9.3875   9.4065
     9.4460   9.5226   9.5231   9.5273   9.5278   9.5332   9.5520   9.6349
     9.6372   9.6408   9.6700   9.8175   9.8180   9.9267   9.9273  10.0295
    10.1722

          k = 0.2500 0.0000 0.0000 (256240 PWs)   bands (ev):

   -23.4697 -22.2387 -16.1031 -15.7344 -15.7260 -15.1159 -14.7518 -14.7436
   -14.6268 -14.6254 -13.6616 -13.6602 -13.1867 -12.8356 -12.8316 -12.8295
   -12.8263 -11.9115 -11.9082 -11.8018 -11.8007 -10.8229 -10.5186 -10.5062
   -10.4883  -9.9814  -9.8292  -9.5292  -9.5283  -9.1289  -8.8738  -8.8729
    -8.3159  -7.6709  -7.3086  -7.3075  -7.3062  -7.3040  -7.1913  -7.1897
    -6.7961  -6.7703  -6.7259  -6.4553  -6.4394  -5.8868  -5.7001  -5.6901
    -5.6882  -5.6743  -5.6713  -5.1735  -5.1714  -4.9463  -4.9460  -4.7802
    -4.4434  -4.3275  -4.3043  -4.2975  -4.2788  -4.1310  -4.1298  -4.1094
    -4.1061  -3.8621  -3.8603  -3.8288  -3.8270  -3.7019  -3.7018  -3.6680
    -3.5249  -3.3806  -3.3802  -3.2994  -3.2974  -3.2968  -3.2930  -3.1909
    -3.1907  -3.1196  -3.1099  -3.0875  -2.9603  -2.9575  -2.9079  -2.8904
    -2.7332  -2.7262  -2.6608  -2.6607  -2.5797  -2.5742  -2.4814  -2.4788
    -2.2623  -2.2419  -2.2414  -2.1966  -2.1953  -2.0459  -2.0285  -1.9611
    -1.9609  -1.9447  -1.9431  -1.8669  -1.8628  -1.8003  -1.7892  -1.7732
    -1.7720  -1.7544  -1.7525  -1.6967  -1.6636  -1.6635  -1.6557  -1.6557
    -1.6357  -1.6071  -1.5877  -1.5762  -1.5755  -1.5569  -1.5520  -1.5081
    -1.5076  -1.4650  -1.4449  -1.4433  -1.4407  -1.4404  -1.4401  -1.4396
    -1.4201  -1.4180  -1.3866  -1.3811  -1.3658  -1.3639  -1.3521  -1.3505
    -1.2340  -1.1955  -1.1950  -1.1745  -1.1504  -1.1302  -1.1301  -1.1059
    -1.1046  -1.0995  -1.0891  -1.0884  -1.0750  -1.0742  -1.0696  -1.0467
    -1.0451  -1.0395  -1.0291  -0.9974  -0.9954  -0.9926  -0.9914  -0.9911
    -0.9892  -0.9745  -0.9725  -0.9458  -0.9366  -0.9093  -0.9090  -0.9079
    -0.9073  -0.9062  -0.9015  -0.8796  -0.8743  -0.8729  -0.8633  -0.8565
    -0.8564  -0.8425  -0.8423  -0.8420  -0.8419  -0.8377  -0.8372  -0.8256
    -0.8078  -0.8061  -0.8057  -0.7764  -0.7738  -0.7698  -0.7682  -0.7638
    -0.7621  -0.7572  -0.7490  -0.7449  -0.7143  -0.7137  -0.6778  -0.6778
    -0.6585  -0.6572  -0.6460  -0.6320  -0.6318  -0.6191  -0.6156  -0.6136
    -0.6113  -0.6039  -0.6027  -0.5836  -0.4623  -0.4616  -0.4594  -0.4579
    -0.4298  -0.4274  -0.4273  -0.4111  -0.4110  -0.4102  -0.4097  -0.3892
    -0.3888  -0.3882  -0.3881  -0.3742  -0.3739  -0.3472  -0.3460  -0.3456
    -0.3454  -0.3432  -0.3431  -0.3218  -0.3217  -0.3195  -0.2608  -0.2606
    -0.2605  -0.2575  -0.2528  -0.2508  -0.2416  -0.2347  -0.2343  -0.2325
    -0.2178  -0.2177  -0.1968  -0.1935  -0.1933  -0.1880  -0.1557  -0.1556
    -0.1530  -0.1530  -0.1417  -0.1417  -0.1314  -0.1265  -0.1264  -0.1159
    -0.1158  -0.0960  -0.0958  -0.0900  -0.0633  -0.0594  -0.0580  -0.0576
    -0.0567  -0.0422  -0.0412  -0.0410  -0.0405  -0.0230  -0.0125  -0.0123
    -0.0120  -0.0117   0.0002   0.0025   0.0249   0.0289   0.0289   0.0408
     0.0419   0.0733   0.0755   0.0772   0.0841   0.0859   0.0945   0.1213
     0.1214   0.1276   0.1281   0.1322   0.1350   0.1352   0.1407   0.1434
     0.1437   0.1450   0.1475   0.1479   0.1524   0.1711   0.1712   0.1732
     0.1739   0.1807   0.1808   0.1991   0.1991   0.2139   0.2152   0.2302
     0.2514   0.2530   0.2547   0.2558   0.2563   0.2564   0.2585   0.2757
     0.2795   0.2811   0.2816   0.2817   0.2821   0.3185   0.3185   0.3582
     0.3590   0.3938   0.3940   0.3944   0.4097   0.4111   0.4143   0.4148
     0.4170   0.4216   0.4218   0.4230   0.4266   0.4278   0.4358   0.4365
     0.4373   0.4463   0.4463   0.4500   0.4502   0.4615   0.4616   0.4660
     0.4687   0.4728   0.4756   0.4981   0.5005   0.5013   0.5396   0.5398
     0.5450   0.5561   0.5606   0.5652   0.5654   0.5830   0.5830   0.5842
     0.5873   0.5989   0.6019   0.6176   0.6201   0.6204   0.6243   0.6246
     0.6321   0.6324   0.6351   0.6353   0.6576   0.6648   0.6648   0.6829
     0.6832   0.6862   0.6870   0.6917   0.6922   0.6924   0.6956   0.6960
     0.7159   0.7193   0.7193   0.7320   0.7331   0.7334   0.7341   0.7364
     0.7504   0.7504   0.7542   0.7574   0.7576   0.7768   0.7773   0.7973
     0.7975   0.8043   0.8044   0.8098   0.8099   0.8130   0.8305   0.8418
     0.8452   0.8641   0.8690   0.8742   0.8804   0.8805   0.8842   0.8844
     0.8912   0.9054   0.9109   0.9142   0.9187   0.9191   0.9304   0.9316
     0.9432   0.9439   0.9444   0.9550   0.9639   0.9639   0.9659   0.9713
     0.9928   0.9946   0.9961   0.9965   1.0009   1.0193   1.0222   1.0313
     1.0326   1.0331   1.0337   1.0406   1.0429   1.0431   1.0449   1.0517
     1.0877   1.0893   1.0913   1.0951   1.0952   1.0978   1.1012   1.1086
     1.1104   1.1296   1.1318   1.1319   1.1324   1.1402   1.1411   1.1429
     1.1571   1.1572   1.1583   1.1586   1.1619   1.1620   1.1668   1.1685
     1.1694   1.1714   1.1727   1.1748   1.1817   1.1874   1.1999   1.2002
     1.2026   1.2088   1.2089   1.2121   1.2162   1.2167   1.2188   1.2305
     1.2308   1.2458   1.2479   1.2488   1.2496   1.2516   1.2622   1.2735
     1.2769   1.2772   1.2872   1.2873   1.2965   1.2971   1.2984   1.2994
     1.3092   1.3192   1.3242   1.3295   1.3324   1.3328   1.3501   1.3700
     1.3723   1.3794   1.3842   1.3850   1.3853   1.3933   1.3935   1.3949
     1.3952   1.4024   1.4130   1.4172   1.4173   1.4197   1.4198   1.4344
     1.4376   1.4388   1.4408   1.4413   1.4467   1.4523   1.4543   1.4547
     1.4570   1.4576   1.4643   1.4646   1.4661   1.4666   1.4728   1.4801
     1.4893   1.4913   1.4937   1.4968   1.4968   1.4995   1.5008   1.5200
     1.5203   1.5219   1.5284   1.5288   1.5448   1.5449   1.5525   1.5581
     1.5598   1.5630   1.5634   1.5666   1.5676   1.5678   1.5731   1.5748
     1.5754   1.5813   1.5819   1.5907   1.6041   1.6041   1.6057   1.6070
     1.6072   1.6105   1.6107   1.6231   1.6234   1.6330   1.6355   1.6462
     1.6467   1.6525   1.6528   1.6538   1.6596   1.6669   1.6868   1.6922
     1.7217   1.7223   1.7267   1.7639   1.7656   1.7693   1.7995   1.8180
     1.8244   1.8918   1.8977   1.9030   1.9031   1.9222   1.9385   1.9766
     2.0117   2.1462   2.1706   2.2127   2.2129   2.2286   2.2287   2.3055
     2.3326   2.3955   2.3980   2.7024   2.7053   2.7056   2.7088   3.1149
     3.1149   3.1558   3.3334   3.3336   3.3575   3.3575   3.4169   3.4250
     3.6073   3.6166   3.7261   3.7264   3.7714   3.7716   3.8427   3.8429
     3.8585   3.8603   3.8915   4.0125   4.0131   4.1127   4.1142   4.1522
     4.2188   4.2547   4.3359   4.3397   4.3422   4.4194   4.5250   4.5877
     4.6011   4.7931   4.9093   4.9739   4.9749   5.3053   5.3594   5.3595
     5.3703   5.4844   5.4870   5.5056   5.6107   5.6119   5.6476   5.7143
     5.7327   5.7460   5.8199   5.8343   5.8803   5.8821   5.9708   5.9731
     6.0237   6.0359   6.1485   6.1513   6.1996   6.2027   6.6628   6.7729
     6.8409   6.8422   6.8638   6.8944   6.9453   6.9599   6.9801   7.0259
     7.1276   7.1583   7.1790   7.1915   7.1918   7.2147   7.3979   7.3987
     7.4575   7.4594   7.6534   7.6617   7.6956   7.7096   7.8062   7.9105
     7.9162   7.9451   8.0256   8.1434   8.1533   8.2058   8.2061   8.2104
     8.3796   8.3967   8.4556   8.4568   8.4670   8.4722   8.5214   8.5501
     8.5586   8.5904   8.6442   8.7890   8.7893   9.0306   9.0577   9.0819
     9.1015   9.2071   9.2823   9.2998   9.3185   9.3345   9.3562   9.3773
     9.3899   9.4052   9.4212   9.5067   9.5298   9.5568   9.5581   9.5741
     9.6413   9.6944   9.7466   9.8438   9.8635   9.8637   9.9070  10.0947
    10.1512

          k = 0.2500-0.2165 0.0000 (256316 PWs)   bands (ev):

   -23.4697 -22.2387 -16.0223 -15.9964 -15.2700 -15.2666 -15.0360 -15.0104
   -14.2938 -14.2906 -13.8108 -13.8095 -13.1096 -13.0843 -12.8623 -12.8611
   -12.3960 -12.3929 -11.7222 -11.7134 -11.0965 -11.0960 -10.8429 -10.8343
   -10.4662 -10.4427  -9.4073  -9.4051  -8.8900  -8.8775  -8.8077  -8.7993
    -8.2471  -8.2375  -8.1530  -8.1518  -7.6700  -6.7965  -6.7702  -6.4415
    -6.4301  -6.4172  -6.4010  -6.3987  -6.2919  -6.2705  -6.0612  -6.0482
    -5.7200  -5.7196  -5.5671  -5.5666  -4.9235  -4.9229  -4.6643  -4.6531
    -4.5970  -4.5967  -4.5362  -4.5360  -4.2089  -4.2080  -4.1736  -4.1622
    -3.9661  -3.9528  -3.9124  -3.9121  -3.7220  -3.7209  -3.5853  -3.5625
    -3.4285  -3.4105  -3.3377  -3.3241  -3.3201  -3.3199  -3.2815  -3.2798
    -3.0050  -2.9906  -2.9765  -2.9757  -2.8461  -2.8445  -2.7846  -2.7830
    -2.7710  -2.7706  -2.6570  -2.6540  -2.6470  -2.6449  -2.3584  -2.3570
    -2.3302  -2.3158  -2.1767  -2.1760  -2.1235  -2.1063  -2.0471  -2.0394
    -2.0309  -2.0308  -2.0285  -2.0125  -1.8716  -1.8715  -1.8301  -1.8284
    -1.7745  -1.7563  -1.7185  -1.7056  -1.6783  -1.6769  -1.6749  -1.6748
    -1.6130  -1.6121  -1.5846  -1.5845  -1.5719  -1.5715  -1.5551  -1.5539
    -1.5391  -1.5388  -1.5381  -1.5380  -1.5301  -1.5299  -1.5226  -1.5214
    -1.4443  -1.4437  -1.3306  -1.3304  -1.2253  -1.2249  -1.2151  -1.2136
    -1.1916  -1.1914  -1.1393  -1.1387  -1.1288  -1.1246  -1.1245  -1.1182
    -1.1105  -1.1104  -1.1003  -1.1000  -1.0849  -1.0847  -1.0750  -1.0741
    -1.0625  -1.0623  -1.0582  -1.0579  -1.0498  -1.0482  -0.9927  -0.9923
    -0.9889  -0.9874  -0.9766  -0.9757  -0.9756  -0.9682  -0.9429  -0.9422
    -0.9363  -0.9350  -0.9009  -0.9009  -0.8880  -0.8878  -0.8854  -0.8846
    -0.8580  -0.8580  -0.8349  -0.8338  -0.8231  -0.8229  -0.8176  -0.8171
    -0.8106  -0.8105  -0.7859  -0.7852  -0.7647  -0.7645  -0.7306  -0.7291
    -0.7241  -0.7237  -0.6407  -0.6399  -0.6393  -0.6386  -0.6363  -0.6345
    -0.6240  -0.6214  -0.5829  -0.5828  -0.5815  -0.5784  -0.5739  -0.5739
    -0.5675  -0.5673  -0.5558  -0.5552  -0.5135  -0.5132  -0.5127  -0.5114
    -0.4761  -0.4755  -0.4284  -0.4275  -0.4265  -0.4260  -0.4103  -0.4096
    -0.3943  -0.3940  -0.3827  -0.3808  -0.3629  -0.3619  -0.3493  -0.3491
    -0.3170  -0.3166  -0.3099  -0.3081  -0.3054  -0.3041  -0.2691  -0.2691
    -0.2564  -0.2563  -0.2403  -0.2401  -0.2308  -0.2300  -0.2286  -0.2285
    -0.2235  -0.2229  -0.2174  -0.2171  -0.2126  -0.2125  -0.1996  -0.1967
    -0.1953  -0.1936  -0.1784  -0.1784  -0.1504  -0.1494  -0.1337  -0.1333
    -0.1180  -0.1174  -0.1010  -0.1009  -0.0887  -0.0885  -0.0781  -0.0778
    -0.0742  -0.0727  -0.0394  -0.0390  -0.0147  -0.0146   0.0219   0.0221
     0.0307   0.0308   0.0344   0.0354   0.0522   0.0522   0.0571   0.0619
     0.0695   0.0697   0.0844   0.0848   0.0896   0.0927   0.0968   0.0985
     0.1001   0.1006   0.1242   0.1257   0.1339   0.1348   0.1360   0.1368
     0.1384   0.1387   0.1407   0.1413   0.1473   0.1481   0.1711   0.1712
     0.1713   0.1713   0.2054   0.2056   0.2134   0.2134   0.2188   0.2192
     0.2388   0.2393   0.2527   0.2575   0.2718   0.2719   0.2795   0.2803
     0.2809   0.2886   0.2922   0.2926   0.2945   0.2959   0.3079   0.3086
     0.3163   0.3165   0.3441   0.3449   0.4094   0.4095   0.4200   0.4200
     0.4223   0.4226   0.4265   0.4268   0.4287   0.4290   0.4323   0.4332
     0.4547   0.4574   0.4592   0.4596   0.4716   0.4719   0.4725   0.4727
     0.4737   0.4740   0.5061   0.5080   0.5211   0.5217   0.5337   0.5348
     0.5430   0.5434   0.5844   0.5847   0.5899   0.5913   0.5964   0.5964
     0.5990   0.6019   0.6080   0.6082   0.6194   0.6199   0.6204   0.6207
     0.6210   0.6217   0.6522   0.6533   0.6579   0.6581   0.6745   0.6747
     0.7059   0.7060   0.7067   0.7079   0.7392   0.7403   0.7447   0.7455
     0.7478   0.7482   0.7486   0.7512   0.7541   0.7542   0.7651   0.7666
     0.7702   0.7713   0.7767   0.7769   0.7872   0.7890   0.8008   0.8008
     0.8072   0.8073   0.8104   0.8104   0.8203   0.8212   0.8276   0.8282
     0.8287   0.8291   0.8459   0.8461   0.8504   0.8505   0.8562   0.8563
     0.8593   0.8596   0.8616   0.8621   0.8962   0.8965   0.9075   0.9076
     0.9295   0.9349   0.9470   0.9474   0.9627   0.9628   0.9645   0.9645
     0.9700   0.9705   0.9931   0.9933   0.9938   0.9938   0.9956   0.9957
     1.0058   1.0065   1.0225   1.0229   1.0238   1.0242   1.0347   1.0350
     1.0449   1.0452   1.0679   1.0680   1.0921   1.0925   1.0973   1.0989
     1.1000   1.1010   1.1041   1.1048   1.1096   1.1112   1.1342   1.1355
     1.1426   1.1433   1.1581   1.1581   1.1691   1.1707   1.1774   1.1779
     1.2036   1.2057   1.2089   1.2092   1.2201   1.2202   1.2269   1.2270
     1.2292   1.2293   1.2305   1.2307   1.2351   1.2354   1.2451   1.2456
     1.2576   1.2578   1.2584   1.2585   1.2780   1.2781   1.3056   1.3057
     1.3108   1.3113   1.3148   1.3154   1.3168   1.3175   1.3243   1.3249
     1.3305   1.3314   1.3350   1.3354   1.3412   1.3415   1.3425   1.3434
     1.3512   1.3517   1.3609   1.3611   1.3635   1.3636   1.3651   1.3652
     1.3782   1.3783   1.3852   1.3853   1.4099   1.4100   1.4180   1.4183
     1.4335   1.4340   1.4367   1.4370   1.4503   1.4504   1.4596   1.4606
     1.4621   1.4623   1.4709   1.4712   1.4754   1.4770   1.4870   1.4871
     1.4882   1.4884   1.5003   1.5006   1.5131   1.5136   1.5214   1.5215
     1.5215   1.5216   1.5267   1.5272   1.5323   1.5324   1.5456   1.5457
     1.5503   1.5505   1.5604   1.5626   1.5660   1.5674   1.5738   1.5748
     1.5770   1.5772   1.5827   1.5830   1.5844   1.5844   1.5914   1.5931
     1.5936   1.5937   1.6183   1.6184   1.6250   1.6262   1.6413   1.6414
     1.6606   1.6612   1.6671   1.6677   1.6902   1.6902   1.6970   1.6974
     1.7224   1.7226   1.7747   1.7847   1.7887   1.7913   1.8052   1.8053
     1.8904   1.8909   1.9066   1.9075   1.9245   1.9262   1.9279   1.9283
     1.9610   1.9747   1.9836   1.9857   2.2654   2.2659   2.2984   2.2985
     2.4264   2.4276   2.7229   2.7230   2.9267   2.9269   2.9276   2.9277
     2.9429   2.9433   2.9767   2.9769   3.1229   3.1230   3.2195   3.2233
     3.6757   3.6788   3.7506   3.7511   3.8149   3.8169   3.9768   3.9773
     3.9862   3.9866   4.1318   4.1335   4.1933   4.2005   4.2197   4.2259
     4.3007   4.3016   4.5136   4.5138   4.5283   4.5468   4.6914   4.6930
     4.8032   4.8066   4.8676   4.8796   4.9424   4.9449   5.0736   5.0745
     5.1610   5.1622   5.2899   5.3054   5.4199   5.4225   5.5808   5.5840
     5.5967   5.5977   5.6215   5.6279   5.9001   5.9006   6.0303   6.0316
     6.0910   6.1017   6.1844   6.1907   6.6169   6.7322   6.7339   6.7655
     6.8064   6.8893   6.8911   7.0007   7.0039   7.1857   7.1965   7.2259
     7.2308   7.2336   7.2344   7.3141   7.3164   7.3548   7.3578   7.4676
     7.4710   7.4785   7.4804   7.5401   7.5662   7.5777   7.5781   7.8100
     7.8176   7.9265   7.9367   7.9369   8.1250   8.1317   8.3313   8.3323
     8.3658   8.3886   8.3993   8.6299   8.6330   8.6455   8.6862   8.7289
     8.7295   8.7803   8.7854   8.7870   8.8468   8.8511   8.9109   9.0611
     9.0654   9.0909   9.0914   9.2237   9.2425   9.2806   9.2812   9.3182
     9.3189   9.3517   9.3564   9.4100   9.4116   9.4906   9.4937   9.4985
     9.5006   9.5127   9.5967   9.6103   9.6814   9.7001   9.8692  10.0291
    10.0539

          k =-0.5000 0.0000 0.0000 (256496 PWs)   bands (ev):

   -23.4697 -22.2387 -15.7351 -15.7278 -15.3689 -15.3599 -15.3577 -15.3543
   -14.2668 -14.2645 -14.2598 -14.2588 -12.4878 -12.4835 -12.4807 -12.4783
   -11.9106 -11.9102 -11.5825 -11.5818 -11.5745 -11.5743 -10.9289 -10.9286
   -10.5097 -10.5039  -9.9332  -9.9331  -9.5327  -9.5267  -8.6923  -8.6917
    -8.6869  -8.6863  -7.6705  -7.1897  -7.1897  -7.1259  -7.1249  -7.1207
    -7.1193  -6.7948  -6.7698  -6.4408  -5.6760  -5.6758  -5.1708  -5.1704
    -4.9487  -4.9445  -4.6652  -4.6649  -4.6634  -4.6629  -4.5328  -4.5277
    -4.5252  -4.5225  -4.4419  -4.4405  -4.4396  -4.4381  -4.2989  -4.2961
    -4.1504  -4.1500  -4.1439  -4.1437  -3.8487  -3.8439  -3.8405  -3.8380
    -3.8180  -3.8163  -3.3994  -3.3986  -3.3972  -3.3937  -3.2812  -3.2809
    -3.2807  -3.2805  -3.1481  -3.1478  -3.1348  -3.1339  -3.1333  -3.1319
    -2.6144  -2.6097  -2.6062  -2.6048  -2.5459  -2.5429  -2.5422  -2.5415
    -2.4666  -2.4659  -2.3012  -2.2724  -2.2664  -2.2648  -2.1633  -2.1615
    -2.1604  -2.1596  -2.0270  -1.9957  -1.7413  -1.7412  -1.7406  -1.7406
    -1.7387  -1.7384  -1.6135  -1.6132  -1.6127  -1.6108  -1.5124  -1.5123
    -1.5122  -1.5120  -1.4645  -1.4643  -1.4633  -1.4631  -1.4234  -1.4194
    -1.3656  -1.3651  -1.3493  -1.3493  -1.2876  -1.2874  -1.2871  -1.2868
    -1.2685  -1.2683  -1.2290  -1.2270  -1.2262  -1.2253  -1.2195  -1.2193
    -1.2162  -1.2162  -1.2033  -1.2030  -1.2013  -1.2010  -1.1973  -1.1970
    -1.1535  -1.1534  -1.1520  -1.1518  -1.1301  -1.1300  -1.1292  -1.1291
    -1.0661  -1.0660  -1.0450  -1.0449  -1.0439  -1.0437  -1.0142  -1.0139
    -1.0136  -1.0130  -1.0115  -1.0112  -1.0106  -1.0105  -0.9694  -0.9694
    -0.9683  -0.9683  -0.9480  -0.9478  -0.9175  -0.9174  -0.8710  -0.8709
    -0.8431  -0.8430  -0.8414  -0.8414  -0.8140  -0.8137  -0.8134  -0.8132
    -0.8046  -0.8035  -0.8033  -0.8029  -0.7933  -0.7929  -0.7907  -0.7905
    -0.7744  -0.7708  -0.7638  -0.7634  -0.7020  -0.7019  -0.6999  -0.6997
    -0.6563  -0.6560  -0.5735  -0.5734  -0.5730  -0.5729  -0.5372  -0.5364
    -0.5345  -0.5344  -0.5337  -0.5336  -0.5250  -0.5229  -0.5165  -0.5155
    -0.4928  -0.4925  -0.4904  -0.4904  -0.4764  -0.4761  -0.4591  -0.4590
    -0.4579  -0.4572  -0.3631  -0.3608  -0.3598  -0.3592  -0.3262  -0.3255
    -0.3251  -0.3247  -0.3175  -0.3173  -0.2682  -0.2672  -0.2670  -0.2668
    -0.2666  -0.2663  -0.2650  -0.2645  -0.2336  -0.2335  -0.2293  -0.2292
    -0.2284  -0.2283  -0.1903  -0.1903  -0.1896  -0.1894  -0.1567  -0.1566
    -0.1565  -0.1565  -0.1454  -0.1454  -0.1123  -0.1123  -0.1109  -0.1109
    -0.0969  -0.0957  -0.0951  -0.0947  -0.0673  -0.0666  -0.0568  -0.0560
     0.0035   0.0036   0.0046   0.0047   0.0104   0.0105   0.0114   0.0115
     0.0509   0.0511   0.0531   0.0534   0.0868   0.0871   0.1141   0.1143
     0.1162   0.1163   0.1179   0.1181   0.1185   0.1186   0.1197   0.1197
     0.1198   0.1199   0.1741   0.1759   0.2007   0.2012   0.2065   0.2067
     0.2079   0.2081   0.2110   0.2111   0.2112   0.2114   0.2175   0.2175
     0.2196   0.2197   0.2245   0.2249   0.2298   0.2302   0.2421   0.2421
     0.2561   0.2561   0.2565   0.2567   0.2568   0.2568   0.2671   0.2671
     0.2674   0.2675   0.2807   0.2808   0.2929   0.2929   0.2932   0.2933
     0.2987   0.2991   0.3223   0.3225   0.4089   0.4130   0.4255   0.4256
     0.4280   0.4281   0.4316   0.4319   0.4591   0.4593   0.4607   0.4607
     0.4734   0.4739   0.4795   0.4796   0.4835   0.4836   0.4865   0.4867
     0.4909   0.4912   0.4915   0.4917   0.4933   0.4935   0.5062   0.5062
     0.5247   0.5252   0.5285   0.5287   0.5298   0.5301   0.5346   0.5346
     0.5432   0.5433   0.5982   0.5985   0.6309   0.6309   0.6329   0.6331
     0.6437   0.6439   0.6634   0.6636   0.6665   0.6668   0.6694   0.6697
     0.6701   0.6703   0.6727   0.6729   0.6747   0.6751   0.6766   0.6767
     0.6850   0.6852   0.6857   0.6859   0.7086   0.7087   0.7236   0.7237
     0.7454   0.7458   0.7582   0.7584   0.7600   0.7608   0.7627   0.7629
     0.7698   0.7700   0.7706   0.7709   0.7735   0.7736   0.7891   0.7892
     0.7925   0.7926   0.8088   0.8088   0.8093   0.8098   0.8456   0.8457
     0.8457   0.8460   0.8473   0.8478   0.8658   0.8658   0.9016   0.9018
     0.9069   0.9070   0.9074   0.9074   0.9083   0.9084   0.9537   0.9549
     0.9757   0.9757   0.9793   0.9794   0.9803   0.9803   0.9873   0.9873
     0.9922   0.9925   0.9943   0.9944   1.0052   1.0056   1.0245   1.0246
     1.0265   1.0265   1.0445   1.0450   1.0452   1.0454   1.0460   1.0462
     1.0481   1.0484   1.0861   1.0861   1.0866   1.0868   1.1479   1.1500
     1.1523   1.1523   1.1532   1.1532   1.1868   1.1869   1.1872   1.1872
     1.1961   1.1962   1.2075   1.2075   1.2165   1.2166   1.2313   1.2313
     1.2381   1.2385   1.2531   1.2533   1.2562   1.2562   1.2570   1.2571
     1.2642   1.2643   1.2656   1.2657   1.2746   1.2746   1.2765   1.2768
     1.2775   1.2778   1.2797   1.2799   1.3152   1.3153   1.3153   1.3154
     1.3455   1.3459   1.3524   1.3526   1.3527   1.3528   1.3542   1.3546
     1.3709   1.3711   1.3806   1.3807   1.3812   1.3812   1.3919   1.3920
     1.3925   1.3926   1.4002   1.4005   1.4165   1.4176   1.4215   1.4221
     1.4388   1.4390   1.4543   1.4544   1.4548   1.4549   1.4551   1.4551
     1.4575   1.4577   1.4686   1.4687   1.4697   1.4697   1.4710   1.4712
     1.4714   1.4714   1.4801   1.4802   1.4818   1.4818   1.4825   1.4825
     1.4897   1.4899   1.5040   1.5041   1.5244   1.5249   1.5257   1.5263
     1.5320   1.5322   1.5335   1.5336   1.5497   1.5498   1.5531   1.5531
     1.5689   1.5689   1.5758   1.5759   1.5881   1.5881   1.5884   1.5884
     1.6080   1.6081   1.6106   1.6109   1.6185   1.6192   1.6192   1.6193
     1.6197   1.6198   1.6334   1.6339   1.6391   1.6392   1.6526   1.6527
     1.6530   1.6530   1.6659   1.6665   1.6732   1.6745   1.7179   1.7180
     1.7466   1.7466   1.7508   1.7510   1.7791   1.7821   2.1714   2.1718
     2.1723   2.1727   2.3744   2.3747   2.3944   2.3954   2.4235   2.4236
     2.4307   2.4308   2.7578   2.7591   2.7613   2.7625   2.9694   2.9695
     2.9747   2.9750   3.3228   3.3230   3.3259   3.3260   3.6102   3.6105
     3.8985   3.8988   3.9003   3.9006   4.0594   4.0606   4.0646   4.0648
     4.1996   4.2090   4.2112   4.2134   4.2165   4.2292   4.3297   4.3327
     4.5975   4.6051   4.7190   4.7228   4.8889   4.8913   4.8969   4.8988
     4.9633   4.9635   5.0100   5.0105   5.1585   5.1589   5.1845   5.1847
     5.1896   5.1900   5.2144   5.2148   5.2353   5.2360   5.3244   5.3249
     5.3413   5.3439   5.6810   5.6825   5.6913   5.6930   5.8059   5.8143
     6.0530   6.0551   6.1315   6.1320   6.1433   6.1444   6.1812   6.1819
     6.1899   6.1916   6.5414   6.5796   6.5818   6.6046   6.6493   6.6610
     6.6654   6.6717   6.8719   7.2384   7.2390   7.2532   7.2548   7.2712
     7.2724   7.7308   7.7316   7.7389   7.7393   7.7396   7.7402   7.7768
     7.7779   7.9550   7.9553   8.0278   8.0284   8.0306   8.0315   8.1339
     8.1995   8.2000   8.2031   8.2047   8.2739   8.2778   8.2794   8.2828
     8.5195   8.6615   8.6952   8.7395   8.9684   8.9693   8.9737   8.9754
     9.0344   9.0543   9.2129   9.2135   9.2181   9.2188   9.3997   9.4002
     9.4684   9.5618   9.5668   9.5701   9.6385   9.6404   9.6440   9.6530
     9.6541   9.6657   9.6673   9.6693   9.6722   9.6811   9.6836   9.7415
     9.7685

          k =-0.5000-0.2165 0.0000 (256328 PWs)   bands (ev):

   -23.4697 -22.2387 -15.6571 -15.6452 -15.6258 -15.6242 -14.9062 -14.9014
   -14.8983 -14.8965 -13.4565 -13.4547 -13.4497 -13.4489 -11.8384 -11.8376
   -11.8130 -11.8128 -11.3929 -11.3848 -11.3819 -11.3779 -11.2122 -11.2108
   -11.1974 -11.1964  -9.5131  -9.5126  -9.4986  -9.4981  -8.5490  -8.5429
    -8.5364  -8.5309  -7.7825  -7.7812  -7.7687  -7.7677  -7.6682  -6.7952
    -6.7700  -6.4408  -5.7010  -5.7008  -5.6970  -5.6964  -5.0815  -5.0805
    -5.0687  -5.0677  -5.0423  -5.0417  -5.0414  -5.0413  -4.8585  -4.8524
    -4.8307  -4.8288  -4.1917  -4.1881  -4.1724  -4.1700  -4.0597  -4.0595
    -4.0593  -4.0590  -3.9765  -3.9746  -3.9732  -3.9719  -3.7221  -3.7211
    -3.7092  -3.7076  -3.4353  -3.4345  -3.4245  -3.4240  -3.4237  -3.4233
    -3.4141  -3.4137  -3.2986  -3.2978  -3.2941  -3.2918  -2.9044  -2.9002
    -2.8977  -2.8951  -2.4412  -2.4409  -2.4409  -2.4405  -2.3844  -2.3842
    -2.3831  -2.3823  -2.1008  -2.1000  -2.0992  -2.0987  -2.0521  -2.0309
    -1.9555  -1.9550  -1.9549  -1.9509  -1.8760  -1.8755  -1.8749  -1.8711
    -1.8020  -1.7969  -1.7874  -1.7867  -1.6652  -1.6650  -1.6641  -1.6638
    -1.5677  -1.5639  -1.5625  -1.5538  -1.3555  -1.3554  -1.3553  -1.3553
    -1.3464  -1.3438  -1.3425  -1.3373  -1.3151  -1.3147  -1.3144  -1.3137
    -1.2948  -1.2947  -1.2945  -1.2942  -1.2463  -1.2462  -1.2460  -1.2460
    -1.2443  -1.2442  -1.2433  -1.2432  -1.2200  -1.2200  -1.2199  -1.2198
    -1.1697  -1.1695  -1.1691  -1.1688  -1.0932  -1.0930  -1.0925  -1.0920
    -1.0527  -1.0527  -1.0520  -1.0518  -1.0332  -1.0329  -1.0328  -1.0327
    -0.9827  -0.9826  -0.9826  -0.9825  -0.9770  -0.9769  -0.9768  -0.9768
    -0.9476  -0.9470  -0.9469  -0.9458  -0.9197  -0.9194  -0.9181  -0.9179
    -0.9026  -0.9023  -0.9012  -0.9011  -0.8987  -0.8986  -0.8982  -0.8979
    -0.8166  -0.8136  -0.7974  -0.7953  -0.7443  -0.7438  -0.7432  -0.7428
    -0.7146  -0.7146  -0.7144  -0.7144  -0.6318  -0.6313  -0.6309  -0.6307
    -0.6273  -0.6269  -0.6266  -0.6260  -0.6226  -0.6226  -0.6224  -0.6224
    -0.5615  -0.5615  -0.5613  -0.5610  -0.5502  -0.5498  -0.5494  -0.5489
    -0.5296  -0.5292  -0.5277  -0.5275  -0.4343  -0.4338  -0.4312  -0.4312
    -0.4277  -0.4276  -0.4269  -0.4269  -0.3597  -0.3595  -0.3593  -0.3590
    -0.3097  -0.3097  -0.3094  -0.3093  -0.2893  -0.2890  -0.2885  -0.2883
    -0.2620  -0.2619  -0.2601  -0.2599  -0.2501  -0.2499  -0.2494  -0.2492
    -0.2083  -0.2077  -0.2076  -0.2069  -0.1353  -0.1352  -0.1341  -0.1340
    -0.1186  -0.1186  -0.1181  -0.1181  -0.1016  -0.1015  -0.1011  -0.1009
    -0.0188  -0.0186  -0.0184  -0.0183  -0.0141  -0.0139  -0.0138  -0.0137
    -0.0106  -0.0105  -0.0104  -0.0103   0.0271   0.0272   0.0272   0.0273
     0.0397   0.0398   0.0403   0.0405   0.0434   0.0435   0.0436   0.0437
     0.1129   0.1130   0.1140   0.1142   0.1380   0.1383   0.1397   0.1400
     0.1884   0.1888   0.1927   0.1935   0.2025   0.2049   0.2142   0.2146
     0.2204   0.2206   0.2219   0.2221   0.2274   0.2277   0.2294   0.2294
     0.2315   0.2320   0.2335   0.2339   0.2405   0.2406   0.2414   0.2415
     0.2461   0.2463   0.2464   0.2465   0.2628   0.2629   0.2630   0.2631
     0.2911   0.2912   0.2913   0.2913   0.3009   0.3011   0.3012   0.3014
     0.3498   0.3499   0.3504   0.3505   0.3828   0.3829   0.3829   0.3831
     0.4438   0.4517   0.4598   0.4600   0.4666   0.4677   0.4685   0.4689
     0.4832   0.4837   0.4847   0.4847   0.4985   0.4987   0.4991   0.5004
     0.5015   0.5021   0.5028   0.5032   0.5080   0.5081   0.5109   0.5112
     0.5176   0.5185   0.5210   0.5219   0.5386   0.5416   0.5485   0.5498
     0.5932   0.5935   0.5937   0.5941   0.5978   0.5979   0.5989   0.5991
     0.6090   0.6091   0.6093   0.6095   0.6476   0.6477   0.6492   0.6494
     0.6497   0.6502   0.6503   0.6504   0.6937   0.6939   0.6950   0.6951
     0.7066   0.7068   0.7073   0.7074   0.7107   0.7114   0.7129   0.7133
     0.7154   0.7155   0.7160   0.7161   0.7312   0.7314   0.7321   0.7323
     0.7478   0.7484   0.7487   0.7489   0.8172   0.8177   0.8191   0.8194
     0.8220   0.8220   0.8226   0.8227   0.8312   0.8313   0.8322   0.8327
     0.8489   0.8503   0.8541   0.8549   0.8681   0.8683   0.8689   0.8691
     0.8713   0.8714   0.8722   0.8723   0.9220   0.9222   0.9239   0.9243
     0.9514   0.9514   0.9517   0.9517   0.9725   0.9739   0.9770   0.9774
     0.9870   0.9872   0.9877   0.9878   1.0113   1.0113   1.0135   1.0137
     1.0648   1.0649   1.0653   1.0655   1.0982   1.0983   1.0996   1.0997
     1.1520   1.1522   1.1528   1.1529   1.1662   1.1662   1.1680   1.1682
     1.1793   1.1794   1.1795   1.1798   1.1840   1.1841   1.1842   1.1843
     1.1873   1.1874   1.1888   1.1889   1.2132   1.2144   1.2163   1.2165
     1.2188   1.2188   1.2205   1.2211   1.2213   1.2222   1.2238   1.2241
     1.2380   1.2385   1.2391   1.2394   1.2622   1.2623   1.2628   1.2629
     1.2732   1.2733   1.2741   1.2742   1.2830   1.2830   1.2832   1.2833
     1.3335   1.3338   1.3341   1.3342   1.3353   1.3355   1.3402   1.3406
     1.3618   1.3618   1.3618   1.3619   1.3772   1.3773   1.3809   1.3810
     1.3964   1.3968   1.3991   1.3992   1.4103   1.4104   1.4107   1.4108
     1.4190   1.4191   1.4204   1.4205   1.4264   1.4265   1.4266   1.4266
     1.4925   1.4927   1.4933   1.4934   1.4943   1.4943   1.4947   1.4947
     1.5039   1.5039   1.5046   1.5050   1.5128   1.5130   1.5132   1.5133
     1.5210   1.5211   1.5219   1.5220   1.5272   1.5273   1.5280   1.5282
     1.5342   1.5342   1.5348   1.5349   1.5449   1.5453   1.5466   1.5467
     1.5556   1.5557   1.5562   1.5562   1.5882   1.5882   1.5883   1.5884
     1.6028   1.6029   1.6040   1.6041   1.6188   1.6190   1.6205   1.6206
     1.6406   1.6407   1.6411   1.6412   1.6933   1.6939   1.6962   1.6964
     1.7128   1.7129   1.7135   1.7135   1.7432   1.7433   1.7446   1.7448
     1.7507   1.7510   1.7514   1.7517   1.7559   1.7561   1.7565   1.7566
     1.9746   1.9748   1.9753   1.9754   2.4816   2.4821   2.4858   2.4870
     2.6971   2.6971   2.6994   2.6995   2.9355   2.9358   2.9362   2.9365
     3.2328   3.2333   3.2343   3.2348   3.5915   3.5916   3.5918   3.5919
     3.7801   3.7801   3.7827   3.7829   4.0671   4.0672   4.0679   4.0680
     4.2134   4.2227   4.3654   4.3656   4.3674   4.3675   4.4729   4.4744
     4.4813   4.4835   4.7004   4.7018   4.7025   4.7048   4.7352   4.7383
     4.7473   4.7483   5.0297   5.0328   5.0464   5.0477   5.2055   5.2111
     5.2342   5.2372   5.3151   5.3153   5.3206   5.3211   5.4479   5.4502
     5.4627   5.4713   5.4942   5.4962   5.4977   5.4990   5.8717   5.8762
     5.8839   5.8849   5.8878   5.8894   5.8992   5.9009   6.0109   6.0308
     6.0348   6.0356   6.8032   6.9182   6.9183   6.9274   6.9279   7.2624
     7.2629   7.2681   7.2686   7.2969   7.2972   7.2975   7.2979   7.4175
     7.4194   7.4240   7.4413   7.5058   7.5059   7.5062   7.5064   7.7596
     7.7604   7.7622   7.7651   8.1150   8.1168   8.1179   8.1215   8.1734
     8.1912   8.1952   8.1966   8.1996   8.3826   8.3846   8.3914   8.3920
     8.4237   8.4250   8.9303   9.0356   9.0358   9.0363   9.0366   9.0504
     9.0514   9.0606   9.0943   9.1083   9.1084   9.1089   9.1093   9.1623
     9.1690   9.2014   9.2018   9.3017   9.3036   9.3790   9.6150   9.6749
     9.6764   9.6954   9.6960   9.7148   9.7165   9.7201   9.7210   9.8059
     9.9905

     the Fermi energy is     3.4611 ev

!    total energy              =  -12782.00901213 Ry
     Harris-Foulkes estimate   =  -12782.00901215 Ry
     estimated scf accuracy    <          8.0E-09 Ry

     The total energy is the sum of the following terms:

     one-electron contribution = -107152.51988402 Ry
     hartree contribution      =   54951.41490224 Ry
     xc contribution           =   -4465.03226252 Ry
     ewald contribution        =   43890.54314190 Ry
     Dispersion Correction     =      -3.00498561 Ry
     smearing contrib. (-TS)   =      -3.40992411 Ry

     convergence has been achieved in  44 iterations

     Writing output data file gc.save
 
     init_run     :    194.94s CPU    208.46s WALL (       1 calls)
     electrons    :  24604.24s CPU  26163.54s WALL (       1 calls)

     Called by init_run:
     wfcinit      :    192.06s CPU    204.83s WALL (       1 calls)
     potinit      :      0.99s CPU      1.05s WALL (       1 calls)

     Called by electrons:
     c_bands      :  22409.23s CPU  23797.96s WALL (      44 calls)
     sum_band     :   1765.46s CPU   1871.03s WALL (      44 calls)
     v_of_rho     :      5.62s CPU      7.13s WALL (      45 calls)
     newd         :     15.91s CPU     29.13s WALL (      45 calls)
     mix_rho      :    407.97s CPU    457.88s WALL (      44 calls)

     Called by c_bands:
     init_us_2    :     82.16s CPU     83.45s WALL (     534 calls)
     cegterg      :  22075.47s CPU  23449.64s WALL (     270 calls)

     Called by sum_band:
     sum_band:bec :      5.01s CPU      5.57s WALL (     264 calls)
     addusdens    :     22.79s CPU     34.84s WALL (      44 calls)

     Called by *egterg:
     h_psi        :   8016.46s CPU   8622.83s WALL (    1910 calls)
     s_psi        :   1972.93s CPU   1985.15s WALL (    1910 calls)
     g_psi        :     20.55s CPU     20.57s WALL (    1634 calls)
     cdiaghg      :   6372.46s CPU   6686.01s WALL (    1898 calls)

     Called by h_psi:
     add_vuspsi   :   1977.12s CPU   1990.97s WALL (    1910 calls)

     General routines
     calbec       :   2739.22s CPU   2759.72s WALL (    2174 calls)
     fft          :      4.88s CPU      5.96s WALL (     584 calls)
     ffts         :    177.24s CPU    213.81s WALL (   25417 calls)
     fftw         :   3971.97s CPU   4577.69s WALL ( 1291500 calls)
     davcio       :      0.20s CPU      8.69s WALL (       6 calls)
 
     Parallel routines
     fft_scatter  :   2097.05s CPU   2390.16s WALL ( 1317501 calls)
 
     PWSCF        :     6h53m CPU        7h19m WALL

 
   This run was terminated on:   2:26:40  15Sep2017            

=------------------------------------------------------------------------------=
   JOB DONE.
=------------------------------------------------------------------------------=
